<event>
 4    1  0.1762274E-004  0.2638045E+03  0.7818608E-02  0.1104879E+00
          2   -1    0    0  501    0  0.00000000000E+00  0.00000000000E+00  0.12291465563E+03  0.12291465563E+03  0.00000000000E+00 0.  1.
         -2   -1    0    0    0  501 -0.00000000000E+00 -0.00000000000E+00 -0.14154698513E+03  0.14154698513E+03  0.00000000000E+00 0.  1.
         25    1    1    2    0    0  0.54703454449E+02 -0.23512925897E+01 -0.97672045162E+01  0.13226259785E+03  0.12000000000E+03 0.  0.
         25    1    1    2    0    0 -0.54703454449E+02  0.23512925897E+01 -0.88651249904E+01  0.13219904291E+03  0.12000000000E+03 0.  0.
<mgrwt>
<rscale>  0 0.26380446E+03</rscale>
<asrwt>0</asrwt>
<pdfrwt beam="1">  1        2 0.18909947E-01 0.26380446E+03</pdfrwt>
<pdfrwt beam="2">  1       -2 0.21776459E-01 0.26380446E+03</pdfrwt>
<totfact> 0.53240088E+03</totfact>
</mgrwt>
</event>
<event>
 4    1  0.1762274E-004  0.2638707E+03  0.7818608E-02  0.1104840E+00
         -1   -1    0    0    0  501 -0.00000000000E+00  0.00000000000E+00  0.91579620865E+02  0.91579620865E+02  0.00000000000E+00 0. -1.
          1   -1    0    0  501    0  0.00000000000E+00 -0.00000000000E+00 -0.19007435040E+03  0.19007435040E+03  0.00000000000E+00 0. -1.
         25    1    1    2    0    0 -0.31023408656E+02 -0.12723690237E+02 -0.29343664379E+01  0.12463127490E+03  0.12000000000E+03 0.  0.
         25    1    1    2    0    0  0.31023408656E+02  0.12723690237E+02 -0.95560363101E+02  0.15702269637E+03  0.12000000000E+03 0.  0.
<mgrwt>
<rscale>  0 0.26387070E+03</rscale>
<asrwt>0</asrwt>
<pdfrwt beam="1">  1        1 0.29242207E-01 0.26387070E+03</pdfrwt>
<pdfrwt beam="2">  1       -1 0.14089173E-01 0.26387070E+03</pdfrwt>
<totfact> 0.55070721E+03</totfact>
</mgrwt>
</event>
<event>
 4    1  0.1762274E-004  0.2489662E+03  0.7818608E-02  0.1113960E+00
         -2   -1    0    0    0  501 -0.00000000000E+00  0.00000000000E+00  0.16579650081E+02  0.16579650081E+02  0.00000000000E+00 0. -1.
          2   -1    0    0  501    0  0.00000000000E+00 -0.00000000000E+00 -0.93464242198E+03  0.93464242198E+03  0.00000000000E+00 0. -1.
         25    1    1    2    0    0  0.11779011877E+02 -0.29220469080E+02 -0.42016852075E+03  0.43810291800E+03  0.12000000000E+03 0.  0.
         25    1    1    2    0    0 -0.11779011877E+02  0.29220469080E+02 -0.49789425115E+03  0.51311915406E+03  0.12000000000E+03 0.  0.
<mgrwt>
<rscale>  0 0.24896622E+03</rscale>
<asrwt>0</asrwt>
<pdfrwt beam="1">  1        2 0.14379116E+00 0.24896622E+03</pdfrwt>
<pdfrwt beam="2">  1       -2 0.25507150E-02 0.24896622E+03</pdfrwt>
<totfact> 0.15441514E+04</totfact>
</mgrwt>
</event>
<event>
 4    1  0.1762274E-004  0.2543650E+03  0.7818608E-02  0.1110577E+00
          2   -1    0    0  501    0  0.00000000000E+00  0.00000000000E+00  0.81481029240E+03  0.81481029240E+03  0.00000000000E+00 0. -1.
         -2   -1    0    0    0  501 -0.00000000000E+00 -0.00000000000E+00 -0.19851725650E+02  0.19851725650E+02  0.00000000000E+00 0. -1.
         25    1    1    2    0    0 -0.10368982106E+02  0.43984912237E+00  0.26347774735E+03  0.28970369795E+03  0.12000000000E+03 0.  0.
         25    1    1    2    0    0  0.10368982106E+02 -0.43984912237E+00  0.53148081940E+03  0.54495832010E+03  0.12000000000E+03 0.  0.
<mgrwt>
<rscale>  0 0.25436502E+03</rscale>
<asrwt>0</asrwt>
<pdfrwt beam="1">  1        2 0.12535540E+00 0.25436502E+03</pdfrwt>
<pdfrwt beam="2">  1       -2 0.30541123E-02 0.25436502E+03</pdfrwt>
<totfact> 0.14178368E+04</totfact>
</mgrwt>
</event>
<event>
 4    1  0.1762274E-004  0.2512966E+03  0.7818608E-02  0.1112488E+00
          1   -1    0    0  501    0  0.00000000000E+00  0.00000000000E+00  0.12546868896E+04  0.12546868896E+04  0.00000000000E+00 0. -1.
         -1   -1    0    0    0  501 -0.00000000000E+00 -0.00000000000E+00 -0.12582820367E+02  0.12582820367E+02  0.00000000000E+00 0. -1.
         25    1    1    2    0    0  0.64771329496E+01  0.28957558226E+02  0.50750153056E+03  0.52233925465E+03  0.12000000000E+03 0.  0.
         25    1    1    2    0    0 -0.64771329496E+01 -0.28957558226E+02  0.73460253864E+03  0.74493045529E+03  0.12000000000E+03 0.  0.
<mgrwt>
<rscale>  0 0.25129664E+03</rscale>
<asrwt>0</asrwt>
<pdfrwt beam="1">  1        1 0.19302865E+00 0.25129664E+03</pdfrwt>
<pdfrwt beam="2">  1       -1 0.19358195E-02 0.25129664E+03</pdfrwt>
<totfact> 0.75214347E+03</totfact>
</mgrwt>
</event>
<event>
 4    1  0.1762274E-004  0.2772384E+03  0.7818608E-02  0.1097207E+00
         -2   -1    0    0    0  501 -0.00000000000E+00  0.00000000000E+00  0.37862546765E+02  0.37862546765E+02  0.00000000000E+00 0.  1.
          2   -1    0    0  501    0  0.00000000000E+00 -0.00000000000E+00 -0.50750100235E+03  0.50750100235E+03  0.00000000000E+00 0.  1.
         25    1    1    2    0    0 -0.23275876114E+02 -0.18641957906E+02 -0.11156341163E+03  0.16654033691E+03  0.12000000000E+03 0.  0.
         25    1    1    2    0    0  0.23275876114E+02  0.18641957906E+02 -0.35807504395E+03  0.37882321220E+03  0.12000000000E+03 0.  0.
<mgrwt>
<rscale>  0 0.27723838E+03</rscale>
<asrwt>0</asrwt>
<pdfrwt beam="1">  1        2 0.78077073E-01 0.27723838E+03</pdfrwt>
<pdfrwt beam="2">  1       -2 0.58250075E-02 0.27723838E+03</pdfrwt>
<totfact> 0.94326286E+03</totfact>
</mgrwt>
</event>
<event>
 4    1  0.1762274E-004  0.2558341E+03  0.7818608E-02  0.1109672E+00
          1   -1    0    0  501    0  0.00000000000E+00  0.00000000000E+00  0.13886161971E+04  0.13886161971E+04  0.00000000000E+00 0.  1.
         -1   -1    0    0    0  501 -0.00000000000E+00 -0.00000000000E+00 -0.11783505056E+02  0.11783505056E+02  0.00000000000E+00 0.  1.
         25    1    1    2    0    0 -0.20652151968E+02  0.15213505985E+02  0.49068921421E+03  0.50580022448E+03  0.12000000000E+03 0.  0.
         25    1    1    2    0    0  0.20652151968E+02 -0.15213505985E+02  0.88614347783E+03  0.89459947767E+03  0.12000000000E+03 0.  0.
<mgrwt>
<rscale>  0 0.25583406E+03</rscale>
<asrwt>0</asrwt>
<pdfrwt beam="1">  1        1 0.21363313E+00 0.25583406E+03</pdfrwt>
<pdfrwt beam="2">  1       -1 0.18128480E-02 0.25583406E+03</pdfrwt>
<totfact> 0.67146470E+03</totfact>
</mgrwt>
</event>
<event>
 4    1  0.1762274E-004  0.2545045E+03  0.7818608E-02  0.1110491E+00
         -2   -1    0    0    0  501 -0.00000000000E+00  0.00000000000E+00  0.13548593137E+03  0.13548593137E+03  0.00000000000E+00 0.  1.
          2   -1    0    0  501    0  0.00000000000E+00 -0.00000000000E+00 -0.11951892412E+03  0.11951892412E+03  0.00000000000E+00 0.  1.
         25    1    1    2    0    0  0.26444509916E+02 -0.28810330796E+02 -0.82899025125E+01  0.12648347619E+03  0.12000000000E+03 0.  0.
         25    1    1    2    0    0 -0.26444509916E+02  0.28810330796E+02  0.24256909769E+02  0.12852137930E+03  0.12000000000E+03 0.  0.
<mgrwt>
<rscale>  0 0.25450448E+03</rscale>
<asrwt>0</asrwt>
<pdfrwt beam="1">  1        2 0.18387527E-01 0.25450448E+03</pdfrwt>
<pdfrwt beam="2">  1       -2 0.20843989E-01 0.25450448E+03</pdfrwt>
<totfact> 0.59213645E+03</totfact>
</mgrwt>
</event>
<event>
 4    1  0.1762274E-004  0.2403390E+03  0.7818608E-02  0.1119567E+00
          4   -1    0    0  501    0  0.00000000000E+00  0.00000000000E+00  0.19377960806E+03  0.19377960806E+03  0.00000000000E+00 0.  1.
         -4   -1    0    0    0  501 -0.00000000000E+00 -0.00000000000E+00 -0.74521323769E+02  0.74521323769E+02  0.00000000000E+00 0.  1.
         25    1    1    2    0    0 -0.36250208520E+01  0.12893324599E+00  0.53769081485E+02  0.13154570127E+03  0.12000000000E+03 0.  0.
         25    1    1    2    0    0  0.36250208520E+01 -0.12893324599E+00  0.65489202806E+02  0.13675523055E+03  0.12000000000E+03 0.  0.
<mgrwt>
<rscale>  0 0.24033903E+03</rscale>
<asrwt>0</asrwt>
<pdfrwt beam="1">  1        4 0.29812247E-01 0.24033903E+03</pdfrwt>
<pdfrwt beam="2">  1       -4 0.11464819E-01 0.24033903E+03</pdfrwt>
<totfact> 0.11897542E+03</totfact>
</mgrwt>
</event>
<event>
 4    1  0.1762274E-004  0.4648096E+03  0.7818608E-02  0.1023395E+00
         -1   -1    0    0    0  501 -0.00000000000E+00  0.00000000000E+00  0.30829536201E+02  0.30829536201E+02  0.00000000000E+00 0.  1.
          1   -1    0    0  501    0  0.00000000000E+00 -0.00000000000E+00 -0.17519562752E+04  0.17519562752E+04  0.00000000000E+00 0.  1.
         25    1    1    2    0    0 -0.11847269409E+03  0.39144620696E+02 -0.26582402087E+03  0.31722309286E+03  0.12000000000E+03 0.  0.
         25    1    1    2    0    0  0.11847269409E+03 -0.39144620696E+02 -0.14553027181E+04  0.14655627185E+04  0.12000000000E+03 0.  0.
<mgrwt>
<rscale>  0 0.46480964E+03</rscale>
<asrwt>0</asrwt>
<pdfrwt beam="1">  1        1 0.26953178E+00 0.46480964E+03</pdfrwt>
<pdfrwt beam="2">  1       -1 0.47430048E-02 0.46480964E+03</pdfrwt>
<totfact> 0.91861367E+02</totfact>
</mgrwt>
</event>
<event>
 4    1  0.1762274E-004  0.2700609E+03  0.7818608E-02  0.1101245E+00
          2   -1    0    0  501    0  0.00000000000E+00  0.00000000000E+00  0.54134520276E+03  0.54134520276E+03  0.00000000000E+00 0. -1.
         -2   -1    0    0    0  501 -0.00000000000E+00 -0.00000000000E+00 -0.33681324936E+02  0.33681324936E+02  0.00000000000E+00 0. -1.
         25    1    1    2    0    0  0.37431541801E+02  0.28228564559E+02  0.16772890929E+03  0.21149694842E+03  0.12000000000E+03 0.  0.
         25    1    1    2    0    0 -0.37431541801E+02 -0.28228564559E+02  0.33993496853E+03  0.36352957928E+03  0.12000000000E+03 0.  0.
<mgrwt>
<rscale>  0 0.27006091E+03</rscale>
<asrwt>0</asrwt>
<pdfrwt beam="1">  1        2 0.83283871E-01 0.27006091E+03</pdfrwt>
<pdfrwt beam="2">  1       -2 0.51817427E-02 0.27006091E+03</pdfrwt>
<totfact> 0.10474855E+04</totfact>
</mgrwt>
</event>
<event>
 4    1  0.1762274E-004  0.2715163E+03  0.7818608E-02  0.1100415E+00
          3   -1    0    0  501    0  0.00000000000E+00  0.00000000000E+00  0.11657387234E+04  0.11657387234E+04  0.00000000000E+00 0. -1.
         -3   -1    0    0    0  501 -0.00000000000E+00 -0.00000000000E+00 -0.15809953711E+02  0.15809953711E+02  0.00000000000E+00 0. -1.
         25    1    1    2    0    0  0.54549267754E+02  0.21845977967E+02  0.67953178655E+03  0.69254336925E+03  0.12000000000E+03 0.  0.
         25    1    1    2    0    0 -0.54549267754E+02 -0.21845977967E+02  0.47039698315E+03  0.48900530787E+03  0.12000000000E+03 0.  0.
<mgrwt>
<rscale>  0 0.27151630E+03</rscale>
<asrwt>0</asrwt>
<pdfrwt beam="1">  1        3 0.17934435E+00 0.27151630E+03</pdfrwt>
<pdfrwt beam="2">  1       -3 0.24323015E-02 0.27151630E+03</pdfrwt>
<totfact> 0.38572076E+02</totfact>
</mgrwt>
</event>
<event>
 4    1  0.1762274E-004  0.3571715E+03  0.7818608E-02  0.1059709E+00
         -1   -1    0    0    0  501 -0.00000000000E+00  0.00000000000E+00  0.24868097213E+02  0.24868097213E+02  0.00000000000E+00 0. -1.
          1   -1    0    0  501    0  0.00000000000E+00 -0.00000000000E+00 -0.12824812874E+04  0.12824812874E+04  0.00000000000E+00 0. -1.
         25    1    1    2    0    0 -0.89148429334E+02  0.31631338315E+02 -0.96715800725E+03  0.97915402006E+03  0.12000000000E+03 0.  0.
         25    1    1    2    0    0  0.89148429334E+02 -0.31631338315E+02 -0.29045518291E+03  0.32819536453E+03  0.12000000000E+03 0.  0.
<mgrwt>
<rscale>  0 0.35717150E+03</rscale>
<asrwt>0</asrwt>
<pdfrwt beam="1">  1        1 0.19730488E+00 0.35717150E+03</pdfrwt>
<pdfrwt beam="2">  1       -1 0.38258597E-02 0.35717150E+03</pdfrwt>
<totfact> 0.26403910E+03</totfact>
</mgrwt>
</event>
<event>
 4    1  0.1762274E-004  0.4032319E+03  0.7818608E-02  0.1042666E+00
         -1   -1    0    0    0  501 -0.00000000000E+00  0.00000000000E+00  0.10435865264E+04  0.10435865264E+04  0.00000000000E+00 0. -1.
          1   -1    0    0  501    0  0.00000000000E+00 -0.00000000000E+00 -0.38951234697E+02  0.38951234697E+02  0.00000000000E+00 0. -1.
         25    1    1    2    0    0 -0.78492004562E+02  0.25600382768E+01  0.12187815998E+03  0.18820689269E+03  0.12000000000E+03 0.  0.
         25    1    1    2    0    0  0.78492004562E+02 -0.25600382768E+01  0.88275713174E+03  0.89433086842E+03  0.12000000000E+03 0.  0.
<mgrwt>
<rscale>  0 0.40323186E+03</rscale>
<asrwt>0</asrwt>
<pdfrwt beam="1">  1        1 0.59924984E-02 0.40323186E+03</pdfrwt>
<pdfrwt beam="2">  1       -1 0.16055175E+00 0.40323186E+03</pdfrwt>
<totfact> 0.40723916E+02</totfact>
</mgrwt>
</event>
<event>
 4    1  0.1762274E-004  0.2453977E+03  0.7818608E-02  0.1116248E+00
         -3   -1    0    0    0  501 -0.00000000000E+00  0.00000000000E+00  0.55374616555E+02  0.55374616555E+02  0.00000000000E+00 0. -1.
          3   -1    0    0  501    0  0.00000000000E+00 -0.00000000000E+00 -0.27187551870E+03  0.27187551870E+03  0.00000000000E+00 0. -1.
         25    1    1    2    0    0  0.95078060188E+01  0.29991784485E+01 -0.13968405068E+03  0.18442078912E+03  0.12000000000E+03 0.  0.
         25    1    1    2    0    0 -0.95078060188E+01 -0.29991784485E+01 -0.76816851464E+02  0.14282934613E+03  0.12000000000E+03 0.  0.
<mgrwt>
<rscale>  0 0.24539766E+03</rscale>
<asrwt>0</asrwt>
<pdfrwt beam="1">  1        3 0.41827003E-01 0.24539766E+03</pdfrwt>
<pdfrwt beam="2">  1       -3 0.85191717E-02 0.24539766E+03</pdfrwt>
<totfact> 0.13759169E+03</totfact>
</mgrwt>
</event>
<event>
 4    1  0.1762274E-004  0.2705865E+03  0.7818608E-02  0.1100944E+00
          1   -1    0    0  501    0  0.00000000000E+00  0.00000000000E+00  0.97797130195E+02  0.97797130195E+02  0.00000000000E+00 0. -1.
         -1   -1    0    0    0  501 -0.00000000000E+00 -0.00000000000E+00 -0.18716560904E+03  0.18716560904E+03  0.00000000000E+00 0. -1.
         25    1    1    2    0    0  0.40555278473E+02 -0.45242470647E+02 -0.29327029636E+02  0.13766512423E+03  0.12000000000E+03 0.  0.
         25    1    1    2    0    0 -0.40555278473E+02  0.45242470647E+02 -0.60041449205E+02  0.14729761500E+03  0.12000000000E+03 0.  0.
<mgrwt>
<rscale>  0 0.27058647E+03</rscale>
<asrwt>0</asrwt>
<pdfrwt beam="1">  1        1 0.15045713E-01 0.27058647E+03</pdfrwt>
<pdfrwt beam="2">  1       -1 0.28794709E-01 0.27058647E+03</pdfrwt>
<totfact> 0.40416712E+03</totfact>
</mgrwt>
</event>
<event>
 4    1  0.1762274E-004  0.2511843E+03  0.7818608E-02  0.1112559E+00
          2   -1    0    0  501    0  0.00000000000E+00  0.00000000000E+00  0.16592003575E+04  0.16592003575E+04  0.00000000000E+00 0. -1.
         -2   -1    0    0    0  501 -0.00000000000E+00 -0.00000000000E+00 -0.95066236059E+01  0.95066236059E+01  0.00000000000E+00 0. -1.
         25    1    1    2    0    0  0.16054551105E+01  0.30354874849E+02  0.68401440043E+03  0.69512566915E+03  0.12000000000E+03 0.  0.
         25    1    1    2    0    0 -0.16054551105E+01 -0.30354874849E+02  0.96567933345E+03  0.97358131194E+03  0.12000000000E+03 0.  0.
<mgrwt>
<rscale>  0 0.25118434E+03</rscale>
<asrwt>0</asrwt>
<pdfrwt beam="1">  1        2 0.25526136E+00 0.25118434E+03</pdfrwt>
<pdfrwt beam="2">  1       -2 0.14625588E-02 0.25118434E+03</pdfrwt>
<totfact> 0.13707560E+04</totfact>
</mgrwt>
</event>
<event>
 4    1  0.1762274E-004  0.2807828E+03  0.7818608E-02  0.1095262E+00
          1   -1    0    0  501    0  0.00000000000E+00  0.00000000000E+00  0.18781221874E+03  0.18781221874E+03  0.00000000000E+00 0. -1.
         -1   -1    0    0    0  501 -0.00000000000E+00 -0.00000000000E+00 -0.10494387985E+03  0.10494387985E+03  0.00000000000E+00 0. -1.
         25    1    1    2    0    0 -0.14791698924E+02  0.67024158996E+02  0.15922200640E+02  0.13915656190E+03  0.12000000000E+03 0.  0.
         25    1    1    2    0    0  0.14791698924E+02 -0.67024158996E+02  0.66946138255E+02  0.15359953670E+03  0.12000000000E+03 0.  0.
<mgrwt>
<rscale>  0 0.28078278E+03</rscale>
<asrwt>0</asrwt>
<pdfrwt beam="1">  1        1 0.28894188E-01 0.28078278E+03</pdfrwt>
<pdfrwt beam="2">  1       -1 0.16145212E-01 0.28078278E+03</pdfrwt>
<totfact> 0.45131829E+03</totfact>
</mgrwt>
</event>
<event>
 4    1  0.1762274E-004  0.2551302E+03  0.7818608E-02  0.1110105E+00
          1   -1    0    0  501    0  0.00000000000E+00  0.00000000000E+00  0.27071644524E+02  0.27071644524E+02  0.00000000000E+00 0. -1.
         -1   -1    0    0    0  501 -0.00000000000E+00 -0.00000000000E+00 -0.60110318074E+03  0.60110318074E+03  0.00000000000E+00 0. -1.
         25    1    1    2    0    0 -0.21748211337E+02  0.45422609020E+01 -0.37845610195E+03  0.39764637297E+03  0.12000000000E+03 0.  0.
         25    1    1    2    0    0  0.21748211337E+02 -0.45422609020E+01 -0.19557543427E+03  0.23052845230E+03  0.12000000000E+03 0.  0.
<mgrwt>
<rscale>  0 0.25513018E+03</rscale>
<asrwt>0</asrwt>
<pdfrwt beam="1">  1        1 0.41648681E-02 0.25513018E+03</pdfrwt>
<pdfrwt beam="2">  1       -1 0.92477418E-01 0.25513018E+03</pdfrwt>
<totfact> 0.25626738E+03</totfact>
</mgrwt>
</event>
<event>
 4    1  0.1762274E-004  0.3783046E+03  0.7818608E-02  0.1051562E+00
          2   -1    0    0  501    0  0.00000000000E+00  0.00000000000E+00  0.15428545681E+04  0.15428545681E+04  0.00000000000E+00 0. -1.
         -2   -1    0    0    0  501 -0.00000000000E+00 -0.00000000000E+00 -0.23189872642E+02  0.23189872642E+02  0.00000000000E+00 0. -1.
         25    1    1    2    0    0 -0.42081557560E+02  0.67941012208E+01  0.18085121065E+03  0.22118810477E+03  0.12000000000E+03 0.  0.
         25    1    1    2    0    0  0.42081557560E+02 -0.67941012208E+01  0.13388134848E+04  0.13448563360E+04  0.12000000000E+03 0.  0.
<mgrwt>
<rscale>  0 0.37830464E+03</rscale>
<asrwt>0</asrwt>
<pdfrwt beam="1">  1        2 0.23736216E+00 0.37830464E+03</pdfrwt>
<pdfrwt beam="2">  1       -2 0.35676739E-02 0.37830464E+03</pdfrwt>
<totfact> 0.42337255E+03</totfact>
</mgrwt>
</event>
<event>
 4    1  0.1762274E-004  0.3132616E+03  0.7818608E-02  0.1078793E+00
          1   -1    0    0  501    0  0.00000000000E+00  0.00000000000E+00  0.29581451510E+04  0.29581451510E+04  0.00000000000E+00 0. -1.
         -1   -1    0    0    0  501 -0.00000000000E+00 -0.00000000000E+00 -0.82934409559E+01  0.82934409559E+01  0.00000000000E+00 0. -1.
         25    1    1    2    0    0  0.50650075705E+01 -0.56516279060E+02  0.22622905078E+04  0.22661813885E+04  0.12000000000E+03 0.  0.
         25    1    1    2    0    0 -0.50650075705E+01  0.56516279060E+02  0.68756120229E+03  0.70025720346E+03  0.12000000000E+03 0.  0.
<mgrwt>
<rscale>  0 0.31326157E+03</rscale>
<asrwt>0</asrwt>
<pdfrwt beam="1">  1        1 0.45509841E+00 0.31326157E+03</pdfrwt>
<pdfrwt beam="2">  1       -1 0.12759163E-02 0.31326157E+03</pdfrwt>
<totfact> 0.10178626E+03</totfact>
</mgrwt>
</event>
<event>
 4    1  0.1762274E-004  0.2519976E+03  0.7818608E-02  0.1112049E+00
          1   -1    0    0  501    0  0.00000000000E+00  0.00000000000E+00  0.44877959683E+03  0.44877959683E+03  0.00000000000E+00 0. -1.
         -1   -1    0    0    0  501 -0.00000000000E+00 -0.00000000000E+00 -0.35375279893E+02  0.35375279893E+02  0.00000000000E+00 0. -1.
         25    1    1    2    0    0  0.56298560011E+01 -0.31356799102E+02  0.16546154915E+03  0.20686340511E+03  0.12000000000E+03 0.  0.
         25    1    1    2    0    0 -0.56298560011E+01  0.31356799102E+02  0.24794276779E+03  0.27729147161E+03  0.12000000000E+03 0.  0.
<mgrwt>
<rscale>  0 0.25199765E+03</rscale>
<asrwt>0</asrwt>
<pdfrwt beam="1">  1        1 0.69043011E-01 0.25199765E+03</pdfrwt>
<pdfrwt beam="2">  1       -1 0.54423511E-02 0.25199765E+03</pdfrwt>
<totfact> 0.79928031E+03</totfact>
</mgrwt>
</event>
<event>
 4    1  0.1762274E-004  0.6022621E+03  0.7818608E-02  0.9900724E-01
         -4   -1    0    0    0  501 -0.00000000000E+00  0.00000000000E+00  0.16968631985E+03  0.16968631985E+03  0.00000000000E+00 0.  1.
          4   -1    0    0  501    0  0.00000000000E+00 -0.00000000000E+00 -0.53439721496E+03  0.53439721496E+03  0.00000000000E+00 0.  1.
         25    1    1    2    0    0  0.63279730509E+00 -0.23682134268E+03 -0.34849085615E+03  0.43809887651E+03  0.12000000000E+03 0.  0.
         25    1    1    2    0    0 -0.63279730509E+00  0.23682134268E+03 -0.16220038961E+02  0.26598465829E+03  0.12000000000E+03 0.  0.
<mgrwt>
<rscale>  0 0.60226206E+03</rscale>
<asrwt>0</asrwt>
<pdfrwt beam="1">  1        4 0.82214955E-01 0.60226206E+03</pdfrwt>
<pdfrwt beam="2">  1       -4 0.26105588E-01 0.60226206E+03</pdfrwt>
<totfact> 0.36122167E+01</totfact>
</mgrwt>
</event>
<event>
 4    1  0.1762274E-004  0.2761421E+03  0.7818608E-02  0.1097815E+00
          2   -1    0    0  501    0  0.00000000000E+00  0.00000000000E+00  0.23481540809E+03  0.23481540809E+03  0.00000000000E+00 0.  1.
         -2   -1    0    0    0  501 -0.00000000000E+00 -0.00000000000E+00 -0.81185520539E+02  0.81185520539E+02  0.00000000000E+00 0.  1.
         25    1    1    2    0    0 -0.65415703075E+02  0.10341623071E+02  0.95875974847E+02  0.16726734867E+03  0.12000000000E+03 0.  0.
         25    1    1    2    0    0  0.65415703075E+02 -0.10341623071E+02  0.57753912705E+02  0.14873357997E+03  0.12000000000E+03 0.  0.
<mgrwt>
<rscale>  0 0.27614207E+03</rscale>
<asrwt>0</asrwt>
<pdfrwt beam="1">  1        2 0.36125447E-01 0.27614207E+03</pdfrwt>
<pdfrwt beam="2">  1       -2 0.12490080E-01 0.27614207E+03</pdfrwt>
<totfact> 0.65673064E+03</totfact>
</mgrwt>
</event>
<event>
 4    1  0.1762274E-004  0.2518838E+03  0.7818608E-02  0.1112120E+00
         -2   -1    0    0    0  501 -0.00000000000E+00  0.00000000000E+00  0.92130307316E+01  0.92130307316E+01  0.00000000000E+00 0.  1.
          2   -1    0    0  501    0  0.00000000000E+00 -0.00000000000E+00 -0.17216232746E+04  0.17216232746E+04  0.00000000000E+00 0.  1.
         25    1    1    2    0    0  0.61793507239E+01 -0.49649846708E+01 -0.59922946262E+03  0.61117819359E+03  0.12000000000E+03 0.  0.
         25    1    1    2    0    0 -0.61793507239E+01  0.49649846708E+01 -0.11131807813E+04  0.11196581118E+04  0.12000000000E+03 0.  0.
<mgrwt>
<rscale>  0 0.25188385E+03</rscale>
<asrwt>0</asrwt>
<pdfrwt beam="1">  1        2 0.26486514E+00 0.25188385E+03</pdfrwt>
<pdfrwt beam="2">  1       -2 0.14173892E-02 0.25188385E+03</pdfrwt>
<totfact> 0.13306858E+04</totfact>
</mgrwt>
</event>
<event>
 4    1  0.1762274E-004  0.2566812E+03  0.7818608E-02  0.1109154E+00
         -2   -1    0    0    0  501 -0.00000000000E+00  0.00000000000E+00  0.98082083277E+03  0.98082083277E+03  0.00000000000E+00 0. -1.
          2   -1    0    0  501    0  0.00000000000E+00 -0.00000000000E+00 -0.16793391847E+02  0.16793391847E+02  0.00000000000E+00 0. -1.
         25    1    1    2    0    0  0.19277812845E+02  0.43987090010E+01  0.64133190253E+03  0.65276151228E+03  0.12000000000E+03 0.  0.
         25    1    1    2    0    0 -0.19277812845E+02 -0.43987090010E+01  0.32269553839E+03  0.34485271233E+03  0.12000000000E+03 0.  0.
<mgrwt>
<rscale>  0 0.25668119E+03</rscale>
<asrwt>0</asrwt>
<pdfrwt beam="1">  1        2 0.25835995E-02 0.25668119E+03</pdfrwt>
<pdfrwt beam="2">  1       -2 0.15089547E+00 0.25668119E+03</pdfrwt>
<totfact> 0.11978204E+03</totfact>
</mgrwt>
</event>
<event>
 4    1  0.1762274E-004  0.2591313E+03  0.7818608E-02  0.1107666E+00
          4   -1    0    0  501    0  0.00000000000E+00  0.00000000000E+00  0.65186393538E+02  0.65186393538E+02  0.00000000000E+00 0.  1.
         -4   -1    0    0    0  501 -0.00000000000E+00 -0.00000000000E+00 -0.25752703171E+03  0.25752703171E+03  0.00000000000E+00 0.  1.
         25    1    1    2    0    0  0.85345852446E+00 -0.17640810086E+02 -0.15290399535E+03  0.19517058786E+03  0.12000000000E+03 0.  0.
         25    1    1    2    0    0 -0.85345852446E+00  0.17640810086E+02 -0.39436642822E+02  0.12754283739E+03  0.12000000000E+03 0.  0.
<mgrwt>
<rscale>  0 0.25913131E+03</rscale>
<asrwt>0</asrwt>
<pdfrwt beam="1">  1        4 0.10028676E-01 0.25913131E+03</pdfrwt>
<pdfrwt beam="2">  1       -4 0.39619542E-01 0.25913131E+03</pdfrwt>
<totfact> 0.87057523E+02</totfact>
</mgrwt>
</event>
<event>
 4    1  0.1762274E-004  0.2597336E+03  0.7818608E-02  0.1107303E+00
          2   -1    0    0  501    0  0.00000000000E+00  0.00000000000E+00  0.99914141421E+02  0.99914141421E+02  0.00000000000E+00 0.  1.
         -2   -1    0    0    0  501 -0.00000000000E+00 -0.00000000000E+00 -0.16879875996E+03  0.16879875996E+03  0.00000000000E+00 0.  1.
         25    1    1    2    0    0  0.43714770369E+02  0.23228810429E+02 -0.30458955702E+02  0.13333531702E+03  0.12000000000E+03 0.  0.
         25    1    1    2    0    0 -0.43714770369E+02 -0.23228810429E+02 -0.38425662833E+02  0.13537758436E+03  0.12000000000E+03 0.  0.
<mgrwt>
<rscale>  0 0.25973358E+03</rscale>
<asrwt>0</asrwt>
<pdfrwt beam="1">  1        2 0.15371406E-01 0.25973358E+03</pdfrwt>
<pdfrwt beam="2">  1       -2 0.25969040E-01 0.25973358E+03</pdfrwt>
<totfact> 0.49783250E+03</totfact>
</mgrwt>
</event>
<event>
 4    1  0.1762274E-004  0.2878252E+03  0.7818608E-02  0.1091490E+00
          2   -1    0    0  501    0  0.00000000000E+00  0.00000000000E+00  0.12831910090E+03  0.12831910090E+03  0.00000000000E+00 0. -1.
         -2   -1    0    0    0  501 -0.00000000000E+00 -0.00000000000E+00 -0.16140107276E+03  0.16140107276E+03  0.00000000000E+00 0. -1.
         25    1    1    2    0    0  0.52923299638E+01  0.58732802699E+02  0.37038108369E+02  0.13874210731E+03  0.12000000000E+03 0.  0.
         25    1    1    2    0    0 -0.52923299638E+01 -0.58732802699E+02 -0.70120080227E+02  0.15097806636E+03  0.12000000000E+03 0.  0.
<mgrwt>
<rscale>  0 0.28782523E+03</rscale>
<asrwt>0</asrwt>
<pdfrwt beam="1">  1        2 0.19741400E-01 0.28782523E+03</pdfrwt>
<pdfrwt beam="2">  1       -2 0.24830934E-01 0.28782523E+03</pdfrwt>
<totfact> 0.40407609E+03</totfact>
</mgrwt>
</event>
<event>
 4    1  0.1762274E-004  0.4770390E+03  0.7818608E-02  0.1019952E+00
         -1   -1    0    0    0  501 -0.00000000000E+00  0.00000000000E+00  0.14325751634E+03  0.14325751634E+03  0.00000000000E+00 0. -1.
          1   -1    0    0  501    0  0.00000000000E+00 -0.00000000000E+00 -0.39712786507E+03  0.39712786507E+03  0.00000000000E+00 0. -1.
         25    1    1    2    0    0  0.82787255975E+02  0.11419596390E+03 -0.29722005774E+03  0.35019167701E+03  0.12000000000E+03 0.  0.
         25    1    1    2    0    0 -0.82787255975E+02 -0.11419596390E+03  0.43349709008E+02  0.19019370440E+03  0.12000000000E+03 0.  0.
<mgrwt>
<rscale>  0 0.47703900E+03</rscale>
<asrwt>0</asrwt>
<pdfrwt beam="1">  1        1 0.61096594E-01 0.47703900E+03</pdfrwt>
<pdfrwt beam="2">  1       -1 0.22039618E-01 0.47703900E+03</pdfrwt>
<totfact> 0.10538475E+03</totfact>
</mgrwt>
</event>
<event>
 4    1  0.1762274E-004  0.3583203E+03  0.7818608E-02  0.1059251E+00
         -2   -1    0    0    0  501 -0.00000000000E+00  0.00000000000E+00  0.16285405733E+02  0.16285405733E+02  0.00000000000E+00 0. -1.
          2   -1    0    0  501    0  0.00000000000E+00 -0.00000000000E+00 -0.19709897458E+04  0.19709897458E+04  0.00000000000E+00 0. -1.
         25    1    1    2    0    0  0.10947904308E+03 -0.75532716606E+02 -0.96214784881E+03  0.97868244856E+03  0.12000000000E+03 0.  0.
         25    1    1    2    0    0 -0.10947904308E+03  0.75532716606E+02 -0.99255649128E+03  0.10085927030E+04  0.12000000000E+03 0.  0.
<mgrwt>
<rscale>  0 0.35832035E+03</rscale>
<asrwt>0</asrwt>
<pdfrwt beam="1">  1        2 0.30322914E+00 0.35832035E+03</pdfrwt>
<pdfrwt beam="2">  1       -2 0.25054475E-02 0.35832035E+03</pdfrwt>
<totfact> 0.42568402E+03</totfact>
</mgrwt>
</event>
<event>
 4    1  0.1762274E-004  0.2631544E+03  0.7818608E-02  0.1105263E+00
         -2   -1    0    0    0  501 -0.00000000000E+00  0.00000000000E+00  0.13128059447E+02  0.13128059447E+02  0.00000000000E+00 0.  1.
          2   -1    0    0  501    0  0.00000000000E+00 -0.00000000000E+00 -0.13187451730E+04  0.13187451730E+04  0.00000000000E+00 0.  1.
         25    1    1    2    0    0 -0.10303688270E+02 -0.41656803678E+02 -0.48716705060E+03  0.50356051322E+03  0.12000000000E+03 0.  0.
         25    1    1    2    0    0  0.10303688270E+02  0.41656803678E+02 -0.81845006293E+03  0.82831271921E+03  0.12000000000E+03 0.  0.
<mgrwt>
<rscale>  0 0.26315444E+03</rscale>
<asrwt>0</asrwt>
<pdfrwt beam="1">  1        2 0.20288394E+00 0.26315444E+03</pdfrwt>
<pdfrwt beam="2">  1       -2 0.20197008E-02 0.26315444E+03</pdfrwt>
<totfact> 0.13023535E+04</totfact>
</mgrwt>
</event>
<event>
 4    1  0.1762274E-004  0.2796352E+03  0.7818608E-02  0.1095888E+00
         -2   -1    0    0    0  501 -0.00000000000E+00  0.00000000000E+00  0.92113916963E+01  0.92113916963E+01  0.00000000000E+00 0.  1.
          2   -1    0    0  501    0  0.00000000000E+00 -0.00000000000E+00 -0.21222587536E+04  0.21222587536E+04  0.00000000000E+00 0.  1.
         25    1    1    2    0    0 -0.51314024457E+02  0.30720110245E+02 -0.75430042561E+03  0.76612400195E+03  0.12000000000E+03 0.  0.
         25    1    1    2    0    0  0.51314024457E+02 -0.30720110245E+02 -0.13587469363E+04  0.13653461434E+04  0.12000000000E+03 0.  0.
<mgrwt>
<rscale>  0 0.27963517E+03</rscale>
<asrwt>0</asrwt>
<pdfrwt beam="1">  1        2 0.32650111E+00 0.27963517E+03</pdfrwt>
<pdfrwt beam="2">  1       -2 0.14171382E-02 0.27963517E+03</pdfrwt>
<totfact> 0.82112379E+03</totfact>
</mgrwt>
</event>
<event>
 4    1  0.1762274E-004  0.2744084E+03  0.7818608E-02  0.1098783E+00
         -1   -1    0    0    0  501 -0.00000000000E+00  0.00000000000E+00  0.30605608386E+02  0.30605608386E+02  0.00000000000E+00 0. -1.
          1   -1    0    0  501    0  0.00000000000E+00 -0.00000000000E+00 -0.61508293254E+03  0.61508293254E+03  0.00000000000E+00 0. -1.
         25    1    1    2    0    0 -0.89392376286E+01 -0.64111326513E+02 -0.25618172421E+03  0.29020552713E+03  0.12000000000E+03 0.  0.
         25    1    1    2    0    0  0.89392376286E+01  0.64111326513E+02 -0.32829559994E+03  0.35548301380E+03  0.12000000000E+03 0.  0.
<mgrwt>
<rscale>  0 0.27440836E+03</rscale>
<asrwt>0</asrwt>
<pdfrwt beam="1">  1        1 0.94628137E-01 0.27440836E+03</pdfrwt>
<pdfrwt beam="2">  1       -1 0.47085555E-02 0.27440836E+03</pdfrwt>
<totfact> 0.65188030E+03</totfact>
</mgrwt>
</event>
<event>
 4    1  0.1762274E-004  0.3021073E+03  0.7818608E-02  0.1084192E+00
          1   -1    0    0  501    0  0.00000000000E+00  0.00000000000E+00  0.66470857516E+03  0.66470857516E+03  0.00000000000E+00 0. -1.
         -1   -1    0    0    0  501 -0.00000000000E+00 -0.00000000000E+00 -0.34326622676E+02  0.34326622676E+02  0.00000000000E+00 0. -1.
         25    1    1    2    0    0  0.36420970140E+02 -0.35361457489E+02  0.13836147166E+03  0.19005477258E+03  0.12000000000E+03 0.  0.
         25    1    1    2    0    0 -0.36420970140E+02  0.35361457489E+02  0.49202048082E+03  0.50898042525E+03  0.12000000000E+03 0.  0.
<mgrwt>
<rscale>  0 0.30210727E+03</rscale>
<asrwt>0</asrwt>
<pdfrwt beam="1">  1        1 0.10226285E+00 0.30210727E+03</pdfrwt>
<pdfrwt beam="2">  1       -1 0.52810194E-02 0.30210727E+03</pdfrwt>
<totfact> 0.49276229E+03</totfact>
</mgrwt>
</event>
<event>
 4    1  0.1762274E-004  0.3095743E+03  0.7818608E-02  0.1080550E+00
         -1   -1    0    0    0  501 -0.00000000000E+00  0.00000000000E+00  0.44796006582E+02  0.44796006582E+02  0.00000000000E+00 0. -1.
          1   -1    0    0  501    0  0.00000000000E+00 -0.00000000000E+00 -0.53484810463E+03  0.53484810463E+03  0.00000000000E+00 0. -1.
         25    1    1    2    0    0 -0.88449439127E+02 -0.15339367585E+02 -0.17249754416E+03  0.22850383415E+03  0.12000000000E+03 0.  0.
         25    1    1    2    0    0  0.88449439127E+02  0.15339367585E+02 -0.31755455389E+03  0.35114027707E+03  0.12000000000E+03 0.  0.
<mgrwt>
<rscale>  0 0.30957428E+03</rscale>
<asrwt>0</asrwt>
<pdfrwt beam="1">  1        1 0.82284320E-01 0.30957428E+03</pdfrwt>
<pdfrwt beam="2">  1       -1 0.68916936E-02 0.30957428E+03</pdfrwt>
<totfact> 0.44611796E+03</totfact>
</mgrwt>
</event>
<event>
 4    1  0.1762274E-004  0.3074241E+03  0.7818608E-02  0.1081587E+00
          3   -1    0    0  501    0  0.00000000000E+00  0.00000000000E+00  0.72830094592E+02  0.72830094592E+02  0.00000000000E+00 0.  1.
         -3   -1    0    0    0  501 -0.00000000000E+00 -0.00000000000E+00 -0.32441793794E+03  0.32441793794E+03  0.00000000000E+00 0.  1.
         25    1    1    2    0    0  0.78229768699E+02  0.31751159003E+02 -0.18500009180E+03  0.23612087323E+03  0.12000000000E+03 0.  0.
         25    1    1    2    0    0 -0.78229768699E+02 -0.31751159003E+02 -0.66587751551E+02  0.16112715930E+03  0.12000000000E+03 0.  0.
<mgrwt>
<rscale>  0 0.30742407E+03</rscale>
<asrwt>0</asrwt>
<pdfrwt beam="1">  1        3 0.11204630E-01 0.30742407E+03</pdfrwt>
<pdfrwt beam="2">  1       -3 0.49910451E-01 0.30742407E+03</pdfrwt>
<totfact> 0.62770180E+02</totfact>
</mgrwt>
</event>
<event>
 4    1  0.1762274E-004  0.3105482E+03  0.7818608E-02  0.1080083E+00
         -1   -1    0    0    0  501 -0.00000000000E+00  0.00000000000E+00  0.78692929906E+02  0.78692929906E+02  0.00000000000E+00 0.  1.
          1   -1    0    0  501    0  0.00000000000E+00 -0.00000000000E+00 -0.30638127037E+03  0.30638127037E+03  0.00000000000E+00 0.  1.
         25    1    1    2    0    0  0.95377877385E+01  0.97391182882E+02 -0.12819949846E+03  0.20102518077E+03  0.12000000000E+03 0.  0.
         25    1    1    2    0    0 -0.95377877385E+01 -0.97391182882E+02 -0.99488842000E+02  0.18404901950E+03  0.12000000000E+03 0.  0.
<mgrwt>
<rscale>  0 0.31054816E+03</rscale>
<asrwt>0</asrwt>
<pdfrwt beam="1">  1        1 0.47135580E-01 0.31054816E+03</pdfrwt>
<pdfrwt beam="2">  1       -1 0.12106605E-01 0.31054816E+03</pdfrwt>
<totfact> 0.38504843E+03</totfact>
</mgrwt>
</event>
<event>
 4    1  0.1762274E-004  0.3490086E+03  0.7818608E-02  0.1063023E+00
         -2   -1    0    0    0  501 -0.00000000000E+00  0.00000000000E+00  0.63500227042E+02  0.63500227042E+02  0.00000000000E+00 0. -1.
          2   -1    0    0  501    0  0.00000000000E+00 -0.00000000000E+00 -0.47955331883E+03  0.47955331883E+03  0.00000000000E+00 0. -1.
         25    1    1    2    0    0  0.86629072526E+02 -0.81523603331E+02 -0.27586928868E+03  0.32350356805E+03  0.12000000000E+03 0.  0.
         25    1    1    2    0    0 -0.86629072526E+02  0.81523603331E+02 -0.14018380311E+03  0.21954997782E+03  0.12000000000E+03 0.  0.
<mgrwt>
<rscale>  0 0.34900857E+03</rscale>
<asrwt>0</asrwt>
<pdfrwt beam="1">  1        2 0.73777435E-01 0.34900857E+03</pdfrwt>
<pdfrwt beam="2">  1       -2 0.97692655E-02 0.34900857E+03</pdfrwt>
<totfact> 0.45111540E+03</totfact>
</mgrwt>
</event>
<event>
 4    1  0.1762274E-004  0.2596073E+03  0.7818608E-02  0.1107379E+00
          1   -1    0    0  501    0  0.00000000000E+00  0.00000000000E+00  0.15967209923E+03  0.15967209923E+03  0.00000000000E+00 0. -1.
         -1   -1    0    0    0  501 -0.00000000000E+00 -0.00000000000E+00 -0.10552241825E+03  0.10552241825E+03  0.00000000000E+00 0. -1.
         25    1    1    2    0    0 -0.41684570385E+02  0.90841125752E+01  0.14580230166E+01  0.12736659821E+03  0.12000000000E+03 0.  0.
         25    1    1    2    0    0  0.41684570385E+02 -0.90841125752E+01  0.52691657968E+02  0.13782791927E+03  0.12000000000E+03 0.  0.
<mgrwt>
<rscale>  0 0.25960729E+03</rscale>
<asrwt>0</asrwt>
<pdfrwt beam="1">  1        1 0.24564938E-01 0.25960729E+03</pdfrwt>
<pdfrwt beam="2">  1       -1 0.16234218E-01 0.25960729E+03</pdfrwt>
<totfact> 0.54820214E+03</totfact>
</mgrwt>
</event>
<event>
 4    1  0.1762274E-004  0.2899568E+03  0.7818608E-02  0.1090372E+00
         -2   -1    0    0    0  501 -0.00000000000E+00  0.00000000000E+00  0.19640464179E+03  0.19640464179E+03  0.00000000000E+00 0. -1.
          2   -1    0    0  501    0  0.00000000000E+00 -0.00000000000E+00 -0.10701754538E+03  0.10701754538E+03  0.00000000000E+00 0. -1.
         25    1    1    2    0    0  0.78708613667E+02 -0.12231306143E+02  0.27368992229E+02  0.14660734105E+03  0.12000000000E+03 0.  0.
         25    1    1    2    0    0 -0.78708613667E+02  0.12231306143E+02  0.62018104185E+02  0.15681484611E+03  0.12000000000E+03 0.  0.
<mgrwt>
<rscale>  0 0.28995684E+03</rscale>
<asrwt>0</asrwt>
<pdfrwt beam="1">  1        2 0.16464238E-01 0.28995684E+03</pdfrwt>
<pdfrwt beam="2">  1       -2 0.30216099E-01 0.28995684E+03</pdfrwt>
<totfact> 0.35103926E+03</totfact>
</mgrwt>
</event>
<event>
 4    1  0.1762274E-004  0.2821970E+03  0.7818608E-02  0.1094495E+00
          2   -1    0    0  501    0  0.00000000000E+00  0.00000000000E+00  0.14211058193E+04  0.14211058193E+04  0.00000000000E+00 0.  1.
         -2   -1    0    0    0  501 -0.00000000000E+00 -0.00000000000E+00 -0.14009358793E+02  0.14009358793E+02  0.00000000000E+00 0.  1.
         25    1    1    2    0    0  0.44512966698E+02  0.31897493208E+02  0.44876844236E+03  0.46775203808E+03  0.12000000000E+03 0.  0.
         25    1    1    2    0    0 -0.44512966698E+02 -0.31897493208E+02  0.95832801820E+03  0.96736314006E+03  0.12000000000E+03 0.  0.
<mgrwt>
<rscale>  0 0.28219696E+03</rscale>
<asrwt>0</asrwt>
<pdfrwt beam="1">  1        2 0.21863155E+00 0.28219696E+03</pdfrwt>
<pdfrwt beam="2">  1       -2 0.21552871E-02 0.28219696E+03</pdfrwt>
<totfact> 0.10424231E+04</totfact>
</mgrwt>
</event>
<event>
 4    1  0.1762274E-004  0.3359681E+03  0.7818608E-02  0.1068526E+00
         -2   -1    0    0    0  501 -0.00000000000E+00  0.00000000000E+00  0.28405437125E+02  0.28405437125E+02  0.00000000000E+00 0. -1.
          2   -1    0    0  501    0  0.00000000000E+00 -0.00000000000E+00 -0.99342385604E+03  0.99342385604E+03  0.00000000000E+00 0. -1.
         25    1    1    2    0    0 -0.73468249692E+02  0.85579469681E+02 -0.38176383648E+03  0.41577043689E+03  0.12000000000E+03 0.  0.
         25    1    1    2    0    0  0.73468249692E+02 -0.85579469681E+02 -0.58325458243E+03  0.60605885627E+03  0.12000000000E+03 0.  0.
<mgrwt>
<rscale>  0 0.33596809E+03</rscale>
<asrwt>0</asrwt>
<pdfrwt beam="1">  1        2 0.15283444E+00 0.33596809E+03</pdfrwt>
<pdfrwt beam="2">  1       -2 0.43700673E-02 0.33596809E+03</pdfrwt>
<totfact> 0.63931873E+03</totfact>
</mgrwt>
</event>
<event>
 4    1  0.1762274E-004  0.2630547E+03  0.7818608E-02  0.1105322E+00
         -1   -1    0    0    0  501 -0.00000000000E+00  0.00000000000E+00  0.30296021429E+02  0.30296021429E+02  0.00000000000E+00 0. -1.
          1   -1    0    0  501    0  0.00000000000E+00 -0.00000000000E+00 -0.57101389780E+03  0.57101389780E+03  0.00000000000E+00 0. -1.
         25    1    1    2    0    0  0.44190144374E+02 -0.17857650396E+02 -0.21308492526E+03  0.24915226251E+03  0.12000000000E+03 0.  0.
         25    1    1    2    0    0 -0.44190144374E+02  0.17857650396E+02 -0.32763295111E+03  0.35215765672E+03  0.12000000000E+03 0.  0.
<mgrwt>
<rscale>  0 0.26305474E+03</rscale>
<asrwt>0</asrwt>
<pdfrwt beam="1">  1        1 0.87848287E-01 0.26305474E+03</pdfrwt>
<pdfrwt beam="2">  1       -1 0.46609266E-02 0.26305474E+03</pdfrwt>
<totfact> 0.73257987E+03</totfact>
</mgrwt>
</event>
<event>
 4    1  0.1762274E-004  0.2548704E+03  0.7818608E-02  0.1110265E+00
         -2   -1    0    0    0  501 -0.00000000000E+00  0.00000000000E+00  0.22400991953E+02  0.22400991953E+02  0.00000000000E+00 0. -1.
          2   -1    0    0  501    0  0.00000000000E+00 -0.00000000000E+00 -0.72495561336E+03  0.72495561336E+03  0.00000000000E+00 0. -1.
         25    1    1    2    0    0  0.16906172625E+02  0.11637305821E+02 -0.24083892506E+03  0.26986039610E+03  0.12000000000E+03 0.  0.
         25    1    1    2    0    0 -0.16906172625E+02 -0.11637305821E+02 -0.46171569635E+03  0.47749620921E+03  0.12000000000E+03 0.  0.
<mgrwt>
<rscale>  0 0.25487036E+03</rscale>
<asrwt>0</asrwt>
<pdfrwt beam="1">  1        2 0.11153165E+00 0.25487036E+03</pdfrwt>
<pdfrwt beam="2">  1       -2 0.34463060E-02 0.25487036E+03</pdfrwt>
<totfact> 0.13707350E+04</totfact>
</mgrwt>
</event>
<event>
 4    1  0.1762274E-004  0.2652204E+03  0.7818608E-02  0.1104047E+00
          1   -1    0    0  501    0  0.00000000000E+00  0.00000000000E+00  0.13932613680E+02  0.13932613680E+02  0.00000000000E+00 0. -1.
         -1   -1    0    0    0  501 -0.00000000000E+00 -0.00000000000E+00 -0.12621798666E+04  0.12621798666E+04  0.00000000000E+00 0. -1.
         25    1    1    2    0    0 -0.48484071970E+02 -0.22619404696E+02 -0.71061347749E+03  0.72265749639E+03  0.12000000000E+03 0.  0.
         25    1    1    2    0    0  0.48484071970E+02  0.22619404696E+02 -0.53763377539E+03  0.55345498385E+03  0.12000000000E+03 0.  0.
<mgrwt>
<rscale>  0 0.26522039E+03</rscale>
<asrwt>0</asrwt>
<pdfrwt beam="1">  1        1 0.21434789E-02 0.26522039E+03</pdfrwt>
<pdfrwt beam="2">  1       -1 0.19418153E+00 0.26522039E+03</pdfrwt>
<totfact> 0.10013144E+03</totfact>
</mgrwt>
</event>
<event>
 4    1  0.1762274E-004  0.2749639E+03  0.7818608E-02  0.1098472E+00
         -2   -1    0    0    0  501 -0.00000000000E+00  0.00000000000E+00  0.53894994177E+02  0.53894994177E+02  0.00000000000E+00 0. -1.
          2   -1    0    0  501    0  0.00000000000E+00 -0.00000000000E+00 -0.35070587418E+03  0.35070587418E+03  0.00000000000E+00 0. -1.
         25    1    1    2    0    0 -0.11650091282E+01  0.36249630736E+02 -0.23146067639E+03  0.26322886941E+03  0.12000000000E+03 0.  0.
         25    1    1    2    0    0  0.11650091282E+01 -0.36249630736E+02 -0.65350203614E+02  0.14137199895E+03  0.12000000000E+03 0.  0.
<mgrwt>
<rscale>  0 0.27496393E+03</rscale>
<asrwt>0</asrwt>
<pdfrwt beam="1">  1        2 0.53954749E-01 0.27496393E+03</pdfrwt>
<pdfrwt beam="2">  1       -2 0.82915377E-02 0.27496393E+03</pdfrwt>
<totfact> 0.81824639E+03</totfact>
</mgrwt>
</event>
<event>
 4    1  0.1762274E-004  0.2658339E+03  0.7818608E-02  0.1103688E+00
          2   -1    0    0  501    0  0.00000000000E+00  0.00000000000E+00  0.23781037201E+03  0.23781037201E+03  0.00000000000E+00 0.  1.
         -2   -1    0    0    0  501 -0.00000000000E+00 -0.00000000000E+00 -0.74289935555E+02  0.74289935555E+02  0.00000000000E+00 0.  1.
         25    1    1    2    0    0  0.28671393460E+02 -0.45375512025E+02  0.58695995439E+02  0.14396598826E+03  0.12000000000E+03 0.  0.
         25    1    1    2    0    0 -0.28671393460E+02  0.45375512025E+02  0.10482444102E+03  0.16813431931E+03  0.12000000000E+03 0.  0.
<mgrwt>
<rscale>  0 0.26583391E+03</rscale>
<asrwt>0</asrwt>
<pdfrwt beam="1">  1        2 0.36586211E-01 0.26583391E+03</pdfrwt>
<pdfrwt beam="2">  1       -2 0.11429221E-01 0.26583391E+03</pdfrwt>
<totfact> 0.74643822E+03</totfact>
</mgrwt>
</event>
<event>
 4    1  0.1762274E-004  0.3503913E+03  0.7818608E-02  0.1062455E+00
         -2   -1    0    0    0  501 -0.00000000000E+00  0.00000000000E+00  0.13433914078E+02  0.13433914078E+02  0.00000000000E+00 0. -1.
          2   -1    0    0  501    0  0.00000000000E+00 -0.00000000000E+00 -0.22847776855E+04  0.22847776855E+04  0.00000000000E+00 0. -1.
         25    1    1    2    0    0 -0.22930487602E+02 -0.79614835148E+02 -0.49876832991E+03  0.51964812726E+03  0.12000000000E+03 0.  0.
         25    1    1    2    0    0  0.22930487602E+02  0.79614835148E+02 -0.17725754415E+04  0.17785634723E+04  0.12000000000E+03 0.  0.
<mgrwt>
<rscale>  0 0.35039125E+03</rscale>
<asrwt>0</asrwt>
<pdfrwt beam="1">  1        2 0.35150434E+00 0.35039125E+03</pdfrwt>
<pdfrwt beam="2">  1       -2 0.20667555E-02 0.35039125E+03</pdfrwt>
<totfact> 0.38521926E+03</totfact>
</mgrwt>
</event>
<event>
 4    1  0.1762274E-004  0.2416387E+03  0.7818608E-02  0.1118706E+00
         -1   -1    0    0    0  501 -0.00000000000E+00  0.00000000000E+00  0.47094955466E+03  0.47094955466E+03  0.00000000000E+00 0.  1.
          1   -1    0    0  501    0  0.00000000000E+00 -0.00000000000E+00 -0.30995487433E+02  0.30995487433E+02  0.00000000000E+00 0.  1.
         25    1    1    2    0    0 -0.10752756542E+02  0.63918979833E+01  0.23325081604E+03  0.26260697119E+03  0.12000000000E+03 0.  0.
         25    1    1    2    0    0  0.10752756542E+02 -0.63918979833E+01  0.20670325118E+03  0.23933807090E+03  0.12000000000E+03 0.  0.
<mgrwt>
<rscale>  0 0.24163866E+03</rscale>
<asrwt>0</asrwt>
<pdfrwt beam="1">  1        1 0.47685369E-02 0.24163866E+03</pdfrwt>
<pdfrwt beam="2">  1       -1 0.72453773E-01 0.24163866E+03</pdfrwt>
<totfact> 0.35264225E+03</totfact>
</mgrwt>
</event>
<event>
 4    1  0.1762274E-004  0.3079196E+03  0.7818608E-02  0.1081347E+00
         -2   -1    0    0    0  501 -0.00000000000E+00  0.00000000000E+00  0.37760165767E+02  0.37760165767E+02  0.00000000000E+00 0. -1.
          2   -1    0    0  501    0  0.00000000000E+00 -0.00000000000E+00 -0.62774158244E+03  0.62774158244E+03  0.00000000000E+00 0. -1.
         25    1    1    2    0    0 -0.91220828346E+02 -0.31337915491E+02 -0.29621663496E+03  0.33383768406E+03  0.12000000000E+03 0.  0.
         25    1    1    2    0    0  0.91220828346E+02  0.31337915491E+02 -0.29376478171E+03  0.33166406415E+03  0.12000000000E+03 0.  0.
<mgrwt>
<rscale>  0 0.30791964E+03</rscale>
<asrwt>0</asrwt>
<pdfrwt beam="1">  1        2 0.96575624E-01 0.30791964E+03</pdfrwt>
<pdfrwt beam="2">  1       -2 0.58092565E-02 0.30791964E+03</pdfrwt>
<totfact> 0.74440183E+03</totfact>
</mgrwt>
</event>
<event>
 4    1  0.1762274E-004  0.3698412E+03  0.7818608E-02  0.1054754E+00
         -3   -1    0    0    0  501 -0.00000000000E+00  0.00000000000E+00  0.48612165642E+02  0.48612165642E+02  0.00000000000E+00 0. -1.
          3   -1    0    0  501    0  0.00000000000E+00 -0.00000000000E+00 -0.70343762137E+03  0.70343762137E+03  0.00000000000E+00 0. -1.
         25    1    1    2    0    0  0.63305085873E+02 -0.25417852185E+02 -0.77191992018E+02  0.15815247307E+03  0.12000000000E+03 0.  0.
         25    1    1    2    0    0 -0.63305085873E+02  0.25417852185E+02 -0.57763346371E+03  0.59389731394E+03  0.12000000000E+03 0.  0.
<mgrwt>
<rscale>  0 0.36984119E+03</rscale>
<asrwt>0</asrwt>
<pdfrwt beam="1">  1        3 0.10822116E+00 0.36984119E+03</pdfrwt>
<pdfrwt beam="2">  1       -3 0.74787954E-02 0.36984119E+03</pdfrwt>
<totfact> 0.23265860E+02</totfact>
</mgrwt>
</event>
<event>
 4    1  0.1762274E-004  0.3354135E+03  0.7818608E-02  0.1068766E+00
          2   -1    0    0  501    0  0.00000000000E+00  0.00000000000E+00  0.35190882565E+04  0.35190882565E+04  0.00000000000E+00 0.  1.
         -2   -1    0    0    0  501 -0.00000000000E+00 -0.00000000000E+00 -0.79922840955E+01  0.79922840955E+01  0.00000000000E+00 0.  1.
         25    1    1    2    0    0  0.55647508484E+02 -0.54687752861E+02  0.83651912011E+03  0.84867640112E+03  0.12000000000E+03 0.  0.
         25    1    1    2    0    0 -0.55647508484E+02  0.54687752861E+02  0.26745768523E+04  0.26784041394E+04  0.12000000000E+03 0.  0.
<mgrwt>
<rscale>  0 0.33541349E+03</rscale>
<asrwt>0</asrwt>
<pdfrwt beam="1">  1        2 0.54139696E+00 0.33541349E+03</pdfrwt>
<pdfrwt beam="2">  1       -2 0.12295850E-02 0.33541349E+03</pdfrwt>
<totfact> 0.15386874E+03</totfact>
</mgrwt>
</event>
<event>
 4    1  0.1762274E-004  0.2597179E+03  0.7818608E-02  0.1107313E+00
          2   -1    0    0  501    0  0.00000000000E+00  0.00000000000E+00  0.98444163818E+03  0.98444163818E+03  0.00000000000E+00 0.  1.
         -2   -1    0    0    0  501 -0.00000000000E+00 -0.00000000000E+00 -0.17129858502E+02  0.17129858502E+02  0.00000000000E+00 0.  1.
         25    1    1    2    0    0  0.73686656087E+01  0.49075196835E+02  0.48682138679E+03  0.50384296642E+03  0.12000000000E+03 0.  0.
         25    1    1    2    0    0 -0.73686656087E+01 -0.49075196835E+02  0.48049039288E+03  0.49772853025E+03  0.12000000000E+03 0.  0.
<mgrwt>
<rscale>  0 0.25971789E+03</rscale>
<asrwt>0</asrwt>
<pdfrwt beam="1">  1        2 0.15145252E+00 0.25971789E+03</pdfrwt>
<pdfrwt beam="2">  1       -2 0.26353636E-02 0.25971789E+03</pdfrwt>
<totfact> 0.13721525E+04</totfact>
</mgrwt>
</event>
<event>
 4    1  0.1762274E-004  0.2882289E+03  0.7818608E-02  0.1091277E+00
          2   -1    0    0  501    0  0.00000000000E+00  0.00000000000E+00  0.26714334260E+03  0.26714334260E+03  0.00000000000E+00 0.  1.
         -2   -1    0    0    0  501 -0.00000000000E+00 -0.00000000000E+00 -0.77744679119E+02  0.77744679119E+02  0.00000000000E+00 0.  1.
         25    1    1    2    0    0  0.53543036601E+02  0.53555143709E+02  0.12482749429E+03  0.18898918889E+03  0.12000000000E+03 0.  0.
         25    1    1    2    0    0 -0.53543036601E+02 -0.53555143709E+02  0.64571169186E+02  0.15589883283E+03  0.12000000000E+03 0.  0.
<mgrwt>
<rscale>  0 0.28822889E+03</rscale>
<asrwt>0</asrwt>
<pdfrwt beam="1">  1        2 0.41098975E-01 0.28822889E+03</pdfrwt>
<pdfrwt beam="2">  1       -2 0.11960720E-01 0.28822889E+03</pdfrwt>
<totfact> 0.61361274E+03</totfact>
</mgrwt>
</event>
<event>
 4    1  0.1762274E-004  0.2594370E+03  0.7818608E-02  0.1107482E+00
          2   -1    0    0  501    0  0.00000000000E+00  0.00000000000E+00  0.19941410063E+03  0.19941410063E+03  0.00000000000E+00 0.  1.
         -2   -1    0    0    0  501 -0.00000000000E+00 -0.00000000000E+00 -0.84381674467E+02  0.84381674467E+02  0.00000000000E+00 0.  1.
         25    1    1    2    0    0 -0.26040945458E+02  0.41598016412E+02  0.52827782494E+02  0.13999750145E+03  0.12000000000E+03 0.  0.
         25    1    1    2    0    0  0.26040945458E+02 -0.41598016412E+02  0.62204643671E+02  0.14379827365E+03  0.12000000000E+03 0.  0.
<mgrwt>
<rscale>  0 0.25943705E+03</rscale>
<asrwt>0</asrwt>
<pdfrwt beam="1">  1        2 0.30679092E-01 0.25943705E+03</pdfrwt>
<pdfrwt beam="2">  1       -2 0.12981796E-01 0.25943705E+03</pdfrwt>
<totfact> 0.73514870E+03</totfact>
</mgrwt>
</event>
<event>
 4    1  0.1762274E-004  0.2499994E+03  0.7818608E-02  0.1113305E+00
         -3   -1    0    0    0  501 -0.00000000000E+00  0.00000000000E+00  0.38018480591E+02  0.38018480591E+02  0.00000000000E+00 0.  1.
          3   -1    0    0  501    0  0.00000000000E+00 -0.00000000000E+00 -0.41098230214E+03  0.41098230214E+03  0.00000000000E+00 0.  1.
         25    1    1    2    0    0  0.25130064771E+02 -0.11702086952E+02 -0.22485363184E+03  0.25637397439E+03  0.12000000000E+03 0.  0.
         25    1    1    2    0    0 -0.25130064771E+02  0.11702086952E+02 -0.14811018971E+03  0.19262680834E+03  0.12000000000E+03 0.  0.
<mgrwt>
<rscale>  0 0.24999938E+03</rscale>
<asrwt>0</asrwt>
<pdfrwt beam="1">  1        3 0.63228051E-01 0.24999938E+03</pdfrwt>
<pdfrwt beam="2">  1       -3 0.58489966E-02 0.24999938E+03</pdfrwt>
<totfact> 0.11020773E+03</totfact>
</mgrwt>
</event>
<event>
 4    1  0.1762274E-004  0.2528325E+03  0.7818608E-02  0.1111528E+00
          1   -1    0    0  501    0  0.00000000000E+00  0.00000000000E+00  0.92126788521E+02  0.92126788521E+02  0.00000000000E+00 0. -1.
         -1   -1    0    0    0  501 -0.00000000000E+00 -0.00000000000E+00 -0.17346813778E+03  0.17346813778E+03  0.00000000000E+00 0. -1.
         25    1    1    2    0    0  0.58465417003E+01 -0.33534839255E+01 -0.81835937255E+02  0.14540477479E+03  0.12000000000E+03 0.  0.
         25    1    1    2    0    0 -0.58465417003E+01  0.33534839255E+01  0.49458799478E+00  0.12019015152E+03  0.12000000000E+03 0.  0.
<mgrwt>
<rscale>  0 0.25283245E+03</rscale>
<asrwt>0</asrwt>
<pdfrwt beam="1">  1        1 0.14173352E-01 0.25283245E+03</pdfrwt>
<pdfrwt beam="2">  1       -1 0.26687405E-01 0.25283245E+03</pdfrwt>
<totfact> 0.49563456E+03</totfact>
</mgrwt>
</event>
<event>
 4    1  0.1762274E-004  0.2869164E+03  0.7818608E-02  0.1091970E+00
          2   -1    0    0  501    0  0.00000000000E+00  0.00000000000E+00  0.19305570486E+04  0.19305570486E+04  0.00000000000E+00 0. -1.
         -2   -1    0    0    0  501 -0.00000000000E+00 -0.00000000000E+00 -0.10660268555E+02  0.10660268555E+02  0.00000000000E+00 0. -1.
         25    1    1    2    0    0 -0.51817408387E+02 -0.10118050761E+02  0.13540428410E+04  0.13603747403E+04  0.12000000000E+03 0.  0.
         25    1    1    2    0    0  0.51817408387E+02  0.10118050761E+02  0.56585393901E+03  0.58084257682E+03  0.12000000000E+03 0.  0.
<mgrwt>
<rscale>  0 0.28691641E+03</rscale>
<asrwt>0</asrwt>
<pdfrwt beam="1">  1        2 0.29700850E+00 0.28691641E+03</pdfrwt>
<pdfrwt beam="2">  1       -2 0.16400429E-02 0.28691641E+03</pdfrwt>
<totfact> 0.83691068E+03</totfact>
</mgrwt>
</event>
<event>
 4    1  0.1762274E-004  0.2743097E+03  0.7818608E-02  0.1098838E+00
         -1   -1    0    0    0  501 -0.00000000000E+00  0.00000000000E+00  0.15727081328E+02  0.15727081328E+02  0.00000000000E+00 0. -1.
          1   -1    0    0  501    0  0.00000000000E+00 -0.00000000000E+00 -0.11961185548E+04  0.11961185548E+04  0.00000000000E+00 0. -1.
         25    1    1    2    0    0 -0.44374561383E+02 -0.12499168075E+02 -0.37896558378E+03  0.40017526734E+03  0.12000000000E+03 0.  0.
         25    1    1    2    0    0  0.44374561383E+02  0.12499168075E+02 -0.80142588966E+03  0.81167036876E+03  0.12000000000E+03 0.  0.
<mgrwt>
<rscale>  0 0.27430971E+03</rscale>
<asrwt>0</asrwt>
<pdfrwt beam="1">  1        1 0.18401825E+00 0.27430971E+03</pdfrwt>
<pdfrwt beam="2">  1       -1 0.24195509E-02 0.27430971E+03</pdfrwt>
<totfact> 0.59699355E+03</totfact>
</mgrwt>
</event>
<event>
 4    1  0.1762274E-004  0.2447469E+03  0.7818608E-02  0.1116670E+00
          1   -1    0    0  501    0  0.00000000000E+00  0.00000000000E+00  0.82039046119E+03  0.82039046119E+03  0.00000000000E+00 0. -1.
         -1   -1    0    0    0  501 -0.00000000000E+00 -0.00000000000E+00 -0.18253828258E+02  0.18253828258E+02  0.00000000000E+00 0. -1.
         25    1    1    2    0    0 -0.14751055114E+02 -0.15789537040E+02  0.43673822376E+03  0.45343927841E+03  0.12000000000E+03 0.  0.
         25    1    1    2    0    0  0.14751055114E+02  0.15789537040E+02  0.36539840917E+03  0.38520501104E+03  0.12000000000E+03 0.  0.
<mgrwt>
<rscale>  0 0.24474694E+03</rscale>
<asrwt>0</asrwt>
<pdfrwt beam="1">  1        1 0.12621389E+00 0.24474694E+03</pdfrwt>
<pdfrwt beam="2">  1       -1 0.28082819E-02 0.24474694E+03</pdfrwt>
<totfact> 0.91504951E+03</totfact>
</mgrwt>
</event>
<event>
 4    1  0.1762274E-004  0.3109307E+03  0.7818608E-02  0.1079901E+00
          2   -1    0    0  501    0  0.00000000000E+00  0.00000000000E+00  0.12143869149E+04  0.12143869149E+04  0.00000000000E+00 0. -1.
         -2   -1    0    0    0  501 -0.00000000000E+00 -0.00000000000E+00 -0.19902614654E+02  0.19902614654E+02  0.00000000000E+00 0. -1.
         25    1    1    2    0    0 -0.90405644750E+02 -0.46905581411E+00  0.43865062334E+03  0.46366773661E+03  0.12000000000E+03 0.  0.
         25    1    1    2    0    0  0.90405644750E+02  0.46905581411E+00  0.75583367688E+03  0.77062179292E+03  0.12000000000E+03 0.  0.
<mgrwt>
<rscale>  0 0.31093070E+03</rscale>
<asrwt>0</asrwt>
<pdfrwt beam="1">  1        2 0.18682870E+00 0.31093070E+03</pdfrwt>
<pdfrwt beam="2">  1       -2 0.30619417E-02 0.31093070E+03</pdfrwt>
<totfact> 0.80725687E+03</totfact>
</mgrwt>
</event>
<event>
 4    1  0.1762274E-004  0.3392531E+03  0.7818608E-02  0.1067114E+00
          2   -1    0    0  501    0  0.00000000000E+00  0.00000000000E+00  0.77276656530E+03  0.77276656530E+03  0.00000000000E+00 0. -1.
         -2   -1    0    0    0  501 -0.00000000000E+00 -0.00000000000E+00 -0.37233964345E+02  0.37233964345E+02  0.00000000000E+00 0. -1.
         25    1    1    2    0    0 -0.62069733141E+02 -0.21621214323E+02  0.60715854854E+03  0.62238382993E+03  0.12000000000E+03 0.  0.
         25    1    1    2    0    0  0.62069733141E+02  0.21621214323E+02  0.12837405241E+03  0.18761669972E+03  0.12000000000E+03 0.  0.
<mgrwt>
<rscale>  0 0.33925308E+03</rscale>
<asrwt>0</asrwt>
<pdfrwt beam="1">  1        2 0.11888715E+00 0.33925308E+03</pdfrwt>
<pdfrwt beam="2">  1       -2 0.57283028E-02 0.33925308E+03</pdfrwt>
<totfact> 0.59155341E+03</totfact>
</mgrwt>
</event>
<event>
 4    1  0.1762274E-004  0.2863145E+03  0.7818608E-02  0.1092289E+00
         -2   -1    0    0    0  501 -0.00000000000E+00  0.00000000000E+00  0.61082453751E+03  0.61082453751E+03  0.00000000000E+00 0. -1.
          2   -1    0    0  501    0  0.00000000000E+00 -0.00000000000E+00 -0.33551359462E+02  0.33551359462E+02  0.00000000000E+00 0. -1.
         25    1    1    2    0    0 -0.43345128500E+02 -0.16194174602E+02  0.43013651855E+03  0.44895264343E+03  0.12000000000E+03 0.  0.
         25    1    1    2    0    0  0.43345128500E+02  0.16194174602E+02  0.14713665951E+03  0.19542325355E+03  0.12000000000E+03 0.  0.
<mgrwt>
<rscale>  0 0.28631447E+03</rscale>
<asrwt>0</asrwt>
<pdfrwt beam="1">  1        2 0.51617481E-02 0.28631447E+03</pdfrwt>
<pdfrwt beam="2">  1       -2 0.93972997E-01 0.28631447E+03</pdfrwt>
<totfact> 0.14931484E+03</totfact>
</mgrwt>
</event>
<event>
 4    1  0.1762274E-004  0.3136106E+03  0.7818608E-02  0.1078628E+00
         -2   -1    0    0    0  501 -0.00000000000E+00  0.00000000000E+00  0.15986125330E+02  0.15986125330E+02  0.00000000000E+00 0.  1.
          2   -1    0    0  501    0  0.00000000000E+00 -0.00000000000E+00 -0.15380774941E+04  0.15380774941E+04  0.00000000000E+00 0.  1.
         25    1    1    2    0    0  0.88043204602E+02 -0.44353732153E+02 -0.65372508351E+03  0.67191915008E+03  0.12000000000E+03 0.  0.
         25    1    1    2    0    0 -0.88043204602E+02  0.44353732153E+02 -0.86836628527E+03  0.88214446937E+03  0.12000000000E+03 0.  0.
<mgrwt>
<rscale>  0 0.31361058E+03</rscale>
<asrwt>0</asrwt>
<pdfrwt beam="1">  1        2 0.23662739E+00 0.31361058E+03</pdfrwt>
<pdfrwt beam="2">  1       -2 0.24594031E-02 0.31361058E+03</pdfrwt>
<totfact> 0.74286413E+03</totfact>
</mgrwt>
</event>
<event>
 4    1  0.1762274E-004  0.3632103E+03  0.7818608E-02  0.1057320E+00
          2   -1    0    0  501    0  0.00000000000E+00  0.00000000000E+00  0.68775350458E+03  0.68775350458E+03  0.00000000000E+00 0. -1.
         -2   -1    0    0    0  501 -0.00000000000E+00 -0.00000000000E+00 -0.47953853319E+02  0.47953853319E+02  0.00000000000E+00 0. -1.
         25    1    1    2    0    0 -0.71122846423E+02 -0.80393282571E+02  0.14971720926E+03  0.21985627559E+03  0.12000000000E+03 0.  0.
         25    1    1    2    0    0  0.71122846423E+02  0.80393282571E+02  0.49008244200E+03  0.51585108231E+03  0.12000000000E+03 0.  0.
<mgrwt>
<rscale>  0 0.36321030E+03</rscale>
<asrwt>0</asrwt>
<pdfrwt beam="1">  1        2 0.10580822E+00 0.36321030E+03</pdfrwt>
<pdfrwt beam="2">  1       -2 0.73775164E-02 0.36321030E+03</pdfrwt>
<totfact> 0.46228163E+03</totfact>
</mgrwt>
</event>
<event>
 4    1  0.1762274E-004  0.2913278E+03  0.7818608E-02  0.1089658E+00
         -2   -1    0    0    0  501 -0.00000000000E+00  0.00000000000E+00  0.36668033647E+02  0.36668033647E+02  0.00000000000E+00 0.  1.
          2   -1    0    0  501    0  0.00000000000E+00 -0.00000000000E+00 -0.57865030963E+03  0.57865030963E+03  0.00000000000E+00 0.  1.
         25    1    1    2    0    0  0.63991160811E+02  0.19779344413E+01 -0.38112924030E+03  0.40467058047E+03  0.12000000000E+03 0.  0.
         25    1    1    2    0    0 -0.63991160811E+02 -0.19779344413E+01 -0.16085303568E+03  0.21064776280E+03  0.12000000000E+03 0.  0.
<mgrwt>
<rscale>  0 0.29132778E+03</rscale>
<asrwt>0</asrwt>
<pdfrwt beam="1">  1        2 0.89023120E-01 0.29132778E+03</pdfrwt>
<pdfrwt beam="2">  1       -2 0.56412362E-02 0.29132778E+03</pdfrwt>
<totfact> 0.85487042E+03</totfact>
</mgrwt>
</event>
<event>
 4    1  0.1762274E-004  0.3057728E+03  0.7818608E-02  0.1082390E+00
          1   -1    0    0  501    0  0.00000000000E+00  0.00000000000E+00  0.11265752190E+04  0.11265752190E+04  0.00000000000E+00 0.  1.
         -1   -1    0    0    0  501 -0.00000000000E+00 -0.00000000000E+00 -0.20748057220E+02  0.20748057220E+02  0.00000000000E+00 0.  1.
         25    1    1    2    0    0 -0.20710555342E+02 -0.68263788930E+02  0.78679917397E+03  0.79908811288E+03  0.12000000000E+03 0.  0.
         25    1    1    2    0    0  0.20710555342E+02  0.68263788930E+02  0.31902798781E+03  0.34823516334E+03  0.12000000000E+03 0.  0.
<mgrwt>
<rscale>  0 0.30577277E+03</rscale>
<asrwt>0</asrwt>
<pdfrwt beam="1">  1        1 0.17331922E+00 0.30577277E+03</pdfrwt>
<pdfrwt beam="2">  1       -1 0.31920097E-02 0.30577277E+03</pdfrwt>
<totfact> 0.44502526E+03</totfact>
</mgrwt>
</event>
<event>
 4    1  0.1762274E-004  0.3427509E+03  0.7818608E-02  0.1065630E+00
          1   -1    0    0  501    0  0.00000000000E+00  0.00000000000E+00  0.16853983091E+04  0.16853983091E+04  0.00000000000E+00 0. -1.
         -1   -1    0    0    0  501 -0.00000000000E+00 -0.00000000000E+00 -0.17425879882E+02  0.17425879882E+02  0.00000000000E+00 0. -1.
         25    1    1    2    0    0  0.11074351662E+03 -0.23599228212E+02  0.10642675301E+04  0.10769802346E+04  0.12000000000E+03 0.  0.
         25    1    1    2    0    0 -0.11074351662E+03  0.23599228212E+02  0.60370489909E+03  0.62584395438E+03  0.12000000000E+03 0.  0.
<mgrwt>
<rscale>  0 0.34275092E+03</rscale>
<asrwt>0</asrwt>
<pdfrwt beam="1">  1        1 0.25929192E+00 0.34275092E+03</pdfrwt>
<pdfrwt beam="2">  1       -1 0.26809059E-02 0.34275092E+03</pdfrwt>
<totfact> 0.24048367E+03</totfact>
</mgrwt>
</event>
<event>
 4    1  0.1762274E-004  0.2467980E+03  0.7818608E-02  0.1115345E+00
         -2   -1    0    0    0  501 -0.00000000000E+00  0.00000000000E+00  0.11722214921E+02  0.11722214921E+02  0.00000000000E+00 0.  1.
          2   -1    0    0  501    0  0.00000000000E+00 -0.00000000000E+00 -0.12990128064E+04  0.12990128064E+04  0.00000000000E+00 0.  1.
         25    1    1    2    0    0 -0.19748682887E+01  0.25321746422E+02 -0.71533669042E+03  0.72577659897E+03  0.12000000000E+03 0.  0.
         25    1    1    2    0    0  0.19748682887E+01 -0.25321746422E+02 -0.57195390106E+03  0.58495842236E+03  0.12000000000E+03 0.  0.
<mgrwt>
<rscale>  0 0.24679795E+03</rscale>
<asrwt>0</asrwt>
<pdfrwt beam="1">  1        2 0.19984822E+00 0.24679795E+03</pdfrwt>
<pdfrwt beam="2">  1       -2 0.18034168E-02 0.24679795E+03</pdfrwt>
<totfact> 0.15735071E+04</totfact>
</mgrwt>
</event>
<event>
 4    1  0.1762274E-004  0.2991074E+03  0.7818608E-02  0.1085688E+00
          2   -1    0    0  501    0  0.00000000000E+00  0.00000000000E+00  0.10082548674E+04  0.10082548674E+04  0.00000000000E+00 0.  1.
         -2   -1    0    0    0  501 -0.00000000000E+00 -0.00000000000E+00 -0.22183195416E+02  0.22183195416E+02  0.00000000000E+00 0.  1.
         25    1    1    2    0    0  0.12453196409E+02 -0.86749489888E+02  0.43479945499E+03  0.45949006752E+03  0.12000000000E+03 0.  0.
         25    1    1    2    0    0 -0.12453196409E+02  0.86749489888E+02  0.55127221705E+03  0.57094799534E+03  0.12000000000E+03 0.  0.
<mgrwt>
<rscale>  0 0.29910744E+03</rscale>
<asrwt>0</asrwt>
<pdfrwt beam="1">  1        2 0.15511610E+00 0.29910744E+03</pdfrwt>
<pdfrwt beam="2">  1       -2 0.34128001E-02 0.29910744E+03</pdfrwt>
<totfact> 0.90670599E+03</totfact>
</mgrwt>
</event>
<event>
 4    1  0.1762274E-004  0.3232770E+03  0.7818608E-02  0.1074151E+00
         -2   -1    0    0    0  501 -0.00000000000E+00  0.00000000000E+00  0.45226640340E+02  0.45226640340E+02  0.00000000000E+00 0. -1.
          2   -1    0    0  501    0  0.00000000000E+00 -0.00000000000E+00 -0.57769052088E+03  0.57769052088E+03  0.00000000000E+00 0. -1.
         25    1    1    2    0    0 -0.68349743536E+02 -0.78508421729E+01 -0.42737378827E+03  0.44920115546E+03  0.12000000000E+03 0.  0.
         25    1    1    2    0    0  0.68349743536E+02  0.78508421729E+01 -0.10509009227E+03  0.17371600576E+03  0.12000000000E+03 0.  0.
<mgrwt>
<rscale>  0 0.32327698E+03</rscale>
<asrwt>0</asrwt>
<pdfrwt beam="1">  1        2 0.88875457E-01 0.32327698E+03</pdfrwt>
<pdfrwt beam="2">  1       -2 0.69579453E-02 0.32327698E+03</pdfrwt>
<totfact> 0.62156293E+03</totfact>
</mgrwt>
</event>
<event>
 4    1  0.1762274E-004  0.2653144E+03  0.7818608E-02  0.1103992E+00
          1   -1    0    0  501    0  0.00000000000E+00  0.00000000000E+00  0.11640740721E+03  0.11640740721E+03  0.00000000000E+00 0.  1.
         -1   -1    0    0    0  501 -0.00000000000E+00 -0.00000000000E+00 -0.15117535134E+03  0.15117535134E+03  0.00000000000E+00 0.  1.
         25    1    1    2    0    0  0.11375339416E+02  0.18354953708E+02 -0.70095803820E+02  0.14064040808E+03  0.12000000000E+03 0.  0.
         25    1    1    2    0    0 -0.11375339416E+02 -0.18354953708E+02  0.35327859681E+02  0.12694235047E+03  0.12000000000E+03 0.  0.
<mgrwt>
<rscale>  0 0.26531438E+03</rscale>
<asrwt>0</asrwt>
<pdfrwt beam="1">  1        1 0.17908832E-01 0.26531438E+03</pdfrwt>
<pdfrwt beam="2">  1       -1 0.23257746E-01 0.26531438E+03</pdfrwt>
<totfact> 0.45969830E+03</totfact>
</mgrwt>
</event>
<event>
 4    1  0.1762274E-004  0.2528896E+03  0.7818608E-02  0.1111492E+00
          1   -1    0    0  501    0  0.00000000000E+00  0.00000000000E+00  0.93524756756E+03  0.93524756756E+03  0.00000000000E+00 0.  1.
         -1   -1    0    0    0  501 -0.00000000000E+00 -0.00000000000E+00 -0.17095242752E+02  0.17095242752E+02  0.00000000000E+00 0.  1.
         25    1    1    2    0    0  0.25692011948E+02  0.28999320960E+02  0.42390145991E+03  0.44225952540E+03  0.12000000000E+03 0.  0.
         25    1    1    2    0    0 -0.25692011948E+02 -0.28999320960E+02  0.49425086490E+03  0.51008328491E+03  0.12000000000E+03 0.  0.
<mgrwt>
<rscale>  0 0.25288957E+03</rscale>
<asrwt>0</asrwt>
<pdfrwt beam="1">  1        1 0.14388420E+00 0.25288957E+03</pdfrwt>
<pdfrwt beam="2">  1       -1 0.26300381E-02 0.25288957E+03</pdfrwt>
<totfact> 0.81763910E+03</totfact>
</mgrwt>
</event>
<event>
 4    1  0.1762274E-004  0.2566178E+03  0.7818608E-02  0.1109192E+00
          1   -1    0    0  501    0  0.00000000000E+00  0.00000000000E+00  0.49286423069E+02  0.49286423069E+02  0.00000000000E+00 0. -1.
         -1   -1    0    0    0  501 -0.00000000000E+00 -0.00000000000E+00 -0.33403070645E+03  0.33403070645E+03  0.00000000000E+00 0. -1.
         25    1    1    2    0    0 -0.37826000994E+02 -0.67406872817E+01 -0.10618397566E+03  0.16477645433E+03  0.12000000000E+03 0.  0.
         25    1    1    2    0    0  0.37826000994E+02  0.67406872817E+01 -0.17856030772E+03  0.21854067518E+03  0.12000000000E+03 0.  0.
<mgrwt>
<rscale>  0 0.25661784E+03</rscale>
<asrwt>0</asrwt>
<pdfrwt beam="1">  1        1 0.75825268E-02 0.25661784E+03</pdfrwt>
<pdfrwt beam="2">  1       -1 0.51389338E-01 0.25661784E+03</pdfrwt>
<totfact> 0.36266499E+03</totfact>
</mgrwt>
</event>
<event>
 4    1  0.1762274E-004  0.2501362E+03  0.7818608E-02  0.1113219E+00
         -2   -1    0    0    0  501 -0.00000000000E+00  0.00000000000E+00  0.88330769741E+03  0.88330769741E+03  0.00000000000E+00 0.  1.
          2   -1    0    0  501    0  0.00000000000E+00 -0.00000000000E+00 -0.17708467501E+02  0.17708467501E+02  0.00000000000E+00 0.  1.
         25    1    1    2    0    0  0.65923767049E+01  0.34228554225E+02  0.45150708524E+03  0.46848020383E+03  0.12000000000E+03 0.  0.
         25    1    1    2    0    0 -0.65923767049E+01 -0.34228554225E+02  0.41409214467E+03  0.43253596109E+03  0.12000000000E+03 0.  0.
<mgrwt>
<rscale>  0 0.25013617E+03</rscale>
<asrwt>0</asrwt>
<pdfrwt beam="1">  1        2 0.27243803E-02 0.25013617E+03</pdfrwt>
<pdfrwt beam="2">  1       -2 0.13589346E+00 0.25013617E+03</pdfrwt>
<totfact> 0.14534497E+03</totfact>
</mgrwt>
</event>
<event>
 4    1  0.1762274E-004  0.2535670E+03  0.7818608E-02  0.1111071E+00
          2   -1    0    0  501    0  0.00000000000E+00  0.00000000000E+00  0.92636111772E+02  0.92636111772E+02  0.00000000000E+00 0.  1.
         -2   -1    0    0    0  501 -0.00000000000E+00 -0.00000000000E+00 -0.17351826137E+03  0.17351826137E+03  0.00000000000E+00 0.  1.
         25    1    1    2    0    0  0.33859776931E+02  0.15978166724E+02 -0.23121335474E+02  0.12781385864E+03  0.12000000000E+03 0.  0.
         25    1    1    2    0    0 -0.33859776931E+02 -0.15978166724E+02 -0.57760814129E+02  0.13834051451E+03  0.12000000000E+03 0.  0.
<mgrwt>
<rscale>  0 0.25356701E+03</rscale>
<asrwt>0</asrwt>
<pdfrwt beam="1">  1        2 0.14251710E-01 0.25356701E+03</pdfrwt>
<pdfrwt beam="2">  1       -2 0.26695116E-01 0.25356701E+03</pdfrwt>
<totfact> 0.51803630E+03</totfact>
</mgrwt>
</event>
<event>
 4    1  0.1762274E-004  0.2794834E+03  0.7818608E-02  0.1095971E+00
          1   -1    0    0  501    0  0.00000000000E+00  0.00000000000E+00  0.98594182966E+03  0.98594182966E+03  0.00000000000E+00 0.  1.
         -1   -1    0    0    0  501 -0.00000000000E+00 -0.00000000000E+00 -0.19806182255E+02  0.19806182255E+02  0.00000000000E+00 0.  1.
         25    1    1    2    0    0  0.47602856662E+01  0.39878965026E+02  0.26972380985E+03  0.29793275377E+03  0.12000000000E+03 0.  0.
         25    1    1    2    0    0 -0.47602856662E+01 -0.39878965026E+02  0.69641183756E+03  0.70781525814E+03  0.12000000000E+03 0.  0.
<mgrwt>
<rscale>  0 0.27948341E+03</rscale>
<asrwt>0</asrwt>
<pdfrwt beam="1">  1        1 0.15168332E+00 0.27948341E+03</pdfrwt>
<pdfrwt beam="2">  1       -1 0.30471057E-02 0.27948341E+03</pdfrwt>
<totfact> 0.60385586E+03</totfact>
</mgrwt>
</event>
<event>
 4    1  0.1762274E-004  0.2749336E+03  0.7818608E-02  0.1098489E+00
         -2   -1    0    0    0  501 -0.00000000000E+00  0.00000000000E+00  0.99492616161E+01  0.99492616161E+01  0.00000000000E+00 0. -1.
          2   -1    0    0  501    0  0.00000000000E+00 -0.00000000000E+00 -0.18993487619E+04  0.18993487619E+04  0.00000000000E+00 0. -1.
         25    1    1    2    0    0 -0.62088804279E+02  0.22330235723E+02 -0.86152157848E+03  0.87233771513E+03  0.12000000000E+03 0.  0.
         25    1    1    2    0    0  0.62088804279E+02 -0.22330235723E+02 -0.10278779218E+04  0.10369603083E+04  0.12000000000E+03 0.  0.
<mgrwt>
<rscale>  0 0.27493358E+03</rscale>
<asrwt>0</asrwt>
<pdfrwt beam="1">  1        2 0.29220736E+00 0.27493358E+03</pdfrwt>
<pdfrwt beam="2">  1       -2 0.15306564E-02 0.27493358E+03</pdfrwt>
<totfact> 0.96120311E+03</totfact>
</mgrwt>
</event>
<event>
 4    1  0.1762274E-004  0.3630842E+03  0.7818608E-02  0.1057369E+00
         -2   -1    0    0    0  501 -0.00000000000E+00  0.00000000000E+00  0.15506957171E+03  0.15506957171E+03  0.00000000000E+00 0. -1.
          2   -1    0    0  501    0  0.00000000000E+00 -0.00000000000E+00 -0.21253388016E+03  0.21253388016E+03  0.00000000000E+00 0. -1.
         25    1    1    2    0    0 -0.12586098858E+03  0.72152195673E+01  0.23529030127E+02  0.17563218127E+03  0.12000000000E+03 0.  0.
         25    1    1    2    0    0  0.12586098858E+03 -0.72152195673E+01 -0.80993338576E+02  0.19197127059E+03  0.12000000000E+03 0.  0.
<mgrwt>
<rscale>  0 0.36308422E+03</rscale>
<asrwt>0</asrwt>
<pdfrwt beam="1">  1        2 0.32697520E-01 0.36308422E+03</pdfrwt>
<pdfrwt beam="2">  1       -2 0.23856857E-01 0.36308422E+03</pdfrwt>
<totfact> 0.24747064E+03</totfact>
</mgrwt>
</event>
<event>
 4    1  0.1762274E-004  0.2909248E+03  0.7818608E-02  0.1089867E+00
          1   -1    0    0  501    0  0.00000000000E+00  0.00000000000E+00  0.98270406657E+03  0.98270406657E+03  0.00000000000E+00 0.  1.
         -1   -1    0    0    0  501 -0.00000000000E+00 -0.00000000000E+00 -0.21531727227E+02  0.21531727227E+02  0.00000000000E+00 0.  1.
         25    1    1    2    0    0  0.61927967390E+02  0.18662987877E+02  0.30539089262E+03  0.33443531147E+03  0.12000000000E+03 0.  0.
         25    1    1    2    0    0 -0.61927967390E+02 -0.18662987877E+02  0.65578144672E+03  0.66980048233E+03  0.12000000000E+03 0.  0.
<mgrwt>
<rscale>  0 0.29092484E+03</rscale>
<asrwt>0</asrwt>
<pdfrwt beam="1">  1        1 0.15118521E+00 0.29092484E+03</pdfrwt>
<pdfrwt beam="2">  1       -1 0.33125742E-02 0.29092484E+03</pdfrwt>
<totfact> 0.53706149E+03</totfact>
</mgrwt>
</event>
<event>
 4    1  0.1762274E-004  0.2604309E+03  0.7818608E-02  0.1106885E+00
          2   -1    0    0  501    0  0.00000000000E+00  0.00000000000E+00  0.22109849908E+04  0.22109849908E+04  0.00000000000E+00 0.  1.
         -2   -1    0    0    0  501 -0.00000000000E+00 -0.00000000000E+00 -0.76690065068E+01  0.76690065068E+01  0.00000000000E+00 0.  1.
         25    1    1    2    0    0 -0.34599277120E+02 -0.36816879097E+02  0.10857983386E+04  0.10935769862E+04  0.12000000000E+03 0.  0.
         25    1    1    2    0    0  0.34599277120E+02  0.36816879097E+02  0.11175176457E+04  0.11250770112E+04  0.12000000000E+03 0.  0.
<mgrwt>
<rscale>  0 0.26043086E+03</rscale>
<asrwt>0</asrwt>
<pdfrwt beam="1">  1        2 0.34015103E+00 0.26043086E+03</pdfrwt>
<pdfrwt beam="2">  1       -2 0.11798489E-02 0.26043086E+03</pdfrwt>
<totfact> 0.96205709E+03</totfact>
</mgrwt>
</event>
<event>
 4    1  0.1762274E-004  0.2594992E+03  0.7818608E-02  0.1107444E+00
         -2   -1    0    0    0  501 -0.00000000000E+00  0.00000000000E+00  0.44527518477E+02  0.44527518477E+02  0.00000000000E+00 0.  1.
          2   -1    0    0  501    0  0.00000000000E+00 -0.00000000000E+00 -0.37807986496E+03  0.37807986496E+03  0.00000000000E+00 0.  1.
         25    1    1    2    0    0 -0.10841005079E+02 -0.41732454454E+02 -0.12769664170E+03  0.18045929582E+03  0.12000000000E+03 0.  0.
         25    1    1    2    0    0  0.10841005079E+02  0.41732454454E+02 -0.20585570479E+03  0.24214808762E+03  0.12000000000E+03 0.  0.
<mgrwt>
<rscale>  0 0.25949920E+03</rscale>
<asrwt>0</asrwt>
<pdfrwt beam="1">  1        2 0.58166132E-01 0.25949920E+03</pdfrwt>
<pdfrwt beam="2">  1       -2 0.68503876E-02 0.25949920E+03</pdfrwt>
<totfact> 0.10128566E+04</totfact>
</mgrwt>
</event>
<event>
 4    1  0.1762274E-004  0.5193524E+03  0.7818608E-02  0.1008848E+00
          1   -1    0    0  501    0  0.00000000000E+00  0.00000000000E+00  0.14361542332E+03  0.14361542332E+03  0.00000000000E+00 0. -1.
         -1   -1    0    0    0  501 -0.00000000000E+00 -0.00000000000E+00 -0.46952985054E+03  0.46952985054E+03  0.00000000000E+00 0. -1.
         25    1    1    2    0    0  0.21719963771E+03 -0.29579364022E+02 -0.24628007449E+03  0.35086250368E+03  0.12000000000E+03 0.  0.
         25    1    1    2    0    0 -0.21719963771E+03  0.29579364022E+02 -0.79634352732E+02  0.26228277018E+03  0.12000000000E+03 0.  0.
<mgrwt>
<rscale>  0 0.51935240E+03</rscale>
<asrwt>0</asrwt>
<pdfrwt beam="1">  1        1 0.22094681E-01 0.51935240E+03</pdfrwt>
<pdfrwt beam="2">  1       -1 0.72235361E-01 0.51935240E+03</pdfrwt>
<totfact> 0.45028846E+02</totfact>
</mgrwt>
</event>
<event>
 4    1  0.1762274E-004  0.2564734E+03  0.7818608E-02  0.1109281E+00
          2   -1    0    0  501    0  0.00000000000E+00  0.00000000000E+00  0.35659236819E+02  0.35659236819E+02  0.00000000000E+00 0.  1.
         -2   -1    0    0    0  501 -0.00000000000E+00 -0.00000000000E+00 -0.46116102776E+03  0.46116102776E+03  0.00000000000E+00 0.  1.
         25    1    1    2    0    0  0.89417715882E+01 -0.40028226399E+02 -0.24962935033E+03  0.27999469055E+03  0.12000000000E+03 0.  0.
         25    1    1    2    0    0 -0.89417715882E+01  0.40028226399E+02 -0.17587244061E+03  0.21682557403E+03  0.12000000000E+03 0.  0.
<mgrwt>
<rscale>  0 0.25647339E+03</rscale>
<asrwt>0</asrwt>
<pdfrwt beam="1">  1        2 0.54860360E-02 0.25647339E+03</pdfrwt>
<pdfrwt beam="2">  1       -2 0.70947856E-01 0.25647339E+03</pdfrwt>
<totfact> 0.25606004E+03</totfact>
</mgrwt>
</event>
<event>
 4    1  0.1762274E-004  0.2639959E+03  0.7818608E-02  0.1104766E+00
         -2   -1    0    0    0  501 -0.00000000000E+00  0.00000000000E+00  0.12582979389E+03  0.12582979389E+03  0.00000000000E+00 0. -1.
          2   -1    0    0  501    0  0.00000000000E+00 -0.00000000000E+00 -0.13846846439E+03  0.13846846439E+03  0.00000000000E+00 0. -1.
         25    1    1    2    0    0 -0.19229870791E+00 -0.42832862249E+02 -0.40837328872E+02  0.13379977017E+03  0.12000000000E+03 0.  0.
         25    1    1    2    0    0  0.19229870791E+00  0.42832862249E+02  0.28198658376E+02  0.13049848812E+03  0.12000000000E+03 0.  0.
<mgrwt>
<rscale>  0 0.26399590E+03</rscale>
<asrwt>0</asrwt>
<pdfrwt beam="1">  1        2 0.21302841E-01 0.26399590E+03</pdfrwt>
<pdfrwt beam="2">  1       -2 0.19358430E-01 0.26399590E+03</pdfrwt>
<totfact> 0.56853466E+03</totfact>
</mgrwt>
</event>
<event>
 4    1  0.1762274E-004  0.4660125E+03  0.7818608E-02  0.1023052E+00
          2   -1    0    0  501    0  0.00000000000E+00  0.00000000000E+00  0.52823817908E+03  0.52823817908E+03  0.00000000000E+00 0.  1.
         -2   -1    0    0    0  501 -0.00000000000E+00 -0.00000000000E+00 -0.10277922174E+03  0.10277922174E+03  0.00000000000E+00 0.  1.
         25    1    1    2    0    0  0.65476355108E+02  0.15164507197E+03  0.36477582115E+03  0.41802485647E+03  0.12000000000E+03 0.  0.
         25    1    1    2    0    0 -0.65476355108E+02 -0.15164507197E+03  0.60683136186E+02  0.21299254435E+03  0.12000000000E+03 0.  0.
<mgrwt>
<rscale>  0 0.46601248E+03</rscale>
<asrwt>0</asrwt>
<pdfrwt beam="1">  1        2 0.81267410E-01 0.46601248E+03</pdfrwt>
<pdfrwt beam="2">  1       -2 0.15812188E-01 0.46601248E+03</pdfrwt>
<totfact> 0.18432965E+03</totfact>
</mgrwt>
</event>
<event>
 4    1  0.1762274E-004  0.2594651E+03  0.7818608E-02  0.1107465E+00
         -2   -1    0    0    0  501 -0.00000000000E+00  0.00000000000E+00  0.22635553114E+02  0.22635553114E+02  0.00000000000E+00 0. -1.
          2   -1    0    0  501    0  0.00000000000E+00 -0.00000000000E+00 -0.74354436816E+03  0.74354436816E+03  0.00000000000E+00 0. -1.
         25    1    1    2    0    0 -0.17779864983E+02 -0.39764753061E+02 -0.42863931087E+03  0.44724603745E+03  0.12000000000E+03 0.  0.
         25    1    1    2    0    0  0.17779864983E+02  0.39764753061E+02 -0.29226950417E+03  0.31893388382E+03  0.12000000000E+03 0.  0.
<mgrwt>
<rscale>  0 0.25946513E+03</rscale>
<asrwt>0</asrwt>
<pdfrwt beam="1">  1        2 0.11439142E+00 0.25946513E+03</pdfrwt>
<pdfrwt beam="2">  1       -2 0.34823933E-02 0.25946513E+03</pdfrwt>
<totfact> 0.13091642E+04</totfact>
</mgrwt>
</event>
<event>
 4    1  0.1762274E-004  0.3078836E+03  0.7818608E-02  0.1081365E+00
          1   -1    0    0  501    0  0.00000000000E+00  0.00000000000E+00  0.85103014495E+02  0.85103014495E+02  0.00000000000E+00 0. -1.
         -1   -1    0    0    0  501 -0.00000000000E+00 -0.00000000000E+00 -0.27846348806E+03  0.27846348806E+03  0.00000000000E+00 0. -1.
         25    1    1    2    0    0  0.79542469081E+02 -0.49591652652E+02 -0.69967127879E+02  0.16757605850E+03  0.12000000000E+03 0.  0.
         25    1    1    2    0    0 -0.79542469081E+02  0.49591652652E+02 -0.12339334569E+03  0.19599044405E+03  0.12000000000E+03 0.  0.
<mgrwt>
<rscale>  0 0.30788363E+03</rscale>
<asrwt>0</asrwt>
<pdfrwt beam="1">  1        1 0.13092771E-01 0.30788363E+03</pdfrwt>
<pdfrwt beam="2">  1       -1 0.42840537E-01 0.30788363E+03</pdfrwt>
<totfact> 0.24369409E+03</totfact>
</mgrwt>
</event>
<event>
 4    1  0.1762274E-004  0.2439054E+03  0.7818608E-02  0.1117218E+00
         -2   -1    0    0    0  501 -0.00000000000E+00  0.00000000000E+00  0.61890817167E+02  0.61890817167E+02  0.00000000000E+00 0.  1.
          2   -1    0    0  501    0  0.00000000000E+00 -0.00000000000E+00 -0.24030164028E+03  0.24030164028E+03  0.00000000000E+00 0.  1.
         25    1    1    2    0    0  0.85107306846E+00 -0.21358100321E+02 -0.94094589702E+02  0.15398274119E+03  0.12000000000E+03 0.  0.
         25    1    1    2    0    0 -0.85107306846E+00  0.21358100321E+02 -0.84316233410E+02  0.14820971625E+03  0.12000000000E+03 0.  0.
<mgrwt>
<rscale>  0 0.24390543E+03</rscale>
<asrwt>0</asrwt>
<pdfrwt beam="1">  1        2 0.36969483E-01 0.24390543E+03</pdfrwt>
<pdfrwt beam="2">  1       -2 0.95216642E-02 0.24390543E+03</pdfrwt>
<totfact> 0.98351852E+03</totfact>
</mgrwt>
</event>
<event>
 4    1  0.1762274E-004  0.2450395E+03  0.7818608E-02  0.1116480E+00
         -2   -1    0    0    0  501 -0.00000000000E+00  0.00000000000E+00  0.11065171048E+02  0.11065171048E+02  0.00000000000E+00 0.  1.
          2   -1    0    0  501    0  0.00000000000E+00 -0.00000000000E+00 -0.13566072512E+04  0.13566072512E+04  0.00000000000E+00 0.  1.
         25    1    1    2    0    0 -0.10305948699E+02  0.22149240272E+02 -0.65167213599E+03  0.66307870894E+03  0.12000000000E+03 0.  0.
         25    1    1    2    0    0  0.10305948699E+02 -0.22149240272E+02 -0.69386994418E+03  0.70459371333E+03  0.12000000000E+03 0.  0.
<mgrwt>
<rscale>  0 0.24503952E+03</rscale>
<asrwt>0</asrwt>
<pdfrwt beam="1">  1        2 0.20870872E+00 0.24503952E+03</pdfrwt>
<pdfrwt beam="2">  1       -2 0.17023347E-02 0.24503952E+03</pdfrwt>
<totfact> 0.15915961E+04</totfact>
</mgrwt>
</event>
<event>
 4    1  0.1762274E-004  0.2714753E+03  0.7818608E-02  0.1100438E+00
          1   -1    0    0  501    0  0.00000000000E+00  0.00000000000E+00  0.12942812854E+04  0.12942812854E+04  0.00000000000E+00 0.  1.
         -1   -1    0    0    0  501 -0.00000000000E+00 -0.00000000000E+00 -0.14235478999E+02  0.14235478999E+02  0.00000000000E+00 0.  1.
         25    1    1    2    0    0  0.16342153852E+02 -0.20955186017E+02  0.36235756024E+03  0.38263453487E+03  0.12000000000E+03 0.  0.
         25    1    1    2    0    0 -0.16342153852E+02  0.20955186017E+02  0.91768824614E+03  0.92588222950E+03  0.12000000000E+03 0.  0.
<mgrwt>
<rscale>  0 0.27147533E+03</rscale>
<asrwt>0</asrwt>
<pdfrwt beam="1">  1        1 0.19912010E+00 0.27147533E+03</pdfrwt>
<pdfrwt beam="2">  1       -1 0.21900747E-02 0.27147533E+03</pdfrwt>
<totfact> 0.59078565E+03</totfact>
</mgrwt>
</event>
<event>
 4    1  0.1762274E-004  0.2851393E+03  0.7818608E-02  0.1092915E+00
         -2   -1    0    0    0  501 -0.00000000000E+00  0.00000000000E+00  0.15605753936E+02  0.15605753936E+02  0.00000000000E+00 0. -1.
          2   -1    0    0  501    0  0.00000000000E+00 -0.00000000000E+00 -0.13024754374E+04  0.13024754374E+04  0.00000000000E+00 0. -1.
         25    1    1    2    0    0 -0.20796117643E+02 -0.16394890745E+02 -0.30930018282E+03  0.33281807950E+03  0.12000000000E+03 0.  0.
         25    1    1    2    0    0  0.20796117643E+02  0.16394890745E+02 -0.97756950065E+03  0.98526311184E+03  0.12000000000E+03 0.  0.
<mgrwt>
<rscale>  0 0.28513934E+03</rscale>
<asrwt>0</asrwt>
<pdfrwt beam="1">  1        2 0.20038089E+00 0.28513934E+03</pdfrwt>
<pdfrwt beam="2">  1       -2 0.24008845E-02 0.28513934E+03</pdfrwt>
<totfact> 0.10324527E+04</totfact>
</mgrwt>
</event>
<event>
 4    1  0.1762274E-004  0.2488598E+03  0.7818608E-02  0.1114028E+00
          2   -1    0    0  501    0  0.00000000000E+00  0.00000000000E+00  0.58401568996E+03  0.58401568996E+03  0.00000000000E+00 0. -1.
         -2   -1    0    0    0  501 -0.00000000000E+00 -0.00000000000E+00 -0.26510928046E+02  0.26510928046E+02  0.00000000000E+00 0. -1.
         25    1    1    2    0    0  0.25478261058E+00  0.26730718450E+02  0.32582764730E+03  0.34825027203E+03  0.12000000000E+03 0.  0.
         25    1    1    2    0    0 -0.25478261058E+00 -0.26730718450E+02  0.23167711462E+03  0.26227634598E+03  0.12000000000E+03 0.  0.
<mgrwt>
<rscale>  0 0.24885978E+03</rscale>
<asrwt>0</asrwt>
<pdfrwt beam="1">  1        2 0.89848558E-01 0.24885978E+03</pdfrwt>
<pdfrwt beam="2">  1       -2 0.40786048E-02 0.24885978E+03</pdfrwt>
<totfact> 0.13745880E+04</totfact>
</mgrwt>
</event>
<event>
 4    1  0.1762274E-004  0.2479711E+03  0.7818608E-02  0.1114594E+00
          2   -1    0    0  501    0  0.00000000000E+00  0.00000000000E+00  0.62578207867E+03  0.62578207867E+03  0.00000000000E+00 0.  1.
         -2   -1    0    0    0  501 -0.00000000000E+00 -0.00000000000E+00 -0.24565129029E+02  0.24565129029E+02  0.00000000000E+00 0.  1.
         25    1    1    2    0    0 -0.11424387909E+02  0.25868355977E+02  0.33507733017E+03  0.35703852127E+03  0.12000000000E+03 0.  0.
         25    1    1    2    0    0  0.11424387909E+02 -0.25868355977E+02  0.26613961947E+03  0.29330868643E+03  0.12000000000E+03 0.  0.
<mgrwt>
<rscale>  0 0.24797111E+03</rscale>
<asrwt>0</asrwt>
<pdfrwt beam="1">  1        2 0.96274154E-01 0.24797111E+03</pdfrwt>
<pdfrwt beam="2">  1       -2 0.37792511E-02 0.24797111E+03</pdfrwt>
<totfact> 0.14221818E+04</totfact>
</mgrwt>
</event>
<event>
 4    1  0.1762274E-004  0.2777037E+03  0.7818608E-02  0.1096950E+00
         -2   -1    0    0    0  501 -0.00000000000E+00  0.00000000000E+00  0.10533920832E+02  0.10533920832E+02  0.00000000000E+00 0. -1.
          2   -1    0    0  501    0  0.00000000000E+00 -0.00000000000E+00 -0.18302623200E+04  0.18302623200E+04  0.00000000000E+00 0. -1.
         25    1    1    2    0    0  0.32329654515E+02  0.17613819185E+02 -0.13033832057E+04  0.13094133167E+04  0.12000000000E+03 0.  0.
         25    1    1    2    0    0 -0.32329654515E+02 -0.17613819185E+02 -0.51634519349E+03  0.53138292410E+03  0.12000000000E+03 0.  0.
<mgrwt>
<rscale>  0 0.27770372E+03</rscale>
<asrwt>0</asrwt>
<pdfrwt beam="1">  1        2 0.28157869E+00 0.27770372E+03</pdfrwt>
<pdfrwt beam="2">  1       -2 0.16206040E-02 0.27770372E+03</pdfrwt>
<totfact> 0.96121476E+03</totfact>
</mgrwt>
</event>
<event>
 4    1  0.1762274E-004  0.3069331E+03  0.7818608E-02  0.1081825E+00
          1   -1    0    0  501    0  0.00000000000E+00  0.00000000000E+00  0.15189657873E+03  0.15189657873E+03  0.00000000000E+00 0. -1.
         -1   -1    0    0    0  501 -0.00000000000E+00 -0.00000000000E+00 -0.15505275554E+03  0.15505275554E+03  0.00000000000E+00 0. -1.
         25    1    1    2    0    0 -0.75976804130E+02 -0.93370019957E+01  0.55803762771E+02  0.15288464381E+03  0.12000000000E+03 0.  0.
         25    1    1    2    0    0  0.75976804130E+02  0.93370019957E+01 -0.58959939577E+02  0.15406469046E+03  0.12000000000E+03 0.  0.
<mgrwt>
<rscale>  0 0.30693311E+03</rscale>
<asrwt>0</asrwt>
<pdfrwt beam="1">  1        1 0.23368705E-01 0.30693311E+03</pdfrwt>
<pdfrwt beam="2">  1       -1 0.23854270E-01 0.30693311E+03</pdfrwt>
<totfact> 0.31408445E+03</totfact>
</mgrwt>
</event>
<event>
 4    1  0.1762274E-004  0.3315990E+03  0.7818608E-02  0.1070432E+00
         -2   -1    0    0    0  501 -0.00000000000E+00  0.00000000000E+00  0.14664670833E+03  0.14664670833E+03  0.00000000000E+00 0.  1.
          2   -1    0    0  501    0  0.00000000000E+00 -0.00000000000E+00 -0.18745375130E+03  0.18745375130E+03  0.00000000000E+00 0.  1.
         25    1    1    2    0    0 -0.68369637126E+02  0.28994950304E+02 -0.10809085318E+03  0.17776036387E+03  0.12000000000E+03 0.  0.
         25    1    1    2    0    0  0.68369637126E+02 -0.28994950304E+02  0.67283810212E+02  0.15634009575E+03  0.12000000000E+03 0.  0.
<mgrwt>
<rscale>  0 0.33159901E+03</rscale>
<asrwt>0</asrwt>
<pdfrwt beam="1">  1        2 0.28839038E-01 0.33159901E+03</pdfrwt>
<pdfrwt beam="2">  1       -2 0.22561032E-01 0.33159901E+03</pdfrwt>
<totfact> 0.31300545E+03</totfact>
</mgrwt>
</event>
<event>
 4    1  0.1762274E-004  0.3334043E+03  0.7818608E-02  0.1069640E+00
         -2   -1    0    0    0  501 -0.00000000000E+00  0.00000000000E+00  0.22710886608E+02  0.22710886608E+02  0.00000000000E+00 0. -1.
          2   -1    0    0  501    0  0.00000000000E+00 -0.00000000000E+00 -0.12236252858E+04  0.12236252858E+04  0.00000000000E+00 0. -1.
         25    1    1    2    0    0  0.84754941994E+02 -0.39822842529E+02 -0.85455544394E+03  0.86800591342E+03  0.12000000000E+03 0.  0.
         25    1    1    2    0    0 -0.84754941994E+02  0.39822842529E+02 -0.34635895530E+03  0.37833025903E+03  0.12000000000E+03 0.  0.
<mgrwt>
<rscale>  0 0.33340435E+03</rscale>
<asrwt>0</asrwt>
<pdfrwt beam="1">  1        2 0.18825002E+00 0.33340435E+03</pdfrwt>
<pdfrwt beam="2">  1       -2 0.34939831E-02 0.33340435E+03</pdfrwt>
<totfact> 0.65504611E+03</totfact>
</mgrwt>
</event>
<event>
 4    1  0.1762274E-004  0.2858818E+03  0.7818608E-02  0.1092519E+00
          2   -1    0    0  501    0  0.00000000000E+00  0.00000000000E+00  0.20601522994E+04  0.20601522994E+04  0.00000000000E+00 0.  1.
         -2   -1    0    0    0  501 -0.00000000000E+00 -0.00000000000E+00 -0.99177626037E+01  0.99177626037E+01  0.00000000000E+00 0.  1.
         25    1    1    2    0    0 -0.45942810801E+02  0.51741380091E+02  0.76970501033E+03  0.78207014724E+03  0.12000000000E+03 0.  0.
         25    1    1    2    0    0  0.45942810801E+02 -0.51741380091E+02  0.12805295265E+04  0.12879999148E+04  0.12000000000E+03 0.  0.
<mgrwt>
<rscale>  0 0.28588180E+03</rscale>
<asrwt>0</asrwt>
<pdfrwt beam="1">  1        2 0.31694617E+00 0.28588180E+03</pdfrwt>
<pdfrwt beam="2">  1       -2 0.15258113E-02 0.28588180E+03</pdfrwt>
<totfact> 0.79495655E+03</totfact>
</mgrwt>
</event>
<event>
 4    1  0.1762274E-004  0.2491904E+03  0.7818608E-02  0.1113818E+00
          2   -1    0    0  501    0  0.00000000000E+00  0.00000000000E+00  0.15474955086E+04  0.15474955086E+04  0.00000000000E+00 0. -1.
         -2   -1    0    0    0  501 -0.00000000000E+00 -0.00000000000E+00 -0.10031670498E+02  0.10031670498E+02  0.00000000000E+00 0. -1.
         25    1    1    2    0    0  0.56851846141E+01  0.23059034858E+02  0.62083160546E+03  0.63276845903E+03  0.12000000000E+03 0.  0.
         25    1    1    2    0    0 -0.56851846141E+01 -0.23059034858E+02  0.91663223266E+03  0.92475872008E+03  0.12000000000E+03 0.  0.
<mgrwt>
<rscale>  0 0.24919041E+03</rscale>
<asrwt>0</asrwt>
<pdfrwt beam="1">  1        2 0.23807604E+00 0.24919041E+03</pdfrwt>
<pdfrwt beam="2">  1       -2 0.15433352E-02 0.24919041E+03</pdfrwt>
<totfact> 0.14513819E+04</totfact>
</mgrwt>
</event>
<event>
 4    1  0.1762274E-004  0.2971387E+03  0.7818608E-02  0.1086680E+00
          2   -1    0    0  501    0  0.00000000000E+00  0.00000000000E+00  0.40524874670E+04  0.40524874670E+04  0.00000000000E+00 0. -1.
         -2   -1    0    0    0  501 -0.00000000000E+00 -0.00000000000E+00 -0.54467429548E+01  0.54467429548E+01  0.00000000000E+00 0. -1.
         25    1    1    2    0    0  0.66110231257E+02  0.18845993054E+02  0.12821334958E+04  0.12895704848E+04  0.12000000000E+03 0.  0.
         25    1    1    2    0    0 -0.66110231257E+02 -0.18845993054E+02  0.27649072282E+04  0.27683637252E+04  0.12000000000E+03 0.  0.
<mgrwt>
<rscale>  0 0.29713874E+03</rscale>
<asrwt>0</asrwt>
<pdfrwt beam="1">  1        2 0.62345720E+00 0.29713874E+03</pdfrwt>
<pdfrwt beam="2">  1       -2 0.83796369E-03 0.29713874E+03</pdfrwt>
<totfact> 0.11170709E+03</totfact>
</mgrwt>
</event>
<event>
 4    1  0.1762274E-004  0.3505302E+03  0.7818608E-02  0.1062398E+00
          4   -1    0    0  501    0  0.00000000000E+00  0.00000000000E+00  0.11462945783E+03  0.11462945783E+03  0.00000000000E+00 0.  1.
         -4   -1    0    0    0  501 -0.00000000000E+00 -0.00000000000E+00 -0.26797527087E+03  0.26797527087E+03  0.00000000000E+00 0.  1.
         25    1    1    2    0    0  0.12490984772E+03 -0.22229993036E+02 -0.60438573017E+02  0.18479573522E+03  0.12000000000E+03 0.  0.
         25    1    1    2    0    0 -0.12490984772E+03  0.22229993036E+02 -0.92907240028E+02  0.19780899347E+03  0.12000000000E+03 0.  0.
<mgrwt>
<rscale>  0 0.35053023E+03</rscale>
<asrwt>0</asrwt>
<pdfrwt beam="1">  1        4 0.17635301E-01 0.35053023E+03</pdfrwt>
<pdfrwt beam="2">  1       -4 0.41226965E-01 0.35053023E+03</pdfrwt>
<totfact> 0.31180235E+02</totfact>
</mgrwt>
</event>
<event>
 4    1  0.1762274E-004  0.2653081E+03  0.7818608E-02  0.1103995E+00
         -1   -1    0    0    0  501 -0.00000000000E+00  0.00000000000E+00  0.15369951216E+02  0.15369951216E+02  0.00000000000E+00 0.  1.
          1   -1    0    0  501    0  0.00000000000E+00 -0.00000000000E+00 -0.11449027882E+04  0.11449027882E+04  0.00000000000E+00 0.  1.
         25    1    1    2    0    0 -0.25367782265E+02  0.10085849157E+02 -0.34821720877E+03  0.36932434690E+03  0.12000000000E+03 0.  0.
         25    1    1    2    0    0  0.25367782265E+02 -0.10085849157E+02 -0.78131562817E+03  0.79094839247E+03  0.12000000000E+03 0.  0.
<mgrwt>
<rscale>  0 0.26530812E+03</rscale>
<asrwt>0</asrwt>
<pdfrwt beam="1">  1        1 0.17613883E+00 0.26530812E+03</pdfrwt>
<pdfrwt beam="2">  1       -1 0.23646086E-02 0.26530812E+03</pdfrwt>
<totfact> 0.67056811E+03</totfact>
</mgrwt>
</event>
<event>
 4    1  0.1762274E-004  0.2939709E+03  0.7818608E-02  0.1088294E+00
          1   -1    0    0  501    0  0.00000000000E+00  0.00000000000E+00  0.21810103338E+04  0.21810103338E+04  0.00000000000E+00 0.  1.
         -1   -1    0    0    0  501 -0.00000000000E+00 -0.00000000000E+00 -0.99058350396E+01  0.99058350396E+01  0.00000000000E+00 0.  1.
         25    1    1    2    0    0 -0.49549834028E+02 -0.17120676100E+02  0.58802753672E+03  0.60243230951E+03  0.12000000000E+03 0.  0.
         25    1    1    2    0    0  0.49549834028E+02  0.17120676100E+02  0.15830769620E+04  0.15884838593E+04  0.12000000000E+03 0.  0.
<mgrwt>
<rscale>  0 0.29397094E+03</rscale>
<asrwt>0</asrwt>
<pdfrwt beam="1">  1        1 0.33553967E+00 0.29397094E+03</pdfrwt>
<pdfrwt beam="2">  1       -1 0.15239764E-02 0.29397094E+03</pdfrwt>
<totfact> 0.26214804E+03</totfact>
</mgrwt>
</event>
<event>
 4    1  0.1762274E-004  0.2695547E+03  0.7818608E-02  0.1101535E+00
          2   -1    0    0  501    0  0.00000000000E+00  0.00000000000E+00  0.54199275586E+03  0.54199275586E+03  0.00000000000E+00 0. -1.
         -2   -1    0    0    0  501 -0.00000000000E+00 -0.00000000000E+00 -0.33515098234E+02  0.33515098234E+02  0.00000000000E+00 0. -1.
         25    1    1    2    0    0  0.39161098451E+01  0.53560618332E+02  0.19087245228E+03  0.23176792011E+03  0.12000000000E+03 0.  0.
         25    1    1    2    0    0 -0.39161098451E+01 -0.53560618332E+02  0.31760520535E+03  0.34373993399E+03  0.12000000000E+03 0.  0.
<mgrwt>
<rscale>  0 0.26955475E+03</rscale>
<asrwt>0</asrwt>
<pdfrwt beam="1">  1        2 0.83383494E-01 0.26955475E+03</pdfrwt>
<pdfrwt beam="2">  1       -2 0.51561694E-02 0.26955475E+03</pdfrwt>
<totfact> 0.10538915E+04</totfact>
</mgrwt>
</event>
<event>
 4    1  0.1762274E-004  0.2765005E+03  0.7818608E-02  0.1097616E+00
          1   -1    0    0  501    0  0.00000000000E+00  0.00000000000E+00  0.11565047051E+03  0.11565047051E+03  0.00000000000E+00 0.  1.
         -1   -1    0    0    0  501 -0.00000000000E+00 -0.00000000000E+00 -0.16526635334E+03  0.16526635334E+03  0.00000000000E+00 0.  1.
         25    1    1    2    0    0  0.30058797157E+02  0.35379456738E+02  0.26575492550E+02  0.13138300518E+03  0.12000000000E+03 0.  0.
         25    1    1    2    0    0 -0.30058797157E+02 -0.35379456738E+02 -0.76191375376E+02  0.14953381867E+03  0.12000000000E+03 0.  0.
<mgrwt>
<rscale>  0 0.27650050E+03</rscale>
<asrwt>0</asrwt>
<pdfrwt beam="1">  1        1 0.17792380E-01 0.27650050E+03</pdfrwt>
<pdfrwt beam="2">  1       -1 0.25425593E-01 0.27650050E+03</pdfrwt>
<totfact> 0.40045014E+03</totfact>
</mgrwt>
</event>
<event>
 4    1  0.1762274E-004  0.2902538E+03  0.7818608E-02  0.1090217E+00
         -1   -1    0    0    0  501 -0.00000000000E+00  0.00000000000E+00  0.66198164330E+02  0.66198164330E+02  0.00000000000E+00 0.  1.
          1   -1    0    0  501    0  0.00000000000E+00 -0.00000000000E+00 -0.31816326188E+03  0.31816326188E+03  0.00000000000E+00 0.  1.
         25    1    1    2    0    0 -0.88073341376E+00  0.24349496103E+02 -0.22913747539E+03  0.25980311061E+03  0.12000000000E+03 0.  0.
         25    1    1    2    0    0  0.88073341376E+00 -0.24349496103E+02 -0.22827622155E+02  0.12455831560E+03  0.12000000000E+03 0.  0.
<mgrwt>
<rscale>  0 0.29025385E+03</rscale>
<asrwt>0</asrwt>
<pdfrwt beam="1">  1        1 0.48948196E-01 0.29025385E+03</pdfrwt>
<pdfrwt beam="2">  1       -1 0.10184333E-01 0.29025385E+03</pdfrwt>
<totfact> 0.47985903E+03</totfact>
</mgrwt>
</event>
<event>
 4    1  0.1762274E-004  0.3425393E+03  0.7818608E-02  0.1065720E+00
          4   -1    0    0  501    0  0.00000000000E+00  0.00000000000E+00  0.11769874428E+03  0.11769874428E+03  0.00000000000E+00 0. -1.
         -4   -1    0    0    0  501 -0.00000000000E+00 -0.00000000000E+00 -0.24922352208E+03  0.24922352208E+03  0.00000000000E+00 0. -1.
         25    1    1    2    0    0 -0.44973997341E+02 -0.11180555849E+03 -0.44068560984E+02  0.17568489239E+03  0.12000000000E+03 0.  0.
         25    1    1    2    0    0  0.44973997341E+02  0.11180555849E+03 -0.87456216816E+02  0.19123737398E+03  0.12000000000E+03 0.  0.
<mgrwt>
<rscale>  0 0.34253932E+03</rscale>
<asrwt>0</asrwt>
<pdfrwt beam="1">  1        4 0.18107499E-01 0.34253932E+03</pdfrwt>
<pdfrwt beam="2">  1       -4 0.38342080E-01 0.34253932E+03</pdfrwt>
<totfact> 0.34272532E+02</totfact>
</mgrwt>
</event>
<event>
 4    1  0.1762274E-004  0.2561469E+03  0.7818608E-02  0.1109481E+00
         -1   -1    0    0    0  501 -0.00000000000E+00  0.00000000000E+00  0.89075173283E+01  0.89075173283E+01  0.00000000000E+00 0.  1.
          1   -1    0    0  501    0  0.00000000000E+00 -0.00000000000E+00 -0.18414572004E+04  0.18414572004E+04  0.00000000000E+00 0.  1.
         25    1    1    2    0    0 -0.87968666569E+01 -0.92879530419E+01 -0.12260724520E+04  0.12319972843E+04  0.12000000000E+03 0.  0.
         25    1    1    2    0    0  0.87968666569E+01  0.92879530419E+01 -0.60647723112E+03  0.61836743349E+03  0.12000000000E+03 0.  0.
<mgrwt>
<rscale>  0 0.25614693E+03</rscale>
<asrwt>0</asrwt>
<pdfrwt beam="1">  1        1 0.28330121E+00 0.25614693E+03</pdfrwt>
<pdfrwt beam="2">  1       -1 0.13703868E-02 0.25614693E+03</pdfrwt>
<totfact> 0.50879463E+03</totfact>
</mgrwt>
</event>
<event>
 4    1  0.1762274E-004  0.2822161E+03  0.7818608E-02  0.1094485E+00
         -1   -1    0    0    0  501 -0.00000000000E+00  0.00000000000E+00  0.27189470211E+02  0.27189470211E+02  0.00000000000E+00 0.  1.
          1   -1    0    0  501    0  0.00000000000E+00 -0.00000000000E+00 -0.73232322109E+03  0.73232322109E+03  0.00000000000E+00 0.  1.
         25    1    1    2    0    0  0.20545617686E+02  0.23014736014E+02 -0.17083946293E+03  0.21104009708E+03  0.12000000000E+03 0.  0.
         25    1    1    2    0    0 -0.20545617686E+02 -0.23014736014E+02 -0.53429428795E+03  0.54847259422E+03  0.12000000000E+03 0.  0.
<mgrwt>
<rscale>  0 0.28221609E+03</rscale>
<asrwt>0</asrwt>
<pdfrwt beam="1">  1        1 0.11266509E+00 0.28221609E+03</pdfrwt>
<pdfrwt beam="2">  1       -1 0.41829960E-02 0.28221609E+03</pdfrwt>
<totfact> 0.60549561E+03</totfact>
</mgrwt>
</event>
<event>
 4    1  0.1762274E-004  0.2812033E+03  0.7818608E-02  0.1095034E+00
         -3   -1    0    0    0  501 -0.00000000000E+00  0.00000000000E+00  0.23263341994E+03  0.23263341994E+03  0.00000000000E+00 0.  1.
          3   -1    0    0  501    0  0.00000000000E+00 -0.00000000000E+00 -0.84978434938E+02  0.84978434938E+02  0.00000000000E+00 0.  1.
         25    1    1    2    0    0 -0.44547843157E+02  0.40996984856E+02  0.12044565122E+03  0.18047830339E+03  0.12000000000E+03 0.  0.
         25    1    1    2    0    0  0.44547843157E+02 -0.40996984856E+02  0.27209333777E+02  0.13713355148E+03  0.12000000000E+03 0.  0.
<mgrwt>
<rscale>  0 0.28120330E+03</rscale>
<asrwt>0</asrwt>
<pdfrwt beam="1">  1        3 0.13073605E-01 0.28120330E+03</pdfrwt>
<pdfrwt beam="2">  1       -3 0.35789757E-01 0.28120330E+03</pdfrwt>
<totfact> 0.92125414E+02</totfact>
</mgrwt>
</event>
<event>
 4    1  0.1762274E-004  0.2732372E+03  0.7818608E-02  0.1099441E+00
         -1   -1    0    0    0  501 -0.00000000000E+00  0.00000000000E+00  0.33972121397E+02  0.33972121397E+02  0.00000000000E+00 0. -1.
          1   -1    0    0  501    0  0.00000000000E+00 -0.00000000000E+00 -0.54941073297E+03  0.54941073297E+03  0.00000000000E+00 0. -1.
         25    1    1    2    0    0  0.67267392183E+01  0.58240554727E+02 -0.31913525940E+03  0.34595451294E+03  0.12000000000E+03 0.  0.
         25    1    1    2    0    0 -0.67267392183E+01 -0.58240554727E+02 -0.19630335217E+03  0.23742834142E+03  0.12000000000E+03 0.  0.
<mgrwt>
<rscale>  0 0.27323725E+03</rscale>
<asrwt>0</asrwt>
<pdfrwt beam="1">  1        1 0.84524732E-01 0.27323725E+03</pdfrwt>
<pdfrwt beam="2">  1       -1 0.52264800E-02 0.27323725E+03</pdfrwt>
<totfact> 0.65127094E+03</totfact>
</mgrwt>
</event>
<event>
 4    1  0.1762274E-004  0.3458645E+03  0.7818608E-02  0.1064325E+00
         -1   -1    0    0    0  501 -0.00000000000E+00  0.00000000000E+00  0.21540046804E+02  0.21540046804E+02  0.00000000000E+00 0.  1.
          1   -1    0    0  501    0  0.00000000000E+00 -0.00000000000E+00 -0.13883704145E+04  0.13883704145E+04  0.00000000000E+00 0.  1.
         25    1    1    2    0    0  0.29306595171E+02  0.67953330566E+02 -0.10916547092E+04  0.11007209164E+04  0.12000000000E+03 0.  0.
         25    1    1    2    0    0 -0.29306595171E+02 -0.67953330566E+02 -0.27517565848E+03  0.30918954490E+03  0.12000000000E+03 0.  0.
<mgrwt>
<rscale>  0 0.34586450E+03</rscale>
<asrwt>0</asrwt>
<pdfrwt beam="1">  1        1 0.21359545E+00 0.34586450E+03</pdfrwt>
<pdfrwt beam="2">  1       -1 0.33138533E-02 0.34586450E+03</pdfrwt>
<totfact> 0.27688597E+03</totfact>
</mgrwt>
</event>
<event>
 4    1  0.1762274E-004  0.4687281E+03  0.7818608E-02  0.1022280E+00
         -1   -1    0    0    0  501 -0.00000000000E+00  0.00000000000E+00  0.52207609771E+02  0.52207609771E+02  0.00000000000E+00 0.  1.
          1   -1    0    0  501    0  0.00000000000E+00 -0.00000000000E+00 -0.10520784057E+04  0.10520784057E+04  0.00000000000E+00 0.  1.
         25    1    1    2    0    0  0.47754415849E+02  0.14608067843E+03 -0.19360730264E+03  0.27477961438E+03  0.12000000000E+03 0.  0.
         25    1    1    2    0    0 -0.47754415849E+02 -0.14608067843E+03 -0.80626349329E+03  0.82950640109E+03  0.12000000000E+03 0.  0.
<mgrwt>
<rscale>  0 0.46872806E+03</rscale>
<asrwt>0</asrwt>
<pdfrwt beam="1">  1        1 0.16185823E+00 0.46872806E+03</pdfrwt>
<pdfrwt beam="2">  1       -1 0.80319394E-02 0.46872806E+03</pdfrwt>
<totfact> 0.12468581E+03</totfact>
</mgrwt>
</event>
<event>
 4    1  0.1762274E-004  0.2702846E+03  0.7818608E-02  0.1101117E+00
         -2   -1    0    0    0  501 -0.00000000000E+00  0.00000000000E+00  0.13153906640E+02  0.13153906640E+02  0.00000000000E+00 0. -1.
          2   -1    0    0  501    0  0.00000000000E+00 -0.00000000000E+00 -0.13884420058E+04  0.13884420058E+04  0.00000000000E+00 0. -1.
         25    1    1    2    0    0  0.28208269750E+00 -0.52162660935E+02 -0.86291635064E+03  0.87278041395E+03  0.12000000000E+03 0.  0.
         25    1    1    2    0    0 -0.28208269750E+00  0.52162660935E+02 -0.51237174857E+03  0.52881549854E+03  0.12000000000E+03 0.  0.
<mgrwt>
<rscale>  0 0.27028457E+03</rscale>
<asrwt>0</asrwt>
<pdfrwt beam="1">  1        2 0.21360645E+00 0.27028457E+03</pdfrwt>
<pdfrwt beam="2">  1       -2 0.20236780E-02 0.27028457E+03</pdfrwt>
<totfact> 0.11902990E+04</totfact>
</mgrwt>
</event>
<event>
 4    1  0.1762274E-004  0.4181261E+03  0.7818608E-02  0.1037678E+00
         -1   -1    0    0    0  501 -0.00000000000E+00  0.00000000000E+00  0.69257169812E+02  0.69257169812E+02  0.00000000000E+00 0. -1.
          1   -1    0    0  501    0  0.00000000000E+00 -0.00000000000E+00 -0.63108784819E+03  0.63108784819E+03  0.00000000000E+00 0. -1.
         25    1    1    2    0    0  0.13689367699E+03 -0.10211393141E+03 -0.26108104787E+03  0.33426104671E+03  0.12000000000E+03 0.  0.
         25    1    1    2    0    0 -0.13689367699E+03  0.10211393141E+03 -0.30074963051E+03  0.36608397129E+03  0.12000000000E+03 0.  0.
<mgrwt>
<rscale>  0 0.41812610E+03</rscale>
<asrwt>0</asrwt>
<pdfrwt beam="1">  1        1 0.97090442E-01 0.41812610E+03</pdfrwt>
<pdfrwt beam="2">  1       -1 0.10654949E-01 0.41812610E+03</pdfrwt>
<totfact> 0.18138544E+03</totfact>
</mgrwt>
</event>
<event>
 4    1  0.1762274E-004  0.3148917E+03  0.7818608E-02  0.1078025E+00
         -2   -1    0    0    0  501 -0.00000000000E+00  0.00000000000E+00  0.44901832823E+02  0.44901832823E+02  0.00000000000E+00 0.  1.
          2   -1    0    0  501    0  0.00000000000E+00 -0.00000000000E+00 -0.55207519743E+03  0.55207519743E+03  0.00000000000E+00 0.  1.
         25    1    1    2    0    0  0.98391839374E+02  0.20580149867E+02 -0.22159892462E+03  0.27131269786E+03  0.12000000000E+03 0.  0.
         25    1    1    2    0    0 -0.98391839374E+02 -0.20580149867E+02 -0.28557443999E+03  0.32566433240E+03  0.12000000000E+03 0.  0.
<mgrwt>
<rscale>  0 0.31489165E+03</rscale>
<asrwt>0</asrwt>
<pdfrwt beam="1">  1        2 0.84934641E-01 0.31489165E+03</pdfrwt>
<pdfrwt beam="2">  1       -2 0.69079746E-02 0.31489165E+03</pdfrwt>
<totfact> 0.66180742E+03</totfact>
</mgrwt>
</event>
<event>
 4    1  0.1762274E-004  0.2581290E+03  0.7818608E-02  0.1108273E+00
          1   -1    0    0  501    0  0.00000000000E+00  0.00000000000E+00  0.11929296591E+04  0.11929296591E+04  0.00000000000E+00 0. -1.
         -1   -1    0    0    0  501 -0.00000000000E+00 -0.00000000000E+00 -0.13963642868E+02  0.13963642868E+02  0.00000000000E+00 0. -1.
         25    1    1    2    0    0  0.65763019009E+00  0.27251934386E+01  0.36771312698E+03  0.38680848350E+03  0.12000000000E+03 0.  0.
         25    1    1    2    0    0 -0.65763019009E+00 -0.27251934386E+01  0.81125288922E+03  0.82008481843E+03  0.12000000000E+03 0.  0.
<mgrwt>
<rscale>  0 0.25812899E+03</rscale>
<asrwt>0</asrwt>
<pdfrwt beam="1">  1        1 0.18352756E+00 0.25812899E+03</pdfrwt>
<pdfrwt beam="2">  1       -1 0.21482537E-02 0.25812899E+03</pdfrwt>
<totfact> 0.71346517E+03</totfact>
</mgrwt>
</event>
<event>
 4    1  0.1762274E-004  0.2956391E+03  0.7818608E-02  0.1087441E+00
         -2   -1    0    0    0  501 -0.00000000000E+00  0.00000000000E+00  0.10989775000E+03  0.10989775000E+03  0.00000000000E+00 0. -1.
          2   -1    0    0  501    0  0.00000000000E+00 -0.00000000000E+00 -0.19882679268E+03  0.19882679268E+03  0.00000000000E+00 0. -1.
         25    1    1    2    0    0 -0.27184534988E+02 -0.74627895745E+02 -0.79758329305E+02  0.16452875998E+03  0.12000000000E+03 0.  0.
         25    1    1    2    0    0  0.27184534988E+02  0.74627895745E+02 -0.91707133701E+01  0.14419578270E+03  0.12000000000E+03 0.  0.
<mgrwt>
<rscale>  0 0.29563909E+03</rscale>
<asrwt>0</asrwt>
<pdfrwt beam="1">  1        2 0.30588737E-01 0.29563909E+03</pdfrwt>
<pdfrwt beam="2">  1       -2 0.16907346E-01 0.29563909E+03</pdfrwt>
<totfact> 0.47904287E+03</totfact>
</mgrwt>
</event>
<event>
 4    1  0.1762274E-004  0.2730497E+03  0.7818608E-02  0.1099547E+00
         -2   -1    0    0    0  501 -0.00000000000E+00  0.00000000000E+00  0.53743915364E+02  0.53743915364E+02  0.00000000000E+00 0. -1.
          2   -1    0    0  501    0  0.00000000000E+00 -0.00000000000E+00 -0.34681208580E+03  0.34681208580E+03  0.00000000000E+00 0. -1.
         25    1    1    2    0    0  0.75575289034E+01 -0.10019399464E+02 -0.24025429126E+03  0.26884871039E+03  0.12000000000E+03 0.  0.
         25    1    1    2    0    0 -0.75575289034E+01  0.10019399464E+02 -0.52813879170E+02  0.13170729077E+03  0.12000000000E+03 0.  0.
<mgrwt>
<rscale>  0 0.27304973E+03</rscale>
<asrwt>0</asrwt>
<pdfrwt beam="1">  1        2 0.53355704E-01 0.27304973E+03</pdfrwt>
<pdfrwt beam="2">  1       -2 0.82682950E-02 0.27304973E+03</pdfrwt>
<totfact> 0.83158711E+03</totfact>
</mgrwt>
</event>
<event>
 4    1  0.1762274E-004  0.2501783E+03  0.7818608E-02  0.1113192E+00
         -2   -1    0    0    0  501 -0.00000000000E+00  0.00000000000E+00  0.47673303954E+01  0.47673303954E+01  0.00000000000E+00 0. -1.
          2   -1    0    0  501    0  0.00000000000E+00 -0.00000000000E+00 -0.32821930174E+04  0.32821930174E+04  0.00000000000E+00 0. -1.
         25    1    1    2    0    0  0.13419675994E+02 -0.30332212121E+02 -0.17980991824E+04  0.18024041723E+04  0.12000000000E+03 0.  0.
         25    1    1    2    0    0 -0.13419675994E+02  0.30332212121E+02 -0.14793265047E+04  0.14845561755E+04  0.12000000000E+03 0.  0.
<mgrwt>
<rscale>  0 0.25017832E+03</rscale>
<asrwt>0</asrwt>
<pdfrwt beam="1">  1        2 0.50495284E+00 0.25017832E+03</pdfrwt>
<pdfrwt beam="2">  1       -2 0.73343535E-03 0.25017832E+03</pdfrwt>
<totfact> 0.46941980E+03</totfact>
</mgrwt>
</event>
<event>
 4    1  0.1762274E-004  0.2458462E+03  0.7818608E-02  0.1115958E+00
          2   -1    0    0  501    0  0.00000000000E+00  0.00000000000E+00  0.72853943289E+03  0.72853943289E+03  0.00000000000E+00 0.  1.
         -2   -1    0    0    0  501 -0.00000000000E+00 -0.00000000000E+00 -0.20740254655E+02  0.20740254655E+02  0.00000000000E+00 0.  1.
         25    1    1    2    0    0 -0.41539581993E+01 -0.24030583089E+02  0.38663554976E+03  0.40556352478E+03  0.12000000000E+03 0.  0.
         25    1    1    2    0    0  0.41539581993E+01  0.24030583089E+02  0.32116362848E+03  0.34371616277E+03  0.12000000000E+03 0.  0.
<mgrwt>
<rscale>  0 0.24584624E+03</rscale>
<asrwt>0</asrwt>
<pdfrwt beam="1">  1        2 0.11208297E+00 0.24584624E+03</pdfrwt>
<pdfrwt beam="2">  1       -2 0.31908090E-02 0.24584624E+03</pdfrwt>
<totfact> 0.15258104E+04</totfact>
</mgrwt>
</event>
<event>
 4    1  0.1762274E-004  0.3553196E+03  0.7818608E-02  0.1060453E+00
          2   -1    0    0  501    0  0.00000000000E+00  0.00000000000E+00  0.58140194690E+03  0.58140194690E+03  0.00000000000E+00 0.  1.
         -2   -1    0    0    0  501 -0.00000000000E+00 -0.00000000000E+00 -0.54287762207E+02  0.54287762207E+02  0.00000000000E+00 0.  1.
         25    1    1    2    0    0 -0.76241132555E+02  0.60851962295E+02  0.42000910215E+03  0.44757492948E+03  0.12000000000E+03 0.  0.
         25    1    1    2    0    0  0.76241132555E+02 -0.60851962295E+02  0.10710508254E+03  0.18811477963E+03  0.12000000000E+03 0.  0.
<mgrwt>
<rscale>  0 0.35531963E+03</rscale>
<asrwt>0</asrwt>
<pdfrwt beam="1">  1        2 0.89446449E-01 0.35531963E+03</pdfrwt>
<pdfrwt beam="2">  1       -2 0.83519638E-02 0.35531963E+03</pdfrwt>
<totfact> 0.46449404E+03</totfact>
</mgrwt>
</event>
<event>
 4    1  0.1762274E-004  0.2907285E+03  0.7818608E-02  0.1089969E+00
          2   -1    0    0  501    0  0.00000000000E+00  0.00000000000E+00  0.11351745885E+04  0.11351745885E+04  0.00000000000E+00 0.  1.
         -2   -1    0    0    0  501 -0.00000000000E+00 -0.00000000000E+00 -0.18614548745E+02  0.18614548745E+02  0.00000000000E+00 0.  1.
         25    1    1    2    0    0  0.13742758438E+01 -0.23547106908E+02  0.87012339318E+03  0.87867575034E+03  0.12000000000E+03 0.  0.
         25    1    1    2    0    0 -0.13742758438E+01  0.23547106908E+02  0.24643664656E+03  0.27511338689E+03  0.12000000000E+03 0.  0.
<mgrwt>
<rscale>  0 0.29072848E+03</rscale>
<asrwt>0</asrwt>
<pdfrwt beam="1">  1        2 0.17464219E+00 0.29072848E+03</pdfrwt>
<pdfrwt beam="2">  1       -2 0.28637776E-02 0.29072848E+03</pdfrwt>
<totfact> 0.98918406E+03</totfact>
</mgrwt>
</event>
<event>
 4    1  0.1762274E-004  0.3487809E+03  0.7818608E-02  0.1063117E+00
          1   -1    0    0  501    0  0.00000000000E+00  0.00000000000E+00  0.12900545723E+03  0.12900545723E+03  0.00000000000E+00 0. -1.
         -1   -1    0    0    0  501 -0.00000000000E+00 -0.00000000000E+00 -0.23574220807E+03  0.23574220807E+03  0.00000000000E+00 0. -1.
         25    1    1    2    0    0 -0.91185675468E+02  0.87137471935E+02 -0.42689908562E+02  0.17924897411E+03  0.12000000000E+03 0.  0.
         25    1    1    2    0    0  0.91185675468E+02 -0.87137471935E+02 -0.64046842280E+02  0.18549869119E+03  0.12000000000E+03 0.  0.
<mgrwt>
<rscale>  0 0.34878091E+03</rscale>
<asrwt>0</asrwt>
<pdfrwt beam="1">  1        1 0.19846993E-01 0.34878091E+03</pdfrwt>
<pdfrwt beam="2">  1       -1 0.36268032E-01 0.34878091E+03</pdfrwt>
<totfact> 0.19015246E+03</totfact>
</mgrwt>
</event>
<event>
 4    1  0.1762274E-004  0.2841557E+03  0.7818608E-02  0.1093441E+00
         -2   -1    0    0    0  501 -0.00000000000E+00  0.00000000000E+00  0.41023783472E+03  0.41023783472E+03  0.00000000000E+00 0.  1.
          2   -1    0    0  501    0  0.00000000000E+00 -0.00000000000E+00 -0.49205901653E+02  0.49205901653E+02  0.00000000000E+00 0.  1.
         25    1    1    2    0    0  0.47786384683E+02  0.14277067839E+02  0.27338064165E+03  0.30269514112E+03  0.12000000000E+03 0.  0.
         25    1    1    2    0    0 -0.47786384683E+02 -0.14277067839E+02  0.87651291414E+02  0.15674859525E+03  0.12000000000E+03 0.  0.
<mgrwt>
<rscale>  0 0.28415575E+03</rscale>
<asrwt>0</asrwt>
<pdfrwt beam="1">  1        2 0.75701390E-02 0.28415575E+03</pdfrwt>
<pdfrwt beam="2">  1       -2 0.63113511E-01 0.28415575E+03</pdfrwt>
<totfact> 0.21687639E+03</totfact>
</mgrwt>
</event>
<event>
 4    1  0.1762274E-004  0.9546368E+03  0.7818608E-02  0.9359747E-01
         -1   -1    0    0    0  501 -0.00000000000E+00  0.00000000000E+00  0.83569471538E+03  0.83569471538E+03  0.00000000000E+00 0.  1.
          1   -1    0    0  501    0  0.00000000000E+00 -0.00000000000E+00 -0.27262688719E+03  0.27262688719E+03  0.00000000000E+00 0.  1.
         25    1    1    2    0    0 -0.13387148035E+03 -0.43704641920E+03  0.35943007549E+03  0.59373489451E+03  0.12000000000E+03 0.  0.
         25    1    1    2    0    0  0.13387148035E+03  0.43704641920E+03  0.20363775269E+03  0.51458670806E+03  0.12000000000E+03 0.  0.
<mgrwt>
<rscale>  0 0.95463679E+03</rscale>
<asrwt>0</asrwt>
<pdfrwt beam="1">  1        1 0.41942599E-01 0.95463679E+03</pdfrwt>
<pdfrwt beam="2">  1       -1 0.12856842E+00 0.95463679E+03</pdfrwt>
<totfact> 0.52093146E+01</totfact>
</mgrwt>
</event>
<event>
 4    1  0.1762274E-004  0.2660343E+03  0.7818608E-02  0.1103571E+00
         -1   -1    0    0    0  501 -0.00000000000E+00  0.00000000000E+00  0.17197101305E+03  0.17197101305E+03  0.00000000000E+00 0. -1.
          1   -1    0    0  501    0  0.00000000000E+00 -0.00000000000E+00 -0.10288690454E+03  0.10288690454E+03  0.00000000000E+00 0. -1.
         25    1    1    2    0    0  0.49514522672E+02  0.16385443181E+02  0.98021883160E+01  0.13121072212E+03  0.12000000000E+03 0.  0.
         25    1    1    2    0    0 -0.49514522672E+02 -0.16385443181E+02  0.59281920200E+02  0.14364719547E+03  0.12000000000E+03 0.  0.
<mgrwt>
<rscale>  0 0.26603432E+03</rscale>
<asrwt>0</asrwt>
<pdfrwt beam="1">  1        1 0.15828755E-01 0.26603432E+03</pdfrwt>
<pdfrwt beam="2">  1       -1 0.26457079E-01 0.26603432E+03</pdfrwt>
<totfact> 0.43585968E+03</totfact>
</mgrwt>
</event>
<event>
 4    1  0.1762274E-004  0.2858546E+03  0.7818608E-02  0.1092534E+00
          1   -1    0    0  501    0  0.00000000000E+00  0.00000000000E+00  0.27537597899E+04  0.27537597899E+04  0.00000000000E+00 0.  1.
         -1   -1    0    0    0  501 -0.00000000000E+00 -0.00000000000E+00 -0.74183002592E+01  0.74183002592E+01  0.00000000000E+00 0.  1.
         25    1    1    2    0    0  0.73667593276E+01  0.76566502413E+02  0.14751760376E+04  0.14820462342E+04  0.12000000000E+03 0.  0.
         25    1    1    2    0    0 -0.73667593276E+01 -0.76566502413E+02  0.12711654520E+04  0.12791318559E+04  0.12000000000E+03 0.  0.
<mgrwt>
<rscale>  0 0.28585463E+03</rscale>
<asrwt>0</asrwt>
<pdfrwt beam="1">  1        1 0.42365454E+00 0.28585463E+03</pdfrwt>
<pdfrwt beam="2">  1       -1 0.11412792E-02 0.28585463E+03</pdfrwt>
<totfact> 0.16608384E+03</totfact>
</mgrwt>
</event>
<event>
 4    1  0.1762274E-004  0.3840802E+03  0.7818608E-02  0.1049436E+00
          3   -1    0    0  501    0  0.00000000000E+00  0.00000000000E+00  0.44735070763E+03  0.44735070763E+03  0.00000000000E+00 0.  1.
         -3   -1    0    0    0  501 -0.00000000000E+00 -0.00000000000E+00 -0.82439567816E+02  0.82439567816E+02  0.00000000000E+00 0.  1.
         25    1    1    2    0    0 -0.11051621002E+03 -0.99064712020E+02  0.21177332709E+03  0.28508874392E+03  0.12000000000E+03 0.  0.
         25    1    1    2    0    0  0.11051621002E+03  0.99064712020E+02  0.15313781272E+03  0.24470153152E+03  0.12000000000E+03 0.  0.
<mgrwt>
<rscale>  0 0.38408019E+03</rscale>
<asrwt>0</asrwt>
<pdfrwt beam="1">  1        3 0.68823184E-01 0.38408019E+03</pdfrwt>
<pdfrwt beam="2">  1       -3 0.12683011E-01 0.38408019E+03</pdfrwt>
<totfact> 0.26537349E+02</totfact>
</mgrwt>
</event>
<event>
 4    1  0.1762274E-004  0.2545711E+03  0.7818608E-02  0.1110450E+00
          2   -1    0    0  501    0  0.00000000000E+00  0.00000000000E+00  0.33129146064E+03  0.33129146064E+03  0.00000000000E+00 0. -1.
         -2   -1    0    0    0  501 -0.00000000000E+00 -0.00000000000E+00 -0.48904422140E+02  0.48904422140E+02  0.00000000000E+00 0. -1.
         25    1    1    2    0    0  0.15202084426E+02  0.38123619435E+02  0.15735508970E+03  0.20210180104E+03  0.12000000000E+03 0.  0.
         25    1    1    2    0    0 -0.15202084426E+02 -0.38123619435E+02  0.12503194880E+03  0.17809408174E+03  0.12000000000E+03 0.  0.
<mgrwt>
<rscale>  0 0.25457115E+03</rscale>
<asrwt>0</asrwt>
<pdfrwt beam="1">  1        2 0.50967916E-01 0.25457115E+03</pdfrwt>
<pdfrwt beam="2">  1       -2 0.75237574E-02 0.25457115E+03</pdfrwt>
<totfact> 0.10091452E+04</totfact>
</mgrwt>
</event>
<event>
 4    1  0.1762274E-004  0.2771827E+03  0.7818608E-02  0.1097238E+00
         -2   -1    0    0    0  501 -0.00000000000E+00  0.00000000000E+00  0.34170228665E+02  0.34170228665E+02  0.00000000000E+00 0.  1.
          2   -1    0    0  501    0  0.00000000000E+00 -0.00000000000E+00 -0.56211404784E+03  0.56211404784E+03  0.00000000000E+00 0.  1.
         25    1    1    2    0    0  0.49460639157E+02  0.17706278941E+02 -0.16662544209E+03  0.21195260105E+03  0.12000000000E+03 0.  0.
         25    1    1    2    0    0 -0.49460639157E+02 -0.17706278941E+02 -0.36131837708E+03  0.38433167545E+03  0.12000000000E+03 0.  0.
<mgrwt>
<rscale>  0 0.27718272E+03</rscale>
<asrwt>0</asrwt>
<pdfrwt beam="1">  1        2 0.86479074E-01 0.27718272E+03</pdfrwt>
<pdfrwt beam="2">  1       -2 0.52569589E-02 0.27718272E+03</pdfrwt>
<totfact> 0.98272120E+03</totfact>
</mgrwt>
</event>
<event>
 4    1  0.1762274E-004  0.3156877E+03  0.7818608E-02  0.1077651E+00
          2   -1    0    0  501    0  0.00000000000E+00  0.00000000000E+00  0.33731037388E+04  0.33731037388E+04  0.00000000000E+00 0. -1.
         -2   -1    0    0    0  501 -0.00000000000E+00 -0.00000000000E+00 -0.73862774211E+01  0.73862774211E+01  0.00000000000E+00 0. -1.
         25    1    1    2    0    0  0.57220153857E+02  0.84089006301E+02  0.15434145635E+04  0.15514102042E+04  0.12000000000E+03 0.  0.
         25    1    1    2    0    0 -0.57220153857E+02 -0.84089006301E+02  0.18223028979E+04  0.18290798120E+04  0.12000000000E+03 0.  0.
<mgrwt>
<rscale>  0 0.31568769E+03</rscale>
<asrwt>0</asrwt>
<pdfrwt beam="1">  1        2 0.51893781E+00 0.31568769E+03</pdfrwt>
<pdfrwt beam="2">  1       -2 0.11363531E-02 0.31568769E+03</pdfrwt>
<totfact> 0.21600594E+03</totfact>
</mgrwt>
</event>
<event>
 4    1  0.1762274E-004  0.3158842E+03  0.7818608E-02  0.1077559E+00
          1   -1    0    0  501    0  0.00000000000E+00  0.00000000000E+00  0.15713813413E+04  0.15713813413E+04  0.00000000000E+00 0. -1.
         -1   -1    0    0    0  501 -0.00000000000E+00 -0.00000000000E+00 -0.15875020555E+02  0.15875020555E+02  0.00000000000E+00 0. -1.
         25    1    1    2    0    0  0.99120116474E+02 -0.37025603251E+01  0.64412693810E+03  0.66267489678E+03  0.12000000000E+03 0.  0.
         25    1    1    2    0    0 -0.99120116474E+02  0.37025603251E+01  0.91137938269E+03  0.92458146511E+03  0.12000000000E+03 0.  0.
<mgrwt>
<rscale>  0 0.31588423E+03</rscale>
<asrwt>0</asrwt>
<pdfrwt beam="1">  1        1 0.24175085E+00 0.31588423E+03</pdfrwt>
<pdfrwt beam="2">  1       -1 0.24423121E-02 0.31588423E+03</pdfrwt>
<totfact> 0.32833905E+03</totfact>
</mgrwt>
</event>
<event>
 4    1  0.1762274E-004  0.2767641E+03  0.7818608E-02  0.1097470E+00
          1   -1    0    0  501    0  0.00000000000E+00  0.00000000000E+00  0.10498314464E+03  0.10498314464E+03  0.00000000000E+00 0.  1.
         -1   -1    0    0    0  501 -0.00000000000E+00 -0.00000000000E+00 -0.18240632172E+03  0.18240632172E+03  0.00000000000E+00 0.  1.
         25    1    1    2    0    0  0.51687844458E+02 -0.25764991437E+02  0.33691873508E+00  0.13317500352E+03  0.12000000000E+03 0.  0.
         25    1    1    2    0    0 -0.51687844458E+02  0.25764991437E+02 -0.77760095815E+02  0.15421446284E+03  0.12000000000E+03 0.  0.
<mgrwt>
<rscale>  0 0.27676408E+03</rscale>
<asrwt>0</asrwt>
<pdfrwt beam="1">  1        1 0.16151253E-01 0.27676408E+03</pdfrwt>
<pdfrwt beam="2">  1       -1 0.28062511E-01 0.27676408E+03</pdfrwt>
<totfact> 0.38498785E+03</totfact>
</mgrwt>
</event>
<event>
 4    1  0.1762274E-004  0.2716390E+03  0.7818608E-02  0.1100345E+00
          2   -1    0    0  501    0  0.00000000000E+00  0.00000000000E+00  0.38123974997E+03  0.38123974997E+03  0.00000000000E+00 0. -1.
         -2   -1    0    0    0  501 -0.00000000000E+00 -0.00000000000E+00 -0.48386692072E+02  0.48386692072E+02  0.00000000000E+00 0. -1.
         25    1    1    2    0    0 -0.57688141672E+02 -0.26653628948E+02  0.16179029503E+03  0.21122129910E+03  0.12000000000E+03 0.  0.
         25    1    1    2    0    0  0.57688141672E+02  0.26653628948E+02  0.17106276286E+03  0.21840514294E+03  0.12000000000E+03 0.  0.
<mgrwt>
<rscale>  0 0.27163895E+03</rscale>
<asrwt>0</asrwt>
<pdfrwt beam="1">  1        2 0.58652267E-01 0.27163895E+03</pdfrwt>
<pdfrwt beam="2">  1       -2 0.74441067E-02 0.27163895E+03</pdfrwt>
<totfact> 0.88415913E+03</totfact>
</mgrwt>
</event>
<event>
 4    1  0.1762274E-004  0.2693343E+03  0.7818608E-02  0.1101661E+00
         -2   -1    0    0    0  501 -0.00000000000E+00  0.00000000000E+00  0.10472981160E+02  0.10472981160E+02  0.00000000000E+00 0.  1.
          2   -1    0    0  501    0  0.00000000000E+00 -0.00000000000E+00 -0.17316221077E+04  0.17316221077E+04  0.00000000000E+00 0.  1.
         25    1    1    2    0    0 -0.55885582165E+02 -0.95570244025E+01 -0.71297727117E+03  0.72522487837E+03  0.12000000000E+03 0.  0.
         25    1    1    2    0    0  0.55885582165E+02  0.95570244025E+01 -0.10081718553E+04  0.10168702105E+04  0.12000000000E+03 0.  0.
<mgrwt>
<rscale>  0 0.26933433E+03</rscale>
<asrwt>0</asrwt>
<pdfrwt beam="1">  1        2 0.26640349E+00 0.26933433E+03</pdfrwt>
<pdfrwt beam="2">  1       -2 0.16112273E-02 0.26933433E+03</pdfrwt>
<totfact> 0.10917261E+04</totfact>
</mgrwt>
</event>
<event>
 4    1  0.1762274E-004  0.2581156E+03  0.7818608E-02  0.1108281E+00
         -3   -1    0    0    0  501 -0.00000000000E+00  0.00000000000E+00  0.52243793909E+02  0.52243793909E+02  0.00000000000E+00 0. -1.
          3   -1    0    0  501    0  0.00000000000E+00 -0.00000000000E+00 -0.31881147349E+03  0.31881147349E+03  0.00000000000E+00 0. -1.
         25    1    1    2    0    0  0.40134380996E+02  0.22370399410E+02 -0.11599025730E+03  0.17310385061E+03  0.12000000000E+03 0.  0.
         25    1    1    2    0    0 -0.40134380996E+02 -0.22370399410E+02 -0.15057742228E+03  0.19795141679E+03  0.12000000000E+03 0.  0.
<mgrwt>
<rscale>  0 0.25811564E+03</rscale>
<asrwt>0</asrwt>
<pdfrwt beam="1">  1        3 0.49047919E-01 0.25811564E+03</pdfrwt>
<pdfrwt beam="2">  1       -3 0.80375068E-02 0.25811564E+03</pdfrwt>
<totfact> 0.11107923E+03</totfact>
</mgrwt>
</event>
<event>
 4    1  0.1762274E-004  0.2875229E+03  0.7818608E-02  0.1091650E+00
         -1   -1    0    0    0  501 -0.00000000000E+00  0.00000000000E+00  0.92982281571E+02  0.92982281571E+02  0.00000000000E+00 0. -1.
          1   -1    0    0  501    0  0.00000000000E+00 -0.00000000000E+00 -0.22227194992E+03  0.22227194992E+03  0.00000000000E+00 0. -1.
         25    1    1    2    0    0  0.67513007876E+02  0.91437477780E+01 -0.10885415763E+03  0.17575790733E+03  0.12000000000E+03 0.  0.
         25    1    1    2    0    0 -0.67513007876E+02 -0.91437477780E+01 -0.20435510718E+02  0.13949632416E+03  0.12000000000E+03 0.  0.
<mgrwt>
<rscale>  0 0.28752289E+03</rscale>
<asrwt>0</asrwt>
<pdfrwt beam="1">  1        1 0.34195684E-01 0.28752289E+03</pdfrwt>
<pdfrwt beam="2">  1       -1 0.14304967E-01 0.28752289E+03</pdfrwt>
<totfact> 0.44262292E+03</totfact>
</mgrwt>
</event>
<event>
 4    1  0.1762274E-004  0.3448278E+03  0.7818608E-02  0.1064758E+00
         -2   -1    0    0    0  501 -0.00000000000E+00  0.00000000000E+00  0.14433080941E+02  0.14433080941E+02  0.00000000000E+00 0.  1.
          2   -1    0    0  501    0  0.00000000000E+00 -0.00000000000E+00 -0.20596128840E+04  0.20596128840E+04  0.00000000000E+00 0.  1.
         25    1    1    2    0    0 -0.10908854677E+03  0.56846797642E+02 -0.11065142361E+04  0.11197792747E+04  0.12000000000E+03 0.  0.
         25    1    1    2    0    0  0.10908854677E+03 -0.56846797642E+02 -0.93866556698E+03  0.95426669023E+03  0.12000000000E+03 0.  0.
<mgrwt>
<rscale>  0 0.34482784E+03</rscale>
<asrwt>0</asrwt>
<pdfrwt beam="1">  1        2 0.31686355E+00 0.34482784E+03</pdfrwt>
<pdfrwt beam="2">  1       -2 0.22204738E-02 0.34482784E+03</pdfrwt>
<totfact> 0.45727805E+03</totfact>
</mgrwt>
</event>
<event>
 4    1  0.1762274E-004  0.2582720E+03  0.7818608E-02  0.1108186E+00
          1   -1    0    0  501    0  0.00000000000E+00  0.00000000000E+00  0.15887121688E+03  0.15887121688E+03  0.00000000000E+00 0. -1.
         -1   -1    0    0    0  501 -0.00000000000E+00 -0.00000000000E+00 -0.10496618118E+03  0.10496618118E+03  0.00000000000E+00 0. -1.
         25    1    1    2    0    0  0.12210429766E+02  0.98763035767E+01 -0.19067868218E+02  0.12251620124E+03  0.12000000000E+03 0.  0.
         25    1    1    2    0    0 -0.12210429766E+02 -0.98763035767E+01  0.72972903915E+02  0.14132119683E+03  0.12000000000E+03 0.  0.
<mgrwt>
<rscale>  0 0.25827199E+03</rscale>
<asrwt>0</asrwt>
<pdfrwt beam="1">  1        1 0.24441726E-01 0.25827199E+03</pdfrwt>
<pdfrwt beam="2">  1       -1 0.16148643E-01 0.25827199E+03</pdfrwt>
<totfact> 0.55628444E+03</totfact>
</mgrwt>
</event>
<event>
 4    1  0.1762274E-004  0.2992139E+03  0.7818608E-02  0.1085634E+00
         -1   -1    0    0    0  501 -0.00000000000E+00  0.00000000000E+00  0.24233421534E+02  0.24233421534E+02  0.00000000000E+00 0. -1.
          1   -1    0    0  501    0  0.00000000000E+00 -0.00000000000E+00 -0.92361038609E+03  0.92361038609E+03  0.00000000000E+00 0. -1.
         25    1    1    2    0    0  0.56394800347E+02 -0.68460739616E+02 -0.48365816963E+03  0.50615459242E+03  0.12000000000E+03 0.  0.
         25    1    1    2    0    0 -0.56394800347E+02  0.68460739616E+02 -0.41571879492E+03  0.44168921520E+03  0.12000000000E+03 0.  0.
<mgrwt>
<rscale>  0 0.29921390E+03</rscale>
<asrwt>0</asrwt>
<pdfrwt beam="1">  1        1 0.14209388E+00 0.29921390E+03</pdfrwt>
<pdfrwt beam="2">  1       -1 0.37282193E-02 0.29921390E+03</pdfrwt>
<totfact> 0.50040040E+03</totfact>
</mgrwt>
</event>
<event>
 4    1  0.1762274E-004  0.3905361E+03  0.7818608E-02  0.1047107E+00
         -1   -1    0    0    0  501 -0.00000000000E+00  0.00000000000E+00  0.72665996493E+02  0.72665996493E+02  0.00000000000E+00 0. -1.
          1   -1    0    0  501    0  0.00000000000E+00 -0.00000000000E+00 -0.52472415871E+03  0.52472415871E+03  0.00000000000E+00 0. -1.
         25    1    1    2    0    0  0.72340842004E+02 -0.12996102103E+03 -0.28734067673E+03  0.34509089949E+03  0.12000000000E+03 0.  0.
         25    1    1    2    0    0 -0.72340842004E+02  0.12996102103E+03 -0.16471748549E+03  0.25229925571E+03  0.12000000000E+03 0.  0.
<mgrwt>
<rscale>  0 0.39053606E+03</rscale>
<asrwt>0</asrwt>
<pdfrwt beam="1">  1        1 0.80726791E-01 0.39053606E+03</pdfrwt>
<pdfrwt beam="2">  1       -1 0.11179384E-01 0.39053606E+03</pdfrwt>
<totfact> 0.21751028E+03</totfact>
</mgrwt>
</event>
<event>
 4    1  0.1762274E-004  0.3021355E+03  0.7818608E-02  0.1084178E+00
         -2   -1    0    0    0  501 -0.00000000000E+00  0.00000000000E+00  0.24028189194E+02  0.24028189194E+02  0.00000000000E+00 0. -1.
          2   -1    0    0  501    0  0.00000000000E+00 -0.00000000000E+00 -0.94977875339E+03  0.94977875339E+03  0.00000000000E+00 0. -1.
         25    1    1    2    0    0  0.80367126428E+02  0.22249736562E+02 -0.33940405305E+03  0.36952542133E+03  0.12000000000E+03 0.  0.
         25    1    1    2    0    0 -0.80367126428E+02 -0.22249736562E+02 -0.58634651115E+03  0.60428152125E+03  0.12000000000E+03 0.  0.
<mgrwt>
<rscale>  0 0.30213549E+03</rscale>
<asrwt>0</asrwt>
<pdfrwt beam="1">  1        2 0.14611981E+00 0.30213549E+03</pdfrwt>
<pdfrwt beam="2">  1       -2 0.36966444E-02 0.30213549E+03</pdfrwt>
<totfact> 0.87463480E+03</totfact>
</mgrwt>
</event>
<event>
 4    1  0.1762274E-004  0.2840636E+03  0.7818608E-02  0.1093490E+00
         -1   -1    0    0    0  501 -0.00000000000E+00  0.00000000000E+00  0.79968656515E+02  0.79968656515E+02  0.00000000000E+00 0.  1.
          1   -1    0    0  501    0  0.00000000000E+00 -0.00000000000E+00 -0.25226169166E+03  0.25226169166E+03  0.00000000000E+00 0.  1.
         25    1    1    2    0    0  0.75058649684E+02  0.11600021515E+02 -0.83619832784E+02  0.16480484770E+03  0.12000000000E+03 0.  0.
         25    1    1    2    0    0 -0.75058649684E+02 -0.11600021515E+02 -0.88673202362E+02  0.16742550047E+03  0.12000000000E+03 0.  0.
<mgrwt>
<rscale>  0 0.28406357E+03</rscale>
<asrwt>0</asrwt>
<pdfrwt beam="1">  1        1 0.38809490E-01 0.28406357E+03</pdfrwt>
<pdfrwt beam="2">  1       -1 0.12302870E-01 0.28406357E+03</pdfrwt>
<totfact> 0.47846772E+03</totfact>
</mgrwt>
</event>
<event>
 4    1  0.1762274E-004  0.2543081E+03  0.7818608E-02  0.1110612E+00
          2   -1    0    0  501    0  0.00000000000E+00  0.00000000000E+00  0.73456074505E+02  0.73456074505E+02  0.00000000000E+00 0.  1.
         -2   -1    0    0    0  501 -0.00000000000E+00 -0.00000000000E+00 -0.22010647000E+03  0.22010647000E+03  0.00000000000E+00 0.  1.
         25    1    1    2    0    0 -0.36749216490E+01 -0.89588585079E+01 -0.26089663227E+02  0.12318456365E+03  0.12000000000E+03 0.  0.
         25    1    1    2    0    0  0.36749216490E+01  0.89588585079E+01 -0.12056073227E+03  0.17037798086E+03  0.12000000000E+03 0.  0.
<mgrwt>
<rscale>  0 0.25430814E+03</rscale>
<asrwt>0</asrwt>
<pdfrwt beam="1">  1        2 0.11300935E-01 0.25430814E+03</pdfrwt>
<pdfrwt beam="2">  1       -2 0.33862534E-01 0.25430814E+03</pdfrwt>
<totfact> 0.44524784E+03</totfact>
</mgrwt>
</event>
<event>
 4    1  0.1762274E-004  0.2606281E+03  0.7818608E-02  0.1106766E+00
          2   -1    0    0  501    0  0.00000000000E+00  0.00000000000E+00  0.88462272537E+02  0.88462272537E+02  0.00000000000E+00 0. -1.
         -2   -1    0    0    0  501 -0.00000000000E+00 -0.00000000000E+00 -0.19196608973E+03  0.19196608973E+03  0.00000000000E+00 0. -1.
         25    1    1    2    0    0 -0.39241830475E+02 -0.31729234166E+02 -0.58125708627E+02  0.14256669865E+03  0.12000000000E+03 0.  0.
         25    1    1    2    0    0  0.39241830475E+02  0.31729234166E+02 -0.45378108571E+02  0.13786166362E+03  0.12000000000E+03 0.  0.
<mgrwt>
<rscale>  0 0.26062814E+03</rscale>
<asrwt>0</asrwt>
<pdfrwt beam="1">  1        2 0.13609580E-01 0.26062814E+03</pdfrwt>
<pdfrwt beam="2">  1       -2 0.29533245E-01 0.26062814E+03</pdfrwt>
<totfact> 0.45705251E+03</totfact>
</mgrwt>
</event>
<event>
 4    1  0.1762274E-004  0.4526866E+03  0.7818608E-02  0.1026924E+00
          1   -1    0    0  501    0  0.00000000000E+00  0.00000000000E+00  0.32024544383E+03  0.32024544383E+03  0.00000000000E+00 0. -1.
         -1   -1    0    0    0  501 -0.00000000000E+00 -0.00000000000E+00 -0.15997508113E+03  0.15997508113E+03  0.00000000000E+00 0. -1.
         25    1    1    2    0    0 -0.14986702799E+03 -0.88673194098E+02  0.16571561843E+03  0.26867215640E+03  0.12000000000E+03 0.  0.
         25    1    1    2    0    0  0.14986702799E+03  0.88673194098E+02 -0.54452557289E+01  0.21154836856E+03  0.12000000000E+03 0.  0.
<mgrwt>
<rscale>  0 0.45268661E+03</rscale>
<asrwt>0</asrwt>
<pdfrwt beam="1">  1        1 0.49268530E-01 0.45268661E+03</pdfrwt>
<pdfrwt beam="2">  1       -1 0.24611551E-01 0.45268661E+03</pdfrwt>
<totfact> 0.11573506E+03</totfact>
</mgrwt>
</event>
<event>
 4    1  0.1762274E-004  0.2511838E+03  0.7818608E-02  0.1112559E+00
         -2   -1    0    0    0  501 -0.00000000000E+00  0.00000000000E+00  0.97016686214E+02  0.97016686214E+02  0.00000000000E+00 0. -1.
          2   -1    0    0  501    0  0.00000000000E+00 -0.00000000000E+00 -0.16258358186E+03  0.16258358186E+03  0.00000000000E+00 0. -1.
         25    1    1    2    0    0 -0.16006614585E+02 -0.56952352146E+01 -0.66821365229E+02  0.13839704573E+03  0.12000000000E+03 0.  0.
         25    1    1    2    0    0  0.16006614585E+02  0.56952352146E+01  0.12544695795E+01  0.12120322235E+03  0.12000000000E+03 0.  0.
<mgrwt>
<rscale>  0 0.25118376E+03</rscale>
<asrwt>0</asrwt>
<pdfrwt beam="1">  1        2 0.25012859E-01 0.25118376E+03</pdfrwt>
<pdfrwt beam="2">  1       -2 0.14925644E-01 0.25118376E+03</pdfrwt>
<totfact> 0.73196742E+03</totfact>
</mgrwt>
</event>
<event>
 4    1  0.1762274E-004  0.4877090E+03  0.7818608E-02  0.1017038E+00
         -2   -1    0    0    0  501 -0.00000000000E+00  0.00000000000E+00  0.43614302679E+02  0.43614302679E+02  0.00000000000E+00 0. -1.
          2   -1    0    0  501    0  0.00000000000E+00 -0.00000000000E+00 -0.13634295356E+04  0.13634295356E+04  0.00000000000E+00 0. -1.
         25    1    1    2    0    0  0.14589849814E+03  0.14839927369E+03 -0.78081356925E+03  0.81693239997E+03  0.12000000000E+03 0.  0.
         25    1    1    2    0    0 -0.14589849814E+03 -0.14839927369E+03 -0.53900166372E+03  0.59011143836E+03  0.12000000000E+03 0.  0.
<mgrwt>
<rscale>  0 0.48770905E+03</rscale>
<asrwt>0</asrwt>
<pdfrwt beam="1">  1        2 0.20975838E+00 0.48770905E+03</pdfrwt>
<pdfrwt beam="2">  1       -2 0.67098932E-02 0.48770905E+03</pdfrwt>
<totfact> 0.20068243E+03</totfact>
</mgrwt>
</event>
<event>
 4    1  0.1762274E-004  0.2797340E+03  0.7818608E-02  0.1095834E+00
          1   -1    0    0  501    0  0.00000000000E+00  0.00000000000E+00  0.15168026390E+02  0.15168026390E+02  0.00000000000E+00 0.  1.
         -1   -1    0    0    0  501 -0.00000000000E+00 -0.00000000000E+00 -0.12897376607E+04  0.12897376607E+04  0.00000000000E+00 0.  1.
         25    1    1    2    0    0 -0.33398271477E+02  0.14648246261E+02 -0.34848981839E+03  0.37037166358E+03  0.12000000000E+03 0.  0.
         25    1    1    2    0    0  0.33398271477E+02 -0.14648246261E+02 -0.92607981588E+03  0.93453402348E+03  0.12000000000E+03 0.  0.
<mgrwt>
<rscale>  0 0.27973398E+03</rscale>
<asrwt>0</asrwt>
<pdfrwt beam="1">  1        1 0.23335435E-02 0.27973398E+03</pdfrwt>
<pdfrwt beam="2">  1       -1 0.19842110E+00 0.27973398E+03</pdfrwt>
<totfact> 0.83197018E+02</totfact>
</mgrwt>
</event>
<event>
 4    1  0.1762274E-004  0.3442347E+03  0.7818608E-02  0.1065007E+00
         -1   -1    0    0    0  501 -0.00000000000E+00  0.00000000000E+00  0.23377145179E+03  0.23377145179E+03  0.00000000000E+00 0.  1.
          1   -1    0    0  501    0  0.00000000000E+00 -0.00000000000E+00 -0.12672368881E+03  0.12672368881E+03  0.00000000000E+00 0.  1.
         25    1    1    2    0    0 -0.88758063788E+02  0.62857311932E+02  0.11454592454E+03  0.19836785117E+03  0.12000000000E+03 0.  0.
         25    1    1    2    0    0  0.88758063788E+02 -0.62857311932E+02 -0.74981615625E+01  0.16212728943E+03  0.12000000000E+03 0.  0.
<mgrwt>
<rscale>  0 0.34423469E+03</rscale>
<asrwt>0</asrwt>
<pdfrwt beam="1">  1        1 0.19495952E-01 0.34423469E+03</pdfrwt>
<pdfrwt beam="2">  1       -1 0.35964839E-01 0.34423469E+03</pdfrwt>
<totfact> 0.19747457E+03</totfact>
</mgrwt>
</event>
<event>
 4    1  0.1762274E-004  0.2620283E+03  0.7818608E-02  0.1105931E+00
         -1   -1    0    0    0  501 -0.00000000000E+00  0.00000000000E+00  0.58471910909E+02  0.58471910909E+02  0.00000000000E+00 0. -1.
          1   -1    0    0  501    0  0.00000000000E+00 -0.00000000000E+00 -0.29355474652E+03  0.29355474652E+03  0.00000000000E+00 0. -1.
         25    1    1    2    0    0 -0.13745366803E+02  0.15659098626E+02 -0.52684258449E+02  0.13270182202E+03  0.12000000000E+03 0.  0.
         25    1    1    2    0    0  0.13745366803E+02 -0.15659098626E+02 -0.18239857717E+03  0.21932483542E+03  0.12000000000E+03 0.  0.
<mgrwt>
<rscale>  0 0.26202830E+03</rscale>
<asrwt>0</asrwt>
<pdfrwt beam="1">  1        1 0.45162270E-01 0.26202830E+03</pdfrwt>
<pdfrwt beam="2">  1       -1 0.89956784E-02 0.26202830E+03</pdfrwt>
<totfact> 0.64094408E+03</totfact>
</mgrwt>
</event>
<event>
 4    1  0.1762274E-004  0.3220383E+03  0.7818608E-02  0.1074715E+00
         -1   -1    0    0    0  501 -0.00000000000E+00  0.00000000000E+00  0.18935654972E+03  0.18935654972E+03  0.00000000000E+00 0.  1.
          1   -1    0    0  501    0  0.00000000000E+00 -0.00000000000E+00 -0.13692243982E+03  0.13692243982E+03  0.00000000000E+00 0.  1.
         25    1    1    2    0    0 -0.22987516920E+02  0.10038685806E+03  0.56968235834E+02  0.16808131098E+03  0.12000000000E+03 0.  0.
         25    1    1    2    0    0  0.22987516920E+02 -0.10038685806E+03 -0.45341259301E+01  0.15819767857E+03  0.12000000000E+03 0.  0.
<mgrwt>
<rscale>  0 0.32203826E+03</rscale>
<asrwt>0</asrwt>
<pdfrwt beam="1">  1        1 0.21064991E-01 0.32203826E+03</pdfrwt>
<pdfrwt beam="2">  1       -1 0.29131777E-01 0.32203826E+03</pdfrwt>
<totfact> 0.25681223E+03</totfact>
</mgrwt>
</event>
<event>
 4    1  0.1762274E-004  0.2639269E+03  0.7818608E-02  0.1104807E+00
          2   -1    0    0  501    0  0.00000000000E+00  0.00000000000E+00  0.80914255049E+03  0.80914255049E+03  0.00000000000E+00 0.  1.
         -2   -1    0    0    0  501 -0.00000000000E+00 -0.00000000000E+00 -0.21521977132E+02  0.21521977132E+02  0.00000000000E+00 0.  1.
         25    1    1    2    0    0  0.19069997122E+02 -0.49635615612E+02  0.43684801403E+03  0.45613983216E+03  0.12000000000E+03 0.  0.
         25    1    1    2    0    0 -0.19069997122E+02  0.49635615612E+02  0.35077255933E+03  0.37452469546E+03  0.12000000000E+03 0.  0.
<mgrwt>
<rscale>  0 0.26392686E+03</rscale>
<asrwt>0</asrwt>
<pdfrwt beam="1">  1        2 0.12448345E+00 0.26392686E+03</pdfrwt>
<pdfrwt beam="2">  1       -2 0.33110740E-02 0.26392686E+03</pdfrwt>
<totfact> 0.12702436E+04</totfact>
</mgrwt>
</event>
<event>
 4    1  0.1762274E-004  0.3455941E+03  0.7818608E-02  0.1064438E+00
          2   -1    0    0  501    0  0.00000000000E+00  0.00000000000E+00  0.74643930927E+03  0.74643930927E+03  0.00000000000E+00 0.  1.
         -2   -1    0    0    0  501 -0.00000000000E+00 -0.00000000000E+00 -0.40001683546E+02  0.40001683546E+02  0.00000000000E+00 0.  1.
         25    1    1    2    0    0 -0.52617245136E+02 -0.34191936270E+02  0.10896127282E+03  0.17381087988E+03  0.12000000000E+03 0.  0.
         25    1    1    2    0    0  0.52617245136E+02  0.34191936270E+02  0.59747635290E+03  0.61263011293E+03  0.12000000000E+03 0.  0.
<mgrwt>
<rscale>  0 0.34559415E+03</rscale>
<asrwt>0</asrwt>
<pdfrwt beam="1">  1        2 0.11483681E+00 0.34559415E+03</pdfrwt>
<pdfrwt beam="2">  1       -2 0.61541058E-02 0.34559415E+03</pdfrwt>
<totfact> 0.55344756E+03</totfact>
</mgrwt>
</event>
<event>
 4    1  0.1762274E-004  0.2862286E+03  0.7818608E-02  0.1092335E+00
          2   -1    0    0  501    0  0.00000000000E+00  0.00000000000E+00  0.32587647111E+04  0.32587647111E+04  0.00000000000E+00 0.  1.
         -2   -1    0    0    0  501 -0.00000000000E+00 -0.00000000000E+00 -0.62851103763E+01  0.62851103763E+01  0.00000000000E+00 0.  1.
         25    1    1    2    0    0  0.48951149321E+02 -0.26146867230E+02  0.10012551609E+04  0.10099464198E+04  0.12000000000E+03 0.  0.
         25    1    1    2    0    0 -0.48951149321E+02  0.26146867230E+02  0.22512244399E+04  0.22551034017E+04  0.12000000000E+03 0.  0.
<mgrwt>
<rscale>  0 0.28622855E+03</rscale>
<asrwt>0</asrwt>
<pdfrwt beam="1">  1        2 0.50134707E+00 0.28622855E+03</pdfrwt>
<pdfrwt beam="2">  1       -2 0.96694266E-03 0.28622855E+03</pdfrwt>
<totfact> 0.32420795E+03</totfact>
</mgrwt>
</event>
<event>
 4    1  0.1762274E-004  0.3175652E+03  0.7818608E-02  0.1076775E+00
         -2   -1    0    0    0  501 -0.00000000000E+00  0.00000000000E+00  0.10142625101E+03  0.10142625101E+03  0.00000000000E+00 0.  1.
          2   -1    0    0  501    0  0.00000000000E+00 -0.00000000000E+00 -0.24857390470E+03  0.24857390470E+03  0.00000000000E+00 0.  1.
         25    1    1    2    0    0  0.78878717233E+02  0.23126885956E+02 -0.33891674684E+01  0.14549292540E+03  0.12000000000E+03 0.  0.
         25    1    1    2    0    0 -0.78878717233E+02 -0.23126885956E+02 -0.14375848622E+03  0.20450723030E+03  0.12000000000E+03 0.  0.
<mgrwt>
<rscale>  0 0.31756523E+03</rscale>
<asrwt>0</asrwt>
<pdfrwt beam="1">  1        2 0.38242139E-01 0.31756523E+03</pdfrwt>
<pdfrwt beam="2">  1       -2 0.15604039E-01 0.31756523E+03</pdfrwt>
<totfact> 0.43012763E+03</totfact>
</mgrwt>
</event>
<event>
 4    1  0.1762274E-004  0.2557534E+03  0.7818608E-02  0.1109722E+00
          2   -1    0    0  501    0  0.00000000000E+00  0.00000000000E+00  0.49453296081E+03  0.49453296081E+03  0.00000000000E+00 0. -1.
         -2   -1    0    0    0  501 -0.00000000000E+00 -0.00000000000E+00 -0.33066443772E+02  0.33066443772E+02  0.00000000000E+00 0. -1.
         25    1    1    2    0    0  0.18412254216E+02 -0.38587543213E+02  0.25374541175E+03  0.28392735617E+03  0.12000000000E+03 0.  0.
         25    1    1    2    0    0 -0.18412254216E+02  0.38587543213E+02  0.20772110529E+03  0.24367204842E+03  0.12000000000E+03 0.  0.
<mgrwt>
<rscale>  0 0.25575337E+03</rscale>
<asrwt>0</asrwt>
<pdfrwt beam="1">  1        2 0.76081989E-01 0.25575337E+03</pdfrwt>
<pdfrwt beam="2">  1       -2 0.50871455E-02 0.25575337E+03</pdfrwt>
<totfact> 0.11897968E+04</totfact>
</mgrwt>
</event>
<event>
 4    1  0.1762274E-004  0.3767344E+03  0.7818608E-02  0.1052147E+00
          2   -1    0    0  501    0  0.00000000000E+00  0.00000000000E+00  0.62224945245E+03  0.62224945245E+03  0.00000000000E+00 0. -1.
         -2   -1    0    0    0  501 -0.00000000000E+00 -0.00000000000E+00 -0.57022458670E+02  0.57022458670E+02  0.00000000000E+00 0. -1.
         25    1    1    2    0    0 -0.37715940382E+02  0.42188978865E+01  0.29916428177E+02  0.12936492544E+03  0.12000000000E+03 0.  0.
         25    1    1    2    0    0  0.37715940382E+02 -0.42188978865E+01  0.53531056561E+03  0.54990698569E+03  0.12000000000E+03 0.  0.
<mgrwt>
<rscale>  0 0.37673436E+03</rscale>
<asrwt>0</asrwt>
<pdfrwt beam="1">  1        2 0.95730680E-01 0.37673436E+03</pdfrwt>
<pdfrwt beam="2">  1       -2 0.87726864E-02 0.37673436E+03</pdfrwt>
<totfact> 0.39717207E+03</totfact>
</mgrwt>
</event>
<event>
 4    1  0.1762274E-004  0.3343288E+03  0.7818608E-02  0.1069237E+00
          1   -1    0    0  501    0  0.00000000000E+00  0.00000000000E+00  0.53922278513E+03  0.53922278513E+03  0.00000000000E+00 0.  1.
         -1   -1    0    0    0  501 -0.00000000000E+00 -0.00000000000E+00 -0.51822631043E+02  0.51822631043E+02  0.00000000000E+00 0.  1.
         25    1    1    2    0    0  0.10492625239E+03 -0.38148502879E+02  0.18562614604E+03  0.24763257622E+03  0.12000000000E+03 0.  0.
         25    1    1    2    0    0 -0.10492625239E+03  0.38148502879E+02  0.30177400805E+03  0.34341283996E+03  0.12000000000E+03 0.  0.
<mgrwt>
<rscale>  0 0.33432884E+03</rscale>
<asrwt>0</asrwt>
<pdfrwt beam="1">  1        1 0.82957348E-01 0.33432884E+03</pdfrwt>
<pdfrwt beam="2">  1       -1 0.79727128E-02 0.33432884E+03</pdfrwt>
<totfact> 0.35362321E+03</totfact>
</mgrwt>
</event>
<event>
 4    1  0.1762274E-004  0.3415412E+03  0.7818608E-02  0.1066141E+00
          1   -1    0    0  501    0  0.00000000000E+00  0.00000000000E+00  0.75139501763E+03  0.75139501763E+03  0.00000000000E+00 0. -1.
         -1   -1    0    0    0  501 -0.00000000000E+00 -0.00000000000E+00 -0.38811265322E+02  0.38811265322E+02  0.00000000000E+00 0. -1.
         25    1    1    2    0    0  0.68403516384E+01  0.11762944655E+03  0.28769251124E+03  0.33324234144E+03  0.12000000000E+03 0.  0.
         25    1    1    2    0    0 -0.68403516384E+01 -0.11762944655E+03  0.42489124106E+03  0.45696394151E+03  0.12000000000E+03 0.  0.
<mgrwt>
<rscale>  0 0.34154116E+03</rscale>
<asrwt>0</asrwt>
<pdfrwt beam="1">  1        1 0.11559922E+00 0.34154116E+03</pdfrwt>
<pdfrwt beam="2">  1       -1 0.59709645E-02 0.34154116E+03</pdfrwt>
<totfact> 0.34232793E+03</totfact>
</mgrwt>
</event>
<event>
 4    1  0.1762274E-004  0.2773957E+03  0.7818608E-02  0.1097120E+00
          1   -1    0    0  501    0  0.00000000000E+00  0.00000000000E+00  0.21317405399E+02  0.21317405399E+02  0.00000000000E+00 0. -1.
         -1   -1    0    0    0  501 -0.00000000000E+00 -0.00000000000E+00 -0.90241256804E+03  0.90241256804E+03  0.00000000000E+00 0. -1.
         25    1    1    2    0    0 -0.64938989587E+02 -0.23154627376E+02 -0.41004837597E+03  0.43277347397E+03  0.12000000000E+03 0.  0.
         25    1    1    2    0    0  0.64938989587E+02  0.23154627376E+02 -0.47104678667E+03  0.49095649947E+03  0.12000000000E+03 0.  0.
<mgrwt>
<rscale>  0 0.27739571E+03</rscale>
<asrwt>0</asrwt>
<pdfrwt beam="1">  1        1 0.32796015E-02 0.27739571E+03</pdfrwt>
<pdfrwt beam="2">  1       -1 0.13883267E+00 0.27739571E+03</pdfrwt>
<totfact> 0.13880087E+03</totfact>
</mgrwt>
</event>
<event>
 4    1  0.1762274E-004  0.3381170E+03  0.7818608E-02  0.1067601E+00
         -1   -1    0    0    0  501 -0.00000000000E+00  0.00000000000E+00  0.16869354486E+03  0.16869354486E+03  0.00000000000E+00 0.  1.
          1   -1    0    0  501    0  0.00000000000E+00 -0.00000000000E+00 -0.16942420438E+03  0.16942420438E+03  0.00000000000E+00 0.  1.
         25    1    1    2    0    0  0.15057345421E+02 -0.90228404728E+01  0.11741709296E+03  0.16880435131E+03  0.12000000000E+03 0.  0.
         25    1    1    2    0    0 -0.15057345421E+02  0.90228404728E+01 -0.11814775248E+03  0.16931339793E+03  0.12000000000E+03 0.  0.
<mgrwt>
<rscale>  0 0.33811696E+03</rscale>
<asrwt>0</asrwt>
<pdfrwt beam="1">  1        1 0.26065262E-01 0.33811696E+03</pdfrwt>
<pdfrwt beam="2">  1       -1 0.25952853E-01 0.33811696E+03</pdfrwt>
<totfact> 0.23768826E+03</totfact>
</mgrwt>
</event>
<event>
 4    1  0.1762274E-004  0.2761678E+03  0.7818608E-02  0.1097801E+00
         -2   -1    0    0    0  501 -0.00000000000E+00  0.00000000000E+00  0.24610640744E+02  0.24610640744E+02  0.00000000000E+00 0. -1.
          2   -1    0    0  501    0  0.00000000000E+00 -0.00000000000E+00 -0.77475259522E+03  0.77475259522E+03  0.00000000000E+00 0. -1.
         25    1    1    2    0    0  0.30705931359E+02 -0.59050686086E+02 -0.33048088200E+03  0.35783718520E+03  0.12000000000E+03 0.  0.
         25    1    1    2    0    0 -0.30705931359E+02  0.59050686086E+02 -0.41966107248E+03  0.44152605076E+03  0.12000000000E+03 0.  0.
<mgrwt>
<rscale>  0 0.27616776E+03</rscale>
<asrwt>0</asrwt>
<pdfrwt beam="1">  1        2 0.11919268E+00 0.27616776E+03</pdfrwt>
<pdfrwt beam="2">  1       -2 0.37862533E-02 0.27616776E+03</pdfrwt>
<totfact> 0.10999042E+04</totfact>
</mgrwt>
</event>
<event>
 4    1  0.1762274E-004  0.3090548E+03  0.7818608E-02  0.1080800E+00
         -1   -1    0    0    0  501 -0.00000000000E+00  0.00000000000E+00  0.44465535412E+02  0.44465535412E+02  0.00000000000E+00 0.  1.
          1   -1    0    0  501    0  0.00000000000E+00 -0.00000000000E+00 -0.53701624653E+03  0.53701624653E+03  0.00000000000E+00 0.  1.
         25    1    1    2    0    0 -0.83414964826E+02 -0.37813711394E+02 -0.18413559390E+03  0.23810470400E+03  0.12000000000E+03 0.  0.
         25    1    1    2    0    0  0.83414964826E+02  0.37813711394E+02 -0.30841511721E+03  0.34337707794E+03  0.12000000000E+03 0.  0.
<mgrwt>
<rscale>  0 0.30905478E+03</rscale>
<asrwt>0</asrwt>
<pdfrwt beam="1">  1        1 0.82617882E-01 0.30905478E+03</pdfrwt>
<pdfrwt beam="2">  1       -1 0.68408518E-02 0.30905478E+03</pdfrwt>
<totfact> 0.44869200E+03</totfact>
</mgrwt>
</event>
<event>
 4    1  0.1762274E-004  0.3309004E+03  0.7818608E-02  0.1070739E+00
          1   -1    0    0  501    0  0.00000000000E+00  0.00000000000E+00  0.36562138724E+02  0.36562138724E+02  0.00000000000E+00 0. -1.
         -1   -1    0    0    0  501 -0.00000000000E+00 -0.00000000000E+00 -0.74869150332E+03  0.74869150332E+03  0.00000000000E+00 0. -1.
         25    1    1    2    0    0 -0.61230494871E+02 -0.90217803448E+02 -0.27788479702E+03  0.32172719185E+03  0.12000000000E+03 0.  0.
         25    1    1    2    0    0  0.61230494871E+02  0.90217803448E+02 -0.43424456757E+03  0.46352645019E+03  0.12000000000E+03 0.  0.
<mgrwt>
<rscale>  0 0.33090036E+03</rscale>
<asrwt>0</asrwt>
<pdfrwt beam="1">  1        1 0.56249449E-02 0.33090036E+03</pdfrwt>
<pdfrwt beam="2">  1       -1 0.11518330E+00 0.33090036E+03</pdfrwt>
<totfact> 0.10323996E+03</totfact>
</mgrwt>
</event>
<event>
 4    1  0.1762274E-004  0.2669382E+03  0.7818608E-02  0.1103045E+00
         -2   -1    0    0    0  501 -0.00000000000E+00  0.00000000000E+00  0.11672476161E+02  0.11672476161E+02  0.00000000000E+00 0.  1.
          2   -1    0    0  501    0  0.00000000000E+00 -0.00000000000E+00 -0.15261543430E+04  0.15261543430E+04  0.00000000000E+00 0.  1.
         25    1    1    2    0    0  0.23218623654E+02 -0.44540006135E+02 -0.92921221320E+03  0.93827408245E+03  0.12000000000E+03 0.  0.
         25    1    1    2    0    0 -0.23218623654E+02  0.44540006135E+02 -0.58526965362E+03  0.59955273670E+03  0.12000000000E+03 0.  0.
<mgrwt>
<rscale>  0 0.26693820E+03</rscale>
<asrwt>0</asrwt>
<pdfrwt beam="1">  1        2 0.23479292E+00 0.26693820E+03</pdfrwt>
<pdfrwt beam="2">  1       -2 0.17957660E-02 0.26693820E+03</pdfrwt>
<totfact> 0.11957823E+04</totfact>
</mgrwt>
</event>
<event>
 4    1  0.1762274E-004  0.2617016E+03  0.7818608E-02  0.1106125E+00
          1   -1    0    0  501    0  0.00000000000E+00  0.00000000000E+00  0.46547985629E+03  0.46547985629E+03  0.00000000000E+00 0.  1.
         -1   -1    0    0    0  501 -0.00000000000E+00 -0.00000000000E+00 -0.36783391521E+02  0.36783391521E+02  0.00000000000E+00 0.  1.
         25    1    1    2    0    0  0.14032245893E+02  0.40175833747E+02  0.27227331802E+03  0.30057238936E+03  0.12000000000E+03 0.  0.
         25    1    1    2    0    0 -0.14032245893E+02 -0.40175833747E+02  0.15642314675E+03  0.20169085845E+03  0.12000000000E+03 0.  0.
<mgrwt>
<rscale>  0 0.26170157E+03</rscale>
<asrwt>0</asrwt>
<pdfrwt beam="1">  1        1 0.71612281E-01 0.26170157E+03</pdfrwt>
<pdfrwt beam="2">  1       -1 0.56589837E-02 0.26170157E+03</pdfrwt>
<totfact> 0.71969577E+03</totfact>
</mgrwt>
</event>
<event>
 4    1  0.1762274E-004  0.3917079E+03  0.7818608E-02  0.1046689E+00
         -2   -1    0    0    0  501 -0.00000000000E+00  0.00000000000E+00  0.32070179567E+02  0.32070179567E+02  0.00000000000E+00 0.  1.
          2   -1    0    0  501    0  0.00000000000E+00 -0.00000000000E+00 -0.11960886662E+04  0.11960886662E+04  0.00000000000E+00 0.  1.
         25    1    1    2    0    0 -0.11762709802E+03  0.94671484862E+02 -0.47522367634E+03  0.51287071157E+03  0.12000000000E+03 0.  0.
         25    1    1    2    0    0  0.11762709802E+03 -0.94671484862E+02 -0.68879481027E+03  0.71528813417E+03  0.12000000000E+03 0.  0.
<mgrwt>
<rscale>  0 0.39170794E+03</rscale>
<asrwt>0</asrwt>
<pdfrwt beam="1">  1        2 0.18401365E+00 0.39170794E+03</pdfrwt>
<pdfrwt beam="2">  1       -2 0.49338734E-02 0.39170794E+03</pdfrwt>
<totfact> 0.40276137E+03</totfact>
</mgrwt>
</event>
<event>
 4    1  0.1762274E-004  0.2912008E+03  0.7818608E-02  0.1089724E+00
         -1   -1    0    0    0  501 -0.00000000000E+00  0.00000000000E+00  0.17281171758E+03  0.17281171758E+03  0.00000000000E+00 0. -1.
          1   -1    0    0  501    0  0.00000000000E+00 -0.00000000000E+00 -0.12267384941E+03  0.12267384941E+03  0.00000000000E+00 0. -1.
         25    1    1    2    0    0 -0.20727742152E+02 -0.46586268351E+02  0.90826469356E+02  0.15890049474E+03  0.12000000000E+03 0.  0.
         25    1    1    2    0    0  0.20727742152E+02  0.46586268351E+02 -0.40688601195E+02  0.13658507225E+03  0.12000000000E+03 0.  0.
<mgrwt>
<rscale>  0 0.29120081E+03</rscale>
<asrwt>0</asrwt>
<pdfrwt beam="1">  1        1 0.18872900E-01 0.29120081E+03</pdfrwt>
<pdfrwt beam="2">  1       -1 0.26586418E-01 0.29120081E+03</pdfrwt>
<totfact> 0.34474944E+03</totfact>
</mgrwt>
</event>
<event>
 4    1  0.1762274E-004  0.4121046E+03  0.7818608E-02  0.1039667E+00
         -2   -1    0    0    0  501 -0.00000000000E+00  0.00000000000E+00  0.12432184456E+02  0.12432184456E+02  0.00000000000E+00 0. -1.
          2   -1    0    0  501    0  0.00000000000E+00 -0.00000000000E+00 -0.34151317878E+04  0.34151317878E+04  0.00000000000E+00 0. -1.
         25    1    1    2    0    0 -0.93760301870E+01 -0.15299837062E+03 -0.22630630596E+04  0.22714204418E+04  0.12000000000E+03 0.  0.
         25    1    1    2    0    0  0.93760301870E+01  0.15299837062E+03 -0.11396365437E+04  0.11561435305E+04  0.12000000000E+03 0.  0.
<mgrwt>
<rscale>  0 0.41210459E+03</rscale>
<asrwt>0</asrwt>
<pdfrwt beam="1">  1        2 0.52540466E+00 0.41210459E+03</pdfrwt>
<pdfrwt beam="2">  1       -2 0.19126446E-02 0.41210459E+03</pdfrwt>
<totfact> 0.92875984E+02</totfact>
</mgrwt>
</event>
<event>
 4    1  0.1762274E-004  0.3271097E+03  0.7818608E-02  0.1072423E+00
          1   -1    0    0  501    0  0.00000000000E+00  0.00000000000E+00  0.27827632346E+03  0.27827632346E+03  0.00000000000E+00 0. -1.
         -1   -1    0    0    0  501 -0.00000000000E+00 -0.00000000000E+00 -0.96128149313E+02  0.96128149313E+02  0.00000000000E+00 0. -1.
         25    1    1    2    0    0  0.13348771745E+02  0.42389607210E+02  0.20765948696E+03  0.24392115741E+03  0.12000000000E+03 0.  0.
         25    1    1    2    0    0 -0.13348771745E+02 -0.42389607210E+02 -0.25511312815E+02  0.13048331536E+03  0.12000000000E+03 0.  0.
<mgrwt>
<rscale>  0 0.32710969E+03</rscale>
<asrwt>0</asrwt>
<pdfrwt beam="1">  1        1 0.42811742E-01 0.32710969E+03</pdfrwt>
<pdfrwt beam="2">  1       -1 0.14788946E-01 0.32710969E+03</pdfrwt>
<totfact> 0.31727424E+03</totfact>
</mgrwt>
</event>
<event>
 4    1  0.1762274E-004  0.2666114E+03  0.7818608E-02  0.1103235E+00
          2   -1    0    0  501    0  0.00000000000E+00  0.00000000000E+00  0.16113893769E+03  0.16113893769E+03  0.00000000000E+00 0. -1.
         -2   -1    0    0    0  501 -0.00000000000E+00 -0.00000000000E+00 -0.11028006752E+03  0.11028006752E+03  0.00000000000E+00 0. -1.
         25    1    1    2    0    0  0.20105249130E+02  0.54299823606E+02  0.29714980915E+02  0.13651253414E+03  0.12000000000E+03 0.  0.
         25    1    1    2    0    0 -0.20105249130E+02 -0.54299823606E+02  0.21143889256E+02  0.13490647108E+03  0.12000000000E+03 0.  0.
<mgrwt>
<rscale>  0 0.26661142E+03</rscale>
<asrwt>0</asrwt>
<pdfrwt beam="1">  1        2 0.24790606E-01 0.26661142E+03</pdfrwt>
<pdfrwt beam="2">  1       -2 0.16966164E-01 0.26661142E+03</pdfrwt>
<totfact> 0.59898845E+03</totfact>
</mgrwt>
</event>
<event>
 4    1  0.1762274E-004  0.2917775E+03  0.7818608E-02  0.1089425E+00
         -1   -1    0    0    0  501 -0.00000000000E+00  0.00000000000E+00  0.12109356010E+02  0.12109356010E+02  0.00000000000E+00 0.  1.
          1   -1    0    0  501    0  0.00000000000E+00 -0.00000000000E+00 -0.17576102914E+04  0.17576102914E+04  0.00000000000E+00 0.  1.
         25    1    1    2    0    0  0.29862957061E+02  0.22539372642E+02 -0.13218988798E+04  0.13278616147E+04  0.12000000000E+03 0.  0.
         25    1    1    2    0    0 -0.29862957061E+02 -0.22539372642E+02 -0.42360205564E+03  0.44185803271E+03  0.12000000000E+03 0.  0.
<mgrwt>
<rscale>  0 0.29177751E+03</rscale>
<asrwt>0</asrwt>
<pdfrwt beam="1">  1        1 0.27040152E+00 0.29177751E+03</pdfrwt>
<pdfrwt beam="2">  1       -1 0.18629783E-02 0.29177751E+03</pdfrwt>
<totfact> 0.36887932E+03</totfact>
</mgrwt>
</event>
<event>
 4    1  0.1762274E-004  0.2738986E+03  0.7818608E-02  0.1099069E+00
         -1   -1    0    0    0  501 -0.00000000000E+00  0.00000000000E+00  0.17952990560E+03  0.17952990560E+03  0.00000000000E+00 0.  1.
          1   -1    0    0  501    0  0.00000000000E+00 -0.00000000000E+00 -0.10446791214E+03  0.10446791214E+03  0.00000000000E+00 0.  1.
         25    1    1    2    0    0  0.32789938480E+02 -0.63358901921E+01 -0.21486887298E+02  0.12640019737E+03  0.12000000000E+03 0.  0.
         25    1    1    2    0    0 -0.32789938480E+02  0.63358901921E+01  0.96548880752E+02  0.15759762036E+03  0.12000000000E+03 0.  0.
<mgrwt>
<rscale>  0 0.27389863E+03</rscale>
<asrwt>0</asrwt>
<pdfrwt beam="1">  1        1 0.16071987E-01 0.27389863E+03</pdfrwt>
<pdfrwt beam="2">  1       -1 0.27619985E-01 0.27389863E+03</pdfrwt>
<totfact> 0.39786712E+03</totfact>
</mgrwt>
</event>
<event>
 4    1  0.1762274E-004  0.3562283E+03  0.7818608E-02  0.1060087E+00
         -2   -1    0    0    0  501 -0.00000000000E+00  0.00000000000E+00  0.37275229986E+02  0.37275229986E+02  0.00000000000E+00 0. -1.
          2   -1    0    0  501    0  0.00000000000E+00 -0.00000000000E+00 -0.85109212663E+03  0.85109212663E+03  0.00000000000E+00 0. -1.
         25    1    1    2    0    0  0.15079240571E+02 -0.11155014686E+03 -0.57703405275E+03  0.60003259645E+03  0.12000000000E+03 0.  0.
         25    1    1    2    0    0 -0.15079240571E+02  0.11155014686E+03 -0.23678284389E+03  0.28833476017E+03  0.12000000000E+03 0.  0.
<mgrwt>
<rscale>  0 0.35622832E+03</rscale>
<asrwt>0</asrwt>
<pdfrwt beam="1">  1        2 0.13093724E+00 0.35622832E+03</pdfrwt>
<pdfrwt beam="2">  1       -2 0.57346511E-02 0.35622832E+03</pdfrwt>
<totfact> 0.52168000E+03</totfact>
</mgrwt>
</event>
<event>
 4    1  0.1762274E-004  0.2617248E+03  0.7818608E-02  0.1106111E+00
         -1   -1    0    0    0  501 -0.00000000000E+00  0.00000000000E+00  0.37971130051E+03  0.37971130051E+03  0.00000000000E+00 0.  1.
          1   -1    0    0  501    0  0.00000000000E+00 -0.00000000000E+00 -0.45099963182E+02  0.45099963182E+02  0.00000000000E+00 0.  1.
         25    1    1    2    0    0 -0.35042656635E+02 -0.38419539878E+02  0.15988233035E+03  0.20655848660E+03  0.12000000000E+03 0.  0.
         25    1    1    2    0    0  0.35042656635E+02  0.38419539878E+02  0.17472900697E+03  0.21825277709E+03  0.12000000000E+03 0.  0.
<mgrwt>
<rscale>  0 0.26172478E+03</rscale>
<asrwt>0</asrwt>
<pdfrwt beam="1">  1        1 0.69384561E-02 0.26172478E+03</pdfrwt>
<pdfrwt beam="2">  1       -1 0.58417121E-01 0.26172478E+03</pdfrwt>
<totfact> 0.32178250E+03</totfact>
</mgrwt>
</event>
<event>
 4    1  0.1762274E-004  0.3664658E+03  0.7818608E-02  0.1056053E+00
         -1   -1    0    0    0  501 -0.00000000000E+00  0.00000000000E+00  0.23366515552E+02  0.23366515552E+02  0.00000000000E+00 0. -1.
          1   -1    0    0  501    0  0.00000000000E+00 -0.00000000000E+00 -0.14368551440E+04  0.14368551440E+04  0.00000000000E+00 0. -1.
         25    1    1    2    0    0  0.36379625580E+02 -0.10253503703E+02 -0.12375453026E+04  0.12439240280E+04  0.12000000000E+03 0.  0.
         25    1    1    2    0    0 -0.36379625580E+02  0.10253503703E+02 -0.17594332584E+03  0.21629763152E+03  0.12000000000E+03 0.  0.
<mgrwt>
<rscale>  0 0.36646581E+03</rscale>
<asrwt>0</asrwt>
<pdfrwt beam="1">  1        1 0.22105464E+00 0.36646581E+03</pdfrwt>
<pdfrwt beam="2">  1       -1 0.35948485E-02 0.36646581E+03</pdfrwt>
<totfact> 0.22729793E+03</totfact>
</mgrwt>
</event>
<event>
 4    1  0.1762274E-004  0.2554364E+03  0.7818608E-02  0.1109917E+00
          2   -1    0    0  501    0  0.00000000000E+00  0.00000000000E+00  0.29246809315E+03  0.29246809315E+03  0.00000000000E+00 0. -1.
         -2   -1    0    0    0  501 -0.00000000000E+00 -0.00000000000E+00 -0.55773401981E+02  0.55773401981E+02  0.00000000000E+00 0. -1.
         25    1    1    2    0    0 -0.31443394189E+02 -0.21643938819E+02  0.89273345638E+02  0.15435957167E+03  0.12000000000E+03 0.  0.
         25    1    1    2    0    0  0.31443394189E+02  0.21643938819E+02  0.14742134553E+03  0.19388192346E+03  0.12000000000E+03 0.  0.
<mgrwt>
<rscale>  0 0.25543641E+03</rscale>
<asrwt>0</asrwt>
<pdfrwt beam="1">  1        2 0.44995090E-01 0.25543641E+03</pdfrwt>
<pdfrwt beam="2">  1       -2 0.85805236E-02 0.25543641E+03</pdfrwt>
<totfact> 0.93987763E+03</totfact>
</mgrwt>
</event>
<event>
 4    1  0.1762274E-004  0.2735086E+03  0.7818608E-02  0.1099288E+00
         -3   -1    0    0    0  501 -0.00000000000E+00  0.00000000000E+00  0.48197226123E+03  0.48197226123E+03  0.00000000000E+00 0. -1.
          3   -1    0    0  501    0  0.00000000000E+00 -0.00000000000E+00 -0.38802508713E+02  0.38802508713E+02  0.00000000000E+00 0. -1.
         25    1    1    2    0    0 -0.27374888871E+02  0.10493337097E+02  0.10987296671E+03  0.16532260426E+03  0.12000000000E+03 0.  0.
         25    1    1    2    0    0  0.27374888871E+02 -0.10493337097E+02  0.33329678581E+03  0.35545216569E+03  0.12000000000E+03 0.  0.
<mgrwt>
<rscale>  0 0.27350856E+03</rscale>
<asrwt>0</asrwt>
<pdfrwt beam="1">  1        3 0.59696171E-02 0.27350856E+03</pdfrwt>
<pdfrwt beam="2">  1       -3 0.74149574E-01 0.27350856E+03</pdfrwt>
<totfact> 0.76622076E+02</totfact>
</mgrwt>
</event>
<event>
 4    1  0.1762274E-004  0.3368065E+03  0.7818608E-02  0.1068164E+00
          2   -1    0    0  501    0  0.00000000000E+00  0.00000000000E+00  0.60581138012E+03  0.60581138012E+03  0.00000000000E+00 0. -1.
         -2   -1    0    0    0  501 -0.00000000000E+00 -0.00000000000E+00 -0.46812676960E+02  0.46812676960E+02  0.00000000000E+00 0. -1.
         25    1    1    2    0    0 -0.91244464866E+02 -0.30542085091E+02  0.14664042446E+03  0.21251302411E+03  0.12000000000E+03 0.  0.
         25    1    1    2    0    0  0.91244464866E+02  0.30542085091E+02  0.41235827870E+03  0.44011103297E+03  0.12000000000E+03 0.  0.
<mgrwt>
<rscale>  0 0.33680649E+03</rscale>
<asrwt>0</asrwt>
<pdfrwt beam="1">  1        2 0.93201745E-01 0.33680649E+03</pdfrwt>
<pdfrwt beam="2">  1       -2 0.72019507E-02 0.33680649E+03</pdfrwt>
<totfact> 0.55788435E+03</totfact>
</mgrwt>
</event>
<event>
 4    1  0.1762274E-004  0.2797184E+03  0.7818608E-02  0.1095843E+00
         -3   -1    0    0    0  501 -0.00000000000E+00  0.00000000000E+00  0.13809067557E+03  0.13809067557E+03  0.00000000000E+00 0. -1.
          3   -1    0    0  501    0  0.00000000000E+00 -0.00000000000E+00 -0.14165035084E+03  0.14165035084E+03  0.00000000000E+00 0. -1.
         25    1    1    2    0    0  0.38711455316E+02 -0.56254986257E+02 -0.24083939120E+02  0.14015433056E+03  0.12000000000E+03 0.  0.
         25    1    1    2    0    0 -0.38711455316E+02  0.56254986257E+02  0.20524263843E+02  0.13958669585E+03  0.12000000000E+03 0.  0.
<mgrwt>
<rscale>  0 0.27971838E+03</rscale>
<asrwt>0</asrwt>
<pdfrwt beam="1">  1        3 0.21792362E-01 0.27971838E+03</pdfrwt>
<pdfrwt beam="2">  1       -3 0.21244719E-01 0.27971838E+03</pdfrwt>
<totfact> 0.98862991E+02</totfact>
</mgrwt>
</event>
<event>
 4    1  0.1762274E-004  0.2494237E+03  0.7818608E-02  0.1113670E+00
          2   -1    0    0  501    0  0.00000000000E+00  0.00000000000E+00  0.17173244907E+04  0.17173244907E+04  0.00000000000E+00 0.  1.
         -2   -1    0    0    0  501 -0.00000000000E+00 -0.00000000000E+00 -0.90565561136E+01  0.90565561136E+01  0.00000000000E+00 0.  1.
         25    1    1    2    0    0  0.26119521094E+02 -0.11547464267E+02  0.98128444847E+03  0.98900694746E+03  0.12000000000E+03 0.  0.
         25    1    1    2    0    0 -0.26119521094E+02  0.11547464267E+02  0.72698348613E+03  0.73737409937E+03  0.12000000000E+03 0.  0.
<mgrwt>
<rscale>  0 0.24942370E+03</rscale>
<asrwt>0</asrwt>
<pdfrwt beam="1">  1        2 0.26420351E+00 0.24942370E+03</pdfrwt>
<pdfrwt beam="2">  1       -2 0.13933177E-02 0.24942370E+03</pdfrwt>
<totfact> 0.13710940E+04</totfact>
</mgrwt>
</event>
<event>
 4    1  0.1762274E-004  0.2566698E+03  0.7818608E-02  0.1109161E+00
          3   -1    0    0  501    0  0.00000000000E+00  0.00000000000E+00  0.76174232488E+02  0.76174232488E+02  0.00000000000E+00 0. -1.
         -3   -1    0    0    0  501 -0.00000000000E+00 -0.00000000000E+00 -0.21621281471E+03  0.21621281471E+03  0.00000000000E+00 0. -1.
         25    1    1    2    0    0  0.13495340069E+02 -0.22816218134E+02 -0.11213945581E+03  0.16636694853E+03  0.12000000000E+03 0.  0.
         25    1    1    2    0    0 -0.13495340069E+02  0.22816218134E+02 -0.27899126410E+02  0.12602009867E+03  0.12000000000E+03 0.  0.
<mgrwt>
<rscale>  0 0.25666979E+03</rscale>
<asrwt>0</asrwt>
<pdfrwt beam="1">  1        3 0.11719113E-01 0.25666979E+03</pdfrwt>
<pdfrwt beam="2">  1       -3 0.33263510E-01 0.25666979E+03</pdfrwt>
<totfact> 0.12623896E+03</totfact>
</mgrwt>
</event>
<event>
 4    1  0.1762274E-004  0.2571548E+03  0.7818608E-02  0.1108865E+00
          2   -1    0    0  501    0  0.00000000000E+00  0.00000000000E+00  0.83789897198E+03  0.83789897198E+03  0.00000000000E+00 0. -1.
         -2   -1    0    0    0  501 -0.00000000000E+00 -0.00000000000E+00 -0.19730474230E+02  0.19730474230E+02  0.00000000000E+00 0. -1.
         25    1    1    2    0    0  0.18880598407E+02 -0.19955767584E+02  0.53286142282E+03  0.54689670468E+03  0.12000000000E+03 0.  0.
         25    1    1    2    0    0 -0.18880598407E+02  0.19955767584E+02  0.28530707493E+03  0.31073274153E+03  0.12000000000E+03 0.  0.
<mgrwt>
<rscale>  0 0.25715477E+03</rscale>
<asrwt>0</asrwt>
<pdfrwt beam="1">  1        2 0.12890751E+00 0.25715477E+03</pdfrwt>
<pdfrwt beam="2">  1       -2 0.30354582E-02 0.25715477E+03</pdfrwt>
<totfact> 0.13809094E+04</totfact>
</mgrwt>
</event>
<event>
 4    1  0.1762274E-004  0.2584422E+03  0.7818608E-02  0.1108083E+00
          3   -1    0    0  501    0  0.00000000000E+00  0.00000000000E+00  0.89263845639E+02  0.89263845639E+02  0.00000000000E+00 0.  1.
         -3   -1    0    0    0  501 -0.00000000000E+00 -0.00000000000E+00 -0.18706452651E+03  0.18706452651E+03  0.00000000000E+00 0.  1.
         25    1    1    2    0    0 -0.46139999936E+02 -0.99014109567E+01 -0.57919882155E+02  0.14135646530E+03  0.12000000000E+03 0.  0.
         25    1    1    2    0    0  0.46139999936E+02  0.99014109567E+01 -0.39880798719E+02  0.13497190685E+03  0.12000000000E+03 0.  0.
<mgrwt>
<rscale>  0 0.25844225E+03</rscale>
<asrwt>0</asrwt>
<pdfrwt beam="1">  1        3 0.13732899E-01 0.25844225E+03</pdfrwt>
<pdfrwt beam="2">  1       -3 0.28779158E-01 0.25844225E+03</pdfrwt>
<totfact> 0.12657443E+03</totfact>
</mgrwt>
</event>
<event>
 4    1  0.1762274E-004  0.2991050E+03  0.7818608E-02  0.1085689E+00
         -2   -1    0    0    0  501 -0.00000000000E+00  0.00000000000E+00  0.19625415174E+03  0.19625415174E+03  0.00000000000E+00 0.  1.
          2   -1    0    0  501    0  0.00000000000E+00 -0.00000000000E+00 -0.11396423431E+03  0.11396423431E+03  0.00000000000E+00 0.  1.
         25    1    1    2    0    0  0.40183563291E+02 -0.78981478775E+02  0.52177941773E+02  0.15803585149E+03  0.12000000000E+03 0.  0.
         25    1    1    2    0    0 -0.40183563291E+02  0.78981478775E+02  0.30111975650E+02  0.15218253456E+03  0.12000000000E+03 0.  0.
<mgrwt>
<rscale>  0 0.29910503E+03</rscale>
<asrwt>0</asrwt>
<pdfrwt beam="1">  1        2 0.17532959E-01 0.29910503E+03</pdfrwt>
<pdfrwt beam="2">  1       -2 0.30192946E-01 0.29910503E+03</pdfrwt>
<totfact> 0.32684935E+03</totfact>
</mgrwt>
</event>
<event>
 4    1  0.1762274E-004  0.3048454E+03  0.7818608E-02  0.1082843E+00
          1   -1    0    0  501    0  0.00000000000E+00  0.00000000000E+00  0.11139448893E+04  0.11139448893E+04  0.00000000000E+00 0. -1.
         -1   -1    0    0    0  501 -0.00000000000E+00 -0.00000000000E+00 -0.20856219114E+02  0.20856219114E+02  0.00000000000E+00 0. -1.
         25    1    1    2    0    0 -0.30430313436E+02  0.19138367398E+02  0.22329530080E+03  0.25603334244E+03  0.12000000000E+03 0.  0.
         25    1    1    2    0    0  0.30430313436E+02 -0.19138367398E+02  0.86979336938E+03  0.87876776596E+03  0.12000000000E+03 0.  0.
<mgrwt>
<rscale>  0 0.30484539E+03</rscale>
<asrwt>0</asrwt>
<pdfrwt beam="1">  1        1 0.17137609E+00 0.30484539E+03</pdfrwt>
<pdfrwt beam="2">  1       -1 0.32086500E-02 0.30484539E+03</pdfrwt>
<totfact> 0.45092245E+03</totfact>
</mgrwt>
</event>
<event>
 4    1  0.1762274E-004  0.2533352E+03  0.7818608E-02  0.1111215E+00
          1   -1    0    0  501    0  0.00000000000E+00  0.00000000000E+00  0.63122179496E+02  0.63122179496E+02  0.00000000000E+00 0. -1.
         -1   -1    0    0    0  501 -0.00000000000E+00 -0.00000000000E+00 -0.25418458932E+03  0.25418458932E+03  0.00000000000E+00 0. -1.
         25    1    1    2    0    0 -0.31655216122E+02 -0.15453054474E+02 -0.70361038948E+02  0.14349747525E+03  0.12000000000E+03 0.  0.
         25    1    1    2    0    0  0.31655216122E+02  0.15453054474E+02 -0.12070137088E+03  0.17380929357E+03  0.12000000000E+03 0.  0.
<mgrwt>
<rscale>  0 0.25333523E+03</rscale>
<asrwt>0</asrwt>
<pdfrwt beam="1">  1        1 0.97111045E-02 0.25333523E+03</pdfrwt>
<pdfrwt beam="2">  1       -1 0.39105321E-01 0.25333523E+03</pdfrwt>
<totfact> 0.42524522E+03</totfact>
</mgrwt>
</event>
<event>
 4    1  0.1762274E-004  0.3745688E+03  0.7818608E-02  0.1052960E+00
         -2   -1    0    0    0  501 -0.00000000000E+00  0.00000000000E+00  0.79747311144E+01  0.79747311144E+01  0.00000000000E+00 0. -1.
          2   -1    0    0  501    0  0.00000000000E+00 -0.00000000000E+00 -0.43983241504E+04  0.43983241504E+04  0.00000000000E+00 0. -1.
         25    1    1    2    0    0 -0.14222720962E+03 -0.12660880175E+02 -0.23943162115E+04  0.24015701109E+04  0.12000000000E+03 0.  0.
         25    1    1    2    0    0  0.14222720962E+03  0.12660880175E+02 -0.19960332078E+04  0.20047287706E+04  0.12000000000E+03 0.  0.
<mgrwt>
<rscale>  0 0.37456883E+03</rscale>
<asrwt>0</asrwt>
<pdfrwt beam="1">  1        2 0.67666717E+00 0.37456883E+03</pdfrwt>
<pdfrwt beam="2">  1       -2 0.12268782E-02 0.37456883E+03</pdfrwt>
<totfact> 0.32282062E+02</totfact>
</mgrwt>
</event>
<event>
 4    1  0.1762274E-004  0.2898216E+03  0.7818608E-02  0.1090442E+00
         -1   -1    0    0    0  501 -0.00000000000E+00  0.00000000000E+00  0.26611178309E+03  0.26611178309E+03  0.00000000000E+00 0.  1.
          1   -1    0    0  501    0  0.00000000000E+00 -0.00000000000E+00 -0.78910963637E+02  0.78910963637E+02  0.00000000000E+00 0.  1.
         25    1    1    2    0    0  0.76491310321E+02  0.11041499345E+02  0.12339304348E+03  0.18867612049E+03  0.12000000000E+03 0.  0.
         25    1    1    2    0    0 -0.76491310321E+02 -0.11041499345E+02  0.63807775971E+02  0.15634662624E+03  0.12000000000E+03 0.  0.
<mgrwt>
<rscale>  0 0.28982158E+03</rscale>
<asrwt>0</asrwt>
<pdfrwt beam="1">  1        1 0.12140148E-01 0.28982158E+03</pdfrwt>
<pdfrwt beam="2">  1       -1 0.40940274E-01 0.28982158E+03</pdfrwt>
<totfact> 0.29192630E+03</totfact>
</mgrwt>
</event>
<event>
 4    1  0.1762274E-004  0.2786632E+03  0.7818608E-02  0.1096421E+00
          1   -1    0    0  501    0  0.00000000000E+00  0.00000000000E+00  0.18499578697E+03  0.18499578697E+03  0.00000000000E+00 0.  1.
         -1   -1    0    0    0  501 -0.00000000000E+00 -0.00000000000E+00 -0.10493914104E+03  0.10493914104E+03  0.00000000000E+00 0.  1.
         25    1    1    2    0    0  0.46299634129E+02 -0.38325459544E+02  0.78969515594E+02  0.15571988108E+03  0.12000000000E+03 0.  0.
         25    1    1    2    0    0 -0.46299634129E+02  0.38325459544E+02  0.10871303366E+01  0.13421504693E+03  0.12000000000E+03 0.  0.
<mgrwt>
<rscale>  0 0.27866323E+03</rscale>
<asrwt>0</asrwt>
<pdfrwt beam="1">  1        1 0.28460890E-01 0.27866323E+03</pdfrwt>
<pdfrwt beam="2">  1       -1 0.16144483E-01 0.27866323E+03</pdfrwt>
<totfact> 0.45995043E+03</totfact>
</mgrwt>
</event>
<event>
 4    1  0.1762274E-004  0.2504014E+03  0.7818608E-02  0.1113051E+00
          2   -1    0    0  501    0  0.00000000000E+00  0.00000000000E+00  0.82820554337E+03  0.82820554337E+03  0.00000000000E+00 0. -1.
         -2   -1    0    0    0  501 -0.00000000000E+00 -0.00000000000E+00 -0.18926716642E+02  0.18926716642E+02  0.00000000000E+00 0. -1.
         25    1    1    2    0    0  0.15321974503E+02 -0.51843471395E+01  0.29693297448E+03  0.32067246794E+03  0.12000000000E+03 0.  0.
         25    1    1    2    0    0 -0.15321974503E+02  0.51843471395E+01  0.51234585225E+03  0.52645979208E+03  0.12000000000E+03 0.  0.
<mgrwt>
<rscale>  0 0.25040137E+03</rscale>
<asrwt>0</asrwt>
<pdfrwt beam="1">  1        2 0.12741621E+00 0.25040137E+03</pdfrwt>
<pdfrwt beam="2">  1       -2 0.29118032E-02 0.25040137E+03</pdfrwt>
<totfact> 0.14894820E+04</totfact>
</mgrwt>
</event>
<event>
 4    1  0.1762274E-004  0.4047169E+03  0.7818608E-02  0.1042159E+00
          1   -1    0    0  501    0  0.00000000000E+00  0.00000000000E+00  0.46153106973E+04  0.46153106973E+04  0.00000000000E+00 0. -1.
         -1   -1    0    0    0  501 -0.00000000000E+00 -0.00000000000E+00 -0.88724123616E+01  0.88724123616E+01  0.00000000000E+00 0. -1.
         25    1    1    2    0    0 -0.11137793421E+03 -0.86672296518E+02  0.32336833778E+04  0.32389852298E+04  0.12000000000E+03 0.  0.
         25    1    1    2    0    0  0.11137793421E+03  0.86672296518E+02  0.13727549072E+04  0.13851978799E+04  0.12000000000E+03 0.  0.
<mgrwt>
<rscale>  0 0.40471689E+03</rscale>
<asrwt>0</asrwt>
<pdfrwt beam="1">  1        1 0.71004588E+00 0.40471689E+03</pdfrwt>
<pdfrwt beam="2">  1       -1 0.13649902E-02 0.40471689E+03</pdfrwt>
<totfact> 0.38791120E+01</totfact>
</mgrwt>
</event>
<event>
 4    1  0.1762274E-004  0.2785144E+03  0.7818608E-02  0.1096503E+00
         -2   -1    0    0    0  501 -0.00000000000E+00  0.00000000000E+00  0.20851384119E+02  0.20851384119E+02  0.00000000000E+00 0.  1.
          2   -1    0    0  501    0  0.00000000000E+00 -0.00000000000E+00 -0.93003764088E+03  0.93003764088E+03  0.00000000000E+00 0.  1.
         25    1    1    2    0    0 -0.69064542986E+01 -0.37409588674E+02 -0.25130384440E+03  0.28107080717E+03  0.12000000000E+03 0.  0.
         25    1    1    2    0    0  0.69064542986E+01  0.37409588674E+02 -0.65788241236E+03  0.66981821782E+03  0.12000000000E+03 0.  0.
<mgrwt>
<rscale>  0 0.27851443E+03</rscale>
<asrwt>0</asrwt>
<pdfrwt beam="1">  1        2 0.14308265E+00 0.27851443E+03</pdfrwt>
<pdfrwt beam="2">  1       -2 0.32079066E-02 0.27851443E+03</pdfrwt>
<totfact> 0.11106616E+04</totfact>
</mgrwt>
</event>
<event>
 4    1  0.1762274E-004  0.3431436E+03  0.7818608E-02  0.1065465E+00
         -1   -1    0    0    0  501 -0.00000000000E+00  0.00000000000E+00  0.22251955576E+02  0.22251955576E+02  0.00000000000E+00 0.  1.
          1   -1    0    0  501    0  0.00000000000E+00 -0.00000000000E+00 -0.13228893110E+04  0.13228893110E+04  0.00000000000E+00 0.  1.
         25    1    1    2    0    0  0.39419768756E+02  0.91780179409E+02 -0.92914875421E+03  0.94217563487E+03  0.12000000000E+03 0.  0.
         25    1    1    2    0    0 -0.39419768756E+02 -0.91780179409E+02 -0.37148860121E+03  0.40296563170E+03  0.12000000000E+03 0.  0.
<mgrwt>
<rscale>  0 0.34314355E+03</rscale>
<asrwt>0</asrwt>
<pdfrwt beam="1">  1        1 0.20352142E+00 0.34314355E+03</pdfrwt>
<pdfrwt beam="2">  1       -1 0.34233780E-02 0.34314355E+03</pdfrwt>
<totfact> 0.29237829E+03</totfact>
</mgrwt>
</event>
<event>
 4    1  0.1762274E-004  0.2458391E+03  0.7818608E-02  0.1115963E+00
         -1   -1    0    0    0  501 -0.00000000000E+00  0.00000000000E+00  0.51758329217E+01  0.51758329217E+01  0.00000000000E+00 0.  1.
          1   -1    0    0  501    0  0.00000000000E+00 -0.00000000000E+00 -0.29191853895E+04  0.29191853895E+04  0.00000000000E+00 0.  1.
         25    1    1    2    0    0  0.14112217510E+02  0.20440449226E+02 -0.13427534250E+04  0.13483336853E+04  0.12000000000E+03 0.  0.
         25    1    1    2    0    0 -0.14112217510E+02 -0.20440449226E+02 -0.15712561316E+04  0.15760275371E+04  0.12000000000E+03 0.  0.
<mgrwt>
<rscale>  0 0.24583910E+03</rscale>
<asrwt>0</asrwt>
<pdfrwt beam="1">  1        1 0.44910647E+00 0.24583910E+03</pdfrwt>
<pdfrwt beam="2">  1       -1 0.79628017E-03 0.24583910E+03</pdfrwt>
<totfact> 0.21589130E+03</totfact>
</mgrwt>
</event>
<event>
 4    1  0.1762274E-004  0.4125536E+03  0.7818608E-02  0.1039517E+00
          2   -1    0    0  501    0  0.00000000000E+00  0.00000000000E+00  0.33246556629E+03  0.33246556629E+03  0.00000000000E+00 0. -1.
         -2   -1    0    0    0  501 -0.00000000000E+00 -0.00000000000E+00 -0.12798352345E+03  0.12798352345E+03  0.00000000000E+00 0. -1.
         25    1    1    2    0    0  0.19702073628E+02 -0.12732617416E+03 -0.17706706979E+02  0.17695664385E+03  0.12000000000E+03 0.  0.
         25    1    1    2    0    0 -0.19702073628E+02  0.12732617416E+03  0.22218874982E+03  0.28349244589E+03  0.12000000000E+03 0.  0.
<mgrwt>
<rscale>  0 0.41255358E+03</rscale>
<asrwt>0</asrwt>
<pdfrwt beam="1">  1        2 0.51148548E-01 0.41255358E+03</pdfrwt>
<pdfrwt beam="2">  1       -2 0.19689773E-01 0.41255358E+03</pdfrwt>
<totfact> 0.21249631E+03</totfact>
</mgrwt>
</event>
<event>
 4    1  0.1762274E-004  0.2819007E+03  0.7818608E-02  0.1094655E+00
          3   -1    0    0  501    0  0.00000000000E+00  0.00000000000E+00  0.39714087060E+02  0.39714087060E+02  0.00000000000E+00 0. -1.
         -3   -1    0    0    0  501 -0.00000000000E+00 -0.00000000000E+00 -0.50025087215E+03  0.50025087215E+03  0.00000000000E+00 0. -1.
         25    1    1    2    0    0 -0.16209717242E+02 -0.69745205725E+02 -0.19495673265E+03  0.23986512098E+03  0.12000000000E+03 0.  0.
         25    1    1    2    0    0  0.16209717242E+02  0.69745205725E+02 -0.26558005243E+03  0.30009983823E+03  0.12000000000E+03 0.  0.
<mgrwt>
<rscale>  0 0.28190074E+03</rscale>
<asrwt>0</asrwt>
<pdfrwt beam="1">  1        3 0.61098600E-02 0.28190074E+03</pdfrwt>
<pdfrwt beam="2">  1       -3 0.76961667E-01 0.28190074E+03</pdfrwt>
<totfact> 0.68279883E+02</totfact>
</mgrwt>
</event>
<event>
 4    1  0.1762274E-004  0.4407578E+03  0.7818608E-02  0.1030515E+00
         -2   -1    0    0    0  501 -0.00000000000E+00  0.00000000000E+00  0.40201557863E+02  0.40201557863E+02  0.00000000000E+00 0.  1.
          2   -1    0    0  501    0  0.00000000000E+00 -0.00000000000E+00 -0.12080838701E+04  0.12080838701E+04  0.00000000000E+00 0.  1.
         25    1    1    2    0    0  0.91293123689E+02  0.11968828045E+03 -0.28013433597E+03  0.33990434699E+03  0.12000000000E+03 0.  0.
         25    1    1    2    0    0 -0.91293123689E+02 -0.11968828045E+03 -0.88774797625E+03  0.90838108096E+03  0.12000000000E+03 0.  0.
<mgrwt>
<rscale>  0 0.44075777E+03</rscale>
<asrwt>0</asrwt>
<pdfrwt beam="1">  1        2 0.18585901E+00 0.44075777E+03</pdfrwt>
<pdfrwt beam="2">  1       -2 0.61848565E-02 0.44075777E+03</pdfrwt>
<totfact> 0.27956620E+03</totfact>
</mgrwt>
</event>
<event>
 4    1  0.1762274E-004  0.3138508E+03  0.7818608E-02  0.1078515E+00
          2   -1    0    0  501    0  0.00000000000E+00  0.00000000000E+00  0.14115393820E+03  0.14115393820E+03  0.00000000000E+00 0.  1.
         -2   -1    0    0    0  501 -0.00000000000E+00 -0.00000000000E+00 -0.17445904580E+03  0.17445904580E+03  0.00000000000E+00 0.  1.
         25    1    1    2    0    0  0.21777371844E+02  0.67263304433E+02 -0.89356309228E+02  0.16547856673E+03  0.12000000000E+03 0.  0.
         25    1    1    2    0    0 -0.21777371844E+02 -0.67263304433E+02  0.56051201630E+02  0.15013441728E+03  0.12000000000E+03 0.  0.
<mgrwt>
<rscale>  0 0.31385080E+03</rscale>
<asrwt>0</asrwt>
<pdfrwt beam="1">  1        2 0.21715990E-01 0.31385080E+03</pdfrwt>
<pdfrwt beam="2">  1       -2 0.26839853E-01 0.31385080E+03</pdfrwt>
<totfact> 0.31628533E+03</totfact>
</mgrwt>
</event>
<event>
 4    1  0.1762274E-004  0.2680858E+03  0.7818608E-02  0.1102380E+00
          1   -1    0    0  501    0  0.00000000000E+00  0.00000000000E+00  0.14894876598E+04  0.14894876598E+04  0.00000000000E+00 0.  1.
         -1   -1    0    0    0  501 -0.00000000000E+00 -0.00000000000E+00 -0.12062868989E+02  0.12062868989E+02  0.00000000000E+00 0.  1.
         25    1    1    2    0    0  0.20082463334E+02  0.24969917244E+02  0.45639200917E+03  0.47299098103E+03  0.12000000000E+03 0.  0.
         25    1    1    2    0    0 -0.20082463334E+02 -0.24969917244E+02  0.10210327816E+04  0.10285595478E+04  0.12000000000E+03 0.  0.
<mgrwt>
<rscale>  0 0.26808577E+03</rscale>
<asrwt>0</asrwt>
<pdfrwt beam="1">  1        1 0.22915180E+00 0.26808577E+03</pdfrwt>
<pdfrwt beam="2">  1       -1 0.18558272E-02 0.26808577E+03</pdfrwt>
<totfact> 0.55614429E+03</totfact>
</mgrwt>
</event>
<event>
 4    1  0.1762274E-004  0.2922878E+03  0.7818608E-02  0.1089161E+00
          1   -1    0    0  501    0  0.00000000000E+00  0.00000000000E+00  0.15090446522E+04  0.15090446522E+04  0.00000000000E+00 0.  1.
         -1   -1    0    0    0  501 -0.00000000000E+00 -0.00000000000E+00 -0.14153346826E+02  0.14153346826E+02  0.00000000000E+00 0.  1.
         25    1    1    2    0    0 -0.57164312824E+02 -0.60375995374E+02  0.71248222131E+03  0.72728531896E+03  0.12000000000E+03 0.  0.
         25    1    1    2    0    0  0.57164312824E+02  0.60375995374E+02  0.78240908404E+03  0.79591268005E+03  0.12000000000E+03 0.  0.
<mgrwt>
<rscale>  0 0.29228775E+03</rscale>
<asrwt>0</asrwt>
<pdfrwt beam="1">  1        1 0.23216059E+00 0.29228775E+03</pdfrwt>
<pdfrwt beam="2">  1       -1 0.21774392E-02 0.29228775E+03</pdfrwt>
<totfact> 0.42748781E+03</totfact>
</mgrwt>
</event>
<event>
 4    1  0.1762274E-004  0.2897064E+03  0.7818608E-02  0.1090503E+00
         -2   -1    0    0    0  501 -0.00000000000E+00  0.00000000000E+00  0.60759353330E+02  0.60759353330E+02  0.00000000000E+00 0. -1.
          2   -1    0    0  501    0  0.00000000000E+00 -0.00000000000E+00 -0.34533683764E+03  0.34533683764E+03  0.00000000000E+00 0. -1.
         25    1    1    2    0    0 -0.19610770811E+00 -0.78491508878E+02 -0.17106691726E+03  0.22321479701E+03  0.12000000000E+03 0.  0.
         25    1    1    2    0    0  0.19610770811E+00  0.78491508878E+02 -0.11351056706E+03  0.18288139396E+03  0.12000000000E+03 0.  0.
<mgrwt>
<rscale>  0 0.28970635E+03</rscale>
<asrwt>0</asrwt>
<pdfrwt beam="1">  1        2 0.53128744E-01 0.28970635E+03</pdfrwt>
<pdfrwt beam="2">  1       -2 0.93475928E-02 0.28970635E+03</pdfrwt>
<totfact> 0.69016644E+03</totfact>
</mgrwt>
</event>
<event>
 4    1  0.1762274E-004  0.2689078E+03  0.7818608E-02  0.1101906E+00
          2   -1    0    0  501    0  0.00000000000E+00  0.00000000000E+00  0.25428758000E+02  0.25428758000E+02  0.00000000000E+00 0. -1.
         -2   -1    0    0    0  501 -0.00000000000E+00 -0.00000000000E+00 -0.71092134648E+03  0.71092134648E+03  0.00000000000E+00 0. -1.
         25    1    1    2    0    0 -0.10638981704E+02  0.14130765820E+02 -0.18390176021E+03  0.22030143868E+03  0.12000000000E+03 0.  0.
         25    1    1    2    0    0  0.10638981704E+02 -0.14130765820E+02 -0.50159082827E+03  0.51604866580E+03  0.12000000000E+03 0.  0.
<mgrwt>
<rscale>  0 0.26890777E+03</rscale>
<asrwt>0</asrwt>
<pdfrwt beam="1">  1        2 0.39121172E-02 0.26890777E+03</pdfrwt>
<pdfrwt beam="2">  1       -2 0.10937250E+00 0.26890777E+03</pdfrwt>
<totfact> 0.15137887E+03</totfact>
</mgrwt>
</event>
<event>
 4    1  0.1762274E-004  0.3120314E+03  0.7818608E-02  0.1079376E+00
         -2   -1    0    0    0  501 -0.00000000000E+00  0.00000000000E+00  0.16236201108E+04  0.16236201108E+04  0.00000000000E+00 0. -1.
          2   -1    0    0  501    0  0.00000000000E+00 -0.00000000000E+00 -0.14991741514E+02  0.14991741514E+02  0.00000000000E+00 0. -1.
         25    1    1    2    0    0  0.68484058564E+02  0.70220320317E+02  0.71038347507E+03  0.72709397008E+03  0.12000000000E+03 0.  0.
         25    1    1    2    0    0 -0.68484058564E+02 -0.70220320317E+02  0.89824489420E+03  0.91151788223E+03  0.12000000000E+03 0.  0.
<mgrwt>
<rscale>  0 0.31203136E+03</rscale>
<asrwt>0</asrwt>
<pdfrwt beam="1">  1        2 0.23064231E-02 0.31203136E+03</pdfrwt>
<pdfrwt beam="2">  1       -2 0.24978757E+00 0.31203136E+03</pdfrwt>
<totfact> 0.32343849E+02</totfact>
</mgrwt>
</event>
<event>
 4    1  0.1762274E-004  0.2950415E+03  0.7818608E-02  0.1087746E+00
         -1   -1    0    0    0  501 -0.00000000000E+00  0.00000000000E+00  0.13625171033E+02  0.13625171033E+02  0.00000000000E+00 0. -1.
          1   -1    0    0  501    0  0.00000000000E+00 -0.00000000000E+00 -0.15972186224E+04  0.15972186224E+04  0.00000000000E+00 0. -1.
         25    1    1    2    0    0  0.20772101185E+02 -0.82969394649E+02 -0.82921722144E+03  0.84220935697E+03  0.12000000000E+03 0.  0.
         25    1    1    2    0    0 -0.20772101185E+02  0.82969394649E+02 -0.75437622989E+03  0.76863443642E+03  0.12000000000E+03 0.  0.
<mgrwt>
<rscale>  0 0.29504154E+03</rscale>
<asrwt>0</asrwt>
<pdfrwt beam="1">  1        1 0.24572594E+00 0.29504154E+03</pdfrwt>
<pdfrwt beam="2">  1       -1 0.20961802E-02 0.29504154E+03</pdfrwt>
<totfact> 0.39526991E+03</totfact>
</mgrwt>
</event>
<event>
 4    1  0.1762274E-004  0.2578125E+03  0.7818608E-02  0.1108465E+00
         -1   -1    0    0    0  501 -0.00000000000E+00  0.00000000000E+00  0.10906535541E+03  0.10906535541E+03  0.00000000000E+00 0.  1.
          1   -1    0    0  501    0  0.00000000000E+00 -0.00000000000E+00 -0.15235653578E+03  0.15235653578E+03  0.00000000000E+00 0.  1.
         25    1    1    2    0    0  0.41515719752E+02 -0.19999969445E+02 -0.11852954794E+02  0.12908929584E+03  0.12000000000E+03 0.  0.
         25    1    1    2    0    0 -0.41515719752E+02  0.19999969445E+02 -0.31438225576E+02  0.13233259535E+03  0.12000000000E+03 0.  0.
<mgrwt>
<rscale>  0 0.25781249E+03</rscale>
<asrwt>0</asrwt>
<pdfrwt beam="1">  1        1 0.23439467E-01 0.25781249E+03</pdfrwt>
<pdfrwt beam="2">  1       -1 0.16779286E-01 0.25781249E+03</pdfrwt>
<totfact> 0.55192178E+03</totfact>
</mgrwt>
</event>
<event>
 4    1  0.1762274E-004  0.3219679E+03  0.7818608E-02  0.1074747E+00
          1   -1    0    0  501    0  0.00000000000E+00  0.00000000000E+00  0.52961538774E+03  0.52961538774E+03  0.00000000000E+00 0. -1.
         -1   -1    0    0    0  501 -0.00000000000E+00 -0.00000000000E+00 -0.48933299655E+02  0.48933299655E+02  0.00000000000E+00 0. -1.
         25    1    1    2    0    0  0.48620793221E+02 -0.44256762146E+02  0.87939975532E+02  0.16265325643E+03  0.12000000000E+03 0.  0.
         25    1    1    2    0    0 -0.48620793221E+02  0.44256762146E+02  0.39274211255E+03  0.41589543097E+03  0.12000000000E+03 0.  0.
<mgrwt>
<rscale>  0 0.32196788E+03</rscale>
<asrwt>0</asrwt>
<pdfrwt beam="1">  1        1 0.81479286E-01 0.32196788E+03</pdfrwt>
<pdfrwt beam="2">  1       -1 0.75282003E-02 0.32196788E+03</pdfrwt>
<totfact> 0.39539079E+03</totfact>
</mgrwt>
</event>
<event>
 4    1  0.1762274E-004  0.2774186E+03  0.7818608E-02  0.1097107E+00
          2   -1    0    0  501    0  0.00000000000E+00  0.00000000000E+00  0.16994725188E+03  0.16994725188E+03  0.00000000000E+00 0. -1.
         -2   -1    0    0    0  501 -0.00000000000E+00 -0.00000000000E+00 -0.11321318013E+03  0.11321318013E+03  0.00000000000E+00 0. -1.
         25    1    1    2    0    0 -0.52800737169E+02 -0.45302848284E+02  0.28311780176E+02  0.14156914496E+03  0.12000000000E+03 0.  0.
         25    1    1    2    0    0  0.52800737169E+02  0.45302848284E+02  0.28422291577E+02  0.14159128704E+03  0.12000000000E+03 0.  0.
<mgrwt>
<rscale>  0 0.27741859E+03</rscale>
<asrwt>0</asrwt>
<pdfrwt beam="1">  1        2 0.26145731E-01 0.27741859E+03</pdfrwt>
<pdfrwt beam="2">  1       -2 0.17417412E-01 0.27741859E+03</pdfrwt>
<totfact> 0.54094100E+03</totfact>
</mgrwt>
</event>
<event>
 4    1  0.1762274E-004  0.2497732E+03  0.7818608E-02  0.1113448E+00
          2   -1    0    0  501    0  0.00000000000E+00  0.00000000000E+00  0.85455426933E+02  0.85455426933E+02  0.00000000000E+00 0.  1.
         -2   -1    0    0    0  501 -0.00000000000E+00 -0.00000000000E+00 -0.18251224683E+03  0.18251224683E+03  0.00000000000E+00 0.  1.
         25    1    1    2    0    0  0.27330327395E+02 -0.11218833989E+02 -0.29221600798E+02  0.12699098781E+03  0.12000000000E+03 0.  0.
         25    1    1    2    0    0 -0.27330327395E+02  0.11218833989E+02 -0.67835219095E+02  0.14097668595E+03  0.12000000000E+03 0.  0.
<mgrwt>
<rscale>  0 0.24977319E+03</rscale>
<asrwt>0</asrwt>
<pdfrwt beam="1">  1        2 0.13146989E-01 0.24977319E+03</pdfrwt>
<pdfrwt beam="2">  1       -2 0.28078807E-01 0.24977319E+03</pdfrwt>
<totfact> 0.52095987E+03</totfact>
</mgrwt>
</event>
<event>
 4    1  0.1762274E-004  0.2598385E+03  0.7818608E-02  0.1107240E+00
         -1   -1    0    0    0  501 -0.00000000000E+00  0.00000000000E+00  0.10942907803E+02  0.10942907803E+02  0.00000000000E+00 0.  1.
          1   -1    0    0  501    0  0.00000000000E+00 -0.00000000000E+00 -0.15424613859E+04  0.15424613859E+04  0.00000000000E+00 0.  1.
         25    1    1    2    0    0 -0.50858447803E+01 -0.44812523881E+02 -0.63964808885E+03  0.65236776873E+03  0.12000000000E+03 0.  0.
         25    1    1    2    0    0  0.50858447803E+01  0.44812523881E+02 -0.89187038925E+03  0.90103652497E+03  0.12000000000E+03 0.  0.
<mgrwt>
<rscale>  0 0.25983851E+03</rscale>
<asrwt>0</asrwt>
<pdfrwt beam="1">  1        1 0.23730168E+00 0.25983851E+03</pdfrwt>
<pdfrwt beam="2">  1       -1 0.16835248E-02 0.25983851E+03</pdfrwt>
<totfact> 0.59115094E+03</totfact>
</mgrwt>
</event>
<event>
 4    1  0.1762274E-004  0.3556270E+03  0.7818608E-02  0.1060329E+00
          1   -1    0    0  501    0  0.00000000000E+00  0.00000000000E+00  0.28952087242E+02  0.28952087242E+02  0.00000000000E+00 0.  1.
         -1   -1    0    0    0  501 -0.00000000000E+00 -0.00000000000E+00 -0.10920680290E+04  0.10920680290E+04  0.00000000000E+00 0.  1.
         25    1    1    2    0    0 -0.71926853951E+02 -0.86859900506E+02 -0.32011054446E+03  0.35998454871E+03  0.12000000000E+03 0.  0.
         25    1    1    2    0    0  0.71926853951E+02  0.86859900506E+02 -0.74300539732E+03  0.76103556755E+03  0.12000000000E+03 0.  0.
<mgrwt>
<rscale>  0 0.35562705E+03</rscale>
<asrwt>0</asrwt>
<pdfrwt beam="1">  1        1 0.44541670E-02 0.35562705E+03</pdfrwt>
<pdfrwt beam="2">  1       -1 0.16801047E+00 0.35562705E+03</pdfrwt>
<totfact> 0.54438278E+02</totfact>
</mgrwt>
</event>
<event>
 4    1  0.1762274E-004  0.3387595E+03  0.7818608E-02  0.1067326E+00
          2   -1    0    0  501    0  0.00000000000E+00  0.00000000000E+00  0.11755575966E+04  0.11755575966E+04  0.00000000000E+00 0.  1.
         -2   -1    0    0    0  501 -0.00000000000E+00 -0.00000000000E+00 -0.24405010323E+02  0.24405010323E+02  0.00000000000E+00 0.  1.
         25    1    1    2    0    0 -0.94990162267E+02  0.92504893412E+01  0.32061492851E+03  0.35539081989E+03  0.12000000000E+03 0.  0.
         25    1    1    2    0    0  0.94990162267E+02 -0.92504893412E+01  0.83053765778E+03  0.84457178704E+03  0.12000000000E+03 0.  0.
<mgrwt>
<rscale>  0 0.33875947E+03</rscale>
<asrwt>0</asrwt>
<pdfrwt beam="1">  1        2 0.18085497E+00 0.33875947E+03</pdfrwt>
<pdfrwt beam="2">  1       -2 0.37546179E-02 0.33875947E+03</pdfrwt>
<totfact> 0.62638282E+03</totfact>
</mgrwt>
</event>
<event>
 4    1  0.1762274E-004  0.2608293E+03  0.7818608E-02  0.1106646E+00
          2   -1    0    0  501    0  0.00000000000E+00  0.00000000000E+00  0.18661110722E+03  0.18661110722E+03  0.00000000000E+00 0.  1.
         -2   -1    0    0    0  501 -0.00000000000E+00 -0.00000000000E+00 -0.91141297034E+02  0.91141297034E+02  0.00000000000E+00 0.  1.
         25    1    1    2    0    0 -0.35982396012E+02 -0.20897124193E+02  0.16207280492E+02  0.12803944144E+03  0.12000000000E+03 0.  0.
         25    1    1    2    0    0  0.35982396012E+02  0.20897124193E+02  0.79262529695E+02  0.14971296282E+03  0.12000000000E+03 0.  0.
<mgrwt>
<rscale>  0 0.26082928E+03</rscale>
<asrwt>0</asrwt>
<pdfrwt beam="1">  1        2 0.28709401E-01 0.26082928E+03</pdfrwt>
<pdfrwt beam="2">  1       -2 0.14021738E-01 0.26082928E+03</pdfrwt>
<totfact> 0.69736513E+03</totfact>
</mgrwt>
</event>
<event>
 4    1  0.1762274E-004  0.2795762E+03  0.7818608E-02  0.1095921E+00
          2   -1    0    0  501    0  0.00000000000E+00  0.00000000000E+00  0.76634033028E+03  0.76634033028E+03  0.00000000000E+00 0.  1.
         -2   -1    0    0    0  501 -0.00000000000E+00 -0.00000000000E+00 -0.25498748059E+02  0.25498748059E+02  0.00000000000E+00 0.  1.
         25    1    1    2    0    0  0.43682106242E+02  0.49006341931E+02  0.45206579487E+03  0.47230628923E+03  0.12000000000E+03 0.  0.
         25    1    1    2    0    0 -0.43682106242E+02 -0.49006341931E+02  0.28877578735E+03  0.31953278910E+03  0.12000000000E+03 0.  0.
<mgrwt>
<rscale>  0 0.27957624E+03</rscale>
<asrwt>0</asrwt>
<pdfrwt beam="1">  1        2 0.11789849E+00 0.27957624E+03</pdfrwt>
<pdfrwt beam="2">  1       -2 0.39228849E-02 0.27957624E+03</pdfrwt>
<totfact> 0.10576990E+04</totfact>
</mgrwt>
</event>
<event>
 4    1  0.1762274E-004  0.2887253E+03  0.7818608E-02  0.1091017E+00
          2   -1    0    0  501    0  0.00000000000E+00  0.00000000000E+00  0.43265325817E+03  0.43265325817E+03  0.00000000000E+00 0.  1.
         -2   -1    0    0    0  501 -0.00000000000E+00 -0.00000000000E+00 -0.48169230173E+02  0.48169230173E+02  0.00000000000E+00 0.  1.
         25    1    1    2    0    0  0.54973158382E+02  0.29444444344E+02  0.27636255457E+03  0.30767724162E+03  0.12000000000E+03 0.  0.
         25    1    1    2    0    0 -0.54973158382E+02 -0.29444444344E+02  0.10812147343E+03  0.17314524672E+03  0.12000000000E+03 0.  0.
<mgrwt>
<rscale>  0 0.28872530E+03</rscale>
<asrwt>0</asrwt>
<pdfrwt beam="1">  1        2 0.66562037E-01 0.28872530E+03</pdfrwt>
<pdfrwt beam="2">  1       -2 0.74106511E-02 0.28872530E+03</pdfrwt>
<totfact> 0.77746046E+03</totfact>
</mgrwt>
</event>
<event>
 4    1  0.1762274E-004  0.2610782E+03  0.7818608E-02  0.1106497E+00
          2   -1    0    0  501    0  0.00000000000E+00  0.00000000000E+00  0.20600799342E+04  0.20600799342E+04  0.00000000000E+00 0.  1.
         -2   -1    0    0    0  501 -0.00000000000E+00 -0.00000000000E+00 -0.82717431016E+01  0.82717431016E+01  0.00000000000E+00 0.  1.
         25    1    1    2    0    0  0.27230289154E+02 -0.17827713391E+02  0.71088386723E+03  0.72167526541E+03  0.12000000000E+03 0.  0.
         25    1    1    2    0    0 -0.27230289154E+02  0.17827713391E+02  0.13409243239E+04  0.13466764119E+04  0.12000000000E+03 0.  0.
<mgrwt>
<rscale>  0 0.26107816E+03</rscale>
<asrwt>0</asrwt>
<pdfrwt beam="1">  1        2 0.31693497E+00 0.26107816E+03</pdfrwt>
<pdfrwt beam="2">  1       -2 0.12725775E-02 0.26107816E+03</pdfrwt>
<totfact> 0.10355355E+04</totfact>
</mgrwt>
</event>
<event>
 4    1  0.1762274E-004  0.3008023E+03  0.7818608E-02  0.1084840E+00
         -1   -1    0    0    0  501 -0.00000000000E+00  0.00000000000E+00  0.14160906738E+03  0.14160906738E+03  0.00000000000E+00 0. -1.
          1   -1    0    0  501    0  0.00000000000E+00 -0.00000000000E+00 -0.15973908220E+03  0.15973908220E+03  0.00000000000E+00 0. -1.
         25    1    1    2    0    0  0.16083905057E+02 -0.89029616228E+02 -0.15037191820E+02  0.15103337944E+03  0.12000000000E+03 0.  0.
         25    1    1    2    0    0 -0.16083905057E+02  0.89029616228E+02 -0.30928229929E+01  0.15031477014E+03  0.12000000000E+03 0.  0.
<mgrwt>
<rscale>  0 0.30080228E+03</rscale>
<asrwt>0</asrwt>
<pdfrwt beam="1">  1        1 0.24575243E-01 0.30080228E+03</pdfrwt>
<pdfrwt beam="2">  1       -1 0.21786010E-01 0.30080228E+03</pdfrwt>
<totfact> 0.34191651E+03</totfact>
</mgrwt>
</event>
<event>
 4    1  0.1762274E-004  0.2438331E+03  0.7818608E-02  0.1117265E+00
          2   -1    0    0  501    0  0.00000000000E+00  0.00000000000E+00  0.17276358634E+04  0.17276358634E+04  0.00000000000E+00 0.  1.
         -2   -1    0    0    0  501 -0.00000000000E+00 -0.00000000000E+00 -0.86034559791E+01  0.86034559791E+01  0.00000000000E+00 0.  1.
         25    1    1    2    0    0  0.24624826392E+01  0.18078273190E+02  0.77809452536E+03  0.78750490677E+03  0.12000000000E+03 0.  0.
         25    1    1    2    0    0 -0.24624826392E+01 -0.18078273190E+02  0.94093788202E+03  0.94873441258E+03  0.12000000000E+03 0.  0.
<mgrwt>
<rscale>  0 0.24383305E+03</rscale>
<asrwt>0</asrwt>
<pdfrwt beam="1">  1        2 0.26578986E+00 0.24383305E+03</pdfrwt>
<pdfrwt beam="2">  1       -2 0.13236100E-02 0.24383305E+03</pdfrwt>
<totfact> 0.14583295E+04</totfact>
</mgrwt>
</event>
<event>
 4    1  0.1762274E-004  0.2841692E+03  0.7818608E-02  0.1093433E+00
         -1   -1    0    0    0  501 -0.00000000000E+00  0.00000000000E+00  0.23769375051E+03  0.23769375051E+03  0.00000000000E+00 0. -1.
          1   -1    0    0  501    0  0.00000000000E+00 -0.00000000000E+00 -0.84932957131E+02  0.84932957131E+02  0.00000000000E+00 0. -1.
         25    1    1    2    0    0 -0.32296152409E+02 -0.39956378551E+02  0.12675363030E+02  0.13114960341E+03  0.12000000000E+03 0.  0.
         25    1    1    2    0    0  0.32296152409E+02  0.39956378551E+02  0.14008543034E+03  0.19147710422E+03  0.12000000000E+03 0.  0.
<mgrwt>
<rscale>  0 0.28416920E+03</rscale>
<asrwt>0</asrwt>
<pdfrwt beam="1">  1        1 0.13066609E-01 0.28416920E+03</pdfrwt>
<pdfrwt beam="2">  1       -1 0.36568269E-01 0.28416920E+03</pdfrwt>
<totfact> 0.32310585E+03</totfact>
</mgrwt>
</event>
<event>
 4    1  0.1762274E-004  0.3124432E+03  0.7818608E-02  0.1079181E+00
          2   -1    0    0  501    0  0.00000000000E+00  0.00000000000E+00  0.18149538227E+03  0.18149538227E+03  0.00000000000E+00 0. -1.
         -2   -1    0    0    0  501 -0.00000000000E+00 -0.00000000000E+00 -0.13446727147E+03  0.13446727147E+03  0.00000000000E+00 0. -1.
         25    1    1    2    0    0  0.65298268692E+02  0.13543065498E+02 -0.51877106819E+02  0.14676005154E+03  0.12000000000E+03 0.  0.
         25    1    1    2    0    0 -0.65298268692E+02 -0.13543065498E+02  0.98905217615E+02  0.16920260219E+03  0.12000000000E+03 0.  0.
<mgrwt>
<rscale>  0 0.31244320E+03</rscale>
<asrwt>0</asrwt>
<pdfrwt beam="1">  1        2 0.27922367E-01 0.31244320E+03</pdfrwt>
<pdfrwt beam="2">  1       -2 0.20687272E-01 0.31244320E+03</pdfrwt>
<totfact> 0.37652545E+03</totfact>
</mgrwt>
</event>
<event>
 4    1  0.1762274E-004  0.2776635E+03  0.7818608E-02  0.1096972E+00
         -2   -1    0    0    0  501 -0.00000000000E+00  0.00000000000E+00  0.16537925984E+03  0.16537925984E+03  0.00000000000E+00 0. -1.
          2   -1    0    0  501    0  0.00000000000E+00 -0.00000000000E+00 -0.11654580550E+03  0.11654580550E+03  0.00000000000E+00 0. -1.
         25    1    1    2    0    0 -0.25047500484E+02  0.65136978730E+02  0.26461530922E+02  0.14131672193E+03  0.12000000000E+03 0.  0.
         25    1    1    2    0    0  0.25047500484E+02 -0.65136978730E+02  0.22371923426E+02  0.14060834341E+03  0.12000000000E+03 0.  0.
<mgrwt>
<rscale>  0 0.27766353E+03</rscale>
<asrwt>0</asrwt>
<pdfrwt beam="1">  1        2 0.17930124E-01 0.27766353E+03</pdfrwt>
<pdfrwt beam="2">  1       -2 0.25442963E-01 0.27766353E+03</pdfrwt>
<totfact> 0.43207528E+03</totfact>
</mgrwt>
</event>
<event>
 4    1  0.1762274E-004  0.2634207E+03  0.7818608E-02  0.1105105E+00
          2   -1    0    0  501    0  0.00000000000E+00  0.00000000000E+00  0.41898133075E+02  0.41898133075E+02  0.00000000000E+00 0. -1.
         -2   -1    0    0    0  501 -0.00000000000E+00 -0.00000000000E+00 -0.41404256133E+03  0.41404256133E+03  0.00000000000E+00 0. -1.
         25    1    1    2    0    0 -0.31331271907E+02 -0.25586103456E+02 -0.12339470596E+03  0.17681219061E+03  0.12000000000E+03 0.  0.
         25    1    1    2    0    0  0.31331271907E+02  0.25586103456E+02 -0.24874972229E+03  0.27912850379E+03  0.12000000000E+03 0.  0.
<mgrwt>
<rscale>  0 0.26342065E+03</rscale>
<asrwt>0</asrwt>
<pdfrwt beam="1">  1        2 0.64458667E-02 0.26342065E+03</pdfrwt>
<pdfrwt beam="2">  1       -2 0.63698855E-01 0.26342065E+03</pdfrwt>
<totfact> 0.26105635E+03</totfact>
</mgrwt>
</event>
<event>
 4    1  0.1762274E-004  0.2613303E+03  0.7818608E-02  0.1106347E+00
          2   -1    0    0  501    0  0.00000000000E+00  0.00000000000E+00  0.61862919865E+02  0.61862919865E+02  0.00000000000E+00 0. -1.
         -2   -1    0    0    0  501 -0.00000000000E+00 -0.00000000000E+00 -0.27598736967E+03  0.27598736967E+03  0.00000000000E+00 0. -1.
         25    1    1    2    0    0 -0.28063859548E+02 -0.31426520428E+02 -0.68317219297E+02  0.14436914093E+03  0.12000000000E+03 0.  0.
         25    1    1    2    0    0  0.28063859548E+02  0.31426520428E+02 -0.14580723050E+03  0.19348114861E+03  0.12000000000E+03 0.  0.
<mgrwt>
<rscale>  0 0.26133032E+03</rscale>
<asrwt>0</asrwt>
<pdfrwt beam="1">  1        2 0.95173724E-02 0.26133032E+03</pdfrwt>
<pdfrwt beam="2">  1       -2 0.42459595E-01 0.26133032E+03</pdfrwt>
<totfact> 0.35936185E+03</totfact>
</mgrwt>
</event>
<event>
 4    1  0.1762274E-004  0.2521713E+03  0.7818608E-02  0.1111940E+00
          2   -1    0    0  501    0  0.00000000000E+00  0.00000000000E+00  0.36206692066E+04  0.36206692066E+04  0.00000000000E+00 0.  1.
         -2   -1    0    0    0  501 -0.00000000000E+00 -0.00000000000E+00 -0.43907867036E+01  0.43907867036E+01  0.00000000000E+00 0.  1.
         25    1    1    2    0    0 -0.38168175160E+02 -0.44048052171E+01  0.18746000189E+04  0.18788298067E+04  0.12000000000E+03 0.  0.
         25    1    1    2    0    0  0.38168175160E+02  0.44048052171E+01  0.17416784010E+04  0.17462301866E+04  0.12000000000E+03 0.  0.
<mgrwt>
<rscale>  0 0.25217126E+03</rscale>
<asrwt>0</asrwt>
<pdfrwt beam="1">  1        2 0.55702365E+00 0.25217126E+03</pdfrwt>
<pdfrwt beam="2">  1       -2 0.67550854E-03 0.25217126E+03</pdfrwt>
<totfact> 0.31763842E+03</totfact>
</mgrwt>
</event>
<event>
 4    1  0.1762274E-004  0.3303630E+03  0.7818608E-02  0.1070976E+00
          1   -1    0    0  501    0  0.00000000000E+00  0.00000000000E+00  0.14207735298E+04  0.14207735298E+04  0.00000000000E+00 0.  1.
         -1   -1    0    0    0  501 -0.00000000000E+00 -0.00000000000E+00 -0.19204275793E+02  0.19204275793E+02  0.00000000000E+00 0.  1.
         25    1    1    2    0    0  0.44289623514E+02 -0.49232866272E+02  0.11026315122E+04  0.11111173194E+04  0.12000000000E+03 0.  0.
         25    1    1    2    0    0 -0.44289623514E+02  0.49232866272E+02  0.29893774179E+03  0.32886048613E+03  0.12000000000E+03 0.  0.
<mgrwt>
<rscale>  0 0.33036299E+03</rscale>
<asrwt>0</asrwt>
<pdfrwt beam="1">  1        1 0.21858046E+00 0.33036299E+03</pdfrwt>
<pdfrwt beam="2">  1       -1 0.29545051E-02 0.33036299E+03</pdfrwt>
<totfact> 0.31226622E+03</totfact>
</mgrwt>
</event>
<event>
 4    1  0.1762274E-004  0.2680854E+03  0.7818608E-02  0.1102380E+00
          2   -1    0    0  501    0  0.00000000000E+00  0.00000000000E+00  0.44425870706E+02  0.44425870706E+02  0.00000000000E+00 0. -1.
         -2   -1    0    0    0  501 -0.00000000000E+00 -0.00000000000E+00 -0.40443644627E+03  0.40443644627E+03  0.00000000000E+00 0. -1.
         25    1    1    2    0    0 -0.59693534952E+02  0.14643807002E+01 -0.17765004903E+03  0.22254213634E+03  0.12000000000E+03 0.  0.
         25    1    1    2    0    0  0.59693534952E+02 -0.14643807002E+01 -0.18236052653E+03  0.22632018064E+03  0.12000000000E+03 0.  0.
<mgrwt>
<rscale>  0 0.26808537E+03</rscale>
<asrwt>0</asrwt>
<pdfrwt beam="1">  1        2 0.68347493E-02 0.26808537E+03</pdfrwt>
<pdfrwt beam="2">  1       -2 0.62220992E-01 0.26808537E+03</pdfrwt>
<totfact> 0.25434313E+03</totfact>
</mgrwt>
</event>
<event>
 4    1  0.1762274E-004  0.2448003E+03  0.7818608E-02  0.1116636E+00
          2   -1    0    0  501    0  0.00000000000E+00  0.00000000000E+00  0.59026790422E+03  0.59026790422E+03  0.00000000000E+00 0.  1.
         -2   -1    0    0    0  501 -0.00000000000E+00 -0.00000000000E+00 -0.25381346163E+02  0.25381346163E+02  0.00000000000E+00 0.  1.
         25    1    1    2    0    0 -0.24203136756E+01  0.18066335409E+02  0.32217109381E+03  0.34427672602E+03  0.12000000000E+03 0.  0.
         25    1    1    2    0    0  0.24203136756E+01 -0.18066335409E+02  0.24271546425E+03  0.27137252436E+03  0.12000000000E+03 0.  0.
<mgrwt>
<rscale>  0 0.24480028E+03</rscale>
<asrwt>0</asrwt>
<pdfrwt beam="1">  1        2 0.90810436E-01 0.24480028E+03</pdfrwt>
<pdfrwt beam="2">  1       -2 0.39048229E-02 0.24480028E+03</pdfrwt>
<totfact> 0.14484057E+04</totfact>
</mgrwt>
</event>
<event>
 4    1  0.1762274E-004  0.3545622E+03  0.7818608E-02  0.1060758E+00
          1   -1    0    0  501    0  0.00000000000E+00  0.00000000000E+00  0.15549782190E+04  0.15549782190E+04  0.00000000000E+00 0. -1.
         -1   -1    0    0    0  501 -0.00000000000E+00 -0.00000000000E+00 -0.20211588510E+02  0.20211588510E+02  0.00000000000E+00 0. -1.
         25    1    1    2    0    0  0.10576782987E+03  0.76428813446E+02  0.77013108944E+03  0.79027216342E+03  0.12000000000E+03 0.  0.
         25    1    1    2    0    0 -0.10576782987E+03 -0.76428813446E+02  0.76463554102E+03  0.78491764406E+03  0.12000000000E+03 0.  0.
<mgrwt>
<rscale>  0 0.35456215E+03</rscale>
<asrwt>0</asrwt>
<pdfrwt beam="1">  1        1 0.23922733E+00 0.35456215E+03</pdfrwt>
<pdfrwt beam="2">  1       -1 0.31094764E-02 0.35456215E+03</pdfrwt>
<totfact> 0.23527117E+03</totfact>
</mgrwt>
</event>
<event>
 4    1  0.1762274E-004  0.4096065E+03  0.7818608E-02  0.1040503E+00
         -1   -1    0    0    0  501 -0.00000000000E+00  0.00000000000E+00  0.81125583056E+02  0.81125583056E+02  0.00000000000E+00 0.  1.
          1   -1    0    0  501    0  0.00000000000E+00 -0.00000000000E+00 -0.51703008434E+03  0.51703008434E+03  0.00000000000E+00 0.  1.
         25    1    1    2    0    0  0.55449972398E+02  0.17949627775E+02 -0.44487774878E+03  0.46444924366E+03  0.12000000000E+03 0.  0.
         25    1    1    2    0    0 -0.55449972398E+02 -0.17949627775E+02  0.89732475017E+01  0.13370642373E+03  0.12000000000E+03 0.  0.
<mgrwt>
<rscale>  0 0.40960648E+03</rscale>
<asrwt>0</asrwt>
<pdfrwt beam="1">  1        1 0.79543088E-01 0.40960648E+03</pdfrwt>
<pdfrwt beam="2">  1       -1 0.12480859E-01 0.40960648E+03</pdfrwt>
<totfact> 0.18659857E+03</totfact>
</mgrwt>
</event>
<event>
 4    1  0.1762274E-004  0.3447556E+03  0.7818608E-02  0.1064788E+00
         -1   -1    0    0    0  501 -0.00000000000E+00  0.00000000000E+00  0.22400048214E+02  0.22400048214E+02  0.00000000000E+00 0. -1.
          1   -1    0    0  501    0  0.00000000000E+00 -0.00000000000E+00 -0.13265200961E+04  0.13265200961E+04  0.00000000000E+00 0. -1.
         25    1    1    2    0    0  0.12145560880E+03 -0.18404293421E+01 -0.74459001380E+03  0.76391697242E+03  0.12000000000E+03 0.  0.
         25    1    1    2    0    0 -0.12145560880E+03  0.18404293421E+01 -0.55953003410E+03  0.58500317192E+03  0.12000000000E+03 0.  0.
<mgrwt>
<rscale>  0 0.34475565E+03</rscale>
<asrwt>0</asrwt>
<pdfrwt beam="1">  1        1 0.20408005E+00 0.34475565E+03</pdfrwt>
<pdfrwt beam="2">  1       -1 0.34461607E-02 0.34475565E+03</pdfrwt>
<totfact> 0.28784373E+03</totfact>
</mgrwt>
</event>
<event>
 4    1  0.1762274E-004  0.2422832E+03  0.7818608E-02  0.1118281E+00
          2   -1    0    0  501    0  0.00000000000E+00  0.00000000000E+00  0.22491551193E+03  0.22491551193E+03  0.00000000000E+00 0. -1.
         -2   -1    0    0    0  501 -0.00000000000E+00 -0.00000000000E+00 -0.65247983670E+02  0.65247983670E+02  0.00000000000E+00 0. -1.
         25    1    1    2    0    0 -0.11592323853E+01  0.13515968910E+02  0.91274553406E+02  0.15137724180E+03  0.12000000000E+03 0.  0.
         25    1    1    2    0    0  0.11592323853E+01 -0.13515968910E+02  0.68392974857E+02  0.13878625380E+03  0.12000000000E+03 0.  0.
<mgrwt>
<rscale>  0 0.24228317E+03</rscale>
<asrwt>0</asrwt>
<pdfrwt beam="1">  1        2 0.34602386E-01 0.24228317E+03</pdfrwt>
<pdfrwt beam="2">  1       -2 0.10038151E-01 0.24228317E+03</pdfrwt>
<totfact> 0.97143784E+03</totfact>
</mgrwt>
</event>
<event>
 4    1  0.1762274E-004  0.2782191E+03  0.7818608E-02  0.1096666E+00
         -1   -1    0    0    0  501 -0.00000000000E+00  0.00000000000E+00  0.11269109275E+03  0.11269109275E+03  0.00000000000E+00 0.  1.
          1   -1    0    0  501    0  0.00000000000E+00 -0.00000000000E+00 -0.17172129598E+03  0.17172129598E+03  0.00000000000E+00 0.  1.
         25    1    1    2    0    0  0.51349388700E+02  0.17784320742E+02 -0.75213910837E+02  0.15169104841E+03  0.12000000000E+03 0.  0.
         25    1    1    2    0    0 -0.51349388700E+02 -0.17784320742E+02  0.16183707612E+02  0.13272134032E+03  0.12000000000E+03 0.  0.
<mgrwt>
<rscale>  0 0.27821905E+03</rscale>
<asrwt>0</asrwt>
<pdfrwt beam="1">  1        1 0.26418661E-01 0.27821905E+03</pdfrwt>
<pdfrwt beam="2">  1       -1 0.17337091E-01 0.27821905E+03</pdfrwt>
<totfact> 0.45094220E+03</totfact>
</mgrwt>
</event>
<event>
 4    1  0.1762274E-004  0.2495284E+03  0.7818608E-02  0.1113603E+00
         -2   -1    0    0    0  501 -0.00000000000E+00  0.00000000000E+00  0.21400080014E+02  0.21400080014E+02  0.00000000000E+00 0. -1.
          2   -1    0    0  501    0  0.00000000000E+00 -0.00000000000E+00 -0.72738533258E+03  0.72738533258E+03  0.00000000000E+00 0. -1.
         25    1    1    2    0    0  0.63378211515E+01  0.28233888603E+02 -0.29858087974E+03  0.32309110509E+03  0.12000000000E+03 0.  0.
         25    1    1    2    0    0 -0.63378211515E+01 -0.28233888603E+02 -0.40740437282E+03  0.42569430750E+03  0.12000000000E+03 0.  0.
<mgrwt>
<rscale>  0 0.24952839E+03</rscale>
<asrwt>0</asrwt>
<pdfrwt beam="1">  1        2 0.11190544E+00 0.24952839E+03</pdfrwt>
<pdfrwt beam="2">  1       -2 0.32923200E-02 0.24952839E+03</pdfrwt>
<totfact> 0.14601030E+04</totfact>
</mgrwt>
</event>
<event>
 4    1  0.1762274E-004  0.4117458E+03  0.7818608E-02  0.1039787E+00
          1   -1    0    0  501    0  0.00000000000E+00  0.00000000000E+00  0.15288689153E+03  0.15288689153E+03  0.00000000000E+00 0. -1.
         -1   -1    0    0    0  501 -0.00000000000E+00 -0.00000000000E+00 -0.27722229439E+03  0.27722229439E+03  0.00000000000E+00 0. -1.
         25    1    1    2    0    0  0.93210819051E+02  0.12859413016E+03 -0.72994325305E+01  0.19919334531E+03  0.12000000000E+03 0.  0.
         25    1    1    2    0    0 -0.93210819051E+02 -0.12859413016E+03 -0.11703597033E+03  0.23091584062E+03  0.12000000000E+03 0.  0.
<mgrwt>
<rscale>  0 0.41174582E+03</rscale>
<asrwt>0</asrwt>
<pdfrwt beam="1">  1        1 0.23521060E-01 0.41174582E+03</pdfrwt>
<pdfrwt beam="2">  1       -1 0.42649583E-01 0.41174582E+03</pdfrwt>
<totfact> 0.11437477E+03</totfact>
</mgrwt>
</event>
<event>
 4    1  0.1762274E-004  0.2784504E+03  0.7818608E-02  0.1096538E+00
          2   -1    0    0  501    0  0.00000000000E+00  0.00000000000E+00  0.95057061987E+03  0.95057061987E+03  0.00000000000E+00 0.  1.
         -2   -1    0    0    0  501 -0.00000000000E+00 -0.00000000000E+00 -0.20391594341E+02  0.20391594341E+02  0.00000000000E+00 0.  1.
         25    1    1    2    0    0  0.10202121542E+02 -0.31027354470E+02  0.24685463826E+03  0.27641272120E+03  0.12000000000E+03 0.  0.
         25    1    1    2    0    0 -0.10202121542E+02  0.31027354470E+02  0.68332438727E+03  0.69454949301E+03  0.12000000000E+03 0.  0.
<mgrwt>
<rscale>  0 0.27845036E+03</rscale>
<asrwt>0</asrwt>
<pdfrwt beam="1">  1        2 0.14624160E+00 0.27845036E+03</pdfrwt>
<pdfrwt beam="2">  1       -2 0.31371691E-02 0.27845036E+03</pdfrwt>
<totfact> 0.11144290E+04</totfact>
</mgrwt>
</event>
<event>
 4    1  0.1762274E-004  0.2525199E+03  0.7818608E-02  0.1111723E+00
          2   -1    0    0  501    0  0.00000000000E+00  0.00000000000E+00  0.73683132406E+03  0.73683132406E+03  0.00000000000E+00 0. -1.
         -2   -1    0    0    0  501 -0.00000000000E+00 -0.00000000000E+00 -0.21635306701E+02  0.21635306701E+02  0.00000000000E+00 0. -1.
         25    1    1    2    0    0  0.13646313301E+02  0.16228128729E+02  0.45685286552E+03  0.47282567058E+03  0.12000000000E+03 0.  0.
         25    1    1    2    0    0 -0.13646313301E+02 -0.16228128729E+02  0.25834315184E+03  0.28564096017E+03  0.12000000000E+03 0.  0.
<mgrwt>
<rscale>  0 0.25251987E+03</rscale>
<asrwt>0</asrwt>
<pdfrwt beam="1">  1        2 0.11335865E+00 0.25251987E+03</pdfrwt>
<pdfrwt beam="2">  1       -2 0.33285093E-02 0.25251987E+03</pdfrwt>
<totfact> 0.14146645E+04</totfact>
</mgrwt>
</event>
<event>
 4    1  0.1762274E-004  0.2651488E+03  0.7818608E-02  0.1104089E+00
         -1   -1    0    0    0  501 -0.00000000000E+00  0.00000000000E+00  0.82485960126E+01  0.82485960126E+01  0.00000000000E+00 0.  1.
          1   -1    0    0  501    0  0.00000000000E+00 -0.00000000000E+00 -0.21307835168E+04  0.21307835168E+04  0.00000000000E+00 0.  1.
         25    1    1    2    0    0  0.55538429076E+00  0.24009876090E+02 -0.14725560171E+04  0.14776325681E+04  0.12000000000E+03 0.  0.
         25    1    1    2    0    0 -0.55538429076E+00 -0.24009876090E+02 -0.64997890368E+03  0.66139954477E+03  0.12000000000E+03 0.  0.
<mgrwt>
<rscale>  0 0.26514881E+03</rscale>
<asrwt>0</asrwt>
<pdfrwt beam="1">  1        1 0.32781366E+00 0.26514881E+03</pdfrwt>
<pdfrwt beam="2">  1       -1 0.12690116E-02 0.26514881E+03</pdfrwt>
<totfact> 0.36925382E+03</totfact>
</mgrwt>
</event>
<event>
 4    1  0.1762274E-004  0.2483102E+03  0.7818608E-02  0.1114377E+00
          1   -1    0    0  501    0  0.00000000000E+00  0.00000000000E+00  0.61878139691E+02  0.61878139691E+02  0.00000000000E+00 0.  1.
         -1   -1    0    0    0  501 -0.00000000000E+00 -0.00000000000E+00 -0.24911033071E+03  0.24911033071E+03  0.00000000000E+00 0.  1.
         25    1    1    2    0    0  0.30784933585E+02  0.11577828465E+01 -0.10374686403E+03  0.16159351594E+03  0.12000000000E+03 0.  0.
         25    1    1    2    0    0 -0.30784933585E+02 -0.11577828465E+01 -0.83485326992E+02  0.14939495447E+03  0.12000000000E+03 0.  0.
<mgrwt>
<rscale>  0 0.24831016E+03</rscale>
<asrwt>0</asrwt>
<pdfrwt beam="1">  1        1 0.95197137E-02 0.24831016E+03</pdfrwt>
<pdfrwt beam="2">  1       -1 0.38324667E-01 0.24831016E+03</pdfrwt>
<totfact> 0.45225302E+03</totfact>
</mgrwt>
</event>
<event>
 4    1  0.1762274E-004  0.2871629E+03  0.7818608E-02  0.1091840E+00
         -2   -1    0    0    0  501 -0.00000000000E+00  0.00000000000E+00  0.37901920173E+02  0.37901920173E+02  0.00000000000E+00 0.  1.
          2   -1    0    0  501    0  0.00000000000E+00 -0.00000000000E+00 -0.54392070354E+03  0.54392070354E+03  0.00000000000E+00 0.  1.
         25    1    1    2    0    0 -0.11942383408E+02 -0.62943271348E+01 -0.95631665100E+02  0.15403783446E+03  0.12000000000E+03 0.  0.
         25    1    1    2    0    0  0.11942383408E+02  0.62943271348E+01 -0.41038711826E+03  0.42778478925E+03  0.12000000000E+03 0.  0.
<mgrwt>
<rscale>  0 0.28716294E+03</rscale>
<asrwt>0</asrwt>
<pdfrwt beam="1">  1        2 0.83680107E-01 0.28716294E+03</pdfrwt>
<pdfrwt beam="2">  1       -2 0.58310647E-02 0.28716294E+03</pdfrwt>
<totfact> 0.87190560E+03</totfact>
</mgrwt>
</event>
<event>
 4    1  0.1762274E-004  0.2821477E+03  0.7818608E-02  0.1094522E+00
         -3   -1    0    0    0  501 -0.00000000000E+00  0.00000000000E+00  0.40808608300E+03  0.40808608300E+03  0.00000000000E+00 0.  1.
          3   -1    0    0  501    0  0.00000000000E+00 -0.00000000000E+00 -0.48768702918E+02  0.48768702918E+02  0.00000000000E+00 0.  1.
         25    1    1    2    0    0 -0.55056444915E+02 -0.32206279347E+02  0.11835576375E+03  0.18021249504E+03  0.12000000000E+03 0.  0.
         25    1    1    2    0    0  0.55056444915E+02  0.32206279347E+02  0.24096161633E+03  0.27664229087E+03  0.12000000000E+03 0.  0.
<mgrwt>
<rscale>  0 0.28214768E+03</rscale>
<asrwt>0</asrwt>
<pdfrwt beam="1">  1        3 0.75028776E-02 0.28214768E+03</pdfrwt>
<pdfrwt beam="2">  1       -3 0.62782472E-01 0.28214768E+03</pdfrwt>
<totfact> 0.75585167E+02</totfact>
</mgrwt>
</event>
<event>
 4    1  0.1762274E-004  0.2731063E+03  0.7818608E-02  0.1099515E+00
          1   -1    0    0  501    0  0.00000000000E+00  0.00000000000E+00  0.57484903083E+02  0.57484903083E+02  0.00000000000E+00 0. -1.
         -1   -1    0    0    0  501 -0.00000000000E+00 -0.00000000000E+00 -0.32437670367E+03  0.32437670367E+03  0.00000000000E+00 0. -1.
         25    1    1    2    0    0  0.27915845903E+02  0.55521456848E+02 -0.16087506227E+03  0.21010167130E+03  0.12000000000E+03 0.  0.
         25    1    1    2    0    0 -0.27915845903E+02 -0.55521456848E+02 -0.10601673832E+03  0.17175993545E+03  0.12000000000E+03 0.  0.
<mgrwt>
<rscale>  0 0.27310630E+03</rscale>
<asrwt>0</asrwt>
<pdfrwt beam="1">  1        1 0.88438314E-02 0.27310630E+03</pdfrwt>
<pdfrwt beam="2">  1       -1 0.49904107E-01 0.27310630E+03</pdfrwt>
<totfact> 0.31132698E+03</totfact>
</mgrwt>
</event>
<event>
 4    1  0.1762274E-004  0.2712431E+03  0.7818608E-02  0.1100570E+00
          2   -1    0    0  501    0  0.00000000000E+00  0.00000000000E+00  0.13765625104E+04  0.13765625104E+04  0.00000000000E+00 0. -1.
         -2   -1    0    0    0  501 -0.00000000000E+00 -0.00000000000E+00 -0.13361691580E+02  0.13361691580E+02  0.00000000000E+00 0. -1.
         25    1    1    2    0    0  0.28229506827E+01 -0.17790830562E+02  0.99197758308E+03  0.99937180670E+03  0.12000000000E+03 0.  0.
         25    1    1    2    0    0 -0.28229506827E+01  0.17790830562E+02  0.37122323577E+03  0.39055239531E+03  0.12000000000E+03 0.  0.
<mgrwt>
<rscale>  0 0.27124309E+03</rscale>
<asrwt>0</asrwt>
<pdfrwt beam="1">  1        2 0.21177874E+00 0.27124309E+03</pdfrwt>
<pdfrwt beam="2">  1       -2 0.20556459E-02 0.27124309E+03</pdfrwt>
<totfact> 0.11807150E+04</totfact>
</mgrwt>
</event>
<event>
 4    1  0.1762274E-004  0.2563382E+03  0.7818608E-02  0.1109363E+00
         -2   -1    0    0    0  501 -0.00000000000E+00  0.00000000000E+00  0.60998335681E+02  0.60998335681E+02  0.00000000000E+00 0.  1.
          2   -1    0    0  501    0  0.00000000000E+00 -0.00000000000E+00 -0.26930758619E+03  0.26930758619E+03  0.00000000000E+00 0.  1.
         25    1    1    2    0    0 -0.86047711966E-01 -0.25882372816E+02 -0.15162892710E+03  0.19509289111E+03  0.12000000000E+03 0.  0.
         25    1    1    2    0    0  0.86047711966E-01  0.25882372816E+02 -0.56680323410E+02  0.13521303076E+03  0.12000000000E+03 0.  0.
<mgrwt>
<rscale>  0 0.25633817E+03</rscale>
<asrwt>0</asrwt>
<pdfrwt beam="1">  1        2 0.41431936E-01 0.25633817E+03</pdfrwt>
<pdfrwt beam="2">  1       -2 0.93843595E-02 0.25633817E+03</pdfrwt>
<totfact> 0.89211047E+03</totfact>
</mgrwt>
</event>
<event>
 4    1  0.1762274E-004  0.5064154E+03  0.7818608E-02  0.1012118E+00
         -2   -1    0    0    0  501 -0.00000000000E+00  0.00000000000E+00  0.67857710717E+02  0.67857710717E+02  0.00000000000E+00 0.  1.
          2   -1    0    0  501    0  0.00000000000E+00 -0.00000000000E+00 -0.94483187269E+03  0.94483187269E+03  0.00000000000E+00 0.  1.
         25    1    1    2    0    0 -0.91780313819E+02 -0.99988770774E+02 -0.84741253286E+02  0.20000615064E+03  0.12000000000E+03 0.  0.
         25    1    1    2    0    0  0.91780313819E+02  0.99988770774E+02 -0.79223290869E+03  0.81268343277E+03  0.12000000000E+03 0.  0.
<mgrwt>
<rscale>  0 0.50641535E+03</rscale>
<asrwt>0</asrwt>
<pdfrwt beam="1">  1        2 0.14535874E+00 0.50641535E+03</pdfrwt>
<pdfrwt beam="2">  1       -2 0.10439648E-01 0.50641535E+03</pdfrwt>
<totfact> 0.17603964E+03</totfact>
</mgrwt>
</event>
<event>
 4    1  0.1762274E-004  0.5657181E+03  0.7818608E-02  0.9979199E-01
         -2   -1    0    0    0  501 -0.00000000000E+00  0.00000000000E+00  0.10993664848E+03  0.10993664848E+03  0.00000000000E+00 0. -1.
          2   -1    0    0  501    0  0.00000000000E+00 -0.00000000000E+00 -0.72777585160E+03  0.72777585160E+03  0.00000000000E+00 0. -1.
         25    1    1    2    0    0 -0.23692614869E+03 -0.30904180716E+02 -0.44560403416E+03  0.51966529957E+03  0.12000000000E+03 0.  0.
         25    1    1    2    0    0  0.23692614869E+03  0.30904180716E+02 -0.17223516897E+03  0.31804720051E+03  0.12000000000E+03 0.  0.
<mgrwt>
<rscale>  0 0.56571809E+03</rscale>
<asrwt>0</asrwt>
<pdfrwt beam="1">  1        2 0.11196552E+00 0.56571809E+03</pdfrwt>
<pdfrwt beam="2">  1       -2 0.16913331E-01 0.56571809E+03</pdfrwt>
<totfact> 0.11175092E+03</totfact>
</mgrwt>
</event>
<event>
 4    1  0.1762274E-004  0.2565416E+03  0.7818608E-02  0.1109239E+00
         -1   -1    0    0    0  501 -0.00000000000E+00  0.00000000000E+00  0.25444221787E+02  0.25444221787E+02  0.00000000000E+00 0.  1.
          1   -1    0    0  501    0  0.00000000000E+00 -0.00000000000E+00 -0.64664574990E+03  0.64664574990E+03  0.00000000000E+00 0.  1.
         25    1    1    2    0    0 -0.30745643476E+02 -0.30388027557E+01 -0.22375621324E+03  0.25577601896E+03  0.12000000000E+03 0.  0.
         25    1    1    2    0    0  0.30745643476E+02  0.30388027557E+01 -0.39744531488E+03  0.41631395273E+03  0.12000000000E+03 0.  0.
<mgrwt>
<rscale>  0 0.25654160E+03</rscale>
<asrwt>0</asrwt>
<pdfrwt beam="1">  1        1 0.99483960E-01 0.25654160E+03</pdfrwt>
<pdfrwt beam="2">  1       -1 0.39144957E-02 0.25654160E+03</pdfrwt>
<totfact> 0.79821249E+03</totfact>
</mgrwt>
</event>
<event>
 4    1  0.1762274E-004  0.2871584E+03  0.7818608E-02  0.1091842E+00
         -1   -1    0    0    0  501 -0.00000000000E+00  0.00000000000E+00  0.38090072164E+02  0.38090072164E+02  0.00000000000E+00 0. -1.
          1   -1    0    0  501    0  0.00000000000E+00 -0.00000000000E+00 -0.54121670497E+03  0.54121670497E+03  0.00000000000E+00 0. -1.
         25    1    1    2    0    0  0.60714957292E+02  0.47361552452E+02 -0.21747258592E+03  0.26004566583E+03  0.12000000000E+03 0.  0.
         25    1    1    2    0    0 -0.60714957292E+02 -0.47361552452E+02 -0.28565404689E+03  0.31926111131E+03  0.12000000000E+03 0.  0.
<mgrwt>
<rscale>  0 0.28715838E+03</rscale>
<asrwt>0</asrwt>
<pdfrwt beam="1">  1        1 0.83264102E-01 0.28715838E+03</pdfrwt>
<pdfrwt beam="2">  1       -1 0.58600116E-02 0.28715838E+03</pdfrwt>
<totfact> 0.56034911E+03</totfact>
</mgrwt>
</event>
<event>
 4    1  0.1762274E-004  0.3530898E+03  0.7818608E-02  0.1061354E+00
         -4   -1    0    0    0  501 -0.00000000000E+00  0.00000000000E+00  0.74031141555E+03  0.74031141555E+03  0.00000000000E+00 0.  1.
          4   -1    0    0  501    0  0.00000000000E+00 -0.00000000000E+00 -0.42101348763E+02  0.42101348763E+02  0.00000000000E+00 0.  1.
         25    1    1    2    0    0 -0.11575705078E+03 -0.45992206251E+02  0.42754709247E+03  0.46120656340E+03  0.12000000000E+03 0.  0.
         25    1    1    2    0    0  0.11575705078E+03  0.45992206251E+02  0.27066297432E+03  0.32120620092E+03  0.12000000000E+03 0.  0.
<mgrwt>
<rscale>  0 0.35308984E+03</rscale>
<asrwt>0</asrwt>
<pdfrwt beam="1">  1        4 0.64771311E-02 0.35308984E+03</pdfrwt>
<pdfrwt beam="2">  1       -4 0.11389405E+00 0.35308984E+03</pdfrwt>
<totfact> 0.18831580E+02</totfact>
</mgrwt>
</event>
<event>
 4    1  0.1762274E-004  0.2646469E+03  0.7818608E-02  0.1104383E+00
          2   -1    0    0  501    0  0.00000000000E+00  0.00000000000E+00  0.16999063816E+04  0.16999063816E+04  0.00000000000E+00 0.  1.
         -2   -1    0    0    0  501 -0.00000000000E+00 -0.00000000000E+00 -0.10300266850E+02  0.10300266850E+02  0.00000000000E+00 0.  1.
         25    1    1    2    0    0 -0.24905955161E+02  0.41886069288E+02  0.10199686009E+04  0.10281588866E+04  0.12000000000E+03 0.  0.
         25    1    1    2    0    0  0.24905955161E+02 -0.41886069288E+02  0.66963751384E+03  0.68204776177E+03  0.12000000000E+03 0.  0.
<mgrwt>
<rscale>  0 0.26464685E+03</rscale>
<asrwt>0</asrwt>
<pdfrwt beam="1">  1        2 0.26152384E+00 0.26464685E+03</pdfrwt>
<pdfrwt beam="2">  1       -2 0.15846578E-02 0.26464685E+03</pdfrwt>
<totfact> 0.11620134E+04</totfact>
</mgrwt>
</event>
<event>
 4    1  0.1762274E-004  0.2468172E+03  0.7818608E-02  0.1115333E+00
          2   -1    0    0  501    0  0.00000000000E+00  0.00000000000E+00  0.42859549373E+02  0.42859549373E+02  0.00000000000E+00 0. -1.
         -2   -1    0    0    0  501 -0.00000000000E+00 -0.00000000000E+00 -0.35533939750E+03  0.35533939750E+03  0.00000000000E+00 0. -1.
         25    1    1    2    0    0  0.20586575690E+02 -0.18702796465E+02 -0.16832215276E+03  0.20858079682E+03  0.12000000000E+03 0.  0.
         25    1    1    2    0    0 -0.20586575690E+02  0.18702796465E+02 -0.14415769537E+03  0.18961815005E+03  0.12000000000E+03 0.  0.
<mgrwt>
<rscale>  0 0.24681723E+03</rscale>
<asrwt>0</asrwt>
<pdfrwt beam="1">  1        2 0.65937768E-02 0.24681723E+03</pdfrwt>
<pdfrwt beam="2">  1       -2 0.54667600E-01 0.24681723E+03</pdfrwt>
<totfact> 0.34667323E+03</totfact>
</mgrwt>
</event>
<event>
 4    1  0.1762274E-004  0.3587917E+03  0.7818608E-02  0.1059063E+00
          2   -1    0    0  501    0  0.00000000000E+00  0.00000000000E+00  0.91874536890E+03  0.91874536890E+03  0.00000000000E+00 0.  1.
         -2   -1    0    0    0  501 -0.00000000000E+00 -0.00000000000E+00 -0.35029142610E+02  0.35029142610E+02  0.00000000000E+00 0.  1.
         25    1    1    2    0    0 -0.71051653450E+02  0.34547668423E+02  0.15628008197E+03  0.21228599311E+03  0.12000000000E+03 0.  0.
         25    1    1    2    0    0  0.71051653450E+02 -0.34547668423E+02  0.72743614432E+03  0.74148851840E+03  0.12000000000E+03 0.  0.
<mgrwt>
<rscale>  0 0.35879165E+03</rscale>
<asrwt>0</asrwt>
<pdfrwt beam="1">  1        2 0.14134542E+00 0.35879165E+03</pdfrwt>
<pdfrwt beam="2">  1       -2 0.53890996E-02 0.35879165E+03</pdfrwt>
<totfact> 0.51803947E+03</totfact>
</mgrwt>
</event>
<event>
 4    1  0.1762274E-004  0.3020062E+03  0.7818608E-02  0.1084242E+00
         -1   -1    0    0    0  501 -0.00000000000E+00  0.00000000000E+00  0.28351130205E+02  0.28351130205E+02  0.00000000000E+00 0. -1.
          1   -1    0    0  501    0  0.00000000000E+00 -0.00000000000E+00 -0.80426887908E+03  0.80426887908E+03  0.00000000000E+00 0. -1.
         25    1    1    2    0    0  0.62658589206E+02  0.85060762620E+01 -0.57090744507E+03  0.58679959353E+03  0.12000000000E+03 0.  0.
         25    1    1    2    0    0 -0.62658589206E+02 -0.85060762620E+01 -0.20501030381E+03  0.24582041576E+03  0.12000000000E+03 0.  0.
<mgrwt>
<rscale>  0 0.30200617E+03</rscale>
<asrwt>0</asrwt>
<pdfrwt beam="1">  1        1 0.12373367E+00 0.30200617E+03</pdfrwt>
<pdfrwt beam="2">  1       -1 0.43617126E-02 0.30200617E+03</pdfrwt>
<totfact> 0.49417305E+03</totfact>
</mgrwt>
</event>
<event>
 4    1  0.1762274E-004  0.3277409E+03  0.7818608E-02  0.1072141E+00
          1   -1    0    0  501    0  0.00000000000E+00  0.00000000000E+00  0.38401005291E+03  0.38401005291E+03  0.00000000000E+00 0. -1.
         -1   -1    0    0    0  501 -0.00000000000E+00 -0.00000000000E+00 -0.69929211708E+02  0.69929211708E+02  0.00000000000E+00 0. -1.
         25    1    1    2    0    0  0.55244636699E+02 -0.74719827871E+02  0.24262852527E+03  0.28618809171E+03  0.12000000000E+03 0.  0.
         25    1    1    2    0    0 -0.55244636699E+02  0.74719827871E+02  0.71452315938E+02  0.16775117291E+03  0.12000000000E+03 0.  0.
<mgrwt>
<rscale>  0 0.32774088E+03</rscale>
<asrwt>0</asrwt>
<pdfrwt beam="1">  1        1 0.59078468E-01 0.32774088E+03</pdfrwt>
<pdfrwt beam="2">  1       -1 0.10758341E-01 0.32774088E+03</pdfrwt>
<totfact> 0.34777548E+03</totfact>
</mgrwt>
</event>
<event>
 4    1  0.1762274E-004  0.3642614E+03  0.7818608E-02  0.1056909E+00
          1   -1    0    0  501    0  0.00000000000E+00  0.00000000000E+00  0.17597877604E+04  0.17597877604E+04  0.00000000000E+00 0. -1.
         -1   -1    0    0    0  501 -0.00000000000E+00 -0.00000000000E+00 -0.18849772234E+02  0.18849772234E+02  0.00000000000E+00 0. -1.
         25    1    1    2    0    0 -0.51353533423E+02  0.83003501696E+02  0.40098178631E+03  0.42978268886E+03  0.12000000000E+03 0.  0.
         25    1    1    2    0    0  0.51353533423E+02 -0.83003501696E+02  0.13399562019E+04  0.13488548438E+04  0.12000000000E+03 0.  0.
<mgrwt>
<rscale>  0 0.36426144E+03</rscale>
<asrwt>0</asrwt>
<pdfrwt beam="1">  1        1 0.27073645E+00 0.36426144E+03</pdfrwt>
<pdfrwt beam="2">  1       -1 0.28999663E-02 0.36426144E+03</pdfrwt>
<totfact> 0.19109209E+03</totfact>
</mgrwt>
</event>
<event>
 4    1  0.1762274E-004  0.2404790E+03  0.7818608E-02  0.1119474E+00
          2   -1    0    0  501    0  0.00000000000E+00  0.00000000000E+00  0.13775783628E+03  0.13775783628E+03  0.00000000000E+00 0.  1.
         -2   -1    0    0    0  501 -0.00000000000E+00 -0.00000000000E+00 -0.10494891776E+03  0.10494891776E+03  0.00000000000E+00 0.  1.
         25    1    1    2    0    0  0.23805080115E+01 -0.66065464889E+01  0.13510395161E+02  0.12096215959E+03  0.12000000000E+03 0.  0.
         25    1    1    2    0    0 -0.23805080115E+01  0.66065464889E+01  0.19298523354E+02  0.12174459445E+03  0.12000000000E+03 0.  0.
<mgrwt>
<rscale>  0 0.24047899E+03</rscale>
<asrwt>0</asrwt>
<pdfrwt beam="1">  1        2 0.21193513E-01 0.24047899E+03</pdfrwt>
<pdfrwt beam="2">  1       -2 0.16145987E-01 0.24047899E+03</pdfrwt>
<totfact> 0.77283453E+03</totfact>
</mgrwt>
</event>
<event>
 4    1  0.1762274E-004  0.3336968E+03  0.7818608E-02  0.1069513E+00
          2   -1    0    0  501    0  0.00000000000E+00  0.00000000000E+00  0.14000436755E+04  0.14000436755E+04  0.00000000000E+00 0.  1.
         -2   -1    0    0    0  501 -0.00000000000E+00 -0.00000000000E+00 -0.19883937384E+02  0.19883937384E+02  0.00000000000E+00 0.  1.
         25    1    1    2    0    0 -0.71706737411E+02 -0.89480271444E+02  0.61764167440E+03  0.63955438637E+03  0.12000000000E+03 0.  0.
         25    1    1    2    0    0  0.71706737411E+02  0.89480271444E+02  0.76251806372E+03  0.78037322652E+03  0.12000000000E+03 0.  0.
<mgrwt>
<rscale>  0 0.33369675E+03</rscale>
<asrwt>0</asrwt>
<pdfrwt beam="1">  1        2 0.21539126E+00 0.33369675E+03</pdfrwt>
<pdfrwt beam="2">  1       -2 0.30590684E-02 0.33369675E+03</pdfrwt>
<totfact> 0.63767387E+03</totfact>
</mgrwt>
</event>
<event>
 4    1  0.1762274E-004  0.2547263E+03  0.7818608E-02  0.1110354E+00
         -1   -1    0    0    0  501 -0.00000000000E+00  0.00000000000E+00  0.13009375595E+02  0.13009375595E+02  0.00000000000E+00 0. -1.
          1   -1    0    0  501    0  0.00000000000E+00 -0.00000000000E+00 -0.12468989711E+04  0.12468989711E+04  0.00000000000E+00 0. -1.
         25    1    1    2    0    0  0.40606473045E+02 -0.13126909541E+02 -0.61901766651E+03  0.63198423466E+03  0.12000000000E+03 0.  0.
         25    1    1    2    0    0 -0.40606473045E+02  0.13126909541E+02 -0.61487192898E+03  0.62792411202E+03  0.12000000000E+03 0.  0.
<mgrwt>
<rscale>  0 0.25472634E+03</rscale>
<asrwt>0</asrwt>
<pdfrwt beam="1">  1        1 0.19183065E+00 0.25472634E+03</pdfrwt>
<pdfrwt beam="2">  1       -1 0.20014420E-02 0.25472634E+03</pdfrwt>
<totfact> 0.72556265E+03</totfact>
</mgrwt>
</event>
<event>
 4    1  0.1762274E-004  0.2709355E+03  0.7818608E-02  0.1100745E+00
          1   -1    0    0  501    0  0.00000000000E+00  0.00000000000E+00  0.64799008350E+03  0.64799008350E+03  0.00000000000E+00 0. -1.
         -1   -1    0    0    0  501 -0.00000000000E+00 -0.00000000000E+00 -0.28320670498E+02  0.28320670498E+02  0.00000000000E+00 0. -1.
         25    1    1    2    0    0  0.10115017521E+02 -0.25184387339E+02  0.45137081168E+03  0.46783776737E+03  0.12000000000E+03 0.  0.
         25    1    1    2    0    0 -0.10115017521E+02  0.25184387339E+02  0.16829860133E+03  0.20847298663E+03  0.12000000000E+03 0.  0.
<mgrwt>
<rscale>  0 0.27093552E+03</rscale>
<asrwt>0</asrwt>
<pdfrwt beam="1">  1        1 0.99690771E-01 0.27093552E+03</pdfrwt>
<pdfrwt beam="2">  1       -1 0.43570267E-02 0.27093552E+03</pdfrwt>
<totfact> 0.67984669E+03</totfact>
</mgrwt>
</event>
<event>
 4    1  0.1762274E-004  0.3610706E+03  0.7818608E-02  0.1058161E+00
         -2   -1    0    0    0  501 -0.00000000000E+00  0.00000000000E+00  0.79623319694E+01  0.79623319694E+01  0.00000000000E+00 0.  1.
          2   -1    0    0  501    0  0.00000000000E+00 -0.00000000000E+00 -0.40933976683E+04  0.40933976683E+04  0.00000000000E+00 0.  1.
         25    1    1    2    0    0  0.40014090913E+02  0.52328997094E+02 -0.70576459563E+03  0.71891801748E+03  0.12000000000E+03 0.  0.
         25    1    1    2    0    0 -0.40014090913E+02 -0.52328997094E+02 -0.33796707407E+04  0.33824419828E+04  0.12000000000E+03 0.  0.
<mgrwt>
<rscale>  0 0.36107058E+03</rscale>
<asrwt>0</asrwt>
<pdfrwt beam="1">  1        2 0.62975337E+00 0.36107058E+03</pdfrwt>
<pdfrwt beam="2">  1       -2 0.12249744E-02 0.36107058E+03</pdfrwt>
<totfact> 0.58741421E+02</totfact>
</mgrwt>
</event>
<event>
 4    1  0.1762274E-004  0.8894670E+03  0.7818608E-02  0.9438845E-01
         -1   -1    0    0    0  501 -0.00000000000E+00  0.00000000000E+00  0.12242707336E+03  0.12242707336E+03  0.00000000000E+00 0. -1.
          1   -1    0    0  501    0  0.00000000000E+00 -0.00000000000E+00 -0.16155568073E+04  0.16155568073E+04  0.00000000000E+00 0. -1.
         25    1    1    2    0    0  0.25853310890E+03  0.27743908815E+03 -0.35784900567E+03  0.53503993018E+03  0.12000000000E+03 0.  0.
         25    1    1    2    0    0 -0.25853310890E+03 -0.27743908815E+03 -0.11352807283E+04  0.12029439505E+04  0.12000000000E+03 0.  0.
<mgrwt>
<rscale>  0 0.88946701E+03</rscale>
<asrwt>0</asrwt>
<pdfrwt beam="1">  1        1 0.24854721E+00 0.88946701E+03</pdfrwt>
<pdfrwt beam="2">  1       -1 0.18834934E-01 0.88946701E+03</pdfrwt>
<totfact> 0.12444072E+02</totfact>
</mgrwt>
</event>
<event>
 4    1  0.1762274E-004  0.3086515E+03  0.7818608E-02  0.1080994E+00
          1   -1    0    0  501    0  0.00000000000E+00  0.00000000000E+00  0.78328070657E+03  0.78328070657E+03  0.00000000000E+00 0.  1.
         -1   -1    0    0    0  501 -0.00000000000E+00 -0.00000000000E+00 -0.30405998170E+02  0.30405998170E+02  0.00000000000E+00 0.  1.
         25    1    1    2    0    0  0.55563384569E+00  0.20133928603E+02  0.12619011369E+03  0.17529868398E+03  0.12000000000E+03 0.  0.
         25    1    1    2    0    0 -0.55563384569E+00 -0.20133928603E+02  0.62668459470E+03  0.63838802076E+03  0.12000000000E+03 0.  0.
<mgrwt>
<rscale>  0 0.30865147E+03</rscale>
<asrwt>0</asrwt>
<pdfrwt beam="1">  1        1 0.12050471E+00 0.30865147E+03</pdfrwt>
<pdfrwt beam="2">  1       -1 0.46778465E-02 0.30865147E+03</pdfrwt>
<totfact> 0.46369171E+03</totfact>
</mgrwt>
</event>
<event>
 4    1  0.1762274E-004  0.3690236E+03  0.7818608E-02  0.1055067E+00
         -2   -1    0    0    0  501 -0.00000000000E+00  0.00000000000E+00  0.28950085523E+02  0.28950085523E+02  0.00000000000E+00 0. -1.
          2   -1    0    0  501    0  0.00000000000E+00 -0.00000000000E+00 -0.11759760713E+04  0.11759760713E+04  0.00000000000E+00 0. -1.
         25    1    1    2    0    0 -0.42740438494E+02 -0.73709706836E+01 -0.10086949936E+04  0.10167333310E+04  0.12000000000E+03 0.  0.
         25    1    1    2    0    0  0.42740438494E+02  0.73709706836E+01 -0.13833099222E+03  0.18819282584E+03  0.12000000000E+03 0.  0.
<mgrwt>
<rscale>  0 0.36902362E+03</rscale>
<asrwt>0</asrwt>
<pdfrwt beam="1">  1        2 0.18091941E+00 0.36902362E+03</pdfrwt>
<pdfrwt beam="2">  1       -2 0.44538589E-02 0.36902362E+03</pdfrwt>
<totfact> 0.48361130E+03</totfact>
</mgrwt>
</event>
<event>
 4    1  0.1762274E-004  0.2494977E+03  0.7818608E-02  0.1113623E+00
          2   -1    0    0  501    0  0.00000000000E+00  0.00000000000E+00  0.75592730489E+03  0.75592730489E+03  0.00000000000E+00 0.  1.
         -2   -1    0    0    0  501 -0.00000000000E+00 -0.00000000000E+00 -0.20587000973E+02  0.20587000973E+02  0.00000000000E+00 0.  1.
         25    1    1    2    0    0  0.29808744813E+01 -0.33892916392E+02  0.36095104414E+03  0.38189432001E+03  0.12000000000E+03 0.  0.
         25    1    1    2    0    0 -0.29808744813E+01  0.33892916392E+02  0.37438925978E+03  0.39461998585E+03  0.12000000000E+03 0.  0.
<mgrwt>
<rscale>  0 0.24949770E+03</rscale>
<asrwt>0</asrwt>
<pdfrwt beam="1">  1        2 0.11629649E+00 0.24949770E+03</pdfrwt>
<pdfrwt beam="2">  1       -2 0.31672315E-02 0.24949770E+03</pdfrwt>
<totfact> 0.14750817E+04</totfact>
</mgrwt>
</event>
<event>
 4    1  0.1762274E-004  0.2672849E+03  0.7818608E-02  0.1102844E+00
         -2   -1    0    0    0  501 -0.00000000000E+00  0.00000000000E+00  0.80582868626E+02  0.80582868626E+02  0.00000000000E+00 0. -1.
          2   -1    0    0  501    0  0.00000000000E+00 -0.00000000000E+00 -0.22163895863E+03  0.22163895863E+03  0.00000000000E+00 0. -1.
         25    1    1    2    0    0  0.97446044013E+01  0.36677899533E+02 -0.12134813503E+03  0.17483019048E+03  0.12000000000E+03 0.  0.
         25    1    1    2    0    0 -0.97446044013E+01 -0.36677899533E+02 -0.19707954967E+02  0.12739163677E+03  0.12000000000E+03 0.  0.
<mgrwt>
<rscale>  0 0.26728489E+03</rscale>
<asrwt>0</asrwt>
<pdfrwt beam="1">  1        2 0.34098301E-01 0.26728489E+03</pdfrwt>
<pdfrwt beam="2">  1       -2 0.12397365E-01 0.26728489E+03</pdfrwt>
<totfact> 0.70682541E+03</totfact>
</mgrwt>
</event>
<event>
 4    1  0.1762274E-004  0.2585241E+03  0.7818608E-02  0.1108033E+00
         -4   -1    0    0    0  501 -0.00000000000E+00  0.00000000000E+00  0.17450153309E+03  0.17450153309E+03  0.00000000000E+00 0. -1.
          4   -1    0    0  501    0  0.00000000000E+00 -0.00000000000E+00 -0.95750929489E+02  0.95750929489E+02  0.00000000000E+00 0. -1.
         25    1    1    2    0    0  0.34718107843E+02  0.30820594569E+02  0.52323840295E+02  0.13889938922E+03  0.12000000000E+03 0.  0.
         25    1    1    2    0    0 -0.34718107843E+02 -0.30820594569E+02  0.26426763301E+02  0.13135307336E+03  0.12000000000E+03 0.  0.
<mgrwt>
<rscale>  0 0.25852415E+03</rscale>
<asrwt>0</asrwt>
<pdfrwt beam="1">  1        4 0.14730912E-01 0.25852415E+03</pdfrwt>
<pdfrwt beam="2">  1       -4 0.26846390E-01 0.25852415E+03</pdfrwt>
<totfact> 0.94895395E+02</totfact>
</mgrwt>
</event>
<event>
 4    1  0.1762274E-004  0.2986680E+03  0.7818608E-02  0.1085908E+00
          2   -1    0    0  501    0  0.00000000000E+00  0.00000000000E+00  0.11437246622E+03  0.11437246622E+03  0.00000000000E+00 0.  1.
         -2   -1    0    0    0  501 -0.00000000000E+00 -0.00000000000E+00 -0.19498257871E+03  0.19498257871E+03  0.00000000000E+00 0.  1.
         25    1    1    2    0    0  0.78660991039E+02  0.11204855009E+02  0.96457983499E+00  0.14392369750E+03  0.12000000000E+03 0.  0.
         25    1    1    2    0    0 -0.78660991039E+02 -0.11204855009E+02 -0.81574692322E+02  0.16543134744E+03  0.12000000000E+03 0.  0.
<mgrwt>
<rscale>  0 0.29866797E+03</rscale>
<asrwt>0</asrwt>
<pdfrwt beam="1">  1        2 0.17595764E-01 0.29866797E+03</pdfrwt>
<pdfrwt beam="2">  1       -2 0.29997320E-01 0.29866797E+03</pdfrwt>
<totfact> 0.32935163E+03</totfact>
</mgrwt>
</event>
<event>
 4    1  0.1762274E-004  0.2636607E+03  0.7818608E-02  0.1104964E+00
         -2   -1    0    0    0  501 -0.00000000000E+00  0.00000000000E+00  0.43963810119E+02  0.43963810119E+02  0.00000000000E+00 0.  1.
          2   -1    0    0  501    0  0.00000000000E+00 -0.00000000000E+00 -0.39530803041E+03  0.39530803041E+03  0.00000000000E+00 0.  1.
         25    1    1    2    0    0  0.13545709106E+02 -0.52851593680E+02 -0.17829051120E+03  0.22173020447E+03  0.12000000000E+03 0.  0.
         25    1    1    2    0    0 -0.13545709106E+02  0.52851593680E+02 -0.17305370908E+03  0.21754163605E+03  0.12000000000E+03 0.  0.
<mgrwt>
<rscale>  0 0.26366075E+03</rscale>
<asrwt>0</asrwt>
<pdfrwt beam="1">  1        2 0.60816617E-01 0.26366075E+03</pdfrwt>
<pdfrwt beam="2">  1       -2 0.67636634E-02 0.26366075E+03</pdfrwt>
<totfact> 0.98500933E+03</totfact>
</mgrwt>
</event>
<event>
 4    1  0.1762274E-004  0.2971645E+03  0.7818608E-02  0.1086667E+00
          2   -1    0    0  501    0  0.00000000000E+00  0.00000000000E+00  0.15962048773E+04  0.15962048773E+04  0.00000000000E+00 0.  1.
         -2   -1    0    0    0  501 -0.00000000000E+00 -0.00000000000E+00 -0.13830729835E+02  0.13830729835E+02  0.00000000000E+00 0.  1.
         25    1    1    2    0    0 -0.52158673247E+02 -0.51514657953E+02  0.53121411216E+03  0.54951134669E+03  0.12000000000E+03 0.  0.
         25    1    1    2    0    0  0.52158673247E+02  0.51514657953E+02  0.10511600353E+04  0.10605242605E+04  0.12000000000E+03 0.  0.
<mgrwt>
<rscale>  0 0.29716446E+03</rscale>
<asrwt>0</asrwt>
<pdfrwt beam="1">  1        2 0.24556984E+00 0.29716446E+03</pdfrwt>
<pdfrwt beam="2">  1       -2 0.21278059E-02 0.29716446E+03</pdfrwt>
<totfact> 0.85655955E+03</totfact>
</mgrwt>
</event>
<event>
 4    1  0.1762274E-004  0.2420304E+03  0.7818608E-02  0.1118448E+00
         -2   -1    0    0    0  501 -0.00000000000E+00  0.00000000000E+00  0.26943202571E+03  0.26943202571E+03  0.00000000000E+00 0.  1.
          2   -1    0    0  501    0  0.00000000000E+00 -0.00000000000E+00 -0.54353883729E+02  0.54353883729E+02  0.00000000000E+00 0.  1.
         25    1    1    2    0    0  0.67627475513E+01  0.43720006915E+01  0.89599315011E+02  0.14997628611E+03  0.12000000000E+03 0.  0.
         25    1    1    2    0    0 -0.67627475513E+01 -0.43720006915E+01  0.12547882697E+03  0.17380962333E+03  0.12000000000E+03 0.  0.
<mgrwt>
<rscale>  0 0.24203039E+03</rscale>
<asrwt>0</asrwt>
<pdfrwt beam="1">  1        2 0.83621361E-02 0.24203039E+03</pdfrwt>
<pdfrwt beam="2">  1       -2 0.41451080E-01 0.24203039E+03</pdfrwt>
<totfact> 0.44148685E+03</totfact>
</mgrwt>
</event>
<event>
 4    1  0.1762274E-004  0.3113162E+03  0.7818608E-02  0.1079717E+00
          2   -1    0    0  501    0  0.00000000000E+00  0.00000000000E+00  0.26952207155E+02  0.26952207155E+02  0.00000000000E+00 0. -1.
         -2   -1    0    0    0  501 -0.00000000000E+00 -0.00000000000E+00 -0.89897811680E+03  0.89897811680E+03  0.00000000000E+00 0. -1.
         25    1    1    2    0    0 -0.90144293796E+02  0.91694996063E+01 -0.31632518822E+03  0.35024519716E+03  0.12000000000E+03 0.  0.
         25    1    1    2    0    0  0.90144293796E+02 -0.91694996063E+01 -0.55570072142E+03  0.57568512680E+03  0.12000000000E+03 0.  0.
<mgrwt>
<rscale>  0 0.31131620E+03</rscale>
<asrwt>0</asrwt>
<pdfrwt beam="1">  1        2 0.41464942E-02 0.31131620E+03</pdfrwt>
<pdfrwt beam="2">  1       -2 0.13830430E+00 0.31131620E+03</pdfrwt>
<totfact> 0.79111573E+02</totfact>
</mgrwt>
</event>
<event>
 4    1  0.1762274E-004  0.2548269E+03  0.7818608E-02  0.1110292E+00
         -2   -1    0    0    0  501 -0.00000000000E+00  0.00000000000E+00  0.21688496159E+02  0.21688496159E+02  0.00000000000E+00 0. -1.
          2   -1    0    0  501    0  0.00000000000E+00 -0.00000000000E+00 -0.74851608902E+03  0.74851608902E+03  0.00000000000E+00 0. -1.
         25    1    1    2    0    0  0.22910629011E+02 -0.22296881544E+01 -0.47257111856E+03  0.48811200613E+03  0.12000000000E+03 0.  0.
         25    1    1    2    0    0 -0.22910629011E+02  0.22296881544E+01 -0.25425647431E+03  0.28209257906E+03  0.12000000000E+03 0.  0.
<mgrwt>
<rscale>  0 0.25482691E+03</rscale>
<asrwt>0</asrwt>
<pdfrwt beam="1">  1        2 0.11515631E+00 0.25482691E+03</pdfrwt>
<pdfrwt beam="2">  1       -2 0.33366920E-02 0.25482691E+03</pdfrwt>
<totfact> 0.13829202E+04</totfact>
</mgrwt>
</event>
<event>
 4    1  0.1762274E-004  0.3091381E+03  0.7818608E-02  0.1080760E+00
          2   -1    0    0  501    0  0.00000000000E+00  0.00000000000E+00  0.23111572660E+04  0.23111572660E+04  0.00000000000E+00 0.  1.
         -2   -1    0    0    0  501 -0.00000000000E+00 -0.00000000000E+00 -0.10337499264E+02  0.10337499264E+02  0.00000000000E+00 0.  1.
         25    1    1    2    0    0 -0.20209138501E+02 -0.88317229916E+02  0.88139899062E+03  0.89413227380E+03  0.12000000000E+03 0.  0.
         25    1    1    2    0    0  0.20209138501E+02  0.88317229916E+02  0.14194207761E+04  0.14273624914E+04  0.12000000000E+03 0.  0.
<mgrwt>
<rscale>  0 0.30913807E+03</rscale>
<asrwt>0</asrwt>
<pdfrwt beam="1">  1        2 0.35556225E+00 0.30913807E+03</pdfrwt>
<pdfrwt beam="2">  1       -2 0.15903863E-02 0.30913807E+03</pdfrwt>
<totfact> 0.54962516E+03</totfact>
</mgrwt>
</event>
<event>
 4    1  0.1762274E-004  0.2902518E+03  0.7818608E-02  0.1090218E+00
          4   -1    0    0  501    0  0.00000000000E+00  0.00000000000E+00  0.25663426418E+02  0.25663426418E+02  0.00000000000E+00 0. -1.
         -4   -1    0    0    0  501 -0.00000000000E+00 -0.00000000000E+00 -0.82068250324E+03  0.82068250324E+03  0.00000000000E+00 0. -1.
         25    1    1    2    0    0 -0.72670513617E+02  0.37098935653E+02 -0.40347856870E+03  0.42878000184E+03  0.12000000000E+03 0.  0.
         25    1    1    2    0    0  0.72670513617E+02 -0.37098935653E+02 -0.39154050812E+03  0.41756592782E+03  0.12000000000E+03 0.  0.
<mgrwt>
<rscale>  0 0.29025179E+03</rscale>
<asrwt>0</asrwt>
<pdfrwt beam="1">  1        4 0.39482200E-02 0.29025179E+03</pdfrwt>
<pdfrwt beam="2">  1       -4 0.12625883E+00 0.29025179E+03</pdfrwt>
<totfact> 0.32090444E+02</totfact>
</mgrwt>
</event>
<event>
 4    1  0.1762274E-004  0.3284885E+03  0.7818608E-02  0.1071808E+00
         -2   -1    0    0    0  501 -0.00000000000E+00  0.00000000000E+00  0.27263961467E+02  0.27263961467E+02  0.00000000000E+00 0. -1.
          2   -1    0    0  501    0  0.00000000000E+00 -0.00000000000E+00 -0.98944453984E+03  0.98944453984E+03  0.00000000000E+00 0. -1.
         25    1    1    2    0    0  0.21790056180E+02  0.59262594612E+01 -0.82107737729E+03  0.83010721392E+03  0.12000000000E+03 0.  0.
         25    1    1    2    0    0 -0.21790056180E+02 -0.59262594612E+01 -0.14110320108E+03  0.18660128739E+03  0.12000000000E+03 0.  0.
<mgrwt>
<rscale>  0 0.32848853E+03</rscale>
<asrwt>0</asrwt>
<pdfrwt beam="1">  1        2 0.15222226E+00 0.32848853E+03</pdfrwt>
<pdfrwt beam="2">  1       -2 0.41944549E-02 0.32848853E+03</pdfrwt>
<totfact> 0.68394659E+03</totfact>
</mgrwt>
</event>
<event>
 4    1  0.1762274E-004  0.2463985E+03  0.7818608E-02  0.1115602E+00
         -2   -1    0    0    0  501 -0.00000000000E+00  0.00000000000E+00  0.21065496052E+02  0.21065496052E+02  0.00000000000E+00 0. -1.
          2   -1    0    0  501    0  0.00000000000E+00 -0.00000000000E+00 -0.72051717957E+03  0.72051717957E+03  0.00000000000E+00 0. -1.
         25    1    1    2    0    0 -0.10030671428E+02 -0.15257022414E+02 -0.28626060011E+03  0.31093170034E+03  0.12000000000E+03 0.  0.
         25    1    1    2    0    0  0.10030671428E+02  0.15257022414E+02 -0.41319108340E+03  0.43065097527E+03  0.12000000000E+03 0.  0.
<mgrwt>
<rscale>  0 0.24639847E+03</rscale>
<asrwt>0</asrwt>
<pdfrwt beam="1">  1        2 0.11084880E+00 0.24639847E+03</pdfrwt>
<pdfrwt beam="2">  1       -2 0.32408455E-02 0.24639847E+03</pdfrwt>
<totfact> 0.15113587E+04</totfact>
</mgrwt>
</event>
<event>
 4    1  0.1762274E-004  0.3481164E+03  0.7818608E-02  0.1063391E+00
          2   -1    0    0  501    0  0.00000000000E+00  0.00000000000E+00  0.11803659540E+04  0.11803659540E+04  0.00000000000E+00 0. -1.
         -2   -1    0    0    0  501 -0.00000000000E+00 -0.00000000000E+00 -0.25666834405E+02  0.25666834405E+02  0.00000000000E+00 0. -1.
         25    1    1    2    0    0  0.84303865987E+02 -0.88587376015E+02  0.47105280944E+03  0.50124406659E+03  0.12000000000E+03 0.  0.
         25    1    1    2    0    0 -0.84303865987E+02  0.88587376015E+02  0.68364631012E+03  0.70478872178E+03  0.12000000000E+03 0.  0.
<mgrwt>
<rscale>  0 0.34811640E+03</rscale>
<asrwt>0</asrwt>
<pdfrwt beam="1">  1        2 0.18159472E+00 0.34811640E+03</pdfrwt>
<pdfrwt beam="2">  1       -2 0.39487447E-02 0.34811640E+03</pdfrwt>
<totfact> 0.57691750E+03</totfact>
</mgrwt>
</event>
<event>
 4    1  0.1762274E-004  0.2718875E+03  0.7818608E-02  0.1100204E+00
          1   -1    0    0  501    0  0.00000000000E+00  0.00000000000E+00  0.40126279330E+02  0.40126279330E+02  0.00000000000E+00 0. -1.
         -1   -1    0    0    0  501 -0.00000000000E+00 -0.00000000000E+00 -0.46056367302E+03  0.46056367302E+03  0.00000000000E+00 0. -1.
         25    1    1    2    0    0  0.11595245372E+02  0.26270084976E+02 -0.10513602740E+03  0.16210537109E+03  0.12000000000E+03 0.  0.
         25    1    1    2    0    0 -0.11595245372E+02 -0.26270084976E+02 -0.31530136629E+03  0.33858458126E+03  0.12000000000E+03 0.  0.
<mgrwt>
<rscale>  0 0.27188753E+03</rscale>
<asrwt>0</asrwt>
<pdfrwt beam="1">  1        1 0.61732737E-02 0.27188753E+03</pdfrwt>
<pdfrwt beam="2">  1       -1 0.70855950E-01 0.27188753E+03</pdfrwt>
<totfact> 0.25917189E+03</totfact>
</mgrwt>
</event>
<event>
 4    1  0.1762274E-004  0.2907571E+03  0.7818608E-02  0.1089955E+00
          4   -1    0    0  501    0  0.00000000000E+00  0.00000000000E+00  0.26822402975E+03  0.26822402975E+03  0.00000000000E+00 0.  1.
         -4   -1    0    0    0  501 -0.00000000000E+00 -0.00000000000E+00 -0.78795757971E+02  0.78795757971E+02  0.00000000000E+00 0.  1.
         25    1    1    2    0    0 -0.25995427121E+02  0.74703578338E+02  0.12082240387E+03  0.18776165776E+03  0.12000000000E+03 0.  0.
         25    1    1    2    0    0  0.25995427121E+02 -0.74703578338E+02  0.68605867911E+02  0.15925812996E+03  0.12000000000E+03 0.  0.
<mgrwt>
<rscale>  0 0.29075705E+03</rscale>
<asrwt>0</asrwt>
<pdfrwt beam="1">  1        4 0.41265235E-01 0.29075705E+03</pdfrwt>
<pdfrwt beam="2">  1       -4 0.12122424E-01 0.29075705E+03</pdfrwt>
<totfact> 0.58937777E+02</totfact>
</mgrwt>
</event>
<event>
 4    1  0.1762274E-004  0.2590565E+03  0.7818608E-02  0.1107711E+00
          1   -1    0    0  501    0  0.00000000000E+00  0.00000000000E+00  0.11139502437E+04  0.11139502437E+04  0.00000000000E+00 0. -1.
         -1   -1    0    0    0  501 -0.00000000000E+00 -0.00000000000E+00 -0.15061320227E+02  0.15061320227E+02  0.00000000000E+00 0. -1.
         25    1    1    2    0    0 -0.45230159541E+01 -0.29573344694E+02  0.71724926813E+03  0.72783346517E+03  0.12000000000E+03 0.  0.
         25    1    1    2    0    0  0.45230159541E+01  0.29573344694E+02  0.38163965532E+03  0.40117809873E+03  0.12000000000E+03 0.  0.
<mgrwt>
<rscale>  0 0.25905645E+03</rscale>
<asrwt>0</asrwt>
<pdfrwt beam="1">  1        1 0.17137690E+00 0.25905645E+03</pdfrwt>
<pdfrwt beam="2">  1       -1 0.23171271E-02 0.25905645E+03</pdfrwt>
<totfact> 0.72642477E+03</totfact>
</mgrwt>
</event>
<event>
 4    1  0.1762274E-004  0.2796599E+03  0.7818608E-02  0.1095875E+00
          2   -1    0    0  501    0  0.00000000000E+00  0.00000000000E+00  0.14823556128E+03  0.14823556128E+03  0.00000000000E+00 0. -1.
         -2   -1    0    0    0  501 -0.00000000000E+00 -0.00000000000E+00 -0.13190096699E+03  0.13190096699E+03  0.00000000000E+00 0. -1.
         25    1    1    2    0    0 -0.66113431363E+02 -0.27841088181E+02  0.10681929584E+02  0.14021489085E+03  0.12000000000E+03 0.  0.
         25    1    1    2    0    0  0.66113431363E+02  0.27841088181E+02  0.56526647065E+01  0.13992163741E+03  0.12000000000E+03 0.  0.
<mgrwt>
<rscale>  0 0.27965989E+03</rscale>
<asrwt>0</asrwt>
<pdfrwt beam="1">  1        2 0.22805471E-01 0.27965989E+03</pdfrwt>
<pdfrwt beam="2">  1       -2 0.20292457E-01 0.27965989E+03</pdfrwt>
<totfact> 0.48660843E+03</totfact>
</mgrwt>
</event>
<event>
 4    1  0.1762274E-004  0.2788333E+03  0.7818608E-02  0.1096328E+00
         -2   -1    0    0    0  501 -0.00000000000E+00  0.00000000000E+00  0.69675207458E+02  0.69675207458E+02  0.00000000000E+00 0.  1.
          2   -1    0    0  501    0  0.00000000000E+00 -0.00000000000E+00 -0.27896592663E+03  0.27896592663E+03  0.00000000000E+00 0.  1.
         25    1    1    2    0    0  0.12902379524E+02 -0.16225821368E+02 -0.18951557045E+03  0.22526850672E+03  0.12000000000E+03 0.  0.
         25    1    1    2    0    0 -0.12902379524E+02  0.16225821368E+02 -0.19775148721E+02  0.12337262737E+03  0.12000000000E+03 0.  0.
<mgrwt>
<rscale>  0 0.27883335E+03</rscale>
<asrwt>0</asrwt>
<pdfrwt beam="1">  1        2 0.42917835E-01 0.27883335E+03</pdfrwt>
<pdfrwt beam="2">  1       -2 0.10719263E-01 0.27883335E+03</pdfrwt>
<totfact> 0.69767391E+03</totfact>
</mgrwt>
</event>
<event>
 4    1  0.1762274E-004  0.2545089E+03  0.7818608E-02  0.1110488E+00
          2   -1    0    0  501    0  0.00000000000E+00  0.00000000000E+00  0.56832269542E+03  0.56832269542E+03  0.00000000000E+00 0.  1.
         -2   -1    0    0    0  501 -0.00000000000E+00 -0.00000000000E+00 -0.28493847157E+02  0.28493847157E+02  0.00000000000E+00 0.  1.
         25    1    1    2    0    0  0.12518443051E+02  0.38583160072E+02  0.24135496938E+03  0.27257584798E+03  0.12000000000E+03 0.  0.
         25    1    1    2    0    0 -0.12518443051E+02 -0.38583160072E+02  0.29847387889E+03  0.32424069460E+03  0.12000000000E+03 0.  0.
<mgrwt>
<rscale>  0 0.25450894E+03</rscale>
<asrwt>0</asrwt>
<pdfrwt beam="1">  1        2 0.87434253E-01 0.25450894E+03</pdfrwt>
<pdfrwt beam="2">  1       -2 0.43836692E-02 0.25450894E+03</pdfrwt>
<totfact> 0.12736060E+04</totfact>
</mgrwt>
</event>
<event>
 4    1  0.1762274E-004  0.2750997E+03  0.7818608E-02  0.1098396E+00
         -1   -1    0    0    0  501 -0.00000000000E+00  0.00000000000E+00  0.52288916927E+02  0.52288916927E+02  0.00000000000E+00 0. -1.
          1   -1    0    0  501    0  0.00000000000E+00 -0.00000000000E+00 -0.36183496786E+03  0.36183496786E+03  0.00000000000E+00 0. -1.
         25    1    1    2    0    0  0.28805611700E+02  0.21678598000E+02 -0.69348241665E+02  0.14320929962E+03  0.12000000000E+03 0.  0.
         25    1    1    2    0    0 -0.28805611700E+02 -0.21678598000E+02 -0.24019780927E+03  0.27091458516E+03  0.12000000000E+03 0.  0.
<mgrwt>
<rscale>  0 0.27509968E+03</rscale>
<asrwt>0</asrwt>
<pdfrwt beam="1">  1        1 0.55666919E-01 0.27509968E+03</pdfrwt>
<pdfrwt beam="2">  1       -1 0.80444487E-02 0.27509968E+03</pdfrwt>
<totfact> 0.58511986E+03</totfact>
</mgrwt>
</event>
<event>
 4    1  0.1762274E-004  0.3887641E+03  0.7818608E-02  0.1047741E+00
         -1   -1    0    0    0  501 -0.00000000000E+00  0.00000000000E+00  0.39445002955E+03  0.39445002955E+03  0.00000000000E+00 0. -1.
          1   -1    0    0  501    0  0.00000000000E+00 -0.00000000000E+00 -0.95790011289E+02  0.95790011289E+02  0.00000000000E+00 0. -1.
         25    1    1    2    0    0 -0.10342877036E+03 -0.85790323747E+02  0.24136632755E+03  0.30118963173E+03  0.12000000000E+03 0.  0.
         25    1    1    2    0    0  0.10342877036E+03  0.85790323747E+02  0.57293690702E+02  0.18905040910E+03  0.12000000000E+03 0.  0.
<mgrwt>
<rscale>  0 0.38876406E+03</rscale>
<asrwt>0</asrwt>
<pdfrwt beam="1">  1        1 0.14736925E-01 0.38876406E+03</pdfrwt>
<pdfrwt beam="2">  1       -1 0.60684619E-01 0.38876406E+03</pdfrwt>
<totfact> 0.10888096E+03</totfact>
</mgrwt>
</event>
<event>
 4    1  0.1762274E-004  0.2591730E+03  0.7818608E-02  0.1107641E+00
          2   -1    0    0  501    0  0.00000000000E+00  0.00000000000E+00  0.19832452453E+04  0.19832452453E+04  0.00000000000E+00 0. -1.
         -2   -1    0    0    0  501 -0.00000000000E+00 -0.00000000000E+00 -0.84672636526E+01  0.84672636526E+01  0.00000000000E+00 0. -1.
         25    1    1    2    0    0  0.21015672526E+02 -0.39461553109E+02  0.83488964373E+03  0.84465353244E+03  0.12000000000E+03 0.  0.
         25    1    1    2    0    0 -0.21015672526E+02  0.39461553109E+02  0.11398883380E+04  0.11470589766E+04  0.12000000000E+03 0.  0.
<mgrwt>
<rscale>  0 0.25917300E+03</rscale>
<asrwt>0</asrwt>
<pdfrwt beam="1">  1        2 0.30511428E+00 0.25917300E+03</pdfrwt>
<pdfrwt beam="2">  1       -2 0.13026575E-02 0.25917300E+03</pdfrwt>
<totfact> 0.10982904E+04</totfact>
</mgrwt>
</event>
<event>
 4    1  0.1762274E-004  0.2681623E+03  0.7818608E-02  0.1102336E+00
          2   -1    0    0  501    0  0.00000000000E+00  0.00000000000E+00  0.84411037767E+03  0.84411037767E+03  0.00000000000E+00 0. -1.
         -2   -1    0    0    0  501 -0.00000000000E+00 -0.00000000000E+00 -0.21297871011E+02  0.21297871011E+02  0.00000000000E+00 0. -1.
         25    1    1    2    0    0  0.22491837209E+02 -0.55272132502E+02  0.42465836872E+03  0.44530396528E+03  0.12000000000E+03 0.  0.
         25    1    1    2    0    0 -0.22491837209E+02  0.55272132502E+02  0.39815413794E+03  0.42010428340E+03  0.12000000000E+03 0.  0.
<mgrwt>
<rscale>  0 0.26816229E+03</rscale>
<asrwt>0</asrwt>
<pdfrwt beam="1">  1        2 0.12986311E+00 0.26816229E+03</pdfrwt>
<pdfrwt beam="2">  1       -2 0.32765962E-02 0.26816229E+03</pdfrwt>
<totfact> 0.12225233E+04</totfact>
</mgrwt>
</event>
<event>
 4    1  0.1762274E-004  0.2662281E+03  0.7818608E-02  0.1103458E+00
         -2   -1    0    0    0  501 -0.00000000000E+00  0.00000000000E+00  0.31475205289E+02  0.31475205289E+02  0.00000000000E+00 0.  1.
          2   -1    0    0  501    0  0.00000000000E+00 -0.00000000000E+00 -0.56296211346E+03  0.56296211346E+03  0.00000000000E+00 0.  1.
         25    1    1    2    0    0 -0.22933797669E+02 -0.39114586029E+02 -0.18637842155E+03  0.22625831683E+03  0.12000000000E+03 0.  0.
         25    1    1    2    0    0  0.22933797669E+02  0.39114586029E+02 -0.34510848662E+03  0.36817900191E+03  0.12000000000E+03 0.  0.
<mgrwt>
<rscale>  0 0.26622808E+03</rscale>
<asrwt>0</asrwt>
<pdfrwt beam="1">  1        2 0.86609545E-01 0.26622808E+03</pdfrwt>
<pdfrwt beam="2">  1       -2 0.48423399E-02 0.26622808E+03</pdfrwt>
<totfact> 0.11097534E+04</totfact>
</mgrwt>
</event>
<event>
 4    1  0.1762274E-004  0.2632306E+03  0.7818608E-02  0.1105218E+00
         -1   -1    0    0    0  501 -0.00000000000E+00  0.00000000000E+00  0.94916205803E+01  0.94916205803E+01  0.00000000000E+00 0.  1.
          1   -1    0    0  501    0  0.00000000000E+00 -0.00000000000E+00 -0.18250406779E+04  0.18250406779E+04  0.00000000000E+00 0.  1.
         25    1    1    2    0    0  0.14978643451E+02  0.51532426094E+02 -0.95328513003E+03  0.96230581929E+03  0.12000000000E+03 0.  0.
         25    1    1    2    0    0 -0.14978643451E+02 -0.51532426094E+02 -0.86226392725E+03  0.87222647916E+03  0.12000000000E+03 0.  0.
<mgrwt>
<rscale>  0 0.26323065E+03</rscale>
<asrwt>0</asrwt>
<pdfrwt beam="1">  1        1 0.28077552E+00 0.26323065E+03</pdfrwt>
<pdfrwt beam="2">  1       -1 0.14602492E-02 0.26323065E+03</pdfrwt>
<totfact> 0.47555469E+03</totfact>
</mgrwt>
</event>
<event>
 4    1  0.1762274E-004  0.3029395E+03  0.7818608E-02  0.1083780E+00
          1   -1    0    0  501    0  0.00000000000E+00  0.00000000000E+00  0.89995108955E+03  0.89995108955E+03  0.00000000000E+00 0.  1.
         -1   -1    0    0    0  501 -0.00000000000E+00 -0.00000000000E+00 -0.25493695253E+02  0.25493695253E+02  0.00000000000E+00 0.  1.
         25    1    1    2    0    0  0.36891609581E+02 -0.81673204393E+00  0.69610950735E+03  0.70734016155E+03  0.12000000000E+03 0.  0.
         25    1    1    2    0    0 -0.36891609581E+02  0.81673204393E+00  0.17834788695E+03  0.21810462326E+03  0.12000000000E+03 0.  0.
<mgrwt>
<rscale>  0 0.30293946E+03</rscale>
<asrwt>0</asrwt>
<pdfrwt beam="1">  1        1 0.13845399E+00 0.30293946E+03</pdfrwt>
<pdfrwt beam="2">  1       -1 0.39221077E-02 0.30293946E+03</pdfrwt>
<totfact> 0.48434412E+03</totfact>
</mgrwt>
</event>
<event>
 4    1  0.1762274E-004  0.2567517E+03  0.7818608E-02  0.1109111E+00
         -2   -1    0    0    0  501 -0.00000000000E+00  0.00000000000E+00  0.18141015103E+02  0.18141015103E+02  0.00000000000E+00 0.  1.
          2   -1    0    0  501    0  0.00000000000E+00 -0.00000000000E+00 -0.90845830903E+03  0.90845830903E+03  0.00000000000E+00 0.  1.
         25    1    1    2    0    0  0.77975259574E+01 -0.42994969384E+02 -0.39796751824E+03  0.41795635464E+03  0.12000000000E+03 0.  0.
         25    1    1    2    0    0 -0.77975259574E+01  0.42994969384E+02 -0.49234977568E+03  0.50864296949E+03  0.12000000000E+03 0.  0.
<mgrwt>
<rscale>  0 0.25675168E+03</rscale>
<asrwt>0</asrwt>
<pdfrwt beam="1">  1        2 0.13976282E+00 0.25675168E+03</pdfrwt>
<pdfrwt beam="2">  1       -2 0.27909252E-02 0.25675168E+03</pdfrwt>
<totfact> 0.14061794E+04</totfact>
</mgrwt>
</event>
<event>
 4    1  0.1762274E-004  0.2820536E+03  0.7818608E-02  0.1094573E+00
          1   -1    0    0  501    0  0.00000000000E+00  0.00000000000E+00  0.19205362603E+04  0.19205362603E+04  0.00000000000E+00 0.  1.
         -1   -1    0    0    0  501 -0.00000000000E+00 -0.00000000000E+00 -0.10355730874E+02  0.10355730874E+02  0.00000000000E+00 0.  1.
         25    1    1    2    0    0  0.20748754057E+02 -0.14343016952E+02  0.14319616194E+04  0.14372022517E+04  0.12000000000E+03 0.  0.
         25    1    1    2    0    0 -0.20748754057E+02  0.14343016952E+02  0.47821890999E+03  0.49368973942E+03  0.12000000000E+03 0.  0.
<mgrwt>
<rscale>  0 0.28205359E+03</rscale>
<asrwt>0</asrwt>
<pdfrwt beam="1">  1        1 0.29546683E+00 0.28205359E+03</pdfrwt>
<pdfrwt beam="2">  1       -1 0.15931909E-02 0.28205359E+03</pdfrwt>
<totfact> 0.36319632E+03</totfact>
</mgrwt>
</event>
<event>
 4    1  0.1762274E-004  0.2784006E+03  0.7818608E-02  0.1096566E+00
          2   -1    0    0  501    0  0.00000000000E+00  0.00000000000E+00  0.41315837730E+03  0.41315837730E+03  0.00000000000E+00 0. -1.
         -2   -1    0    0    0  501 -0.00000000000E+00 -0.00000000000E+00 -0.46899020869E+02  0.46899020869E+02  0.00000000000E+00 0. -1.
         25    1    1    2    0    0  0.44727516540E+02  0.42588437693E+02  0.23946998478E+03  0.27488215542E+03  0.12000000000E+03 0.  0.
         25    1    1    2    0    0 -0.44727516540E+02 -0.42588437693E+02  0.12678937165E+03  0.18517524274E+03  0.12000000000E+03 0.  0.
<mgrwt>
<rscale>  0 0.27840060E+03</rscale>
<asrwt>0</asrwt>
<pdfrwt beam="1">  1        2 0.63562825E-01 0.27840060E+03</pdfrwt>
<pdfrwt beam="2">  1       -2 0.72152343E-02 0.27840060E+03</pdfrwt>
<totfact> 0.85128247E+03</totfact>
</mgrwt>
</event>
<event>
 4    1  0.1762274E-004  0.3690681E+03  0.7818608E-02  0.1055050E+00
          1   -1    0    0  501    0  0.00000000000E+00  0.00000000000E+00  0.26692664506E+02  0.26692664506E+02  0.00000000000E+00 0. -1.
         -1   -1    0    0    0  501 -0.00000000000E+00 -0.00000000000E+00 -0.12757369521E+04  0.12757369521E+04  0.00000000000E+00 0. -1.
         25    1    1    2    0    0 -0.86705035026E+02 -0.10785217939E+03 -0.70366571666E+03  0.72711436274E+03  0.12000000000E+03 0.  0.
         25    1    1    2    0    0  0.86705035026E+02  0.10785217939E+03 -0.54537857095E+03  0.57531525389E+03  0.12000000000E+03 0.  0.
<mgrwt>
<rscale>  0 0.36906812E+03</rscale>
<asrwt>0</asrwt>
<pdfrwt beam="1">  1        1 0.41065635E-02 0.36906812E+03</pdfrwt>
<pdfrwt beam="2">  1       -1 0.19626724E+00 0.36906812E+03</pdfrwt>
<totfact> 0.38713114E+02</totfact>
</mgrwt>
</event>
<event>
 4    1  0.1762274E-004  0.3790844E+03  0.7818608E-02  0.1051273E+00
          2   -1    0    0  501    0  0.00000000000E+00  0.00000000000E+00  0.52001541916E+03  0.52001541916E+03  0.00000000000E+00 0.  1.
         -2   -1    0    0    0  501 -0.00000000000E+00 -0.00000000000E+00 -0.69086875512E+02  0.69086875512E+02  0.00000000000E+00 0.  1.
         25    1    1    2    0    0 -0.92630419259E+02 -0.48778251353E+01  0.48811446656E+02  0.15933218468E+03  0.12000000000E+03 0.  0.
         25    1    1    2    0    0  0.92630419259E+02  0.48778251353E+01  0.40211709699E+03  0.42977010999E+03  0.12000000000E+03 0.  0.
<mgrwt>
<rscale>  0 0.37908437E+03</rscale>
<asrwt>0</asrwt>
<pdfrwt beam="1">  1        2 0.80002369E-01 0.37908437E+03</pdfrwt>
<pdfrwt beam="2">  1       -2 0.10628750E-01 0.37908437E+03</pdfrwt>
<totfact> 0.36010684E+03</totfact>
</mgrwt>
</event>
<event>
 4    1  0.1762274E-004  0.4013737E+03  0.7818608E-02  0.1043305E+00
         -2   -1    0    0    0  501 -0.00000000000E+00  0.00000000000E+00  0.16664895700E+02  0.16664895700E+02  0.00000000000E+00 0. -1.
          2   -1    0    0  501    0  0.00000000000E+00 -0.00000000000E+00 -0.24167693403E+04  0.24167693403E+04  0.00000000000E+00 0. -1.
         25    1    1    2    0    0  0.13731198144E+03  0.80109686133E+02 -0.10511663555E+04  0.10698704824E+04  0.12000000000E+03 0.  0.
         25    1    1    2    0    0 -0.13731198144E+03 -0.80109686133E+02 -0.13489380891E+04  0.13635637536E+04  0.12000000000E+03 0.  0.
<mgrwt>
<rscale>  0 0.40137369E+03</rscale>
<asrwt>0</asrwt>
<pdfrwt beam="1">  1        2 0.37181042E+00 0.40137369E+03</pdfrwt>
<pdfrwt beam="2">  1       -2 0.25638318E-02 0.40137369E+03</pdfrwt>
<totfact> 0.23603308E+03</totfact>
</mgrwt>
</event>
<event>
 4    1  0.1762274E-004  0.3300948E+03  0.7818608E-02  0.1071095E+00
         -3   -1    0    0    0  501 -0.00000000000E+00  0.00000000000E+00  0.33656275352E+03  0.33656275352E+03  0.00000000000E+00 0.  1.
          3   -1    0    0  501    0  0.00000000000E+00 -0.00000000000E+00 -0.80937774628E+02  0.80937774628E+02  0.00000000000E+00 0.  1.
         25    1    1    2    0    0 -0.39370032920E+02  0.52655069591E+02  0.24454433408E+03  0.28022221036E+03  0.12000000000E+03 0.  0.
         25    1    1    2    0    0  0.39370032920E+02 -0.52655069591E+02  0.11080644807E+02  0.13727831779E+03  0.12000000000E+03 0.  0.
<mgrwt>
<rscale>  0 0.33009478E+03</rscale>
<asrwt>0</asrwt>
<pdfrwt beam="1">  1        3 0.12451965E-01 0.33009478E+03</pdfrwt>
<pdfrwt beam="2">  1       -3 0.51778885E-01 0.33009478E+03</pdfrwt>
<totfact> 0.49019822E+02</totfact>
</mgrwt>
</event>
<event>
 4    1  0.1762274E-004  0.2625336E+03  0.7818608E-02  0.1105630E+00
          1   -1    0    0  501    0  0.00000000000E+00  0.00000000000E+00  0.20564564150E+02  0.20564564150E+02  0.00000000000E+00 0.  1.
         -1   -1    0    0    0  501 -0.00000000000E+00 -0.00000000000E+00 -0.83789634544E+03  0.83789634544E+03  0.00000000000E+00 0.  1.
         25    1    1    2    0    0 -0.25951949150E+02 -0.32258369314E+02 -0.51794480530E+03  0.53327378278E+03  0.12000000000E+03 0.  0.
         25    1    1    2    0    0  0.25951949150E+02  0.32258369314E+02 -0.29938697599E+03  0.32518712682E+03  0.12000000000E+03 0.  0.
<mgrwt>
<rscale>  0 0.26253360E+03</rscale>
<asrwt>0</asrwt>
<pdfrwt beam="1">  1        1 0.31637790E-02 0.26253360E+03</pdfrwt>
<pdfrwt beam="2">  1       -1 0.12890713E+00 0.26253360E+03</pdfrwt>
<totfact> 0.17541475E+03</totfact>
</mgrwt>
</event>
<event>
 4    1  0.1762274E-004  0.3104805E+03  0.7818608E-02  0.1080116E+00
          2   -1    0    0  501    0  0.00000000000E+00  0.00000000000E+00  0.25686714920E+03  0.25686714920E+03  0.00000000000E+00 0. -1.
         -2   -1    0    0    0  501 -0.00000000000E+00 -0.00000000000E+00 -0.93821009006E+02  0.93821009006E+02  0.00000000000E+00 0. -1.
         25    1    1    2    0    0 -0.13787973592E+00  0.37377357690E+02  0.18444072636E+03  0.22319378893E+03  0.12000000000E+03 0.  0.
         25    1    1    2    0    0  0.13787973592E+00 -0.37377357690E+02 -0.21394586166E+02  0.12749436927E+03  0.12000000000E+03 0.  0.
<mgrwt>
<rscale>  0 0.31048050E+03</rscale>
<asrwt>0</asrwt>
<pdfrwt beam="1">  1        2 0.39518023E-01 0.31048050E+03</pdfrwt>
<pdfrwt beam="2">  1       -2 0.14434001E-01 0.31048050E+03</pdfrwt>
<totfact> 0.47203650E+03</totfact>
</mgrwt>
</event>
<event>
 4    1  0.1762274E-004  0.2854855E+03  0.7818608E-02  0.1092730E+00
         -2   -1    0    0    0  501 -0.00000000000E+00  0.00000000000E+00  0.32723048880E+02  0.32723048880E+02  0.00000000000E+00 0.  1.
          2   -1    0    0  501    0  0.00000000000E+00 -0.00000000000E+00 -0.62266474446E+03  0.62266474446E+03  0.00000000000E+00 0.  1.
         25    1    1    2    0    0  0.55068062447E+02  0.27977147364E+02 -0.40167197658E+03  0.42374000171E+03  0.12000000000E+03 0.  0.
         25    1    1    2    0    0 -0.55068062447E+02 -0.27977147364E+02 -0.18826971900E+03  0.23164779163E+03  0.12000000000E+03 0.  0.
<mgrwt>
<rscale>  0 0.28548547E+03</rscale>
<asrwt>0</asrwt>
<pdfrwt beam="1">  1        2 0.95794569E-01 0.28548547E+03</pdfrwt>
<pdfrwt beam="2">  1       -2 0.50343156E-02 0.28548547E+03</pdfrwt>
<totfact> 0.93328150E+03</totfact>
</mgrwt>
</event>
<event>
 4    1  0.1762274E-004  0.4203585E+03  0.7818608E-02  0.1036950E+00
          2   -1    0    0  501    0  0.00000000000E+00  0.00000000000E+00  0.89889483694E+02  0.89889483694E+02  0.00000000000E+00 0.  1.
         -2   -1    0    0    0  501 -0.00000000000E+00 -0.00000000000E+00 -0.49144024173E+03  0.49144024173E+03  0.00000000000E+00 0.  1.
         25    1    1    2    0    0 -0.12296845245E+03 -0.77504961908E+01 -0.36784207800E+03  0.40606539477E+03  0.12000000000E+03 0.  0.
         25    1    1    2    0    0  0.12296845245E+03  0.77504961908E+01 -0.33708680044E+02  0.17526433065E+03  0.12000000000E+03 0.  0.
<mgrwt>
<rscale>  0 0.42035846E+03</rscale>
<asrwt>0</asrwt>
<pdfrwt beam="1">  1        2 0.13829151E-01 0.42035846E+03</pdfrwt>
<pdfrwt beam="2">  1       -2 0.75606191E-01 0.42035846E+03</pdfrwt>
<totfact> 0.69795468E+02</totfact>
</mgrwt>
</event>
<event>
 4    1  0.1762274E-004  0.2931673E+03  0.7818608E-02  0.1088707E+00
         -1   -1    0    0    0  501 -0.00000000000E+00  0.00000000000E+00  0.15625177349E+03  0.15625177349E+03  0.00000000000E+00 0.  1.
          1   -1    0    0  501    0  0.00000000000E+00 -0.00000000000E+00 -0.13751372085E+03  0.13751372085E+03  0.00000000000E+00 0.  1.
         25    1    1    2    0    0 -0.37562294841E+02 -0.70678017213E+02  0.35507780586E+02  0.14855002724E+03  0.12000000000E+03 0.  0.
         25    1    1    2    0    0  0.37562294841E+02  0.70678017213E+02 -0.16769727947E+02  0.14521546710E+03  0.12000000000E+03 0.  0.
<mgrwt>
<rscale>  0 0.29316727E+03</rscale>
<asrwt>0</asrwt>
<pdfrwt beam="1">  1        1 0.21155957E-01 0.29316727E+03</pdfrwt>
<pdfrwt beam="2">  1       -1 0.24038734E-01 0.29316727E+03</pdfrwt>
<totfact> 0.35198303E+03</totfact>
</mgrwt>
</event>
<event>
 4    1  0.1762274E-004  0.3451497E+03  0.7818608E-02  0.1064624E+00
         -3   -1    0    0    0  501 -0.00000000000E+00  0.00000000000E+00  0.16712081520E+04  0.16712081520E+04  0.00000000000E+00 0.  1.
          3   -1    0    0  501    0  0.00000000000E+00 -0.00000000000E+00 -0.17820692706E+02  0.17820692706E+02  0.00000000000E+00 0.  1.
         25    1    1    2    0    0  0.41716230059E+02 -0.45780839960E+02  0.13525226756E+04  0.13592474820E+04  0.12000000000E+03 0.  0.
         25    1    1    2    0    0 -0.41716230059E+02  0.45780839960E+02  0.30086478368E+03  0.32978136274E+03  0.12000000000E+03 0.  0.
<mgrwt>
<rscale>  0 0.34514975E+03</rscale>
<asrwt>0</asrwt>
<pdfrwt beam="1">  1        3 0.27416464E-02 0.34514975E+03</pdfrwt>
<pdfrwt beam="2">  1       -3 0.25710882E+00 0.34514975E+03</pdfrwt>
<totfact> 0.11183757E+02</totfact>
</mgrwt>
</event>
<event>
 4    1  0.1762274E-004  0.2846045E+03  0.7818608E-02  0.1093200E+00
          1   -1    0    0  501    0  0.00000000000E+00  0.00000000000E+00  0.48547594778E+03  0.48547594778E+03  0.00000000000E+00 0.  1.
         -1   -1    0    0    0  501 -0.00000000000E+00 -0.00000000000E+00 -0.41711513419E+02  0.41711513419E+02  0.00000000000E+00 0.  1.
         25    1    1    2    0    0 -0.75653878988E+02 -0.50759302029E+01  0.24046694052E+03  0.27923757619E+03  0.12000000000E+03 0.  0.
         25    1    1    2    0    0  0.75653878988E+02  0.50759302029E+01  0.20329749384E+03  0.24794988501E+03  0.12000000000E+03 0.  0.
<mgrwt>
<rscale>  0 0.28460454E+03</rscale>
<asrwt>0</asrwt>
<pdfrwt beam="1">  1        1 0.74688603E-01 0.28460454E+03</pdfrwt>
<pdfrwt beam="2">  1       -1 0.64171563E-02 0.28460454E+03</pdfrwt>
<totfact> 0.56479480E+03</totfact>
</mgrwt>
</event>
<event>
 4    1  0.1762274E-004  0.2743346E+03  0.7818608E-02  0.1098824E+00
         -2   -1    0    0    0  501 -0.00000000000E+00  0.00000000000E+00  0.70071855350E+01  0.70071855350E+01  0.00000000000E+00 0. -1.
          2   -1    0    0  501    0  0.00000000000E+00 -0.00000000000E+00 -0.26850814556E+04  0.26850814556E+04  0.00000000000E+00 0. -1.
         25    1    1    2    0    0  0.28497024909E+02  0.28637695905E+02 -0.18566908682E+04  0.18610032720E+04  0.12000000000E+03 0.  0.
         25    1    1    2    0    0 -0.28497024909E+02 -0.28637695905E+02 -0.82138340178E+03  0.83108536913E+03  0.12000000000E+03 0.  0.
<mgrwt>
<rscale>  0 0.27433457E+03</rscale>
<asrwt>0</asrwt>
<pdfrwt beam="1">  1        2 0.41309048E+00 0.27433457E+03</pdfrwt>
<pdfrwt beam="2">  1       -2 0.10780259E-02 0.27433457E+03</pdfrwt>
<totfact> 0.60508741E+03</totfact>
</mgrwt>
</event>
<event>
 4    1  0.1762274E-004  0.2468129E+03  0.7818608E-02  0.1115336E+00
         -3   -1    0    0    0  501 -0.00000000000E+00  0.00000000000E+00  0.14827759467E+02  0.14827759467E+02  0.00000000000E+00 0. -1.
          3   -1    0    0  501    0  0.00000000000E+00 -0.00000000000E+00 -0.10270704233E+04  0.10270704233E+04  0.00000000000E+00 0. -1.
         25    1    1    2    0    0  0.20294528127E+02 -0.17610870119E+02 -0.54981700618E+03  0.56340105689E+03  0.12000000000E+03 0.  0.
         25    1    1    2    0    0 -0.20294528127E+02  0.17610870119E+02 -0.46242565762E+03  0.47849712585E+03  0.12000000000E+03 0.  0.
<mgrwt>
<rscale>  0 0.24681291E+03</rscale>
<asrwt>0</asrwt>
<pdfrwt beam="1">  1        3 0.15801085E+00 0.24681291E+03</pdfrwt>
<pdfrwt beam="2">  1       -3 0.22811936E-02 0.24681291E+03</pdfrwt>
<totfact> 0.58825869E+02</totfact>
</mgrwt>
</event>
<event>
 4    1  0.1762274E-004  0.2440357E+03  0.7818608E-02  0.1117133E+00
          2   -1    0    0  501    0  0.00000000000E+00  0.00000000000E+00  0.32117432949E+02  0.32117432949E+02  0.00000000000E+00 0.  1.
         -2   -1    0    0    0  501 -0.00000000000E+00 -0.00000000000E+00 -0.46356008222E+03  0.46356008222E+03  0.00000000000E+00 0.  1.
         25    1    1    2    0    0 -0.15622790495E+02  0.11092785223E+02 -0.19335648039E+03  0.22837217426E+03  0.12000000000E+03 0.  0.
         25    1    1    2    0    0  0.15622790495E+02 -0.11092785223E+02 -0.23808616887E+03  0.26730534090E+03  0.12000000000E+03 0.  0.
<mgrwt>
<rscale>  0 0.24403573E+03</rscale>
<asrwt>0</asrwt>
<pdfrwt beam="1">  1        2 0.49411432E-02 0.24403573E+03</pdfrwt>
<pdfrwt beam="2">  1       -2 0.71316940E-01 0.24403573E+03</pdfrwt>
<totfact> 0.29006783E+03</totfact>
</mgrwt>
</event>
<event>
 4    1  0.1762274E-004  0.2430544E+03  0.7818608E-02  0.1117775E+00
          1   -1    0    0  501    0  0.00000000000E+00  0.00000000000E+00  0.33201143749E+03  0.33201143749E+03  0.00000000000E+00 0. -1.
         -1   -1    0    0    0  501 -0.00000000000E+00 -0.00000000000E+00 -0.44482986054E+02  0.44482986054E+02  0.00000000000E+00 0. -1.
         25    1    1    2    0    0 -0.14860770719E+02 -0.16434753836E+01  0.12509128509E+03  0.17398670387E+03  0.12000000000E+03 0.  0.
         25    1    1    2    0    0  0.14860770719E+02  0.16434753836E+01  0.16243716635E+03  0.20250771968E+03  0.12000000000E+03 0.  0.
<mgrwt>
<rscale>  0 0.24305440E+03</rscale>
<asrwt>0</asrwt>
<pdfrwt beam="1">  1        1 0.51078681E-01 0.24305440E+03</pdfrwt>
<pdfrwt beam="2">  1       -1 0.68435365E-02 0.24305440E+03</pdfrwt>
<totfact> 0.83033089E+03</totfact>
</mgrwt>
</event>
<event>
 4    1  0.1762274E-004  0.2655766E+03  0.7818608E-02  0.1103838E+00
          2   -1    0    0  501    0  0.00000000000E+00  0.00000000000E+00  0.29508384050E+04  0.29508384050E+04  0.00000000000E+00 0.  1.
         -2   -1    0    0    0  501 -0.00000000000E+00 -0.00000000000E+00 -0.59755003579E+01  0.59755003579E+01  0.00000000000E+00 0.  1.
         25    1    1    2    0    0  0.54839230003E+02 -0.15013014317E+02  0.14731529112E+04  0.14791254955E+04  0.12000000000E+03 0.  0.
         25    1    1    2    0    0 -0.54839230003E+02  0.15013014317E+02  0.14717099935E+04  0.14776884099E+04  0.12000000000E+03 0.  0.
<mgrwt>
<rscale>  0 0.26557663E+03</rscale>
<asrwt>0</asrwt>
<pdfrwt beam="1">  1        2 0.45397398E+00 0.26557663E+03</pdfrwt>
<pdfrwt beam="2">  1       -2 0.91931010E-03 0.26557663E+03</pdfrwt>
<totfact> 0.53696523E+03</totfact>
</mgrwt>
</event>
<event>
 4    1  0.1762274E-004  0.2750572E+03  0.7818608E-02  0.1098420E+00
          1   -1    0    0  501    0  0.00000000000E+00  0.00000000000E+00  0.17907252505E+04  0.17907252505E+04  0.00000000000E+00 0.  1.
         -1   -1    0    0    0  501 -0.00000000000E+00 -0.00000000000E+00 -0.10562265103E+02  0.10562265103E+02  0.00000000000E+00 0.  1.
         25    1    1    2    0    0 -0.49609240073E+02 -0.14230587618E+02  0.60836782263E+03  0.62223387398E+03  0.12000000000E+03 0.  0.
         25    1    1    2    0    0  0.49609240073E+02  0.14230587618E+02  0.11717951628E+04  0.11790536416E+04  0.12000000000E+03 0.  0.
<mgrwt>
<rscale>  0 0.27505719E+03</rscale>
<asrwt>0</asrwt>
<pdfrwt beam="1">  1        1 0.27549595E+00 0.27505719E+03</pdfrwt>
<pdfrwt beam="2">  1       -1 0.16249653E-02 0.27505719E+03</pdfrwt>
<totfact> 0.42854410E+03</totfact>
</mgrwt>
</event>
<event>
 4    1  0.1762274E-004  0.2658849E+03  0.7818608E-02  0.1103658E+00
          3   -1    0    0  501    0  0.00000000000E+00  0.00000000000E+00  0.17637685705E+03  0.17637685705E+03  0.00000000000E+00 0. -1.
         -3   -1    0    0    0  501 -0.00000000000E+00 -0.00000000000E+00 -0.10020415532E+03  0.10020415532E+03  0.00000000000E+00 0. -1.
         25    1    1    2    0    0 -0.14736205926E+02 -0.29839149068E+02  0.86500723373E+02  0.15162422539E+03  0.12000000000E+03 0.  0.
         25    1    1    2    0    0  0.14736205926E+02  0.29839149068E+02 -0.10328021639E+02  0.12495678698E+03  0.12000000000E+03 0.  0.
<mgrwt>
<rscale>  0 0.26588489E+03</rscale>
<asrwt>0</asrwt>
<pdfrwt beam="1">  1        3 0.27134901E-01 0.26588489E+03</pdfrwt>
<pdfrwt beam="2">  1       -3 0.15416024E-01 0.26588489E+03</pdfrwt>
<totfact> 0.11603865E+03</totfact>
</mgrwt>
</event>
<event>
 4    1  0.1762274E-004  0.2497811E+03  0.7818608E-02  0.1113443E+00
          2   -1    0    0  501    0  0.00000000000E+00  0.00000000000E+00  0.66605192169E+03  0.66605192169E+03  0.00000000000E+00 0.  1.
         -2   -1    0    0    0  501 -0.00000000000E+00 -0.00000000000E+00 -0.23418061714E+02  0.23418061714E+02  0.00000000000E+00 0.  1.
         25    1    1    2    0    0 -0.32622254293E+02  0.36688098609E+01  0.29108274450E+03  0.31655463317E+03  0.12000000000E+03 0.  0.
         25    1    1    2    0    0  0.32622254293E+02 -0.36688098609E+01  0.35155111548E+03  0.37291535023E+03  0.12000000000E+03 0.  0.
<mgrwt>
<rscale>  0 0.24978106E+03</rscale>
<asrwt>0</asrwt>
<pdfrwt beam="1">  1        2 0.10246951E+00 0.24978106E+03</pdfrwt>
<pdfrwt beam="2">  1       -2 0.36027792E-02 0.24978106E+03</pdfrwt>
<totfact> 0.14196993E+04</totfact>
</mgrwt>
</event>
<event>
 4    1  0.1762274E-004  0.4349424E+03  0.7818608E-02  0.1032310E+00
         -2   -1    0    0    0  501 -0.00000000000E+00  0.00000000000E+00  0.24559560750E+03  0.24559560750E+03  0.00000000000E+00 0.  1.
          2   -1    0    0  501    0  0.00000000000E+00 -0.00000000000E+00 -0.19256750057E+03  0.19256750057E+03  0.00000000000E+00 0.  1.
         25    1    1    2    0    0  0.12674550019E+03 -0.80446111552E+02 -0.76012506776E+02  0.20667341355E+03  0.12000000000E+03 0.  0.
         25    1    1    2    0    0 -0.12674550019E+03  0.80446111552E+02  0.12904061371E+03  0.23148969452E+03  0.12000000000E+03 0.  0.
<mgrwt>
<rscale>  0 0.43494244E+03</rscale>
<asrwt>0</asrwt>
<pdfrwt beam="1">  1        2 0.29625769E-01 0.43494244E+03</pdfrwt>
<pdfrwt beam="2">  1       -2 0.37783940E-01 0.43494244E+03</pdfrwt>
<totfact> 0.11905557E+03</totfact>
</mgrwt>
</event>
<event>
 4    1  0.1762274E-004  0.2997058E+03  0.7818608E-02  0.1085388E+00
         -2   -1    0    0    0  501 -0.00000000000E+00  0.00000000000E+00  0.23892693744E+02  0.23892693744E+02  0.00000000000E+00 0.  1.
          2   -1    0    0  501    0  0.00000000000E+00 -0.00000000000E+00 -0.93986423006E+03  0.93986423006E+03  0.00000000000E+00 0.  1.
         25    1    1    2    0    0 -0.46198620655E+02 -0.54532613469E+01 -0.70481567566E+03  0.71646994862E+03  0.12000000000E+03 0.  0.
         25    1    1    2    0    0  0.46198620655E+02  0.54532613469E+01 -0.21115586066E+03  0.24728697519E+03  0.12000000000E+03 0.  0.
<mgrwt>
<rscale>  0 0.29970578E+03</rscale>
<asrwt>0</asrwt>
<pdfrwt beam="1">  1        2 0.14459452E+00 0.29970578E+03</pdfrwt>
<pdfrwt beam="2">  1       -2 0.36757985E-02 0.29970578E+03</pdfrwt>
<totfact> 0.89474323E+03</totfact>
</mgrwt>
</event>
<event>
 4    1  0.1762274E-004  0.2675670E+03  0.7818608E-02  0.1102680E+00
         -2   -1    0    0    0  501 -0.00000000000E+00  0.00000000000E+00  0.78149935833E+02  0.78149935833E+02  0.00000000000E+00 0. -1.
          2   -1    0    0  501    0  0.00000000000E+00 -0.00000000000E+00 -0.22902166012E+03  0.22902166012E+03  0.00000000000E+00 0. -1.
         25    1    1    2    0    0 -0.61743194891E+01 -0.13388378627E+02 -0.96808459944E+01  0.12128928099E+03  0.12000000000E+03 0.  0.
         25    1    1    2    0    0  0.61743194891E+01  0.13388378627E+02 -0.14119087829E+03  0.18588231496E+03  0.12000000000E+03 0.  0.
<mgrwt>
<rscale>  0 0.26756702E+03</rscale>
<asrwt>0</asrwt>
<pdfrwt beam="1">  1        2 0.35234102E-01 0.26756702E+03</pdfrwt>
<pdfrwt beam="2">  1       -2 0.12023067E-01 0.26756702E+03</pdfrwt>
<totfact> 0.71680568E+03</totfact>
</mgrwt>
</event>
<event>
 4    1  0.1762274E-004  0.2817383E+03  0.7818608E-02  0.1094743E+00
         -2   -1    0    0    0  501 -0.00000000000E+00  0.00000000000E+00  0.60784189216E+01  0.60784189216E+01  0.00000000000E+00 0.  1.
          2   -1    0    0  501    0  0.00000000000E+00 -0.00000000000E+00 -0.32646846174E+04  0.32646846174E+04  0.00000000000E+00 0.  1.
         25    1    1    2    0    0 -0.11883169281E+02  0.70936012043E+02 -0.18204126446E+04  0.18257807437E+04  0.12000000000E+03 0.  0.
         25    1    1    2    0    0  0.11883169281E+02 -0.70936012043E+02 -0.14381935539E+04  0.14449822926E+04  0.12000000000E+03 0.  0.
<mgrwt>
<rscale>  0 0.28173832E+03</rscale>
<asrwt>0</asrwt>
<pdfrwt beam="1">  1        2 0.50225872E+00 0.28173832E+03</pdfrwt>
<pdfrwt beam="2">  1       -2 0.93514221E-03 0.28173832E+03</pdfrwt>
<totfact> 0.33760319E+03</totfact>
</mgrwt>
</event>
<event>
 4    1  0.1762274E-004  0.2914379E+03  0.7818608E-02  0.1089601E+00
          2   -1    0    0  501    0  0.00000000000E+00  0.00000000000E+00  0.82253932699E+03  0.82253932699E+03  0.00000000000E+00 0. -1.
         -2   -1    0    0    0  501 -0.00000000000E+00 -0.00000000000E+00 -0.25815185493E+02  0.25815185493E+02  0.00000000000E+00 0. -1.
         25    1    1    2    0    0 -0.69119953623E+02  0.29700025276E+02  0.29860827745E+03  0.33049442181E+03  0.12000000000E+03 0.  0.
         25    1    1    2    0    0  0.69119953623E+02 -0.29700025276E+02  0.49811586405E+03  0.51786009067E+03  0.12000000000E+03 0.  0.
<mgrwt>
<rscale>  0 0.29143785E+03</rscale>
<asrwt>0</asrwt>
<pdfrwt beam="1">  1        2 0.12654449E+00 0.29143785E+03</pdfrwt>
<pdfrwt beam="2">  1       -2 0.39715676E-02 0.29143785E+03</pdfrwt>
<totfact> 0.95014059E+03</totfact>
</mgrwt>
</event>
<event>
 4    1  0.1762274E-004  0.2733391E+03  0.7818608E-02  0.1099384E+00
          1   -1    0    0  501    0  0.00000000000E+00  0.00000000000E+00  0.29466400814E+02  0.29466400814E+02  0.00000000000E+00 0.  1.
         -1   -1    0    0    0  501 -0.00000000000E+00 -0.00000000000E+00 -0.63389349953E+03  0.63389349953E+03  0.00000000000E+00 0.  1.
         25    1    1    2    0    0  0.14074974463E+02 -0.79378585777E+01 -0.45603698863E+03  0.47183773641E+03  0.12000000000E+03 0.  0.
         25    1    1    2    0    0 -0.14074974463E+02  0.79378585777E+01 -0.14839011008E+03  0.19152216393E+03  0.12000000000E+03 0.  0.
<mgrwt>
<rscale>  0 0.27333906E+03</rscale>
<asrwt>0</asrwt>
<pdfrwt beam="1">  1        1 0.45332925E-02 0.27333906E+03</pdfrwt>
<pdfrwt beam="2">  1       -1 0.97522075E-01 0.27333906E+03</pdfrwt>
<totfact> 0.20314174E+03</totfact>
</mgrwt>
</event>
<event>
 4    1  0.1762274E-004  0.2492087E+03  0.7818608E-02  0.1113806E+00
         -2   -1    0    0    0  501 -0.00000000000E+00  0.00000000000E+00  0.13612318034E+02  0.13612318034E+02  0.00000000000E+00 0. -1.
          2   -1    0    0  501    0  0.00000000000E+00 -0.00000000000E+00 -0.11406024844E+04  0.11406024844E+04  0.00000000000E+00 0. -1.
         25    1    1    2    0    0  0.28161805097E+02  0.11396612365E+02 -0.62952854564E+03  0.64158332258E+03  0.12000000000E+03 0.  0.
         25    1    1    2    0    0 -0.28161805097E+02 -0.11396612365E+02 -0.49746162072E+03  0.51263147985E+03  0.12000000000E+03 0.  0.
<mgrwt>
<rscale>  0 0.24920870E+03</rscale>
<asrwt>0</asrwt>
<pdfrwt beam="1">  1        2 0.17547732E+00 0.24920870E+03</pdfrwt>
<pdfrwt beam="2">  1       -2 0.20942026E-02 0.24920870E+03</pdfrwt>
<totfact> 0.15525299E+04</totfact>
</mgrwt>
</event>
<event>
 4    1  0.1762274E-004  0.2814433E+03  0.7818608E-02  0.1094903E+00
          1   -1    0    0  501    0  0.00000000000E+00  0.00000000000E+00  0.65178399554E+03  0.65178399554E+03  0.00000000000E+00 0.  1.
         -1   -1    0    0    0  501 -0.00000000000E+00 -0.00000000000E+00 -0.30382131413E+02  0.30382131413E+02  0.00000000000E+00 0.  1.
         25    1    1    2    0    0  0.59865814280E+02 -0.37877662936E+02  0.26320693161E+03  0.29781961305E+03  0.12000000000E+03 0.  0.
         25    1    1    2    0    0 -0.59865814280E+02  0.37877662936E+02  0.35819493251E+03  0.38434651390E+03  0.12000000000E+03 0.  0.
<mgrwt>
<rscale>  0 0.28144333E+03</rscale>
<asrwt>0</asrwt>
<pdfrwt beam="1">  1        1 0.10027445E+00 0.28144333E+03</pdfrwt>
<pdfrwt beam="2">  1       -1 0.46741745E-02 0.28144333E+03</pdfrwt>
<totfact> 0.60771196E+03</totfact>
</mgrwt>
</event>
<event>
 4    1  0.1762274E-004  0.3645488E+03  0.7818608E-02  0.1056797E+00
         -1   -1    0    0    0  501 -0.00000000000E+00  0.00000000000E+00  0.54951756637E+02  0.54951756637E+02  0.00000000000E+00 0.  1.
          1   -1    0    0  501    0  0.00000000000E+00 -0.00000000000E+00 -0.60460234909E+03  0.60460234909E+03  0.00000000000E+00 0.  1.
         25    1    1    2    0    0 -0.93500761109E+02 -0.52738550215E+02 -0.12024201295E+03  0.20095245379E+03  0.12000000000E+03 0.  0.
         25    1    1    2    0    0  0.93500761109E+02  0.52738550215E+02 -0.42940857950E+03  0.45860165193E+03  0.12000000000E+03 0.  0.
<mgrwt>
<rscale>  0 0.36454882E+03</rscale>
<asrwt>0</asrwt>
<pdfrwt beam="1">  1        1 0.93015741E-01 0.36454882E+03</pdfrwt>
<pdfrwt beam="2">  1       -1 0.84541168E-02 0.36454882E+03</pdfrwt>
<totfact> 0.27610009E+03</totfact>
</mgrwt>
</event>
<event>
 4    1  0.1762274E-004  0.2849324E+03  0.7818608E-02  0.1093025E+00
         -2   -1    0    0    0  501 -0.00000000000E+00  0.00000000000E+00  0.22822886206E+02  0.22822886206E+02  0.00000000000E+00 0. -1.
          2   -1    0    0  501    0  0.00000000000E+00 -0.00000000000E+00 -0.88931017864E+03  0.88931017864E+03  0.00000000000E+00 0. -1.
         25    1    1    2    0    0  0.30474979239E+02  0.21485590239E+02 -0.21834934563E+03  0.25192616316E+03  0.12000000000E+03 0.  0.
         25    1    1    2    0    0 -0.30474979239E+02 -0.21485590239E+02 -0.64813794680E+03  0.66020690168E+03  0.12000000000E+03 0.  0.
<mgrwt>
<rscale>  0 0.28493245E+03</rscale>
<asrwt>0</asrwt>
<pdfrwt beam="1">  1        2 0.13681698E+00 0.28493245E+03</pdfrwt>
<pdfrwt beam="2">  1       -2 0.35112126E-02 0.28493245E+03</pdfrwt>
<totfact> 0.10313691E+04</totfact>
</mgrwt>
</event>
<event>
 4    1  0.1762274E-004  0.3755264E+03  0.7818608E-02  0.1052600E+00
          2   -1    0    0  501    0  0.00000000000E+00  0.00000000000E+00  0.51625656724E+03  0.51625656724E+03  0.00000000000E+00 0. -1.
         -2   -1    0    0    0  501 -0.00000000000E+00 -0.00000000000E+00 -0.68289741950E+02  0.68289741950E+02  0.00000000000E+00 0. -1.
         25    1    1    2    0    0 -0.13780677903E+03 -0.43150215990E+02  0.22638395302E+03  0.29411280773E+03  0.12000000000E+03 0.  0.
         25    1    1    2    0    0  0.13780677903E+03  0.43150215990E+02  0.22158287227E+03  0.29043350146E+03  0.12000000000E+03 0.  0.
<mgrwt>
<rscale>  0 0.37552645E+03</rscale>
<asrwt>0</asrwt>
<pdfrwt beam="1">  1        2 0.79424085E-01 0.37552645E+03</pdfrwt>
<pdfrwt beam="2">  1       -2 0.10506114E-01 0.37552645E+03</pdfrwt>
<totfact> 0.36988822E+03</totfact>
</mgrwt>
</event>
<event>
 4    1  0.1762274E-004  0.2610565E+03  0.7818608E-02  0.1106510E+00
          2   -1    0    0  501    0  0.00000000000E+00  0.00000000000E+00  0.26249260894E+03  0.26249260894E+03  0.00000000000E+00 0. -1.
         -2   -1    0    0    0  501 -0.00000000000E+00 -0.00000000000E+00 -0.64907060585E+02  0.64907060585E+02  0.00000000000E+00 0. -1.
         25    1    1    2    0    0 -0.10566195534E+02 -0.81645049572E+01  0.36598378118E+02  0.12616554565E+03  0.12000000000E+03 0.  0.
         25    1    1    2    0    0  0.10566195534E+02  0.81645049572E+01  0.16098717024E+03  0.20123412387E+03  0.12000000000E+03 0.  0.
<mgrwt>
<rscale>  0 0.26105650E+03</rscale>
<asrwt>0</asrwt>
<pdfrwt beam="1">  1        2 0.40383478E-01 0.26105650E+03</pdfrwt>
<pdfrwt beam="2">  1       -2 0.99857018E-02 0.26105650E+03</pdfrwt>
<totfact> 0.83179599E+03</totfact>
</mgrwt>
</event>
<event>
 4    1  0.1762274E-004  0.2924136E+03  0.7818608E-02  0.1089096E+00
          1   -1    0    0  501    0  0.00000000000E+00  0.00000000000E+00  0.10607625464E+03  0.10607625464E+03  0.00000000000E+00 0. -1.
         -1   -1    0    0    0  501 -0.00000000000E+00 -0.00000000000E+00 -0.20151942758E+03  0.20151942758E+03  0.00000000000E+00 0. -1.
         25    1    1    2    0    0 -0.52828030949E+02 -0.18618324008E+02 -0.11289805122E+03  0.17402129988E+03  0.12000000000E+03 0.  0.
         25    1    1    2    0    0  0.52828030949E+02  0.18618324008E+02  0.17454878276E+02  0.13357438234E+03  0.12000000000E+03 0.  0.
<mgrwt>
<rscale>  0 0.29241358E+03</rscale>
<asrwt>0</asrwt>
<pdfrwt beam="1">  1        1 0.16319424E-01 0.29241358E+03</pdfrwt>
<pdfrwt beam="2">  1       -1 0.31002988E-01 0.29241358E+03</pdfrwt>
<totfact> 0.32110286E+03</totfact>
</mgrwt>
</event>
<event>
 4    1  0.1762274E-004  0.3433569E+03  0.7818608E-02  0.1065375E+00
         -1   -1    0    0    0  501 -0.00000000000E+00  0.00000000000E+00  0.17702445329E+03  0.17702445329E+03  0.00000000000E+00 0.  1.
          1   -1    0    0  501    0  0.00000000000E+00 -0.00000000000E+00 -0.16649390497E+03  0.16649390497E+03  0.00000000000E+00 0.  1.
         25    1    1    2    0    0 -0.40090096877E+02  0.14171529111E+02 -0.10996459190E+03  0.16822680992E+03  0.12000000000E+03 0.  0.
         25    1    1    2    0    0  0.40090096877E+02 -0.14171529111E+02  0.12049514021E+03  0.17529154834E+03  0.12000000000E+03 0.  0.
<mgrwt>
<rscale>  0 0.34335691E+03</rscale>
<asrwt>0</asrwt>
<pdfrwt beam="1">  1        1 0.25614447E-01 0.34335691E+03</pdfrwt>
<pdfrwt beam="2">  1       -1 0.27234531E-01 0.34335691E+03</pdfrwt>
<totfact> 0.22414354E+03</totfact>
</mgrwt>
</event>
<event>
 4    1  0.1762274E-004  0.2675424E+03  0.7818608E-02  0.1102694E+00
          2   -1    0    0  501    0  0.00000000000E+00  0.00000000000E+00  0.43543412073E+03  0.43543412073E+03  0.00000000000E+00 0.  1.
         -2   -1    0    0    0  501 -0.00000000000E+00 -0.00000000000E+00 -0.41096295216E+02  0.41096295216E+02  0.00000000000E+00 0.  1.
         25    1    1    2    0    0 -0.42093394215E+02 -0.11093807949E+02  0.26841012263E+03  0.29721864063E+03  0.12000000000E+03 0.  0.
         25    1    1    2    0    0  0.42093394215E+02  0.11093807949E+02  0.12592770289E+03  0.17931177531E+03  0.12000000000E+03 0.  0.
<mgrwt>
<rscale>  0 0.26754236E+03</rscale>
<asrwt>0</asrwt>
<pdfrwt beam="1">  1        2 0.66989861E-01 0.26754236E+03</pdfrwt>
<pdfrwt beam="2">  1       -2 0.63225073E-02 0.26754236E+03</pdfrwt>
<totfact> 0.98420906E+03</totfact>
</mgrwt>
</event>
<event>
 4    1  0.1762274E-004  0.2449140E+03  0.7818608E-02  0.1116562E+00
          2   -1    0    0  501    0  0.00000000000E+00  0.00000000000E+00  0.11253038657E+04  0.11253038657E+04  0.00000000000E+00 0. -1.
         -2   -1    0    0    0  501 -0.00000000000E+00 -0.00000000000E+00 -0.13325928077E+02  0.13325928077E+02  0.00000000000E+00 0. -1.
         25    1    1    2    0    0  0.13486003176E+01  0.23683436056E+02  0.52928414183E+03  0.54323514858E+03  0.12000000000E+03 0.  0.
         25    1    1    2    0    0 -0.13486003176E+01 -0.23683436056E+02  0.58269379577E+03  0.59539464516E+03  0.12000000000E+03 0.  0.
<mgrwt>
<rscale>  0 0.24491401E+03</rscale>
<asrwt>0</asrwt>
<pdfrwt beam="1">  1        2 0.17312360E+00 0.24491401E+03</pdfrwt>
<pdfrwt beam="2">  1       -2 0.20501437E-02 0.24491401E+03</pdfrwt>
<totfact> 0.16336512E+04</totfact>
</mgrwt>
</event>
<event>
 4    1  0.1762274E-004  0.2813732E+03  0.7818608E-02  0.1094941E+00
         -1   -1    0    0    0  501 -0.00000000000E+00  0.00000000000E+00  0.77422923607E+02  0.77422923607E+02  0.00000000000E+00 0.  1.
          1   -1    0    0  501    0  0.00000000000E+00 -0.00000000000E+00 -0.25564423377E+03  0.25564423377E+03  0.00000000000E+00 0.  1.
         25    1    1    2    0    0  0.31885918488E+02  0.61059835242E+02 -0.11923647650E+03  0.18265364110E+03  0.12000000000E+03 0.  0.
         25    1    1    2    0    0 -0.31885918488E+02 -0.61059835242E+02 -0.58984833660E+02  0.15041351628E+03  0.12000000000E+03 0.  0.
<mgrwt>
<rscale>  0 0.28137323E+03</rscale>
<asrwt>0</asrwt>
<pdfrwt beam="1">  1        1 0.39329882E-01 0.28137323E+03</pdfrwt>
<pdfrwt beam="2">  1       -1 0.11911219E-01 0.28137323E+03</pdfrwt>
<totfact> 0.49481668E+03</totfact>
</mgrwt>
</event>
<event>
 4    1  0.1762274E-004  0.2654605E+03  0.7818608E-02  0.1103906E+00
         -2   -1    0    0    0  501 -0.00000000000E+00  0.00000000000E+00  0.80847436667E+02  0.80847436667E+02  0.00000000000E+00 0.  1.
          2   -1    0    0  501    0  0.00000000000E+00 -0.00000000000E+00 -0.21790824194E+03  0.21790824194E+03  0.00000000000E+00 0.  1.
         25    1    1    2    0    0  0.78187198253E+01 -0.55351773722E+02 -0.57713937717E+02  0.14441554570E+03  0.12000000000E+03 0.  0.
         25    1    1    2    0    0 -0.78187198253E+01  0.55351773722E+02 -0.79346867556E+02  0.15434013290E+03  0.12000000000E+03 0.  0.
<mgrwt>
<rscale>  0 0.26546053E+03</rscale>
<asrwt>0</asrwt>
<pdfrwt beam="1">  1        2 0.33524345E-01 0.26546053E+03</pdfrwt>
<pdfrwt beam="2">  1       -2 0.12438067E-01 0.26546053E+03</pdfrwt>
<totfact> 0.71598843E+03</totfact>
</mgrwt>
</event>
<event>
 4    1  0.1762274E-004  0.3725159E+03  0.7818608E-02  0.1053735E+00
          1   -1    0    0  501    0  0.00000000000E+00  0.00000000000E+00  0.63343164925E+03  0.63343164925E+03  0.00000000000E+00 0. -1.
         -1   -1    0    0    0  501 -0.00000000000E+00 -0.00000000000E+00 -0.54768377199E+02  0.54768377199E+02  0.00000000000E+00 0. -1.
         25    1    1    2    0    0  0.12524191543E+03  0.18050766062E+01  0.16398834088E+03  0.23870687386E+03  0.12000000000E+03 0.  0.
         25    1    1    2    0    0 -0.12524191543E+03 -0.18050766062E+01  0.41467493117E+03  0.44949315258E+03  0.12000000000E+03 0.  0.
<mgrwt>
<rscale>  0 0.37251590E+03</rscale>
<asrwt>0</asrwt>
<pdfrwt beam="1">  1        1 0.97451018E-01 0.37251590E+03</pdfrwt>
<pdfrwt beam="2">  1       -1 0.84259046E-02 0.37251590E+03</pdfrwt>
<totfact> 0.25984989E+03</totfact>
</mgrwt>
</event>
<event>
 4    1  0.1762274E-004  0.2543925E+03  0.7818608E-02  0.1110560E+00
         -2   -1    0    0    0  501 -0.00000000000E+00  0.00000000000E+00  0.74969666661E+01  0.74969666661E+01  0.00000000000E+00 0.  1.
          2   -1    0    0  501    0  0.00000000000E+00 -0.00000000000E+00 -0.21580572905E+04  0.21580572905E+04  0.00000000000E+00 0.  1.
         25    1    1    2    0    0  0.35562479978E+02  0.17204654804E+02 -0.12010236908E+04  0.12076500304E+04  0.12000000000E+03 0.  0.
         25    1    1    2    0    0 -0.35562479978E+02 -0.17204654804E+02 -0.94953663298E+03  0.95790422668E+03  0.12000000000E+03 0.  0.
<mgrwt>
<rscale>  0 0.25439248E+03</rscale>
<asrwt>0</asrwt>
<pdfrwt beam="1">  1        2 0.33200907E+00 0.25439248E+03</pdfrwt>
<pdfrwt beam="2">  1       -2 0.11533786E-02 0.25439248E+03</pdfrwt>
<totfact> 0.10604091E+04</totfact>
</mgrwt>
</event>
<event>
 4    1  0.1762274E-004  0.2835927E+03  0.7818608E-02  0.1093743E+00
          2   -1    0    0  501    0  0.00000000000E+00  0.00000000000E+00  0.30122912203E+04  0.30122912203E+04  0.00000000000E+00 0.  1.
         -2   -1    0    0    0  501 -0.00000000000E+00 -0.00000000000E+00 -0.66747214555E+01  0.66747214555E+01  0.00000000000E+00 0.  1.
         25    1    1    2    0    0  0.17958355570E+02 -0.51515091901E+02  0.20590151155E+04  0.20632303684E+04  0.12000000000E+03 0.  0.
         25    1    1    2    0    0 -0.17958355570E+02  0.51515091901E+02  0.94660138332E+03  0.95573557334E+03  0.12000000000E+03 0.  0.
<mgrwt>
<rscale>  0 0.28359270E+03</rscale>
<asrwt>0</asrwt>
<pdfrwt beam="1">  1        2 0.46342833E+00 0.28359270E+03</pdfrwt>
<pdfrwt beam="2">  1       -2 0.10268826E-02 0.28359270E+03</pdfrwt>
<totfact> 0.42003765E+03</totfact>
</mgrwt>
</event>
<event>
 4    1  0.1762274E-004  0.3193508E+03  0.7818608E-02  0.1075948E+00
         -2   -1    0    0    0  501 -0.00000000000E+00  0.00000000000E+00  0.72652581769E+02  0.72652581769E+02  0.00000000000E+00 0. -1.
          2   -1    0    0  501    0  0.00000000000E+00 -0.00000000000E+00 -0.35093351841E+03  0.35093351841E+03  0.00000000000E+00 0. -1.
         25    1    1    2    0    0 -0.97433509015E+01  0.99703494884E+02 -0.95945775202E+02  0.18341567970E+03  0.12000000000E+03 0.  0.
         25    1    1    2    0    0  0.97433509015E+01 -0.99703494884E+02 -0.18233516144E+03  0.24017042049E+03  0.12000000000E+03 0.  0.
<mgrwt>
<rscale>  0 0.31935075E+03</rscale>
<asrwt>0</asrwt>
<pdfrwt beam="1">  1        2 0.53989772E-01 0.31935075E+03</pdfrwt>
<pdfrwt beam="2">  1       -2 0.11177320E-01 0.31935075E+03</pdfrwt>
<totfact> 0.51134380E+03</totfact>
</mgrwt>
</event>
<event>
 4    1  0.1762274E-004  0.2648619E+03  0.7818608E-02  0.1104257E+00
          1   -1    0    0  501    0  0.00000000000E+00  0.00000000000E+00  0.18656671127E+03  0.18656671127E+03  0.00000000000E+00 0.  1.
         -1   -1    0    0    0  501 -0.00000000000E+00 -0.00000000000E+00 -0.94003693492E+02  0.94003693492E+02  0.00000000000E+00 0.  1.
         25    1    1    2    0    0 -0.66127748852E+01  0.53714216110E+02  0.30966750215E+02  0.13523270841E+03  0.12000000000E+03 0.  0.
         25    1    1    2    0    0  0.66127748852E+01 -0.53714216110E+02  0.61596267560E+02  0.14533769635E+03  0.12000000000E+03 0.  0.
<mgrwt>
<rscale>  0 0.26486193E+03</rscale>
<asrwt>0</asrwt>
<pdfrwt beam="1">  1        1 0.28702571E-01 0.26486193E+03</pdfrwt>
<pdfrwt beam="2">  1       -1 0.14462107E-01 0.26486193E+03</pdfrwt>
<totfact> 0.54108540E+03</totfact>
</mgrwt>
</event>
<event>
 4    1  0.1762274E-004  0.2519093E+03  0.7818608E-02  0.1112104E+00
         -2   -1    0    0    0  501 -0.00000000000E+00  0.00000000000E+00  0.13959319522E+02  0.13959319522E+02  0.00000000000E+00 0.  1.
          2   -1    0    0  501    0  0.00000000000E+00 -0.00000000000E+00 -0.11364858109E+04  0.11364858109E+04  0.00000000000E+00 0.  1.
         25    1    1    2    0    0  0.21541866428E+02 -0.31442912219E+02 -0.54553569920E+03  0.55987668985E+03  0.12000000000E+03 0.  0.
         25    1    1    2    0    0 -0.21541866428E+02  0.31442912219E+02 -0.57699079216E+03  0.59056844055E+03  0.12000000000E+03 0.  0.
<mgrwt>
<rscale>  0 0.25190926E+03</rscale>
<asrwt>0</asrwt>
<pdfrwt beam="1">  1        2 0.17484404E+00 0.25190926E+03</pdfrwt>
<pdfrwt beam="2">  1       -2 0.21475868E-02 0.25190926E+03</pdfrwt>
<totfact> 0.15049328E+04</totfact>
</mgrwt>
</event>
<event>
 4    1  0.1762274E-004  0.2515531E+03  0.7818608E-02  0.1112327E+00
         -2   -1    0    0    0  501 -0.00000000000E+00  0.00000000000E+00  0.65249937609E+01  0.65249937609E+01  0.00000000000E+00 0.  1.
          2   -1    0    0  501    0  0.00000000000E+00 -0.00000000000E+00 -0.24244840511E+04  0.24244840511E+04  0.00000000000E+00 0.  1.
         25    1    1    2    0    0 -0.26811905756E+02 -0.10974419642E+02 -0.14418051201E+04  0.14470802744E+04  0.12000000000E+03 0.  0.
         25    1    1    2    0    0  0.26811905756E+02  0.10974419642E+02 -0.97615393726E+03  0.98392877049E+03  0.12000000000E+03 0.  0.
<mgrwt>
<rscale>  0 0.25155312E+03</rscale>
<asrwt>0</asrwt>
<pdfrwt beam="1">  1        2 0.37299782E+00 0.25155312E+03</pdfrwt>
<pdfrwt beam="2">  1       -2 0.10038444E-02 0.25155312E+03</pdfrwt>
<totfact> 0.93437344E+03</totfact>
</mgrwt>
</event>
<event>
 4    1  0.1762274E-004  0.3330650E+03  0.7818608E-02  0.1069789E+00
          2   -1    0    0  501    0  0.00000000000E+00  0.00000000000E+00  0.71277919815E+03  0.71277919815E+03  0.00000000000E+00 0.  1.
         -2   -1    0    0    0  501 -0.00000000000E+00 -0.00000000000E+00 -0.38908368976E+02  0.38908368976E+02  0.00000000000E+00 0.  1.
         25    1    1    2    0    0  0.40023229127E+02  0.31632712149E+02  0.10314854032E+03  0.16625916131E+03  0.12000000000E+03 0.  0.
         25    1    1    2    0    0 -0.40023229127E+02 -0.31632712149E+02  0.57072228885E+03  0.58542840582E+03  0.12000000000E+03 0.  0.
<mgrwt>
<rscale>  0 0.33306501E+03</rscale>
<asrwt>0</asrwt>
<pdfrwt beam="1">  1        2 0.10965833E+00 0.33306501E+03</pdfrwt>
<pdfrwt beam="2">  1       -2 0.59859034E-02 0.33306501E+03</pdfrwt>
<totfact> 0.61121963E+03</totfact>
</mgrwt>
</event>
<event>
 4    1  0.1762274E-004  0.2464121E+03  0.7818608E-02  0.1115594E+00
         -1   -1    0    0    0  501 -0.00000000000E+00  0.00000000000E+00  0.24542284526E+03  0.24542284526E+03  0.00000000000E+00 0.  1.
          1   -1    0    0  501    0  0.00000000000E+00 -0.00000000000E+00 -0.61851329993E+02  0.61851329993E+02  0.00000000000E+00 0.  1.
         25    1    1    2    0    0  0.57068268241E+01 -0.11666029466E+02  0.60960419209E+02  0.13522143627E+03  0.12000000000E+03 0.  0.
         25    1    1    2    0    0 -0.57068268241E+01  0.11666029466E+02  0.12261109606E+03  0.17205273899E+03  0.12000000000E+03 0.  0.
<mgrwt>
<rscale>  0 0.24641209E+03</rscale>
<asrwt>0</asrwt>
<pdfrwt beam="1">  1        1 0.95155894E-02 0.24641209E+03</pdfrwt>
<pdfrwt beam="2">  1       -1 0.37757360E-01 0.24641209E+03</pdfrwt>
<totfact> 0.46439617E+03</totfact>
</mgrwt>
</event>
<event>
 4    1  0.1762274E-004  0.2481484E+03  0.7818608E-02  0.1114481E+00
          1   -1    0    0  501    0  0.00000000000E+00  0.00000000000E+00  0.44999167260E+03  0.44999167260E+03  0.00000000000E+00 0.  1.
         -1   -1    0    0    0  501 -0.00000000000E+00 -0.00000000000E+00 -0.34210425160E+02  0.34210425160E+02  0.00000000000E+00 0.  1.
         25    1    1    2    0    0 -0.21765460937E+02 -0.15839333220E+02  0.23994043244E+03  0.26962201484E+03  0.12000000000E+03 0.  0.
         25    1    1    2    0    0  0.21765460937E+02  0.15839333220E+02  0.17584081500E+03  0.21458008292E+03  0.12000000000E+03 0.  0.
<mgrwt>
<rscale>  0 0.24814839E+03</rscale>
<asrwt>0</asrwt>
<pdfrwt beam="1">  1        1 0.69229484E-01 0.24814839E+03</pdfrwt>
<pdfrwt beam="2">  1       -1 0.52631427E-02 0.24814839E+03</pdfrwt>
<totfact> 0.83696899E+03</totfact>
</mgrwt>
</event>
<event>
 4    1  0.1762274E-004  0.3340371E+03  0.7818608E-02  0.1069364E+00
         -2   -1    0    0    0  501 -0.00000000000E+00  0.00000000000E+00  0.36621458745E+02  0.36621458745E+02  0.00000000000E+00 0.  1.
          2   -1    0    0  501    0  0.00000000000E+00 -0.00000000000E+00 -0.76171711145E+03  0.76171711145E+03  0.00000000000E+00 0.  1.
         25    1    1    2    0    0 -0.86689276377E+02 -0.46519832180E+02 -0.51018658976E+03  0.53326305122E+03  0.12000000000E+03 0.  0.
         25    1    1    2    0    0  0.86689276377E+02  0.46519832180E+02 -0.21490906295E+03  0.26507551898E+03  0.12000000000E+03 0.  0.
<mgrwt>
<rscale>  0 0.33403707E+03</rscale>
<asrwt>0</asrwt>
<pdfrwt beam="1">  1        2 0.11718725E+00 0.33403707E+03</pdfrwt>
<pdfrwt beam="2">  1       -2 0.56340705E-02 0.33403707E+03</pdfrwt>
<totfact> 0.61777442E+03</totfact>
</mgrwt>
</event>
<event>
 4    1  0.1762274E-004  0.2996771E+03  0.7818608E-02  0.1085402E+00
         -3   -1    0    0    0  501 -0.00000000000E+00  0.00000000000E+00  0.26401440086E+02  0.26401440086E+02  0.00000000000E+00 0. -1.
          3   -1    0    0  501    0  0.00000000000E+00 -0.00000000000E+00 -0.85039262281E+03  0.85039262281E+03  0.00000000000E+00 0. -1.
         25    1    1    2    0    0 -0.65719632145E+02 -0.60291540970E+02 -0.44087809233E+03  0.46554015107E+03  0.12000000000E+03 0.  0.
         25    1    1    2    0    0  0.65719632145E+02  0.60291540970E+02 -0.38311309040E+03  0.41125391183E+03  0.12000000000E+03 0.  0.
<mgrwt>
<rscale>  0 0.29967709E+03</rscale>
<asrwt>0</asrwt>
<pdfrwt beam="1">  1        3 0.13082964E+00 0.29967709E+03</pdfrwt>
<pdfrwt beam="2">  1       -3 0.40617598E-02 0.29967709E+03</pdfrwt>
<totfact> 0.38949170E+02</totfact>
</mgrwt>
</event>
<event>
 4    1  0.1762274E-004  0.3016783E+03  0.7818608E-02  0.1084405E+00
          3   -1    0    0  501    0  0.00000000000E+00  0.00000000000E+00  0.89664718391E+03  0.89664718391E+03  0.00000000000E+00 0. -1.
         -3   -1    0    0    0  501 -0.00000000000E+00 -0.00000000000E+00 -0.25375022895E+02  0.25375022895E+02  0.00000000000E+00 0. -1.
         25    1    1    2    0    0  0.56744150610E+02  0.10739461196E+02  0.21915077152E+03  0.25644160215E+03  0.12000000000E+03 0.  0.
         25    1    1    2    0    0 -0.56744150610E+02 -0.10739461196E+02  0.65212138950E+03  0.66558060466E+03  0.12000000000E+03 0.  0.
<mgrwt>
<rscale>  0 0.30167826E+03</rscale>
<asrwt>0</asrwt>
<pdfrwt beam="1">  1        3 0.13794570E+00 0.30167826E+03</pdfrwt>
<pdfrwt beam="2">  1       -3 0.39038504E-02 0.30167826E+03</pdfrwt>
<totfact> 0.36438934E+02</totfact>
</mgrwt>
</event>
<event>
 4    1  0.1762274E-004  0.4584361E+03  0.7818608E-02  0.1025236E+00
          1   -1    0    0  501    0  0.00000000000E+00  0.00000000000E+00  0.10591812244E+04  0.10591812244E+04  0.00000000000E+00 0. -1.
         -1   -1    0    0    0  501 -0.00000000000E+00 -0.00000000000E+00 -0.49605216248E+02  0.49605216248E+02  0.00000000000E+00 0. -1.
         25    1    1    2    0    0 -0.15348736474E+03  0.44991200408E+02  0.77582908604E+03  0.80118246985E+03  0.12000000000E+03 0.  0.
         25    1    1    2    0    0  0.15348736474E+03 -0.44991200408E+02  0.23374692209E+03  0.30760397077E+03  0.12000000000E+03 0.  0.
<mgrwt>
<rscale>  0 0.45843610E+03</rscale>
<asrwt>0</asrwt>
<pdfrwt beam="1">  1        1 0.16295094E+00 0.45843610E+03</pdfrwt>
<pdfrwt beam="2">  1       -1 0.76315725E-02 0.45843610E+03</pdfrwt>
<totfact> 0.13335902E+03</totfact>
</mgrwt>
</event>
<event>
 4    1  0.1762274E-004  0.2814151E+03  0.7818608E-02  0.1094919E+00
         -1   -1    0    0    0  501 -0.00000000000E+00  0.00000000000E+00  0.13538568685E+03  0.13538568685E+03  0.00000000000E+00 0.  1.
          1   -1    0    0  501    0  0.00000000000E+00 -0.00000000000E+00 -0.14623862422E+03  0.14623862422E+03  0.00000000000E+00 0.  1.
         25    1    1    2    0    0 -0.30154186144E+02 -0.49285447536E+02 -0.50850587553E+02  0.14256266179E+03  0.12000000000E+03 0.  0.
         25    1    1    2    0    0  0.30154186144E+02  0.49285447536E+02  0.39997650186E+02  0.13906164928E+03  0.12000000000E+03 0.  0.
<mgrwt>
<rscale>  0 0.28141511E+03</rscale>
<asrwt>0</asrwt>
<pdfrwt beam="1">  1        1 0.22498250E-01 0.28141511E+03</pdfrwt>
<pdfrwt beam="2">  1       -1 0.20828567E-01 0.28141511E+03</pdfrwt>
<totfact> 0.41136630E+03</totfact>
</mgrwt>
</event>
<event>
 4    1  0.1762274E-004  0.2651445E+03  0.7818608E-02  0.1104091E+00
         -1   -1    0    0    0  501 -0.00000000000E+00  0.00000000000E+00  0.21049050795E+03  0.21049050795E+03  0.00000000000E+00 0.  1.
          1   -1    0    0  501    0  0.00000000000E+00 -0.00000000000E+00 -0.83497348750E+02  0.83497348750E+02  0.00000000000E+00 0.  1.
         25    1    1    2    0    0  0.33184922248E+02 -0.19675531358E+02  0.10903822120E+03  0.16666643118E+03  0.12000000000E+03 0.  0.
         25    1    1    2    0    0 -0.33184922248E+02  0.19675531358E+02  0.17954937999E+02  0.12732142552E+03  0.12000000000E+03 0.  0.
<mgrwt>
<rscale>  0 0.26514448E+03</rscale>
<asrwt>0</asrwt>
<pdfrwt beam="1">  1        1 0.12845746E-01 0.26514448E+03</pdfrwt>
<pdfrwt beam="2">  1       -1 0.32383155E-01 0.26514448E+03</pdfrwt>
<totfact> 0.40719796E+03</totfact>
</mgrwt>
</event>
<event>
 4    1  0.1762274E-004  0.2596153E+03  0.7818608E-02  0.1107375E+00
         -2   -1    0    0    0  501 -0.00000000000E+00  0.00000000000E+00  0.17729106307E+02  0.17729106307E+02  0.00000000000E+00 0. -1.
          2   -1    0    0  501    0  0.00000000000E+00 -0.00000000000E+00 -0.95041578048E+03  0.95041578048E+03  0.00000000000E+00 0. -1.
         25    1    1    2    0    0  0.32903209855E+02  0.36896902426E+02 -0.47549290213E+03  0.49288690650E+03  0.12000000000E+03 0.  0.
         25    1    1    2    0    0 -0.32903209855E+02 -0.36896902426E+02 -0.45719377204E+03  0.47525798028E+03  0.12000000000E+03 0.  0.
<mgrwt>
<rscale>  0 0.25961527E+03</rscale>
<asrwt>0</asrwt>
<pdfrwt beam="1">  1        2 0.14621785E+00 0.25961527E+03</pdfrwt>
<pdfrwt beam="2">  1       -2 0.27275542E-02 0.25961527E+03</pdfrwt>
<totfact> 0.13690418E+04</totfact>
</mgrwt>
</event>
<event>
 4    1  0.1762274E-004  0.3473499E+03  0.7818608E-02  0.1063708E+00
         -1   -1    0    0    0  501 -0.00000000000E+00  0.00000000000E+00  0.30572927689E+02  0.30572927689E+02  0.00000000000E+00 0. -1.
          1   -1    0    0  501    0  0.00000000000E+00 -0.00000000000E+00 -0.98659151844E+03  0.98659151844E+03  0.00000000000E+00 0. -1.
         25    1    1    2    0    0 -0.65332973995E+02  0.10081023970E+03 -0.58487984088E+03  0.60902834925E+03  0.12000000000E+03 0.  0.
         25    1    1    2    0    0  0.65332973995E+02 -0.10081023970E+03 -0.37113874987E+03  0.40813609688E+03  0.12000000000E+03 0.  0.
<mgrwt>
<rscale>  0 0.34734992E+03</rscale>
<asrwt>0</asrwt>
<pdfrwt beam="1">  1        1 0.15178334E+00 0.34734992E+03</pdfrwt>
<pdfrwt beam="2">  1       -1 0.47035265E-02 0.34734992E+03</pdfrwt>
<totfact> 0.31665499E+03</totfact>
</mgrwt>
</event>
<event>
 4    1  0.1762274E-004  0.3082169E+03  0.7818608E-02  0.1081204E+00
         -1   -1    0    0    0  501 -0.00000000000E+00  0.00000000000E+00  0.24660225547E+02  0.24660225547E+02  0.00000000000E+00 0.  1.
          1   -1    0    0  501    0  0.00000000000E+00 -0.00000000000E+00 -0.96306585595E+03  0.96306585595E+03  0.00000000000E+00 0.  1.
         25    1    1    2    0    0 -0.96036017041E+02 -0.10393342114E+02 -0.48298021785E+03  0.50695249182E+03  0.12000000000E+03 0.  0.
         25    1    1    2    0    0  0.96036017041E+02  0.10393342114E+02 -0.45542541255E+03  0.48077358968E+03  0.12000000000E+03 0.  0.
<mgrwt>
<rscale>  0 0.30821694E+03</rscale>
<asrwt>0</asrwt>
<pdfrwt beam="1">  1        1 0.14816397E+00 0.30821694E+03</pdfrwt>
<pdfrwt beam="2">  1       -1 0.37938811E-02 0.30821694E+03</pdfrwt>
<totfact> 0.45476683E+03</totfact>
</mgrwt>
</event>
<event>
 4    1  0.1762274E-004  0.2837503E+03  0.7818608E-02  0.1093658E+00
          1   -1    0    0  501    0  0.00000000000E+00  0.00000000000E+00  0.10621790322E+04  0.10621790322E+04  0.00000000000E+00 0.  1.
         -1   -1    0    0    0  501 -0.00000000000E+00 -0.00000000000E+00 -0.18950250859E+02  0.18950250859E+02  0.00000000000E+00 0.  1.
         25    1    1    2    0    0  0.11403869587E+02  0.72853195684E+02  0.45662684489E+03  0.47785532521E+03  0.12000000000E+03 0.  0.
         25    1    1    2    0    0 -0.11403869587E+02 -0.72853195684E+02  0.58660193645E+03  0.60327395784E+03  0.12000000000E+03 0.  0.
<mgrwt>
<rscale>  0 0.28375031E+03</rscale>
<asrwt>0</asrwt>
<pdfrwt beam="1">  1        1 0.16341211E+00 0.28375031E+03</pdfrwt>
<pdfrwt beam="2">  1       -1 0.29154240E-02 0.28375031E+03</pdfrwt>
<totfact> 0.56598615E+03</totfact>
</mgrwt>
</event>
<event>
 4    1  0.1762274E-004  0.2624584E+03  0.7818608E-02  0.1105675E+00
         -1   -1    0    0    0  501 -0.00000000000E+00  0.00000000000E+00  0.60236848642E+03  0.60236848642E+03  0.00000000000E+00 0. -1.
          1   -1    0    0  501    0  0.00000000000E+00 -0.00000000000E+00 -0.28588976112E+02  0.28588976112E+02  0.00000000000E+00 0. -1.
         25    1    1    2    0    0  0.49941251115E+02 -0.16436344974E+02  0.26876901134E+03  0.29900010611E+03  0.12000000000E+03 0.  0.
         25    1    1    2    0    0 -0.49941251115E+02  0.16436344974E+02  0.30501049896E+03  0.33195735641E+03  0.12000000000E+03 0.  0.
<mgrwt>
<rscale>  0 0.26245836E+03</rscale>
<asrwt>0</asrwt>
<pdfrwt beam="1">  1        1 0.43983045E-02 0.26245836E+03</pdfrwt>
<pdfrwt beam="2">  1       -1 0.92672065E-01 0.26245836E+03</pdfrwt>
<totfact> 0.23664447E+03</totfact>
</mgrwt>
</event>
<event>
 4    1  0.1762274E-004  0.2799709E+03  0.7818608E-02  0.1095705E+00
         -1   -1    0    0    0  501 -0.00000000000E+00  0.00000000000E+00  0.37648015191E+02  0.37648015191E+02  0.00000000000E+00 0. -1.
          1   -1    0    0  501    0  0.00000000000E+00 -0.00000000000E+00 -0.52050363690E+03  0.52050363690E+03  0.00000000000E+00 0. -1.
         25    1    1    2    0    0 -0.35832983419E+02  0.30040006533E+02 -0.13206033033E+03  0.18446228758E+03  0.12000000000E+03 0.  0.
         25    1    1    2    0    0  0.35832983419E+02 -0.30040006533E+02 -0.35079529138E+03  0.37368936451E+03  0.12000000000E+03 0.  0.
<mgrwt>
<rscale>  0 0.27997092E+03</rscale>
<asrwt>0</asrwt>
<pdfrwt beam="1">  1        1 0.80077478E-01 0.27997092E+03</pdfrwt>
<pdfrwt beam="2">  1       -1 0.57920027E-02 0.27997092E+03</pdfrwt>
<totfact> 0.60068356E+03</totfact>
</mgrwt>
</event>
<event>
 4    1  0.1762274E-004  0.2576314E+03  0.7818608E-02  0.1108575E+00
         -2   -1    0    0    0  501 -0.00000000000E+00  0.00000000000E+00  0.41313272784E+02  0.41313272784E+02  0.00000000000E+00 0. -1.
          2   -1    0    0  501    0  0.00000000000E+00 -0.00000000000E+00 -0.40165030036E+03  0.40165030036E+03  0.00000000000E+00 0. -1.
         25    1    1    2    0    0 -0.19506645711E+01 -0.46735393083E+02 -0.18419579043E+03  0.22475785030E+03  0.12000000000E+03 0.  0.
         25    1    1    2    0    0  0.19506645711E+01  0.46735393083E+02 -0.17614123714E+03  0.21820572284E+03  0.12000000000E+03 0.  0.
<mgrwt>
<rscale>  0 0.25763143E+03</rscale>
<asrwt>0</asrwt>
<pdfrwt beam="1">  1        2 0.61792357E-01 0.25763143E+03</pdfrwt>
<pdfrwt beam="2">  1       -2 0.63558878E-02 0.25763143E+03</pdfrwt>
<totfact> 0.10644301E+04</totfact>
</mgrwt>
</event>
<event>
 4    1  0.1762274E-004  0.2640714E+03  0.7818608E-02  0.1104721E+00
          2   -1    0    0  501    0  0.00000000000E+00  0.00000000000E+00  0.90101204240E+02  0.90101204240E+02  0.00000000000E+00 0. -1.
         -2   -1    0    0    0  501 -0.00000000000E+00 -0.00000000000E+00 -0.19348709189E+03  0.19348709189E+03  0.00000000000E+00 0. -1.
         25    1    1    2    0    0  0.91020211207E+01  0.15564328200E+02  0.41949046969E+01  0.12141948907E+03  0.12000000000E+03 0.  0.
         25    1    1    2    0    0 -0.91020211207E+01 -0.15564328200E+02 -0.10758079234E+03  0.16216880706E+03  0.12000000000E+03 0.  0.
<mgrwt>
<rscale>  0 0.26407135E+03</rscale>
<asrwt>0</asrwt>
<pdfrwt beam="1">  1        2 0.13861724E-01 0.26407135E+03</pdfrwt>
<pdfrwt beam="2">  1       -2 0.29767245E-01 0.26407135E+03</pdfrwt>
<totfact> 0.44098225E+03</totfact>
</mgrwt>
</event>
<event>
 4    1  0.1762274E-004  0.2764995E+03  0.7818608E-02  0.1097616E+00
         -1   -1    0    0    0  501 -0.00000000000E+00  0.00000000000E+00  0.76864423689E+01  0.76864423689E+01  0.00000000000E+00 0.  1.
          1   -1    0    0  501    0  0.00000000000E+00 -0.00000000000E+00 -0.24865851229E+04  0.24865851229E+04  0.00000000000E+00 0.  1.
         25    1    1    2    0    0  0.54584508663E+02  0.31143799246E+02 -0.14887245298E+04  0.14948746203E+04  0.12000000000E+03 0.  0.
         25    1    1    2    0    0 -0.54584508663E+02 -0.31143799246E+02 -0.99017415070E+03  0.99939694493E+03  0.12000000000E+03 0.  0.
<mgrwt>
<rscale>  0 0.27649950E+03</rscale>
<asrwt>0</asrwt>
<pdfrwt beam="1">  1        1 0.38255151E+00 0.27649950E+03</pdfrwt>
<pdfrwt beam="2">  1       -1 0.11825297E-02 0.27649950E+03</pdfrwt>
<totfact> 0.23874060E+03</totfact>
</mgrwt>
</event>
<event>
 4    1  0.1762274E-004  0.2582916E+03  0.7818608E-02  0.1108174E+00
         -2   -1    0    0    0  501 -0.00000000000E+00  0.00000000000E+00  0.40727058721E+02  0.40727058721E+02  0.00000000000E+00 0.  1.
          2   -1    0    0  501    0  0.00000000000E+00 -0.00000000000E+00 -0.40952241452E+03  0.40952241452E+03  0.00000000000E+00 0.  1.
         25    1    1    2    0    0  0.38546456178E+01 -0.73803789790E+01 -0.10246225685E+03  0.15801215891E+03  0.12000000000E+03 0.  0.
         25    1    1    2    0    0 -0.38546456178E+01  0.73803789790E+01 -0.26633309895E+03  0.29223731432E+03  0.12000000000E+03 0.  0.
<mgrwt>
<rscale>  0 0.25829164E+03</rscale>
<asrwt>0</asrwt>
<pdfrwt beam="1">  1        2 0.63003446E-01 0.25829164E+03</pdfrwt>
<pdfrwt beam="2">  1       -2 0.62657016E-02 0.25829164E+03</pdfrwt>
<totfact> 0.10654844E+04</totfact>
</mgrwt>
</event>
<event>
 4    1  0.1762274E-004  0.2557095E+03  0.7818608E-02  0.1109749E+00
         -1   -1    0    0    0  501 -0.00000000000E+00  0.00000000000E+00  0.75874788856E+01  0.75874788856E+01  0.00000000000E+00 0. -1.
          1   -1    0    0  501    0  0.00000000000E+00 -0.00000000000E+00 -0.21544499068E+04  0.21544499068E+04  0.00000000000E+00 0. -1.
         25    1    1    2    0    0  0.50853829723E+01 -0.36290972393E+02 -0.12812169862E+04  0.12873460535E+04  0.12000000000E+03 0.  0.
         25    1    1    2    0    0 -0.50853829723E+01  0.36290972393E+02 -0.86564544171E+03  0.87469133215E+03  0.12000000000E+03 0.  0.
<mgrwt>
<rscale>  0 0.25570955E+03</rscale>
<asrwt>0</asrwt>
<pdfrwt beam="1">  1        1 0.33145381E+00 0.25570955E+03</pdfrwt>
<pdfrwt beam="2">  1       -1 0.11673045E-02 0.25570955E+03</pdfrwt>
<totfact> 0.40229642E+03</totfact>
</mgrwt>
</event>
<event>
 4    1  0.1762274E-004  0.3411379E+03  0.7818608E-02  0.1066312E+00
          1   -1    0    0  501    0  0.00000000000E+00  0.00000000000E+00  0.10975803459E+03  0.10975803459E+03  0.00000000000E+00 0. -1.
         -1   -1    0    0    0  501 -0.00000000000E+00 -0.00000000000E+00 -0.26507182748E+03  0.26507182748E+03  0.00000000000E+00 0. -1.
         25    1    1    2    0    0  0.63653831255E+02  0.10154565366E+03 -0.57683780897E+02  0.17913890864E+03  0.12000000000E+03 0.  0.
         25    1    1    2    0    0 -0.63653831255E+02 -0.10154565366E+03 -0.97630011993E+02  0.19569095342E+03  0.12000000000E+03 0.  0.
<mgrwt>
<rscale>  0 0.34113788E+03</rscale>
<asrwt>0</asrwt>
<pdfrwt beam="1">  1        1 0.16885852E-01 0.34113788E+03</pdfrwt>
<pdfrwt beam="2">  1       -1 0.40780281E-01 0.34113788E+03</pdfrwt>
<totfact> 0.19064246E+03</totfact>
</mgrwt>
</event>
<event>
 4    1  0.1762274E-004  0.3207440E+03  0.7818608E-02  0.1075307E+00
          2   -1    0    0  501    0  0.00000000000E+00  0.00000000000E+00  0.19898471781E+04  0.19898471781E+04  0.00000000000E+00 0. -1.
         -2   -1    0    0    0  501 -0.00000000000E+00 -0.00000000000E+00 -0.12925203124E+02  0.12925203124E+02  0.00000000000E+00 0. -1.
         25    1    1    2    0    0 -0.10242633707E+03  0.14167434378E+02  0.83206934376E+03  0.84701314249E+03  0.12000000000E+03 0.  0.
         25    1    1    2    0    0  0.10242633707E+03 -0.14167434378E+02  0.11448526312E+04  0.11557592387E+04  0.12000000000E+03 0.  0.
<mgrwt>
<rscale>  0 0.32074400E+03</rscale>
<asrwt>0</asrwt>
<pdfrwt beam="1">  1        2 0.30613009E+00 0.32074400E+03</pdfrwt>
<pdfrwt beam="2">  1       -2 0.19884944E-02 0.32074400E+03</pdfrwt>
<totfact> 0.58662619E+03</totfact>
</mgrwt>
</event>
<event>
 4    1  0.1762274E-004  0.2493455E+03  0.7818608E-02  0.1113719E+00
         -2   -1    0    0    0  501 -0.00000000000E+00  0.00000000000E+00  0.17956671076E+02  0.17956671076E+02  0.00000000000E+00 0.  1.
          2   -1    0    0  501    0  0.00000000000E+00 -0.00000000000E+00 -0.86560004877E+03  0.86560004877E+03  0.00000000000E+00 0.  1.
         25    1    1    2    0    0  0.17846430364E+02 -0.19727088081E+02 -0.49778185853E+03  0.51273231979E+03  0.12000000000E+03 0.  0.
         25    1    1    2    0    0 -0.17846430364E+02  0.19727088081E+02 -0.34986151916E+03  0.37082440005E+03  0.12000000000E+03 0.  0.
<mgrwt>
<rscale>  0 0.24934551E+03</rscale>
<asrwt>0</asrwt>
<pdfrwt beam="1">  1        2 0.13316922E+00 0.24934551E+03</pdfrwt>
<pdfrwt beam="2">  1       -2 0.27625651E-02 0.24934551E+03</pdfrwt>
<totfact> 0.15202711E+04</totfact>
</mgrwt>
</event>
<event>
 4    1  0.1762274E-004  0.3113845E+03  0.7818608E-02  0.1079684E+00
          3   -1    0    0  501    0  0.00000000000E+00  0.00000000000E+00  0.40896682929E+02  0.40896682929E+02  0.00000000000E+00 0. -1.
         -3   -1    0    0    0  501 -0.00000000000E+00 -0.00000000000E+00 -0.59271481542E+03  0.59271481542E+03  0.00000000000E+00 0. -1.
         25    1    1    2    0    0  0.88736001669E+02 -0.32859606056E+02 -0.33648517141E+03  0.36956204118E+03  0.12000000000E+03 0.  0.
         25    1    1    2    0    0 -0.88736001669E+02  0.32859606056E+02 -0.21533296108E+03  0.26404945716E+03  0.12000000000E+03 0.  0.
<mgrwt>
<rscale>  0 0.31138446E+03</rscale>
<asrwt>0</asrwt>
<pdfrwt beam="1">  1        3 0.62917984E-02 0.31138446E+03</pdfrwt>
<pdfrwt beam="2">  1       -3 0.91186879E-01 0.31138446E+03</pdfrwt>
<totfact> 0.45098540E+02</totfact>
</mgrwt>
</event>
<event>
 4    1  0.1762274E-004  0.2483243E+03  0.7818608E-02  0.1114368E+00
         -1   -1    0    0    0  501 -0.00000000000E+00  0.00000000000E+00  0.12002841695E+02  0.12002841695E+02  0.00000000000E+00 0. -1.
          1   -1    0    0  501    0  0.00000000000E+00 -0.00000000000E+00 -0.12843822193E+04  0.12843822193E+04  0.00000000000E+00 0. -1.
         25    1    1    2    0    0  0.18670711189E+02  0.14222199081E+02 -0.74880930826E+03  0.75872672718E+03  0.12000000000E+03 0.  0.
         25    1    1    2    0    0 -0.18670711189E+02 -0.14222199081E+02 -0.52357006929E+03  0.53765833376E+03  0.12000000000E+03 0.  0.
<mgrwt>
<rscale>  0 0.24832428E+03</rscale>
<asrwt>0</asrwt>
<pdfrwt beam="1">  1        1 0.19759719E+00 0.24832428E+03</pdfrwt>
<pdfrwt beam="2">  1       -1 0.18465917E-02 0.24832428E+03</pdfrwt>
<totfact> 0.76856336E+03</totfact>
</mgrwt>
</event>
<event>
 4    1  0.1762274E-004  0.2982301E+03  0.7818608E-02  0.1086129E+00
          1   -1    0    0  501    0  0.00000000000E+00  0.00000000000E+00  0.30052763979E+02  0.30052763979E+02  0.00000000000E+00 0. -1.
         -1   -1    0    0    0  501 -0.00000000000E+00 -0.00000000000E+00 -0.73987520898E+03  0.73987520898E+03  0.00000000000E+00 0. -1.
         25    1    1    2    0    0  0.13342200746E+02 -0.84653623021E+02 -0.29770289896E+03  0.33222171251E+03  0.12000000000E+03 0.  0.
         25    1    1    2    0    0 -0.13342200746E+02  0.84653623021E+02 -0.41211954604E+03  0.43770626045E+03  0.12000000000E+03 0.  0.
<mgrwt>
<rscale>  0 0.29823008E+03</rscale>
<asrwt>0</asrwt>
<pdfrwt beam="1">  1        1 0.46235027E-02 0.29823008E+03</pdfrwt>
<pdfrwt beam="2">  1       -1 0.11382694E+00 0.29823008E+03</pdfrwt>
<totfact> 0.13929172E+03</totfact>
</mgrwt>
</event>
<event>
 4    1  0.1762274E-004  0.2633435E+03  0.7818608E-02  0.1105151E+00
          2   -1    0    0  501    0  0.00000000000E+00  0.00000000000E+00  0.30696625642E+03  0.30696625642E+03  0.00000000000E+00 0.  1.
         -2   -1    0    0    0  501 -0.00000000000E+00 -0.00000000000E+00 -0.56479998654E+02  0.56479998654E+02  0.00000000000E+00 0.  1.
         25    1    1    2    0    0 -0.23963469932E+02 -0.30226304280E+02  0.72697318060E+02  0.14550868501E+03  0.12000000000E+03 0.  0.
         25    1    1    2    0    0  0.23963469932E+02  0.30226304280E+02  0.17778893971E+03  0.21793757006E+03  0.12000000000E+03 0.  0.
<mgrwt>
<rscale>  0 0.26334353E+03</rscale>
<asrwt>0</asrwt>
<pdfrwt beam="1">  1        2 0.47225577E-01 0.26334353E+03</pdfrwt>
<pdfrwt beam="2">  1       -2 0.86892307E-02 0.26334353E+03</pdfrwt>
<totfact> 0.87599018E+03</totfact>
</mgrwt>
</event>
<event>
 4    1  0.1762274E-004  0.2787419E+03  0.7818608E-02  0.1096378E+00
         -1   -1    0    0    0  501 -0.00000000000E+00  0.00000000000E+00  0.26151224500E+02  0.26151224500E+02  0.00000000000E+00 0.  1.
          1   -1    0    0  501    0  0.00000000000E+00 -0.00000000000E+00 -0.74276658501E+03  0.74276658501E+03  0.00000000000E+00 0.  1.
         25    1    1    2    0    0 -0.24678635757E+02 -0.66216148308E+02 -0.34303768818E+03  0.37022759064E+03  0.12000000000E+03 0.  0.
         25    1    1    2    0    0  0.24678635757E+02  0.66216148308E+02 -0.37357767233E+03  0.39869021887E+03  0.12000000000E+03 0.  0.
<mgrwt>
<rscale>  0 0.27874186E+03</rscale>
<asrwt>0</asrwt>
<pdfrwt beam="1">  1        1 0.11427179E+00 0.27874186E+03</pdfrwt>
<pdfrwt beam="2">  1       -1 0.40232652E-02 0.27874186E+03</pdfrwt>
<totfact> 0.62805701E+03</totfact>
</mgrwt>
</event>
<event>
 4    1  0.1762274E-004  0.3027460E+03  0.7818608E-02  0.1083876E+00
         -1   -1    0    0    0  501 -0.00000000000E+00  0.00000000000E+00  0.12360928306E+02  0.12360928306E+02  0.00000000000E+00 0. -1.
          1   -1    0    0  501    0  0.00000000000E+00 -0.00000000000E+00 -0.18537270786E+04  0.18537270786E+04  0.00000000000E+00 0. -1.
         25    1    1    2    0    0  0.10259016880E+02 -0.67761779198E+02 -0.13014927876E+04  0.13088087646E+04  0.12000000000E+03 0.  0.
         25    1    1    2    0    0 -0.10259016880E+02  0.67761779198E+02 -0.53987336271E+03  0.55727924231E+03  0.12000000000E+03 0.  0.
<mgrwt>
<rscale>  0 0.30274602E+03</rscale>
<asrwt>0</asrwt>
<pdfrwt beam="1">  1        1 0.28518860E+00 0.30274602E+03</pdfrwt>
<pdfrwt beam="2">  1       -1 0.19016825E-02 0.30274602E+03</pdfrwt>
<totfact> 0.30982245E+03</totfact>
</mgrwt>
</event>
<event>
 4    1  0.1762274E-004  0.2751673E+03  0.7818608E-02  0.1098358E+00
         -2   -1    0    0    0  501 -0.00000000000E+00  0.00000000000E+00  0.14373782763E+02  0.14373782763E+02  0.00000000000E+00 0.  1.
          2   -1    0    0  501    0  0.00000000000E+00 -0.00000000000E+00 -0.13169299489E+04  0.13169299489E+04  0.00000000000E+00 0.  1.
         25    1    1    2    0    0  0.52909778561E+02 -0.19820887952E+02 -0.47437381756E+03  0.49256759034E+03  0.12000000000E+03 0.  0.
         25    1    1    2    0    0 -0.52909778561E+02  0.19820887952E+02 -0.82818234861E+03  0.83873614135E+03  0.12000000000E+03 0.  0.
<mgrwt>
<rscale>  0 0.27516733E+03</rscale>
<asrwt>0</asrwt>
<pdfrwt beam="1">  1        2 0.20260458E+00 0.27516733E+03</pdfrwt>
<pdfrwt beam="2">  1       -2 0.22113515E-02 0.27516733E+03</pdfrwt>
<totfact> 0.11436014E+04</totfact>
</mgrwt>
</event>
<event>
 4    1  0.1762274E-004  0.3453978E+03  0.7818608E-02  0.1064520E+00
          2   -1    0    0  501    0  0.00000000000E+00  0.00000000000E+00  0.64823072245E+03  0.64823072245E+03  0.00000000000E+00 0.  1.
         -2   -1    0    0    0  501 -0.00000000000E+00 -0.00000000000E+00 -0.46009702302E+02  0.46009702302E+02  0.00000000000E+00 0.  1.
         25    1    1    2    0    0 -0.60117400497E+02  0.10341521038E+03  0.36825972877E+03  0.40536901141E+03  0.12000000000E+03 0.  0.
         25    1    1    2    0    0  0.60117400497E+02 -0.10341521038E+03  0.23396129138E+03  0.28887141334E+03  0.12000000000E+03 0.  0.
<mgrwt>
<rscale>  0 0.34539776E+03</rscale>
<asrwt>0</asrwt>
<pdfrwt beam="1">  1        2 0.99727797E-01 0.34539776E+03</pdfrwt>
<pdfrwt beam="2">  1       -2 0.70784162E-02 0.34539776E+03</pdfrwt>
<totfact> 0.52924765E+03</totfact>
</mgrwt>
</event>
<event>
 4    1  0.1762274E-004  0.3521869E+03  0.7818608E-02  0.1061721E+00
         -1   -1    0    0    0  501 -0.00000000000E+00  0.00000000000E+00  0.29025062627E+03  0.29025062627E+03  0.00000000000E+00 0.  1.
          1   -1    0    0  501    0  0.00000000000E+00 -0.00000000000E+00 -0.10683493937E+03  0.10683493937E+03  0.00000000000E+00 0.  1.
         25    1    1    2    0    0  0.27035922726E+02  0.96449133727E+02  0.18313522899E+03  0.24077352141E+03  0.12000000000E+03 0.  0.
         25    1    1    2    0    0 -0.27035922726E+02 -0.96449133727E+02  0.28045791356E+00  0.15631204423E+03  0.12000000000E+03 0.  0.
<mgrwt>
<rscale>  0 0.35218693E+03</rscale>
<asrwt>0</asrwt>
<pdfrwt beam="1">  1        1 0.16436145E-01 0.35218693E+03</pdfrwt>
<pdfrwt beam="2">  1       -1 0.44653942E-01 0.35218693E+03</pdfrwt>
<totfact> 0.16771368E+03</totfact>
</mgrwt>
</event>
<event>
 4    1  0.1762274E-004  0.2651991E+03  0.7818608E-02  0.1104059E+00
         -2   -1    0    0    0  501 -0.00000000000E+00  0.00000000000E+00  0.79913368869E+03  0.79913368869E+03  0.00000000000E+00 0. -1.
          2   -1    0    0  501    0  0.00000000000E+00 -0.00000000000E+00 -0.22002124115E+02  0.22002124115E+02  0.00000000000E+00 0. -1.
         25    1    1    2    0    0 -0.48049254826E+02 -0.28241172025E+01  0.47967973480E+03  0.49679910880E+03  0.12000000000E+03 0.  0.
         25    1    1    2    0    0  0.48049254826E+02  0.28241172025E+01  0.29745182977E+03  0.32433670400E+03  0.12000000000E+03 0.  0.
<mgrwt>
<rscale>  0 0.26519908E+03</rscale>
<asrwt>0</asrwt>
<pdfrwt beam="1">  1        2 0.33849428E-02 0.26519908E+03</pdfrwt>
<pdfrwt beam="2">  1       -2 0.12294362E+00 0.26519908E+03</pdfrwt>
<totfact> 0.13884608E+03</totfact>
</mgrwt>
</event>
<event>
 4    1  0.1762274E-004  0.2858513E+03  0.7818608E-02  0.1092535E+00
          2   -1    0    0  501    0  0.00000000000E+00  0.00000000000E+00  0.70338387792E+03  0.70338387792E+03  0.00000000000E+00 0.  1.
         -2   -1    0    0    0  501 -0.00000000000E+00 -0.00000000000E+00 -0.29042094132E+02  0.29042094132E+02  0.00000000000E+00 0.  1.
         25    1    1    2    0    0 -0.27538991741E+02 -0.72548878123E+02  0.33089203679E+03  0.36043206821E+03  0.12000000000E+03 0.  0.
         25    1    1    2    0    0  0.27538991741E+02  0.72548878123E+02  0.34344974701E+03  0.37199390385E+03  0.12000000000E+03 0.  0.
<mgrwt>
<rscale>  0 0.28585130E+03</rscale>
<asrwt>0</asrwt>
<pdfrwt beam="1">  1        2 0.10821289E+00 0.28585130E+03</pdfrwt>
<pdfrwt beam="2">  1       -2 0.44680150E-02 0.28585130E+03</pdfrwt>
<totfact> 0.96695235E+03</totfact>
</mgrwt>
</event>
<event>
 4    1  0.1762274E-004  0.3693323E+03  0.7818608E-02  0.1054949E+00
         -2   -1    0    0    0  501 -0.00000000000E+00  0.00000000000E+00  0.14498680413E+02  0.14498680413E+02  0.00000000000E+00 0.  1.
          2   -1    0    0  501    0  0.00000000000E+00 -0.00000000000E+00 -0.23520476155E+04  0.23520476155E+04  0.00000000000E+00 0.  1.
         25    1    1    2    0    0  0.98124272788E+02  0.80968833412E+02 -0.78876005905E+03  0.80791506710E+03  0.12000000000E+03 0.  0.
         25    1    1    2    0    0 -0.98124272788E+02 -0.80968833412E+02 -0.15487888761E+04  0.15586312288E+04  0.12000000000E+03 0.  0.
<mgrwt>
<rscale>  0 0.36933230E+03</rscale>
<asrwt>0</asrwt>
<pdfrwt beam="1">  1        2 0.36185363E+00 0.36933230E+03</pdfrwt>
<pdfrwt beam="2">  1       -2 0.22305653E-02 0.36933230E+03</pdfrwt>
<totfact> 0.31592137E+03</totfact>
</mgrwt>
</event>
<event>
 4    1  0.1762274E-004  0.2887062E+03  0.7818608E-02  0.1091027E+00
         -2   -1    0    0    0  501 -0.00000000000E+00  0.00000000000E+00  0.10996687950E+02  0.10996687950E+02  0.00000000000E+00 0. -1.
          2   -1    0    0  501    0  0.00000000000E+00 -0.00000000000E+00 -0.18949179617E+04  0.18949179617E+04  0.00000000000E+00 0. -1.
         25    1    1    2    0    0 -0.66106741021E+02  0.45457655102E+02 -0.93437055336E+03  0.94545482738E+03  0.12000000000E+03 0.  0.
         25    1    1    2    0    0  0.66106741021E+02 -0.45457655102E+02 -0.94955072041E+03  0.96045982230E+03  0.12000000000E+03 0.  0.
<mgrwt>
<rscale>  0 0.28870623E+03</rscale>
<asrwt>0</asrwt>
<pdfrwt beam="1">  1        2 0.29152563E+00 0.28870623E+03</pdfrwt>
<pdfrwt beam="2">  1       -2 0.16917994E-02 0.28870623E+03</pdfrwt>
<totfact> 0.83491533E+03</totfact>
</mgrwt>
</event>
<event>
 4    1  0.1762274E-004  0.3196103E+03  0.7818608E-02  0.1075829E+00
          2   -1    0    0  501    0  0.00000000000E+00  0.00000000000E+00  0.19402827746E+02  0.19402827746E+02  0.00000000000E+00 0.  1.
         -2   -1    0    0    0  501 -0.00000000000E+00 -0.00000000000E+00 -0.13161840890E+04  0.13161840890E+04  0.00000000000E+00 0.  1.
         25    1    1    2    0    0 -0.29271630760E+02 -0.87857590160E+02 -0.43687953844E+03  0.46242784910E+03  0.12000000000E+03 0.  0.
         25    1    1    2    0    0  0.29271630760E+02  0.87857590160E+02 -0.85990172286E+03  0.87315906769E+03  0.12000000000E+03 0.  0.
<mgrwt>
<rscale>  0 0.31961035E+03</rscale>
<asrwt>0</asrwt>
<pdfrwt beam="1">  1        2 0.29850486E-02 0.31961035E+03</pdfrwt>
<pdfrwt beam="2">  1       -2 0.20248999E+00 0.31961035E+03</pdfrwt>
<totfact> 0.43947677E+02</totfact>
</mgrwt>
</event>
<event>
 4    1  0.1762274E-004  0.4635792E+03  0.7818608E-02  0.1023748E+00
          1   -1    0    0  501    0  0.00000000000E+00  0.00000000000E+00  0.46191235343E+03  0.46191235343E+03  0.00000000000E+00 0. -1.
         -1   -1    0    0    0  501 -0.00000000000E+00 -0.00000000000E+00 -0.11631303073E+03  0.11631303073E+03  0.00000000000E+00 0. -1.
         25    1    1    2    0    0 -0.10759912559E+03  0.94603861203E+02  0.17823265677E+01  0.18689740253E+03  0.12000000000E+03 0.  0.
         25    1    1    2    0    0  0.10759912559E+03 -0.94603861203E+02  0.34381699613E+03  0.39132798164E+03  0.12000000000E+03 0.  0.
<mgrwt>
<rscale>  0 0.46357923E+03</rscale>
<asrwt>0</asrwt>
<pdfrwt beam="1">  1        1 0.71063438E-01 0.46357923E+03</pdfrwt>
<pdfrwt beam="2">  1       -1 0.17894313E-01 0.46357923E+03</pdfrwt>
<totfact> 0.12172553E+03</totfact>
</mgrwt>
</event>
<event>
 4    1  0.1762274E-004  0.3358840E+03  0.7818608E-02  0.1068563E+00
          2   -1    0    0  501    0  0.00000000000E+00  0.00000000000E+00  0.21446677057E+04  0.21446677057E+04  0.00000000000E+00 0. -1.
         -2   -1    0    0    0  501 -0.00000000000E+00 -0.00000000000E+00 -0.13150995753E+02  0.13150995753E+02  0.00000000000E+00 0. -1.
         25    1    1    2    0    0  0.93612025317E+02  0.58777235614E+02  0.13216471720E+04  0.13316790987E+04  0.12000000000E+03 0.  0.
         25    1    1    2    0    0 -0.93612025317E+02 -0.58777235614E+02  0.80986953794E+03  0.82613960273E+03  0.12000000000E+03 0.  0.
<mgrwt>
<rscale>  0 0.33588400E+03</rscale>
<asrwt>0</asrwt>
<pdfrwt beam="1">  1        2 0.32994860E+00 0.33588400E+03</pdfrwt>
<pdfrwt beam="2">  1       -2 0.20232318E-02 0.33588400E+03</pdfrwt>
<totfact> 0.47300832E+03</totfact>
</mgrwt>
</event>
<event>
 4    1  0.1762274E-004  0.2631218E+03  0.7818608E-02  0.1105282E+00
          1   -1    0    0  501    0  0.00000000000E+00  0.00000000000E+00  0.34795445094E+03  0.34795445094E+03  0.00000000000E+00 0. -1.
         -1   -1    0    0    0  501 -0.00000000000E+00 -0.00000000000E+00 -0.49742920514E+02  0.49742920514E+02  0.00000000000E+00 0. -1.
         25    1    1    2    0    0  0.24470078011E+01 -0.51027289415E+02  0.12299215297E+03  0.17926751464E+03  0.12000000000E+03 0.  0.
         25    1    1    2    0    0 -0.24470078011E+01  0.51027289415E+02  0.17521937746E+03  0.21842985681E+03  0.12000000000E+03 0.  0.
<mgrwt>
<rscale>  0 0.26312180E+03</rscale>
<asrwt>0</asrwt>
<pdfrwt beam="1">  1        1 0.53531452E-01 0.26312180E+03</pdfrwt>
<pdfrwt beam="2">  1       -1 0.76527572E-02 0.26312180E+03</pdfrwt>
<totfact> 0.66253258E+03</totfact>
</mgrwt>
</event>
<event>
 4    1  0.1762274E-004  0.2514559E+03  0.7818608E-02  0.1112388E+00
          1   -1    0    0  501    0  0.00000000000E+00  0.00000000000E+00  0.18001904658E+03  0.18001904658E+03  0.00000000000E+00 0.  1.
         -1   -1    0    0    0  501 -0.00000000000E+00 -0.00000000000E+00 -0.87810252027E+02  0.87810252027E+02  0.00000000000E+00 0.  1.
         25    1    1    2    0    0 -0.24500263064E+02  0.15595546695E+02  0.71400222085E+02  0.14262354532E+03  0.12000000000E+03 0.  0.
         25    1    1    2    0    0  0.24500263064E+02 -0.15595546695E+02  0.20808572467E+02  0.12520575328E+03  0.12000000000E+03 0.  0.
<mgrwt>
<rscale>  0 0.25145590E+03</rscale>
<asrwt>0</asrwt>
<pdfrwt beam="1">  1        1 0.27695238E-01 0.25145590E+03</pdfrwt>
<pdfrwt beam="2">  1       -1 0.13509270E-01 0.25145590E+03</pdfrwt>
<totfact> 0.62905796E+03</totfact>
</mgrwt>
</event>
<event>
 4    1  0.1762274E-004  0.2831529E+03  0.7818608E-02  0.1093979E+00
          2   -1    0    0  501    0  0.00000000000E+00  0.00000000000E+00  0.65494281903E+03  0.65494281903E+03  0.00000000000E+00 0.  1.
         -2   -1    0    0    0  501 -0.00000000000E+00 -0.00000000000E+00 -0.30604041227E+02  0.30604041227E+02  0.00000000000E+00 0.  1.
         25    1    1    2    0    0  0.66576676417E+02 -0.75901135824E+01  0.39441024378E+03  0.41767152652E+03  0.12000000000E+03 0.  0.
         25    1    1    2    0    0 -0.66576676417E+02  0.75901135824E+01  0.22992853403E+03  0.26787533374E+03  0.12000000000E+03 0.  0.
<mgrwt>
<rscale>  0 0.28315294E+03</rscale>
<asrwt>0</asrwt>
<pdfrwt beam="1">  1        2 0.10076042E+00 0.28315294E+03</pdfrwt>
<pdfrwt beam="2">  1       -2 0.47083145E-02 0.28315294E+03</pdfrwt>
<totfact> 0.97299099E+03</totfact>
</mgrwt>
</event>
<event>
 4    1  0.1762274E-004  0.2880151E+03  0.7818608E-02  0.1091390E+00
          2   -1    0    0  501    0  0.00000000000E+00  0.00000000000E+00  0.37110173303E+04  0.37110173303E+04  0.00000000000E+00 0. -1.
         -2   -1    0    0    0  501 -0.00000000000E+00 -0.00000000000E+00 -0.55882735355E+01  0.55882735355E+01  0.00000000000E+00 0. -1.
         25    1    1    2    0    0 -0.27890737418E+02 -0.43226548055E+01  0.89210076875E+03  0.90057779241E+03  0.12000000000E+03 0.  0.
         25    1    1    2    0    0  0.27890737418E+02  0.43226548055E+01  0.28133282880E+04  0.28160278114E+04  0.12000000000E+03 0.  0.
<mgrwt>
<rscale>  0 0.28801514E+03</rscale>
<asrwt>0</asrwt>
<pdfrwt beam="1">  1        2 0.57092377E+00 0.28801514E+03</pdfrwt>
<pdfrwt beam="2">  1       -2 0.85973736E-03 0.28801514E+03</pdfrwt>
<totfact> 0.19295790E+03</totfact>
</mgrwt>
</event>
<event>
 4    1  0.1762274E-004  0.2692636E+03  0.7818608E-02  0.1101702E+00
         -2   -1    0    0    0  501 -0.00000000000E+00  0.00000000000E+00  0.42647550787E+02  0.42647550787E+02  0.00000000000E+00 0. -1.
          2   -1    0    0  501    0  0.00000000000E+00 -0.00000000000E+00 -0.42501208009E+03  0.42501208009E+03  0.00000000000E+00 0. -1.
         25    1    1    2    0    0 -0.42303714366E+02  0.77464826894E+01 -0.11595390605E+03  0.17232214185E+03  0.12000000000E+03 0.  0.
         25    1    1    2    0    0  0.42303714366E+02 -0.77464826894E+01 -0.26641062326E+03  0.29533748903E+03  0.12000000000E+03 0.  0.
<mgrwt>
<rscale>  0 0.26926362E+03</rscale>
<asrwt>0</asrwt>
<pdfrwt beam="1">  1        2 0.65386475E-01 0.26926362E+03</pdfrwt>
<pdfrwt beam="2">  1       -2 0.65611616E-02 0.26926362E+03</pdfrwt>
<totfact> 0.95484483E+03</totfact>
</mgrwt>
</event>
<event>
 4    1  0.1762274E-004  0.3375436E+03  0.7818608E-02  0.1067847E+00
          1   -1    0    0  501    0  0.00000000000E+00  0.00000000000E+00  0.99859470285E+03  0.99859470285E+03  0.00000000000E+00 0.  1.
         -1   -1    0    0    0  501 -0.00000000000E+00 -0.00000000000E+00 -0.28524009591E+02  0.28524009591E+02  0.00000000000E+00 0.  1.
         25    1    1    2    0    0 -0.61509753099E+02 -0.42787090180E+02  0.20499166982E+03  0.24906980850E+03  0.12000000000E+03 0.  0.
         25    1    1    2    0    0  0.61509753099E+02  0.42787090180E+02  0.76507902344E+03  0.77804890394E+03  0.12000000000E+03 0.  0.
<mgrwt>
<rscale>  0 0.33754363E+03</rscale>
<asrwt>0</asrwt>
<pdfrwt beam="1">  1        1 0.15362993E+00 0.33754363E+03</pdfrwt>
<pdfrwt beam="2">  1       -1 0.43883099E-02 0.33754363E+03</pdfrwt>
<totfact> 0.34411472E+03</totfact>
</mgrwt>
</event>
<event>
 4    1  0.1762274E-004  0.2538438E+03  0.7818608E-02  0.1110899E+00
          2   -1    0    0  501    0  0.00000000000E+00  0.00000000000E+00  0.10410296115E+03  0.10410296115E+03  0.00000000000E+00 0. -1.
         -2   -1    0    0    0  501 -0.00000000000E+00 -0.00000000000E+00 -0.15474264802E+03  0.15474264802E+03  0.00000000000E+00 0. -1.
         25    1    1    2    0    0  0.20626693234E+02 -0.24340653357E+02  0.14896545944E+01  0.12417788430E+03  0.12000000000E+03 0.  0.
         25    1    1    2    0    0 -0.20626693234E+02  0.24340653357E+02 -0.52129341467E+02  0.13466772487E+03  0.12000000000E+03 0.  0.
<mgrwt>
<rscale>  0 0.25384379E+03</rscale>
<asrwt>0</asrwt>
<pdfrwt beam="1">  1        2 0.16015840E-01 0.25384379E+03</pdfrwt>
<pdfrwt beam="2">  1       -2 0.23806561E-01 0.25384379E+03</pdfrwt>
<totfact> 0.55232098E+03</totfact>
</mgrwt>
</event>
<event>
 4    1  0.1762274E-004  0.2561377E+03  0.7818608E-02  0.1109486E+00
         -2   -1    0    0    0  501 -0.00000000000E+00  0.00000000000E+00  0.11873104141E+02  0.11873104141E+02  0.00000000000E+00 0. -1.
          2   -1    0    0  501    0  0.00000000000E+00 -0.00000000000E+00 -0.13814103816E+04  0.13814103816E+04  0.00000000000E+00 0. -1.
         25    1    1    2    0    0  0.14256285927E+02  0.88166378111E+01 -0.45913032837E+03  0.47484906362E+03  0.12000000000E+03 0.  0.
         25    1    1    2    0    0 -0.14256285927E+02 -0.88166378111E+01 -0.91040694908E+03  0.91843442212E+03  0.12000000000E+03 0.  0.
<mgrwt>
<rscale>  0 0.25613769E+03</rscale>
<asrwt>0</asrwt>
<pdfrwt beam="1">  1        2 0.21252453E+00 0.25613769E+03</pdfrwt>
<pdfrwt beam="2">  1       -2 0.18266326E-02 0.25613769E+03</pdfrwt>
<totfact> 0.13936712E+04</totfact>
</mgrwt>
</event>
<event>
 4    1  0.1762274E-004  0.3947387E+03  0.7818608E-02  0.1045617E+00
          1   -1    0    0  501    0  0.00000000000E+00  0.00000000000E+00  0.18179357424E+04  0.18179357424E+04  0.00000000000E+00 0. -1.
         -1   -1    0    0    0  501 -0.00000000000E+00 -0.00000000000E+00 -0.21427958114E+02  0.21427958114E+02  0.00000000000E+00 0. -1.
         25    1    1    2    0    0 -0.16827052929E+02 -0.35853681334E+02  0.19179027931E+03  0.22967835643E+03  0.12000000000E+03 0.  0.
         25    1    1    2    0    0  0.16827052929E+02  0.35853681334E+02  0.16047175050E+04  0.16096853441E+04  0.12000000000E+03 0.  0.
<mgrwt>
<rscale>  0 0.39473865E+03</rscale>
<asrwt>0</asrwt>
<pdfrwt beam="1">  1        1 0.27968230E+00 0.39473865E+03</pdfrwt>
<pdfrwt beam="2">  1       -1 0.32966104E-02 0.39473865E+03</pdfrwt>
<totfact> 0.14433579E+03</totfact>
</mgrwt>
</event>
<event>
 4    1  0.1762274E-004  0.3204345E+03  0.7818608E-02  0.1075449E+00
         -1   -1    0    0    0  501 -0.00000000000E+00  0.00000000000E+00  0.27255155649E+03  0.27255155649E+03  0.00000000000E+00 0. -1.
          1   -1    0    0  501    0  0.00000000000E+00 -0.00000000000E+00 -0.94182448555E+02  0.94182448555E+02  0.00000000000E+00 0. -1.
         25    1    1    2    0    0  0.90196369102E+01  0.77543666686E+02  0.17151782784E+03  0.22341159182E+03  0.12000000000E+03 0.  0.
         25    1    1    2    0    0 -0.90196369102E+01 -0.77543666686E+02  0.68512800945E+01  0.14332241322E+03  0.12000000000E+03 0.  0.
<mgrwt>
<rscale>  0 0.32043454E+03</rscale>
<asrwt>0</asrwt>
<pdfrwt beam="1">  1        1 0.14489608E-01 0.32043454E+03</pdfrwt>
<pdfrwt beam="2">  1       -1 0.41931008E-01 0.32043454E+03</pdfrwt>
<totfact> 0.22162121E+03</totfact>
</mgrwt>
</event>
<event>
 4    1  0.1762274E-004  0.2677533E+03  0.7818608E-02  0.1102572E+00
          2   -1    0    0  501    0  0.00000000000E+00  0.00000000000E+00  0.49390151689E+02  0.49390151689E+02  0.00000000000E+00 0. -1.
         -2   -1    0    0    0  501 -0.00000000000E+00 -0.00000000000E+00 -0.36288519648E+03  0.36288519648E+03  0.00000000000E+00 0. -1.
         25    1    1    2    0    0 -0.28228595659E+02 -0.34789752518E+02 -0.96800191618E+02  0.16055359725E+03  0.12000000000E+03 0.  0.
         25    1    1    2    0    0  0.28228595659E+02  0.34789752518E+02 -0.21669485317E+03  0.25172175092E+03  0.12000000000E+03 0.  0.
<mgrwt>
<rscale>  0 0.26775328E+03</rscale>
<asrwt>0</asrwt>
<pdfrwt beam="1">  1        2 0.75984849E-02 0.26775328E+03</pdfrwt>
<pdfrwt beam="2">  1       -2 0.55828491E-01 0.26775328E+03</pdfrwt>
<totfact> 0.27764721E+03</totfact>
</mgrwt>
</event>
<event>
 4    1  0.1762274E-004  0.2871901E+03  0.7818608E-02  0.1091825E+00
          2   -1    0    0  501    0  0.00000000000E+00  0.00000000000E+00  0.18783881620E+03  0.18783881620E+03  0.00000000000E+00 0.  1.
         -2   -1    0    0    0  501 -0.00000000000E+00 -0.00000000000E+00 -0.10977247417E+03  0.10977247417E+03  0.00000000000E+00 0.  1.
         25    1    1    2    0    0 -0.11852349962E+02  0.57142920760E+02  0.94002697043E+02  0.16322468761E+03  0.12000000000E+03 0.  0.
         25    1    1    2    0    0  0.11852349962E+02 -0.57142920760E+02 -0.15936355014E+02  0.13438660277E+03  0.12000000000E+03 0.  0.
<mgrwt>
<rscale>  0 0.28719005E+03</rscale>
<asrwt>0</asrwt>
<pdfrwt beam="1">  1        2 0.28898279E-01 0.28719005E+03</pdfrwt>
<pdfrwt beam="2">  1       -2 0.16888073E-01 0.28719005E+03</pdfrwt>
<totfact> 0.51049976E+03</totfact>
</mgrwt>
</event>
<event>
 4    1  0.1762274E-004  0.5730965E+03  0.7818608E-02  0.9962850E-01
          1   -1    0    0  501    0  0.00000000000E+00  0.00000000000E+00  0.23319333529E+04  0.23319333529E+04  0.00000000000E+00 0. -1.
         -1   -1    0    0    0  501 -0.00000000000E+00 -0.00000000000E+00 -0.35211081677E+02  0.35211081677E+02  0.00000000000E+00 0. -1.
         25    1    1    2    0    0 -0.16857301917E+03  0.18751430076E+03  0.14138502287E+04  0.14411630529E+04  0.12000000000E+03 0.  0.
         25    1    1    2    0    0  0.16857301917E+03 -0.18751430076E+03  0.88287204246E+03  0.92598138164E+03  0.12000000000E+03 0.  0.
<mgrwt>
<rscale>  0 0.57309649E+03</rscale>
<asrwt>0</asrwt>
<pdfrwt beam="1">  1        1 0.35875886E+00 0.57309649E+03</pdfrwt>
<pdfrwt beam="2">  1       -1 0.54170913E-02 0.57309649E+03</pdfrwt>
<totfact> 0.30639671E+02</totfact>
</mgrwt>
</event>
<event>
 4    1  0.1762274E-004  0.3211020E+03  0.7818608E-02  0.1075143E+00
          4   -1    0    0  501    0  0.00000000000E+00  0.00000000000E+00  0.49578167061E+03  0.49578167061E+03  0.00000000000E+00 0.  1.
         -4   -1    0    0    0  501 -0.00000000000E+00 -0.00000000000E+00 -0.51991886652E+02  0.51991886652E+02  0.00000000000E+00 0.  1.
         25    1    1    2    0    0 -0.77192257613E+01 -0.43356397801E+02  0.56172564763E+02  0.13962349626E+03  0.12000000000E+03 0.  0.
         25    1    1    2    0    0  0.77192257613E+01  0.43356397801E+02  0.38761721920E+03  0.40815006100E+03  0.12000000000E+03 0.  0.
<mgrwt>
<rscale>  0 0.32110201E+03</rscale>
<asrwt>0</asrwt>
<pdfrwt beam="1">  1        4 0.76274100E-01 0.32110201E+03</pdfrwt>
<pdfrwt beam="2">  1       -4 0.79987521E-02 0.32110201E+03</pdfrwt>
<totfact> 0.33225207E+02</totfact>
</mgrwt>
</event>
<event>
 4    1  0.1762274E-004  0.5532682E+03  0.7818608E-02  0.1000740E+00
          2   -1    0    0  501    0  0.00000000000E+00  0.00000000000E+00  0.12956688146E+04  0.12956688146E+04  0.00000000000E+00 0.  1.
         -2   -1    0    0    0  501 -0.00000000000E+00 -0.00000000000E+00 -0.59063250282E+02  0.59063250282E+02  0.00000000000E+00 0.  1.
         25    1    1    2    0    0 -0.79762856011E+02 -0.63427183111E+02  0.11752786378E+04  0.11857761160E+04  0.12000000000E+03 0.  0.
         25    1    1    2    0    0  0.79762856011E+02  0.63427183111E+02  0.61326926532E+02  0.16895594892E+03  0.12000000000E+03 0.  0.
<mgrwt>
<rscale>  0 0.55326815E+03</rscale>
<asrwt>0</asrwt>
<pdfrwt beam="1">  1        2 0.19933364E+00 0.55326815E+03</pdfrwt>
<pdfrwt beam="2">  1       -2 0.90866549E-02 0.55326815E+03</pdfrwt>
<totfact> 0.13520724E+03</totfact>
</mgrwt>
</event>
<event>
 4    1  0.1762274E-004  0.3150285E+03  0.7818608E-02  0.1077960E+00
         -2   -1    0    0    0  501 -0.00000000000E+00  0.00000000000E+00  0.38468242316E+02  0.38468242316E+02  0.00000000000E+00 0.  1.
          2   -1    0    0  501    0  0.00000000000E+00 -0.00000000000E+00 -0.64496693002E+03  0.64496693002E+03  0.00000000000E+00 0.  1.
         25    1    1    2    0    0  0.87279311391E+01 -0.99657736289E+02 -0.25970340416E+03  0.30307375227E+03  0.12000000000E+03 0.  0.
         25    1    1    2    0    0 -0.87279311391E+01  0.99657736289E+02 -0.34679528354E+03  0.38036142006E+03  0.12000000000E+03 0.  0.
<mgrwt>
<rscale>  0 0.31502853E+03</rscale>
<asrwt>0</asrwt>
<pdfrwt beam="1">  1        2 0.99225671E-01 0.31502853E+03</pdfrwt>
<pdfrwt beam="2">  1       -2 0.59181917E-02 0.31502853E+03</pdfrwt>
<totfact> 0.70103403E+03</totfact>
</mgrwt>
</event>
<event>
 4    1  0.1762274E-004  0.3145464E+03  0.7818608E-02  0.1078187E+00
         -1   -1    0    0    0  501 -0.00000000000E+00  0.00000000000E+00  0.39345371877E+03  0.39345371877E+03  0.00000000000E+00 0.  1.
          1   -1    0    0  501    0  0.00000000000E+00 -0.00000000000E+00 -0.62865998964E+02  0.62865998964E+02  0.00000000000E+00 0.  1.
         25    1    1    2    0    0 -0.70934079268E+02  0.63833766684E+02  0.21614098161E+03  0.26499682508E+03  0.12000000000E+03 0.  0.
         25    1    1    2    0    0  0.70934079268E+02 -0.63833766684E+02  0.11444673820E+03  0.19132289266E+03  0.12000000000E+03 0.  0.
<mgrwt>
<rscale>  0 0.31454641E+03</rscale>
<asrwt>0</asrwt>
<pdfrwt beam="1">  1        1 0.96716924E-02 0.31454641E+03</pdfrwt>
<pdfrwt beam="2">  1       -1 0.60531340E-01 0.31454641E+03</pdfrwt>
<totfact> 0.19207012E+03</totfact>
</mgrwt>
</event>
<event>
 4    1  0.1762274E-004  0.3760796E+03  0.7818608E-02  0.1052392E+00
         -2   -1    0    0    0  501 -0.00000000000E+00  0.00000000000E+00  0.51937793832E+03  0.51937793832E+03  0.00000000000E+00 0.  1.
          2   -1    0    0  501    0  0.00000000000E+00 -0.00000000000E+00 -0.68079463123E+02  0.68079463123E+02  0.00000000000E+00 0.  1.
         25    1    1    2    0    0 -0.26565421533E+02  0.43738057181E+02  0.43719239677E+03  0.45624108875E+03  0.12000000000E+03 0.  0.
         25    1    1    2    0    0  0.26565421533E+02 -0.43738057181E+02  0.14106078419E+02  0.13121631269E+03  0.12000000000E+03 0.  0.
<mgrwt>
<rscale>  0 0.37607963E+03</rscale>
<asrwt>0</asrwt>
<pdfrwt beam="1">  1        2 0.10473764E-01 0.37607963E+03</pdfrwt>
<pdfrwt beam="2">  1       -2 0.79904296E-01 0.37607963E+03</pdfrwt>
<totfact> 0.86907407E+02</totfact>
</mgrwt>
</event>
<event>
 4    1  0.1762274E-004  0.2471957E+03  0.7818608E-02  0.1115090E+00
         -2   -1    0    0    0  501 -0.00000000000E+00  0.00000000000E+00  0.59816945069E+03  0.59816945069E+03  0.00000000000E+00 0.  1.
          2   -1    0    0  501    0  0.00000000000E+00 -0.00000000000E+00 -0.25538632220E+02  0.25538632220E+02  0.00000000000E+00 0.  1.
         25    1    1    2    0    0 -0.10707857360E+02  0.27306897544E+02  0.27618988890E+03  0.30255772936E+03  0.12000000000E+03 0.  0.
         25    1    1    2    0    0  0.10707857360E+02 -0.27306897544E+02  0.29644092956E+03  0.32115035355E+03  0.12000000000E+03 0.  0.
<mgrwt>
<rscale>  0 0.24719571E+03</rscale>
<asrwt>0</asrwt>
<pdfrwt beam="1">  1        2 0.39290208E-02 0.24719571E+03</pdfrwt>
<pdfrwt beam="2">  1       -2 0.92026059E-01 0.24719571E+03</pdfrwt>
<totfact> 0.22418132E+03</totfact>
</mgrwt>
</event>
<event>
 4    1  0.1762274E-004  0.3846214E+03  0.7818608E-02  0.1049239E+00
          2   -1    0    0  501    0  0.00000000000E+00  0.00000000000E+00  0.60557231701E+03  0.60557231701E+03  0.00000000000E+00 0. -1.
         -2   -1    0    0    0  501 -0.00000000000E+00 -0.00000000000E+00 -0.61071818493E+02  0.61071818493E+02  0.00000000000E+00 0. -1.
         25    1    1    2    0    0 -0.13693786591E+03 -0.43677626765E+02  0.19623022553E+03  0.27123055804E+03  0.12000000000E+03 0.  0.
         25    1    1    2    0    0  0.13693786591E+03  0.43677626765E+02  0.34827027299E+03  0.39541357747E+03  0.12000000000E+03 0.  0.
<mgrwt>
<rscale>  0 0.38462139E+03</rscale>
<asrwt>0</asrwt>
<pdfrwt beam="1">  1        2 0.93164968E-01 0.38462139E+03</pdfrwt>
<pdfrwt beam="2">  1       -2 0.93956648E-02 0.38462139E+03</pdfrwt>
<totfact> 0.36786232E+03</totfact>
</mgrwt>
</event>
<event>
 4    1  0.1762274E-004  0.2817392E+03  0.7818608E-02  0.1094743E+00
         -2   -1    0    0    0  501 -0.00000000000E+00  0.00000000000E+00  0.19037004495E+02  0.19037004495E+02  0.00000000000E+00 0. -1.
          2   -1    0    0  501    0  0.00000000000E+00 -0.00000000000E+00 -0.10424034043E+04  0.10424034043E+04  0.00000000000E+00 0. -1.
         25    1    1    2    0    0  0.36367567888E+02 -0.64142170541E+02 -0.50142058895E+03  0.52082571467E+03  0.12000000000E+03 0.  0.
         25    1    1    2    0    0 -0.36367567888E+02  0.64142170541E+02 -0.52194581082E+03  0.54061469409E+03  0.12000000000E+03 0.  0.
<mgrwt>
<rscale>  0 0.28173916E+03</rscale>
<asrwt>0</asrwt>
<pdfrwt beam="1">  1        2 0.16036976E+00 0.28173916E+03</pdfrwt>
<pdfrwt beam="2">  1       -2 0.29287699E-02 0.28173916E+03</pdfrwt>
<totfact> 0.10845694E+04</totfact>
</mgrwt>
</event>
<event>
 4    1  0.1762274E-004  0.2612260E+03  0.7818608E-02  0.1106409E+00
         -2   -1    0    0    0  501 -0.00000000000E+00  0.00000000000E+00  0.22801227015E+02  0.22801227015E+02  0.00000000000E+00 0.  1.
          2   -1    0    0  501    0  0.00000000000E+00 -0.00000000000E+00 -0.74819448520E+03  0.74819448520E+03  0.00000000000E+00 0.  1.
         25    1    1    2    0    0  0.58066303723E+01 -0.96740743025E+01 -0.51122377772E+03  0.52523999808E+03  0.12000000000E+03 0.  0.
         25    1    1    2    0    0 -0.58066303723E+01  0.96740743025E+01 -0.21416948046E+03  0.24575571413E+03  0.12000000000E+03 0.  0.
<mgrwt>
<rscale>  0 0.26122597E+03</rscale>
<asrwt>0</asrwt>
<pdfrwt beam="1">  1        2 0.11510688E+00 0.26122597E+03</pdfrwt>
<pdfrwt beam="2">  1       -2 0.35078800E-02 0.26122597E+03</pdfrwt>
<totfact> 0.12853733E+04</totfact>
</mgrwt>
</event>
<event>
 4    1  0.1762274E-004  0.2741206E+03  0.7818608E-02  0.1098944E+00
          2   -1    0    0  501    0  0.00000000000E+00  0.00000000000E+00  0.87844099982E+03  0.87844099982E+03  0.00000000000E+00 0.  1.
         -2   -1    0    0    0  501 -0.00000000000E+00 -0.00000000000E+00 -0.21385067691E+02  0.21385067691E+02  0.00000000000E+00 0.  1.
         25    1    1    2    0    0 -0.45621389466E+02  0.43410599413E+02  0.49577937866E+03  0.51396788190E+03  0.12000000000E+03 0.  0.
         25    1    1    2    0    0  0.45621389466E+02 -0.43410599413E+02  0.36127655347E+03  0.38585818561E+03  0.12000000000E+03 0.  0.
<mgrwt>
<rscale>  0 0.27412056E+03</rscale>
<asrwt>0</asrwt>
<pdfrwt beam="1">  1        2 0.13514474E+00 0.27412056E+03</pdfrwt>
<pdfrwt beam="2">  1       -2 0.32900111E-02 0.27412056E+03</pdfrwt>
<totfact> 0.11540736E+04</totfact>
</mgrwt>
</event>
<event>
 4    1  0.1762274E-004  0.3302867E+03  0.7818608E-02  0.1071010E+00
          2   -1    0    0  501    0  0.00000000000E+00  0.00000000000E+00  0.86364286599E+03  0.86364286599E+03  0.00000000000E+00 0. -1.
         -2   -1    0    0    0  501 -0.00000000000E+00 -0.00000000000E+00 -0.31578251855E+02  0.31578251855E+02  0.00000000000E+00 0. -1.
         25    1    1    2    0    0 -0.58352317843E+02 -0.66759045284E+02  0.22417307535E+03  0.26928670750E+03  0.12000000000E+03 0.  0.
         25    1    1    2    0    0  0.58352317843E+02  0.66759045284E+02  0.60789153879E+03  0.62593441034E+03  0.12000000000E+03 0.  0.
<mgrwt>
<rscale>  0 0.33028674E+03</rscale>
<asrwt>0</asrwt>
<pdfrwt beam="1">  1        2 0.13286812E+00 0.33028674E+03</pdfrwt>
<pdfrwt beam="2">  1       -2 0.48581933E-02 0.33028674E+03</pdfrwt>
<totfact> 0.65892621E+03</totfact>
</mgrwt>
</event>
<event>
 4    1  0.1762274E-004  0.2540705E+03  0.7818608E-02  0.1110759E+00
          2   -1    0    0  501    0  0.00000000000E+00  0.00000000000E+00  0.62942942521E+02  0.62942942521E+02  0.00000000000E+00 0.  1.
         -2   -1    0    0    0  501 -0.00000000000E+00 -0.00000000000E+00 -0.25639024432E+03  0.25639024432E+03  0.00000000000E+00 0.  1.
         25    1    1    2    0    0  0.22999110803E+02  0.22791364006E+02 -0.12972813886E+03  0.17966022204E+03  0.12000000000E+03 0.  0.
         25    1    1    2    0    0 -0.22999110803E+02 -0.22791364006E+02 -0.63719162940E+02  0.13967296480E+03  0.12000000000E+03 0.  0.
<mgrwt>
<rscale>  0 0.25407051E+03</rscale>
<asrwt>0</asrwt>
<pdfrwt beam="1">  1        2 0.96835297E-02 0.25407051E+03</pdfrwt>
<pdfrwt beam="2">  1       -2 0.39444653E-01 0.25407051E+03</pdfrwt>
<totfact> 0.40460578E+03</totfact>
</mgrwt>
</event>
<event>
 4    1  0.1762274E-004  0.2520058E+03  0.7818608E-02  0.1112044E+00
          1   -1    0    0  501    0  0.00000000000E+00  0.00000000000E+00  0.10382709015E+04  0.10382709015E+04  0.00000000000E+00 0. -1.
         -1   -1    0    0    0  501 -0.00000000000E+00 -0.00000000000E+00 -0.15291515409E+02  0.15291515409E+02  0.00000000000E+00 0. -1.
         25    1    1    2    0    0  0.37831623343E+02  0.32736265149E+01  0.53614775779E+03  0.55072349372E+03  0.12000000000E+03 0.  0.
         25    1    1    2    0    0 -0.37831623343E+02 -0.32736265149E+01  0.48683162827E+03  0.50283892316E+03  0.12000000000E+03 0.  0.
<mgrwt>
<rscale>  0 0.25200584E+03</rscale>
<asrwt>0</asrwt>
<pdfrwt beam="1">  1        1 0.15973393E+00 0.25200584E+03</pdfrwt>
<pdfrwt beam="2">  1       -1 0.23525417E-02 0.25200584E+03</pdfrwt>
<totfact> 0.80559834E+03</totfact>
</mgrwt>
</event>
<event>
 4    1  0.1762274E-004  0.2486915E+03  0.7818608E-02  0.1114135E+00
         -2   -1    0    0    0  501 -0.00000000000E+00  0.00000000000E+00  0.28339065567E+02  0.28339065567E+02  0.00000000000E+00 0.  1.
          2   -1    0    0  501    0  0.00000000000E+00 -0.00000000000E+00 -0.54560261742E+03  0.54560261742E+03  0.00000000000E+00 0.  1.
         25    1    1    2    0    0 -0.28420040581E+02 -0.15931196745E+02 -0.26002914217E+03  0.28823021444E+03  0.12000000000E+03 0.  0.
         25    1    1    2    0    0  0.28420040581E+02  0.15931196745E+02 -0.25723440968E+03  0.28571146855E+03  0.12000000000E+03 0.  0.
<mgrwt>
<rscale>  0 0.24869152E+03</rscale>
<asrwt>0</asrwt>
<pdfrwt beam="1">  1        2 0.83938866E-01 0.24869152E+03</pdfrwt>
<pdfrwt beam="2">  1       -2 0.43598561E-02 0.24869152E+03</pdfrwt>
<totfact> 0.13437369E+04</totfact>
</mgrwt>
</event>
<event>
 4    1  0.1762274E-004  0.3119887E+03  0.7818608E-02  0.1079397E+00
         -2   -1    0    0    0  501 -0.00000000000E+00  0.00000000000E+00  0.10230098543E+03  0.10230098543E+03  0.00000000000E+00 0.  1.
          2   -1    0    0  501    0  0.00000000000E+00 -0.00000000000E+00 -0.23786902112E+03  0.23786902112E+03  0.00000000000E+00 0.  1.
         25    1    1    2    0    0 -0.51036719070E+02  0.79749178275E+02 -0.33833697656E+02  0.15655477388E+03  0.12000000000E+03 0.  0.
         25    1    1    2    0    0  0.51036719070E+02 -0.79749178275E+02 -0.10173433804E+03  0.18361523266E+03  0.12000000000E+03 0.  0.
<mgrwt>
<rscale>  0 0.31198869E+03</rscale>
<asrwt>0</asrwt>
<pdfrwt beam="1">  1        2 0.36595234E-01 0.31198869E+03</pdfrwt>
<pdfrwt beam="2">  1       -2 0.15738613E-01 0.31198869E+03</pdfrwt>
<totfact> 0.44459232E+03</totfact>
</mgrwt>
</event>
<event>
 4    1  0.1762274E-004  0.3541066E+03  0.7818608E-02  0.1060942E+00
          1   -1    0    0  501    0  0.00000000000E+00  0.00000000000E+00  0.43409753646E+03  0.43409753646E+03  0.00000000000E+00 0.  1.
         -1   -1    0    0    0  501 -0.00000000000E+00 -0.00000000000E+00 -0.72213869941E+02  0.72213869941E+02  0.00000000000E+00 0.  1.
         25    1    1    2    0    0  0.92199748473E+02  0.59285705310E+02  0.80524804287E+02  0.18138310996E+03  0.12000000000E+03 0.  0.
         25    1    1    2    0    0 -0.92199748473E+02 -0.59285705310E+02  0.28135886223E+03  0.32492829644E+03  0.12000000000E+03 0.  0.
<mgrwt>
<rscale>  0 0.35410655E+03</rscale>
<asrwt>0</asrwt>
<pdfrwt beam="1">  1        1 0.66784235E-01 0.35410655E+03</pdfrwt>
<pdfrwt beam="2">  1       -1 0.11109826E-01 0.35410655E+03</pdfrwt>
<totfact> 0.28249622E+03</totfact>
</mgrwt>
</event>
<event>
 4    1  0.1762274E-004  0.3986495E+03  0.7818608E-02  0.1044248E+00
          1   -1    0    0  501    0  0.00000000000E+00  0.00000000000E+00  0.72199966156E+03  0.72199966156E+03  0.00000000000E+00 0.  1.
         -1   -1    0    0    0  501 -0.00000000000E+00 -0.00000000000E+00 -0.55028210121E+02  0.55028210121E+02  0.00000000000E+00 0.  1.
         25    1    1    2    0    0  0.12723944549E+03  0.76129302346E+02  0.22075803438E+03  0.29175273248E+03  0.12000000000E+03 0.  0.
         25    1    1    2    0    0 -0.12723944549E+03 -0.76129302346E+02  0.44621341706E+03  0.48527513920E+03  0.12000000000E+03 0.  0.
<mgrwt>
<rscale>  0 0.39864947E+03</rscale>
<asrwt>0</asrwt>
<pdfrwt beam="1">  1        1 0.11107686E+00 0.39864947E+03</pdfrwt>
<pdfrwt beam="2">  1       -1 0.84658790E-02 0.39864947E+03</pdfrwt>
<totfact> 0.21312891E+03</totfact>
</mgrwt>
</event>
<event>
 4    1  0.1762274E-004  0.3544091E+03  0.7818608E-02  0.1060820E+00
          1   -1    0    0  501    0  0.00000000000E+00  0.00000000000E+00  0.15116005738E+03  0.15116005738E+03  0.00000000000E+00 0.  1.
         -1   -1    0    0    0  501 -0.00000000000E+00 -0.00000000000E+00 -0.20773648393E+03  0.20773648393E+03  0.00000000000E+00 0.  1.
         25    1    1    2    0    0 -0.73899195548E+02 -0.94625359324E+02  0.23212468081E+02  0.17132970672E+03  0.12000000000E+03 0.  0.
         25    1    1    2    0    0  0.73899195548E+02  0.94625359324E+02 -0.79788894636E+02  0.18756683459E+03  0.12000000000E+03 0.  0.
<mgrwt>
<rscale>  0 0.35440914E+03</rscale>
<asrwt>0</asrwt>
<pdfrwt beam="1">  1        1 0.23255393E-01 0.35440914E+03</pdfrwt>
<pdfrwt beam="2">  1       -1 0.31959459E-01 0.35440914E+03</pdfrwt>
<totfact> 0.19313653E+03</totfact>
</mgrwt>
</event>
<event>
 4    1  0.1762274E-004  0.3246132E+03  0.7818608E-02  0.1073546E+00
          1   -1    0    0  501    0  0.00000000000E+00  0.00000000000E+00  0.10786608249E+03  0.10786608249E+03  0.00000000000E+00 0. -1.
         -1   -1    0    0    0  501 -0.00000000000E+00 -0.00000000000E+00 -0.24422345594E+03  0.24422345594E+03  0.00000000000E+00 0. -1.
         25    1    1    2    0    0 -0.90719375493E+02  0.58680511831E+02 -0.50355520315E+02  0.16914220640E+03  0.12000000000E+03 0.  0.
         25    1    1    2    0    0  0.90719375493E+02 -0.58680511831E+02 -0.86001853133E+02  0.18294733204E+03  0.12000000000E+03 0.  0.
<mgrwt>
<rscale>  0 0.32461317E+03</rscale>
<asrwt>0</asrwt>
<pdfrwt beam="1">  1        1 0.16594782E-01 0.32461317E+03</pdfrwt>
<pdfrwt beam="2">  1       -1 0.37572839E-01 0.32461317E+03</pdfrwt>
<totfact> 0.22544320E+03</totfact>
</mgrwt>
</event>
<event>
 4    1  0.1762274E-004  0.2867394E+03  0.7818608E-02  0.1092064E+00
          1   -1    0    0  501    0  0.00000000000E+00  0.00000000000E+00  0.11602955693E+03  0.11602955693E+03  0.00000000000E+00 0. -1.
         -1   -1    0    0    0  501 -0.00000000000E+00 -0.00000000000E+00 -0.17715203508E+03  0.17715203508E+03  0.00000000000E+00 0. -1.
         25    1    1    2    0    0  0.41324551883E-01  0.31244471428E+02 -0.10414089244E+03  0.16193067709E+03  0.12000000000E+03 0.  0.
         25    1    1    2    0    0 -0.41324551883E-01 -0.31244471428E+02  0.43018414294E+02  0.13125091493E+03  0.12000000000E+03 0.  0.
<mgrwt>
<rscale>  0 0.28673941E+03</rscale>
<asrwt>0</asrwt>
<pdfrwt beam="1">  1        1 0.17850701E-01 0.28673941E+03</pdfrwt>
<pdfrwt beam="2">  1       -1 0.27254159E-01 0.28673941E+03</pdfrwt>
<totfact> 0.35532714E+03</totfact>
</mgrwt>
</event>
<event>
 4    1  0.1762274E-004  0.3721487E+03  0.7818608E-02  0.1053874E+00
         -1   -1    0    0    0  501 -0.00000000000E+00  0.00000000000E+00  0.56400483460E+02  0.56400483460E+02  0.00000000000E+00 0. -1.
          1   -1    0    0  501    0  0.00000000000E+00 -0.00000000000E+00 -0.61388954679E+03  0.61388954679E+03  0.00000000000E+00 0. -1.
         25    1    1    2    0    0  0.18103196010E+02  0.12214218417E+03 -0.40581364970E+03  0.44083007741E+03  0.12000000000E+03 0.  0.
         25    1    1    2    0    0 -0.18103196010E+02 -0.12214218417E+03 -0.15167541363E+03  0.22945995285E+03  0.12000000000E+03 0.  0.
<mgrwt>
<rscale>  0 0.37214872E+03</rscale>
<asrwt>0</asrwt>
<pdfrwt beam="1">  1        1 0.94444541E-01 0.37214872E+03</pdfrwt>
<pdfrwt beam="2">  1       -1 0.86769979E-02 0.37214872E+03</pdfrwt>
<totfact> 0.25962552E+03</totfact>
</mgrwt>
</event>
<event>
 4    1  0.1762274E-004  0.2677961E+03  0.7818608E-02  0.1102548E+00
         -2   -1    0    0    0  501 -0.00000000000E+00  0.00000000000E+00  0.45421703968E+01  0.45421703968E+01  0.00000000000E+00 0. -1.
          2   -1    0    0  501    0  0.00000000000E+00 -0.00000000000E+00 -0.39471642166E+04  0.39471642166E+04  0.00000000000E+00 0. -1.
         25    1    1    2    0    0 -0.28309479000E+02  0.41980565076E+02 -0.15129358679E+04  0.15185317695E+04  0.12000000000E+03 0.  0.
         25    1    1    2    0    0  0.28309479000E+02 -0.41980565076E+02 -0.24296861783E+04  0.24331746175E+04  0.12000000000E+03 0.  0.
<mgrwt>
<rscale>  0 0.26779613E+03</rscale>
<asrwt>0</asrwt>
<pdfrwt beam="1">  1        2 0.60725267E+00 0.26779613E+03</pdfrwt>
<pdfrwt beam="2">  1       -2 0.69879931E-03 0.26779613E+03</pdfrwt>
<totfact> 0.17611000E+03</totfact>
</mgrwt>
</event>
<event>
 4    1  0.1762274E-004  0.2457977E+03  0.7818608E-02  0.1115990E+00
          1   -1    0    0  501    0  0.00000000000E+00  0.00000000000E+00  0.44193935909E+03  0.44193935909E+03  0.00000000000E+00 0.  1.
         -1   -1    0    0    0  501 -0.00000000000E+00 -0.00000000000E+00 -0.34176925465E+02  0.34176925465E+02  0.00000000000E+00 0.  1.
         25    1    1    2    0    0  0.29454723119E+01  0.13594902940E+02  0.24765246567E+03  0.27554535189E+03  0.12000000000E+03 0.  0.
         25    1    1    2    0    0 -0.29454723119E+01 -0.13594902940E+02  0.16010996795E+03  0.20057093267E+03  0.12000000000E+03 0.  0.
<mgrwt>
<rscale>  0 0.24579771E+03</rscale>
<asrwt>0</asrwt>
<pdfrwt beam="1">  1        1 0.67990667E-01 0.24579771E+03</pdfrwt>
<pdfrwt beam="2">  1       -1 0.52579889E-02 0.24579771E+03</pdfrwt>
<totfact> 0.85774535E+03</totfact>
</mgrwt>
</event>
<event>
 4    1  0.1762274E-004  0.3837537E+03  0.7818608E-02  0.1049555E+00
         -2   -1    0    0    0  501 -0.00000000000E+00  0.00000000000E+00  0.31289177600E+02  0.31289177600E+02  0.00000000000E+00 0. -1.
          2   -1    0    0  501    0  0.00000000000E+00 -0.00000000000E+00 -0.11766599042E+04  0.11766599042E+04  0.00000000000E+00 0. -1.
         25    1    1    2    0    0  0.14003870923E+03 -0.50152240508E+02 -0.51902311720E+03  0.55309229202E+03  0.12000000000E+03 0.  0.
         25    1    1    2    0    0 -0.14003870923E+03  0.50152240508E+02 -0.62634760939E+03  0.65485678976E+03  0.12000000000E+03 0.  0.
<mgrwt>
<rscale>  0 0.38375367E+03</rscale>
<asrwt>0</asrwt>
<pdfrwt beam="1">  1        2 0.18102461E+00 0.38375367E+03</pdfrwt>
<pdfrwt beam="2">  1       -2 0.48137194E-02 0.38375367E+03</pdfrwt>
<totfact> 0.42920515E+03</totfact>
</mgrwt>
</event>
<event>
 4    1  0.1762274E-004  0.2905900E+03  0.7818608E-02  0.1090042E+00
         -2   -1    0    0    0  501 -0.00000000000E+00  0.00000000000E+00  0.64206738137E+02  0.64206738137E+02  0.00000000000E+00 0.  1.
          2   -1    0    0  501    0  0.00000000000E+00 -0.00000000000E+00 -0.32879155539E+03  0.32879155539E+03  0.00000000000E+00 0.  1.
         25    1    1    2    0    0  0.92515428840E+01 -0.61341938796E+02 -0.20464610018E+03  0.24521103324E+03  0.12000000000E+03 0.  0.
         25    1    1    2    0    0 -0.92515428840E+01  0.61341938796E+02 -0.59938717073E+02  0.14778726029E+03  0.12000000000E+03 0.  0.
<mgrwt>
<rscale>  0 0.29058997E+03</rscale>
<asrwt>0</asrwt>
<pdfrwt beam="1">  1        2 0.50583316E-01 0.29058997E+03</pdfrwt>
<pdfrwt beam="2">  1       -2 0.98779597E-02 0.29058997E+03</pdfrwt>
<totfact> 0.66680384E+03</totfact>
</mgrwt>
</event>
<event>
 4    1  0.1762274E-004  0.3783662E+03  0.7818608E-02  0.1051539E+00
          2   -1    0    0  501    0  0.00000000000E+00  0.00000000000E+00  0.27151363524E+04  0.27151363524E+04  0.00000000000E+00 0. -1.
         -2   -1    0    0    0  501 -0.00000000000E+00 -0.00000000000E+00 -0.13181748021E+02  0.13181748021E+02  0.00000000000E+00 0. -1.
         25    1    1    2    0    0  0.92745165731E+02 -0.11082271484E+03  0.15133246745E+04  0.15249376742E+04  0.12000000000E+03 0.  0.
         25    1    1    2    0    0 -0.92745165731E+02  0.11082271484E+03  0.11886299299E+04  0.12033804262E+04  0.12000000000E+03 0.  0.
<mgrwt>
<rscale>  0 0.37836619E+03</rscale>
<asrwt>0</asrwt>
<pdfrwt beam="1">  1        2 0.41771284E+00 0.37836619E+03</pdfrwt>
<pdfrwt beam="2">  1       -2 0.20279634E-02 0.37836619E+03</pdfrwt>
<totfact> 0.22835297E+03</totfact>
</mgrwt>
</event>
<event>
 4    1  0.1762274E-004  0.3148417E+03  0.7818608E-02  0.1078048E+00
         -2   -1    0    0    0  501 -0.00000000000E+00  0.00000000000E+00  0.11217552043E+03  0.11217552043E+03  0.00000000000E+00 0.  1.
          2   -1    0    0  501    0  0.00000000000E+00 -0.00000000000E+00 -0.22091554558E+03  0.22091554558E+03  0.00000000000E+00 0.  1.
         25    1    1    2    0    0 -0.85504035360E+02 -0.50845458383E+02 -0.31068000607E+02  0.15893842003E+03  0.12000000000E+03 0.  0.
         25    1    1    2    0    0  0.85504035360E+02  0.50845458383E+02 -0.77672024543E+02  0.17415264597E+03  0.12000000000E+03 0.  0.
<mgrwt>
<rscale>  0 0.31484165E+03</rscale>
<asrwt>0</asrwt>
<pdfrwt beam="1">  1        2 0.33987007E-01 0.31484165E+03</pdfrwt>
<pdfrwt beam="2">  1       -2 0.17257772E-01 0.31484165E+03</pdfrwt>
<totfact> 0.41309386E+03</totfact>
</mgrwt>
</event>
<event>
 4    1  0.1762274E-004  0.2428091E+03  0.7818608E-02  0.1117936E+00
         -2   -1    0    0    0  501 -0.00000000000E+00  0.00000000000E+00  0.59919693456E+02  0.59919693456E+02  0.00000000000E+00 0.  1.
          2   -1    0    0  501    0  0.00000000000E+00 -0.00000000000E+00 -0.24598022687E+03  0.24598022687E+03  0.00000000000E+00 0.  1.
         25    1    1    2    0    0  0.87760063167E+01 -0.40343480150E+01 -0.11278062467E+03  0.16496291569E+03  0.12000000000E+03 0.  0.
         25    1    1    2    0    0 -0.87760063167E+01  0.40343480150E+01 -0.73279908735E+02  0.14093700463E+03  0.12000000000E+03 0.  0.
<mgrwt>
<rscale>  0 0.24280906E+03</rscale>
<asrwt>0</asrwt>
<pdfrwt beam="1">  1        2 0.37843111E-01 0.24280906E+03</pdfrwt>
<pdfrwt beam="2">  1       -2 0.92184147E-02 0.24280906E+03</pdfrwt>
<totfact> 0.10090615E+04</totfact>
</mgrwt>
</event>
<event>
 4    1  0.1762274E-004  0.2408617E+03  0.7818608E-02  0.1119220E+00
         -2   -1    0    0    0  501 -0.00000000000E+00  0.00000000000E+00  0.81727033020E+02  0.81727033020E+02  0.00000000000E+00 0.  1.
          2   -1    0    0  501    0  0.00000000000E+00 -0.00000000000E+00 -0.17746386313E+03  0.17746386313E+03  0.00000000000E+00 0.  1.
         25    1    1    2    0    0 -0.99088097370E+01 -0.22628438978E+01 -0.48447940564E+02  0.12980950627E+03  0.12000000000E+03 0.  0.
         25    1    1    2    0    0  0.99088097370E+01  0.22628438978E+01 -0.47288889544E+02  0.12938138988E+03  0.12000000000E+03 0.  0.
<mgrwt>
<rscale>  0 0.24086174E+03</rscale>
<asrwt>0</asrwt>
<pdfrwt beam="1">  1        2 0.27302132E-01 0.24086174E+03</pdfrwt>
<pdfrwt beam="2">  1       -2 0.12573390E-01 0.24086174E+03</pdfrwt>
<totfact> 0.87721631E+03</totfact>
</mgrwt>
</event>
<event>
 4    1  0.1762274E-004  0.3102933E+03  0.7818608E-02  0.1080205E+00
         -2   -1    0    0    0  501 -0.00000000000E+00  0.00000000000E+00  0.11007268604E+03  0.11007268604E+03  0.00000000000E+00 0. -1.
          2   -1    0    0  501    0  0.00000000000E+00 -0.00000000000E+00 -0.21867806275E+03  0.21867806275E+03  0.00000000000E+00 0. -1.
         25    1    1    2    0    0 -0.87595677356E+02  0.12269196374E+01 -0.69688445417E+01  0.14873826951E+03  0.12000000000E+03 0.  0.
         25    1    1    2    0    0  0.87595677356E+02 -0.12269196374E+01 -0.10163653217E+03  0.18001247927E+03  0.12000000000E+03 0.  0.
<mgrwt>
<rscale>  0 0.31029329E+03</rscale>
<asrwt>0</asrwt>
<pdfrwt beam="1">  1        2 0.33642779E-01 0.31029329E+03</pdfrwt>
<pdfrwt beam="2">  1       -2 0.16934259E-01 0.31029329E+03</pdfrwt>
<totfact> 0.43105510E+03</totfact>
</mgrwt>
</event>
<event>
 4    1  0.1762274E-004  0.2947622E+03  0.7818608E-02  0.1087889E+00
         -2   -1    0    0    0  501 -0.00000000000E+00  0.00000000000E+00  0.24686315325E+02  0.24686315325E+02  0.00000000000E+00 0.  1.
          2   -1    0    0  501    0  0.00000000000E+00 -0.00000000000E+00 -0.87988780740E+03  0.87988780740E+03  0.00000000000E+00 0.  1.
         25    1    1    2    0    0 -0.39465034698E+02  0.75065350286E+02 -0.46244133647E+03  0.48522601481E+03  0.12000000000E+03 0.  0.
         25    1    1    2    0    0  0.39465034698E+02 -0.75065350286E+02 -0.39276015561E+03  0.41934810791E+03  0.12000000000E+03 0.  0.
<mgrwt>
<rscale>  0 0.29476219E+03</rscale>
<asrwt>0</asrwt>
<pdfrwt beam="1">  1        2 0.13536733E+00 0.29476219E+03</pdfrwt>
<pdfrwt beam="2">  1       -2 0.37978953E-02 0.29476219E+03</pdfrwt>
<totfact> 0.93074541E+03</totfact>
</mgrwt>
</event>
<event>
 4    1  0.1762274E-004  0.2685554E+03  0.7818608E-02  0.1102109E+00
         -2   -1    0    0    0  501 -0.00000000000E+00  0.00000000000E+00  0.85527593290E+03  0.85527593290E+03  0.00000000000E+00 0.  1.
          2   -1    0    0  501    0  0.00000000000E+00 -0.00000000000E+00 -0.21081500455E+02  0.21081500455E+02  0.00000000000E+00 0.  1.
         25    1    1    2    0    0  0.66244923869E+01  0.46635743381E+02  0.29448825364E+03  0.32146867342E+03  0.12000000000E+03 0.  0.
         25    1    1    2    0    0 -0.66244923869E+01 -0.46635743381E+02  0.53970617880E+03  0.55488875993E+03  0.12000000000E+03 0.  0.
<mgrwt>
<rscale>  0 0.26855539E+03</rscale>
<asrwt>0</asrwt>
<pdfrwt beam="1">  1        2 0.32433084E-02 0.26855539E+03</pdfrwt>
<pdfrwt beam="2">  1       -2 0.13158089E+00 0.26855539E+03</pdfrwt>
<totfact> 0.12450371E+03</totfact>
</mgrwt>
</event>
<event>
 4    1  0.1762274E-004  0.4706607E+03  0.7818608E-02  0.1021734E+00
          2   -1    0    0  501    0  0.00000000000E+00  0.00000000000E+00  0.12340045294E+04  0.12340045294E+04  0.00000000000E+00 0. -1.
         -2   -1    0    0    0  501 -0.00000000000E+00 -0.00000000000E+00 -0.44878584070E+02  0.44878584070E+02  0.00000000000E+00 0. -1.
         25    1    1    2    0    0  0.56608904028E+02  0.16561460092E+03  0.31815983144E+03  0.38243750129E+03  0.12000000000E+03 0.  0.
         25    1    1    2    0    0 -0.56608904028E+02 -0.16561460092E+03  0.87096611394E+03  0.89644561223E+03  0.12000000000E+03 0.  0.
<mgrwt>
<rscale>  0 0.47066071E+03</rscale>
<asrwt>0</asrwt>
<pdfrwt beam="1">  1        2 0.18984682E+00 0.47066071E+03</pdfrwt>
<pdfrwt beam="2">  1       -2 0.69043985E-02 0.47066071E+03</pdfrwt>
<totfact> 0.22731525E+03</totfact>
</mgrwt>
</event>
<event>
 4    1  0.1762274E-004  0.3889398E+03  0.7818608E-02  0.1047678E+00
          1   -1    0    0  501    0  0.00000000000E+00  0.00000000000E+00  0.14214608752E+04  0.14214608752E+04  0.00000000000E+00 0. -1.
         -1   -1    0    0    0  501 -0.00000000000E+00 -0.00000000000E+00 -0.26605401552E+02  0.26605401552E+02  0.00000000000E+00 0. -1.
         25    1    1    2    0    0  0.15223975347E+03  0.12312109146E+02  0.66210586104E+03  0.69000920413E+03  0.12000000000E+03 0.  0.
         25    1    1    2    0    0 -0.15223975347E+03 -0.12312109146E+02  0.73274961261E+03  0.75805707262E+03  0.12000000000E+03 0.  0.
<mgrwt>
<rscale>  0 0.38893978E+03</rscale>
<asrwt>0</asrwt>
<pdfrwt beam="1">  1        1 0.21868623E+00 0.38893978E+03</pdfrwt>
<pdfrwt beam="2">  1       -1 0.40931398E-02 0.38893978E+03</pdfrwt>
<totfact> 0.19152978E+03</totfact>
</mgrwt>
</event>
<event>
 4    1  0.1762274E-004  0.2514157E+03  0.7818608E-02  0.1112413E+00
          2   -1    0    0  501    0  0.00000000000E+00  0.00000000000E+00  0.19777315196E+04  0.19777315196E+04  0.00000000000E+00 0. -1.
         -2   -1    0    0    0  501 -0.00000000000E+00 -0.00000000000E+00 -0.79901940499E+01  0.79901940499E+01  0.00000000000E+00 0. -1.
         25    1    1    2    0    0  0.31716988958E+02 -0.11615491511E+02  0.85713230073E+03  0.86615048808E+03  0.12000000000E+03 0.  0.
         25    1    1    2    0    0 -0.31716988958E+02  0.11615491511E+02  0.11126090248E+04  0.11195712255E+04  0.12000000000E+03 0.  0.
<mgrwt>
<rscale>  0 0.25141566E+03</rscale>
<asrwt>0</asrwt>
<pdfrwt beam="1">  1        2 0.30426600E+00 0.25141566E+03</pdfrwt>
<pdfrwt beam="2">  1       -2 0.12292622E-02 0.25141566E+03</pdfrwt>
<totfact> 0.12023842E+04</totfact>
</mgrwt>
</event>
<event>
 4    1  0.1762274E-004  0.4053579E+03  0.7818608E-02  0.1041940E+00
         -1   -1    0    0    0  501 -0.00000000000E+00  0.00000000000E+00  0.22502180136E+02  0.22502180136E+02  0.00000000000E+00 0. -1.
          1   -1    0    0  501    0  0.00000000000E+00 -0.00000000000E+00 -0.18255455020E+04  0.18255455020E+04  0.00000000000E+00 0. -1.
         25    1    1    2    0    0 -0.51830575130E+02 -0.15450675554E+03 -0.95146517678E+03  0.97275111341E+03  0.12000000000E+03 0.  0.
         25    1    1    2    0    0  0.51830575130E+02  0.15450675554E+03 -0.85157814505E+03  0.87529656869E+03  0.12000000000E+03 0.  0.
<mgrwt>
<rscale>  0 0.40535788E+03</rscale>
<asrwt>0</asrwt>
<pdfrwt beam="1">  1        1 0.28085318E+00 0.40535788E+03</pdfrwt>
<pdfrwt beam="2">  1       -1 0.34618735E-02 0.40535788E+03</pdfrwt>
<totfact> 0.13252899E+03</totfact>
</mgrwt>
</event>
<event>
 4    1  0.1762274E-004  0.4242965E+03  0.7818608E-02  0.1035677E+00
         -1   -1    0    0    0  501 -0.00000000000E+00  0.00000000000E+00  0.35739586717E+02  0.35739586717E+02  0.00000000000E+00 0. -1.
          1   -1    0    0  501    0  0.00000000000E+00 -0.00000000000E+00 -0.12593005485E+04  0.12593005485E+04  0.00000000000E+00 0. -1.
         25    1    1    2    0    0  0.62700341363E+02  0.26860865029E+02 -0.12006228793E+03  0.18294204509E+03  0.12000000000E+03 0.  0.
         25    1    1    2    0    0 -0.62700341363E+02 -0.26860865029E+02 -0.11034986738E+04  0.11120980901E+04  0.12000000000E+03 0.  0.
<mgrwt>
<rscale>  0 0.42429651E+03</rscale>
<asrwt>0</asrwt>
<pdfrwt beam="1">  1        1 0.19373857E+00 0.42429651E+03</pdfrwt>
<pdfrwt beam="2">  1       -1 0.54983971E-02 0.42429651E+03</pdfrwt>
<totfact> 0.15832008E+03</totfact>
</mgrwt>
</event>
<event>
 4    1  0.1762274E-004  0.3736418E+03  0.7818608E-02  0.1053309E+00
         -2   -1    0    0    0  501 -0.00000000000E+00  0.00000000000E+00  0.14820002532E+02  0.14820002532E+02  0.00000000000E+00 0. -1.
          2   -1    0    0  501    0  0.00000000000E+00 -0.00000000000E+00 -0.23550640426E+04  0.23550640426E+04  0.00000000000E+00 0. -1.
         25    1    1    2    0    0  0.35484377194E+01  0.83960884720E+01 -0.26378752299E+03  0.28994299956E+03  0.12000000000E+03 0.  0.
         25    1    1    2    0    0 -0.35484377194E+01 -0.83960884720E+01 -0.20764565171E+04  0.20799410456E+04  0.12000000000E+03 0.  0.
<mgrwt>
<rscale>  0 0.37364183E+03</rscale>
<asrwt>0</asrwt>
<pdfrwt beam="1">  1        2 0.36231786E+00 0.37364183E+03</pdfrwt>
<pdfrwt beam="2">  1       -2 0.22799984E-02 0.37364183E+03</pdfrwt>
<totfact> 0.30454587E+03</totfact>
</mgrwt>
</event>
<event>
 4    1  0.1762274E-004  0.3108762E+03  0.7818608E-02  0.1079927E+00
         -1   -1    0    0    0  501 -0.00000000000E+00  0.00000000000E+00  0.11856354396E+04  0.11856354396E+04  0.00000000000E+00 0. -1.
          1   -1    0    0  501    0  0.00000000000E+00 -0.00000000000E+00 -0.20378100035E+02  0.20378100035E+02  0.00000000000E+00 0. -1.
         25    1    1    2    0    0 -0.86597013794E+02  0.32228238695E+02  0.71831323050E+03  0.73410598641E+03  0.12000000000E+03 0.  0.
         25    1    1    2    0    0  0.86597013794E+02 -0.32228238695E+02  0.44694410910E+03  0.47190755326E+03  0.12000000000E+03 0.  0.
<mgrwt>
<rscale>  0 0.31087617E+03</rscale>
<asrwt>0</asrwt>
<pdfrwt beam="1">  1        1 0.31350932E-02 0.31087617E+03</pdfrwt>
<pdfrwt beam="2">  1       -1 0.18240540E+00 0.31087617E+03</pdfrwt>
<totfact> 0.70557645E+02</totfact>
</mgrwt>
</event>
<event>
 4    1  0.1762274E-004  0.3109779E+03  0.7818608E-02  0.1079878E+00
          2   -1    0    0  501    0  0.00000000000E+00  0.00000000000E+00  0.35011033444E+03  0.35011033444E+03  0.00000000000E+00 0. -1.
         -2   -1    0    0    0  501 -0.00000000000E+00 -0.00000000000E+00 -0.69054841774E+02  0.69054841774E+02  0.00000000000E+00 0. -1.
         25    1    1    2    0    0 -0.49821544269E+02  0.48436211974E+02  0.23534669244E+03  0.27315987726E+03  0.12000000000E+03 0.  0.
         25    1    1    2    0    0  0.49821544269E+02 -0.48436211974E+02  0.45708800225E+02  0.14600529895E+03  0.12000000000E+03 0.  0.
<mgrwt>
<rscale>  0 0.31097790E+03</rscale>
<asrwt>0</asrwt>
<pdfrwt beam="1">  1        2 0.53863128E-01 0.31097790E+03</pdfrwt>
<pdfrwt beam="2">  1       -2 0.10623822E-01 0.31097790E+03</pdfrwt>
<totfact> 0.55581405E+03</totfact>
</mgrwt>
</event>
<event>
 4    1  0.1762274E-004  0.2650799E+03  0.7818608E-02  0.1104129E+00
          2   -1    0    0  501    0  0.00000000000E+00  0.00000000000E+00  0.10764364912E+04  0.10764364912E+04  0.00000000000E+00 0.  1.
         -2   -1    0    0    0  501 -0.00000000000E+00 -0.00000000000E+00 -0.16319436550E+02  0.16319436550E+02  0.00000000000E+00 0.  1.
         25    1    1    2    0    0  0.49071188016E+02  0.25977300689E+00  0.64361362334E+03  0.65654135066E+03  0.12000000000E+03 0.  0.
         25    1    1    2    0    0 -0.49071188016E+02 -0.25977300689E+00  0.41650343133E+03  0.43621457711E+03  0.12000000000E+03 0.  0.
<mgrwt>
<rscale>  0 0.26507989E+03</rscale>
<asrwt>0</asrwt>
<pdfrwt beam="1">  1        2 0.16560556E+00 0.26507989E+03</pdfrwt>
<pdfrwt beam="2">  1       -2 0.25106834E-02 0.26507989E+03</pdfrwt>
<totfact> 0.12982238E+04</totfact>
</mgrwt>
</event>
<event>
 4    1  0.1762274E-004  0.3465930E+03  0.7818608E-02  0.1064022E+00
         -2   -1    0    0    0  501 -0.00000000000E+00  0.00000000000E+00  0.22434060086E+02  0.22434060086E+02  0.00000000000E+00 0.  1.
          2   -1    0    0  501    0  0.00000000000E+00 -0.00000000000E+00 -0.13386640750E+04  0.13386640750E+04  0.00000000000E+00 0.  1.
         25    1    1    2    0    0  0.81373578848E+01 -0.11604888090E+03 -0.47823457455E+03  0.50659832969E+03  0.12000000000E+03 0.  0.
         25    1    1    2    0    0 -0.81373578848E+01  0.11604888090E+03 -0.83799544035E+03  0.85449980539E+03  0.12000000000E+03 0.  0.
<mgrwt>
<rscale>  0 0.34659296E+03</rscale>
<asrwt>0</asrwt>
<pdfrwt beam="1">  1        2 0.20594839E+00 0.34659296E+03</pdfrwt>
<pdfrwt beam="2">  1       -2 0.34513926E-02 0.34659296E+03</pdfrwt>
<totfact> 0.57526864E+03</totfact>
</mgrwt>
</event>
<event>
 4    1  0.1762274E-004  0.2760101E+03  0.7818608E-02  0.1097888E+00
          2   -1    0    0  501    0  0.00000000000E+00  0.00000000000E+00  0.57801368975E+03  0.57801368975E+03  0.00000000000E+00 0.  1.
         -2   -1    0    0    0  501 -0.00000000000E+00 -0.00000000000E+00 -0.32949729156E+02  0.32949729156E+02  0.00000000000E+00 0.  1.
         25    1    1    2    0    0  0.67391449808E+02  0.96038291406E+01  0.26500801614E+03  0.29876929169E+03  0.12000000000E+03 0.  0.
         25    1    1    2    0    0 -0.67391449808E+02 -0.96038291406E+01  0.28005594445E+03  0.31219412721E+03  0.12000000000E+03 0.  0.
<mgrwt>
<rscale>  0 0.27601011E+03</rscale>
<asrwt>0</asrwt>
<pdfrwt beam="1">  1        2 0.88925175E-01 0.27601011E+03</pdfrwt>
<pdfrwt beam="2">  1       -2 0.50691895E-02 0.27601011E+03</pdfrwt>
<totfact> 0.10057804E+04</totfact>
</mgrwt>
</event>
<event>
 4    1  0.1762274E-004  0.2684003E+03  0.7818608E-02  0.1102199E+00
         -2   -1    0    0    0  501 -0.00000000000E+00  0.00000000000E+00  0.10601760149E+03  0.10601760149E+03  0.00000000000E+00 0. -1.
          2   -1    0    0  501    0  0.00000000000E+00 -0.00000000000E+00 -0.16987437647E+03  0.16987437647E+03  0.00000000000E+00 0. -1.
         25    1    1    2    0    0  0.23805979644E+00  0.14432971519E+02 -0.91876987238E+02  0.15182143499E+03  0.12000000000E+03 0.  0.
         25    1    1    2    0    0 -0.23805979644E+00 -0.14432971519E+02  0.28020212258E+02  0.12407054298E+03  0.12000000000E+03 0.  0.
<mgrwt>
<rscale>  0 0.26840025E+03</rscale>
<asrwt>0</asrwt>
<pdfrwt beam="1">  1        2 0.26134519E-01 0.26840025E+03</pdfrwt>
<pdfrwt beam="2">  1       -2 0.16310400E-01 0.26840025E+03</pdfrwt>
<totfact> 0.60334631E+03</totfact>
</mgrwt>
</event>
<event>
 4    1  0.1762274E-004  0.2847093E+03  0.7818608E-02  0.1093144E+00
          1   -1    0    0  501    0  0.00000000000E+00  0.00000000000E+00  0.22142538294E+04  0.22142538294E+04  0.00000000000E+00 0.  1.
         -1   -1    0    0    0  501 -0.00000000000E+00 -0.00000000000E+00 -0.91519999998E+01  0.91519999998E+01  0.00000000000E+00 0.  1.
         25    1    1    2    0    0  0.27960899618E+02 -0.33051655246E+01  0.16587260678E+04  0.16632994030E+04  0.12000000000E+03 0.  0.
         25    1    1    2    0    0 -0.27960899618E+02  0.33051655246E+01  0.54637576154E+03  0.56010642633E+03  0.12000000000E+03 0.  0.
<mgrwt>
<rscale>  0 0.28470933E+03</rscale>
<asrwt>0</asrwt>
<pdfrwt beam="1">  1        1 0.34065401E+00 0.28470933E+03</pdfrwt>
<pdfrwt beam="2">  1       -1 0.14080018E-02 0.28470933E+03</pdfrwt>
<totfact> 0.27992991E+03</totfact>
</mgrwt>
</event>
<event>
 4    1  0.1762274E-004  0.3080097E+03  0.7818608E-02  0.1081304E+00
          1   -1    0    0  501    0  0.00000000000E+00  0.00000000000E+00  0.37902154237E+03  0.37902154237E+03  0.00000000000E+00 0.  1.
         -1   -1    0    0    0  501 -0.00000000000E+00 -0.00000000000E+00 -0.62575571316E+02  0.62575571316E+02  0.00000000000E+00 0.  1.
         25    1    1    2    0    0  0.59964703059E+02  0.60579932754E+02  0.93280496744E+02  0.17426114007E+03  0.12000000000E+03 0.  0.
         25    1    1    2    0    0 -0.59964703059E+02 -0.60579932754E+02  0.22316547431E+03  0.26733597362E+03  0.12000000000E+03 0.  0.
<mgrwt>
<rscale>  0 0.30800967E+03</rscale>
<asrwt>0</asrwt>
<pdfrwt beam="1">  1        1 0.58311005E-01 0.30800967E+03</pdfrwt>
<pdfrwt beam="2">  1       -1 0.96270112E-02 0.30800967E+03</pdfrwt>
<totfact> 0.41970901E+03</totfact>
</mgrwt>
</event>
<event>
 4    1  0.1762274E-004  0.2818992E+03  0.7818608E-02  0.1094656E+00
          2   -1    0    0  501    0  0.00000000000E+00  0.00000000000E+00  0.54043916502E+03  0.54043916502E+03  0.00000000000E+00 0.  1.
         -2   -1    0    0    0  501 -0.00000000000E+00 -0.00000000000E+00 -0.36760466708E+02  0.36760466708E+02  0.00000000000E+00 0.  1.
         25    1    1    2    0    0 -0.62152862085E+02  0.13446608857E+02  0.17460054209E+03  0.22119931929E+03  0.12000000000E+03 0.  0.
         25    1    1    2    0    0  0.62152862085E+02 -0.13446608857E+02  0.32907815622E+03  0.35600031243E+03  0.12000000000E+03 0.  0.
<mgrwt>
<rscale>  0 0.28189924E+03</rscale>
<asrwt>0</asrwt>
<pdfrwt beam="1">  1        2 0.83144481E-01 0.28189924E+03</pdfrwt>
<pdfrwt beam="2">  1       -2 0.56554568E-02 0.28189924E+03</pdfrwt>
<totfact> 0.91983801E+03</totfact>
</mgrwt>
</event>
<event>
 4    1  0.1762274E-004  0.3817945E+03  0.7818608E-02  0.1050272E+00
         -1   -1    0    0    0  501 -0.00000000000E+00  0.00000000000E+00  0.12481203531E+03  0.12481203531E+03  0.00000000000E+00 0. -1.
          1   -1    0    0  501    0  0.00000000000E+00 -0.00000000000E+00 -0.29197317836E+03  0.29197317836E+03  0.00000000000E+00 0. -1.
         25    1    1    2    0    0 -0.11899127658E+03 -0.13663518037E+02 -0.17934834413E+03  0.24680243955E+03  0.12000000000E+03 0.  0.
         25    1    1    2    0    0  0.11899127658E+03  0.13663518037E+02  0.12187201078E+02  0.16998277412E+03  0.12000000000E+03 0.  0.
<mgrwt>
<rscale>  0 0.38179453E+03</rscale>
<asrwt>0</asrwt>
<pdfrwt beam="1">  1        1 0.44918950E-01 0.38179453E+03</pdfrwt>
<pdfrwt beam="2">  1       -1 0.19201852E-01 0.38179453E+03</pdfrwt>
<totfact> 0.19637796E+03</totfact>
</mgrwt>
</event>
<event>
 4    1  0.1762274E-004  0.2981021E+03  0.7818608E-02  0.1086193E+00
          2   -1    0    0  501    0  0.00000000000E+00  0.00000000000E+00  0.89548827938E+03  0.89548827938E+03  0.00000000000E+00 0. -1.
         -2   -1    0    0    0  501 -0.00000000000E+00 -0.00000000000E+00 -0.24809048398E+02  0.24809048398E+02  0.00000000000E+00 0. -1.
         25    1    1    2    0    0 -0.70240285857E+02 -0.34544271891E+02  0.30845625550E+03  0.34010625697E+03  0.12000000000E+03 0.  0.
         25    1    1    2    0    0  0.70240285857E+02  0.34544271891E+02  0.56222297549E+03  0.58019107081E+03  0.12000000000E+03 0.  0.
<mgrwt>
<rscale>  0 0.29810208E+03</rscale>
<asrwt>0</asrwt>
<pdfrwt beam="1">  1        2 0.13776740E+00 0.29810208E+03</pdfrwt>
<pdfrwt beam="2">  1       -2 0.38167774E-02 0.29810208E+03</pdfrwt>
<totfact> 0.90268717E+03</totfact>
</mgrwt>
</event>
<event>
 4    1  0.1762274E-004  0.2638502E+03  0.7818608E-02  0.1104852E+00
          2   -1    0    0  501    0  0.00000000000E+00  0.00000000000E+00  0.21081354524E+02  0.21081354524E+02  0.00000000000E+00 0.  1.
         -2   -1    0    0    0  501 -0.00000000000E+00 -0.00000000000E+00 -0.82557476576E+03  0.82557476576E+03  0.00000000000E+00 0.  1.
         25    1    1    2    0    0  0.41029939331E+02  0.30637543763E+02 -0.46497292177E+03  0.48293056746E+03  0.12000000000E+03 0.  0.
         25    1    1    2    0    0 -0.41029939331E+02 -0.30637543763E+02 -0.33952048947E+03  0.36372555282E+03  0.12000000000E+03 0.  0.
<mgrwt>
<rscale>  0 0.26385022E+03</rscale>
<asrwt>0</asrwt>
<pdfrwt beam="1">  1        2 0.32432852E-02 0.26385022E+03</pdfrwt>
<pdfrwt beam="2">  1       -2 0.12701151E+00 0.26385022E+03</pdfrwt>
<totfact> 0.13580628E+03</totfact>
</mgrwt>
</event>
<event>
 4    1  0.1762274E-004  0.2601391E+03  0.7818608E-02  0.1107060E+00
         -3   -1    0    0    0  501 -0.00000000000E+00  0.00000000000E+00  0.22063408387E+03  0.22063408387E+03  0.00000000000E+00 0. -1.
          3   -1    0    0  501    0  0.00000000000E+00 -0.00000000000E+00 -0.76679422414E+02  0.76679422414E+02  0.00000000000E+00 0. -1.
         25    1    1    2    0    0  0.35141463401E+01 -0.16639416330E+02  0.18019838913E+02  0.12253135923E+03  0.12000000000E+03 0.  0.
         25    1    1    2    0    0 -0.35141463401E+01  0.16639416330E+02  0.12593482255E+03  0.17478214706E+03  0.12000000000E+03 0.  0.
<mgrwt>
<rscale>  0 0.26013915E+03</rscale>
<asrwt>0</asrwt>
<pdfrwt beam="1">  1        3 0.11796834E-01 0.26013915E+03</pdfrwt>
<pdfrwt beam="2">  1       -3 0.33943705E-01 0.26013915E+03</pdfrwt>
<totfact> 0.12032006E+03</totfact>
</mgrwt>
</event>
<event>
 4    1  0.1762274E-004  0.4220909E+03  0.7818608E-02  0.1036388E+00
         -2   -1    0    0    0  501 -0.00000000000E+00  0.00000000000E+00  0.12839929540E+03  0.12839929540E+03  0.00000000000E+00 0.  1.
          2   -1    0    0  501    0  0.00000000000E+00 -0.00000000000E+00 -0.34688801951E+03  0.34688801951E+03  0.00000000000E+00 0.  1.
         25    1    1    2    0    0  0.70789531939E+02 -0.58404142219E+02 -0.27518774055E+03  0.31392753019E+03  0.12000000000E+03 0.  0.
         25    1    1    2    0    0 -0.70789531939E+02  0.58404142219E+02  0.56699016444E+02  0.16135978472E+03  0.12000000000E+03 0.  0.
<mgrwt>
<rscale>  0 0.42209088E+03</rscale>
<asrwt>0</asrwt>
<pdfrwt beam="1">  1        2 0.53367388E-01 0.42209088E+03</pdfrwt>
<pdfrwt beam="2">  1       -2 0.19753738E-01 0.42209088E+03</pdfrwt>
<totfact> 0.20175669E+03</totfact>
</mgrwt>
</event>
<event>
 4    1  0.1762274E-004  0.3593944E+03  0.7818608E-02  0.1058824E+00
          2   -1    0    0  501    0  0.00000000000E+00  0.00000000000E+00  0.13144723503E+04  0.13144723503E+04  0.00000000000E+00 0.  1.
         -2   -1    0    0    0  501 -0.00000000000E+00 -0.00000000000E+00 -0.24565815287E+02  0.24565815287E+02  0.00000000000E+00 0.  1.
         25    1    1    2    0    0  0.35743070113E+02  0.12887169249E+03  0.65377391681E+03  0.67801608718E+03  0.12000000000E+03 0.  0.
         25    1    1    2    0    0 -0.35743070113E+02 -0.12887169249E+03  0.63613261820E+03  0.66102207839E+03  0.12000000000E+03 0.  0.
<mgrwt>
<rscale>  0 0.35939441E+03</rscale>
<asrwt>0</asrwt>
<pdfrwt beam="1">  1        2 0.20222646E+00 0.35939441E+03</pdfrwt>
<pdfrwt beam="2">  1       -2 0.37793572E-02 0.35939441E+03</pdfrwt>
<totfact> 0.51756021E+03</totfact>
</mgrwt>
</event>
<event>
 4    1  0.1762274E-004  0.2746262E+03  0.7818608E-02  0.1098661E+00
          2   -1    0    0  501    0  0.00000000000E+00  0.00000000000E+00  0.64766316652E+03  0.64766316652E+03  0.00000000000E+00 0.  1.
         -2   -1    0    0    0  501 -0.00000000000E+00 -0.00000000000E+00 -0.29112176711E+02  0.29112176711E+02  0.00000000000E+00 0.  1.
         25    1    1    2    0    0  0.29560968810E+02 -0.33183602584E+02  0.18655471162E+03  0.22622480585E+03  0.12000000000E+03 0.  0.
         25    1    1    2    0    0 -0.29560968810E+02  0.33183602584E+02  0.43199627819E+03  0.45055053737E+03  0.12000000000E+03 0.  0.
<mgrwt>
<rscale>  0 0.27462618E+03</rscale>
<asrwt>0</asrwt>
<pdfrwt beam="1">  1        2 0.99640476E-01 0.27462618E+03</pdfrwt>
<pdfrwt beam="2">  1       -2 0.44787969E-02 0.27462618E+03</pdfrwt>
<totfact> 0.10623393E+04</totfact>
</mgrwt>
</event>
<event>
 4    1  0.1762274E-004  0.3602063E+03  0.7818608E-02  0.1058502E+00
          3   -1    0    0  501    0  0.00000000000E+00  0.00000000000E+00  0.51062732736E+03  0.51062732736E+03  0.00000000000E+00 0. -1.
         -3   -1    0    0    0  501 -0.00000000000E+00 -0.00000000000E+00 -0.63524105465E+02  0.63524105465E+02  0.00000000000E+00 0. -1.
         25    1    1    2    0    0 -0.12448809357E+03  0.47544188701E+02  0.19690786697E+03  0.26632769926E+03  0.12000000000E+03 0.  0.
         25    1    1    2    0    0  0.12448809357E+03 -0.47544188701E+02  0.25019535492E+03  0.30782373356E+03  0.12000000000E+03 0.  0.
<mgrwt>
<rscale>  0 0.36020630E+03</rscale>
<asrwt>0</asrwt>
<pdfrwt beam="1">  1        3 0.78558048E-01 0.36020630E+03</pdfrwt>
<pdfrwt beam="2">  1       -3 0.97729396E-02 0.36020630E+03</pdfrwt>
<totfact> 0.30823504E+02</totfact>
</mgrwt>
</event>
<event>
 4    1  0.1762274E-004  0.2504201E+03  0.7818608E-02  0.1113040E+00
         -2   -1    0    0    0  501 -0.00000000000E+00  0.00000000000E+00  0.38556533027E+03  0.38556533027E+03  0.00000000000E+00 0. -1.
          2   -1    0    0  501    0  0.00000000000E+00 -0.00000000000E+00 -0.40661223852E+02  0.40661223852E+02  0.00000000000E+00 0. -1.
         25    1    1    2    0    0 -0.35262839505E+02  0.49673815456E+01  0.16722938540E+03  0.20888707492E+03  0.12000000000E+03 0.  0.
         25    1    1    2    0    0  0.35262839505E+02 -0.49673815456E+01  0.17767472103E+03  0.21733947921E+03  0.12000000000E+03 0.  0.
<mgrwt>
<rscale>  0 0.25042011E+03</rscale>
<asrwt>0</asrwt>
<pdfrwt beam="1">  1        2 0.62555732E-02 0.25042011E+03</pdfrwt>
<pdfrwt beam="2">  1       -2 0.59317741E-01 0.25042011E+03</pdfrwt>
<totfact> 0.31420191E+03</totfact>
</mgrwt>
</event>
<event>
 4    1  0.1762274E-004  0.2801559E+03  0.7818608E-02  0.1095604E+00
         -2   -1    0    0    0  501 -0.00000000000E+00  0.00000000000E+00  0.21952924125E+02  0.21952924125E+02  0.00000000000E+00 0. -1.
          2   -1    0    0  501    0  0.00000000000E+00 -0.00000000000E+00 -0.89381428328E+03  0.89381428328E+03  0.00000000000E+00 0. -1.
         25    1    1    2    0    0  0.63054888512E+02  0.35296066926E+02 -0.43699409812E+03  0.45889603735E+03  0.12000000000E+03 0.  0.
         25    1    1    2    0    0 -0.63054888512E+02 -0.35296066926E+02 -0.43486726103E+03  0.45687117005E+03  0.12000000000E+03 0.  0.
<mgrwt>
<rscale>  0 0.28015594E+03</rscale>
<asrwt>0</asrwt>
<pdfrwt beam="1">  1        2 0.13750988E+00 0.28015594E+03</pdfrwt>
<pdfrwt beam="2">  1       -2 0.33773731E-02 0.28015594E+03</pdfrwt>
<totfact> 0.10852331E+04</totfact>
</mgrwt>
</event>
<event>
 4    1  0.1762274E-004  0.3070683E+03  0.7818608E-02  0.1081760E+00
         -4   -1    0    0    0  501 -0.00000000000E+00  0.00000000000E+00  0.28833808411E+03  0.28833808411E+03  0.00000000000E+00 0. -1.
          4   -1    0    0  501    0  0.00000000000E+00 -0.00000000000E+00 -0.81753783034E+02  0.81753783034E+02  0.00000000000E+00 0. -1.
         25    1    1    2    0    0  0.71134349516E+02 -0.55588358514E+02  0.14183294716E+03  0.20655930428E+03  0.12000000000E+03 0.  0.
         25    1    1    2    0    0 -0.71134349516E+02  0.55588358514E+02  0.64751353911E+02  0.16353256286E+03  0.12000000000E+03 0.  0.
<mgrwt>
<rscale>  0 0.30706826E+03</rscale>
<asrwt>0</asrwt>
<pdfrwt beam="1">  1        4 0.12577505E-01 0.30706826E+03</pdfrwt>
<pdfrwt beam="2">  1       -4 0.44359705E-01 0.30706826E+03</pdfrwt>
<totfact> 0.48138168E+02</totfact>
</mgrwt>
</event>
<event>
 4    1  0.1762274E-004  0.3301363E+03  0.7818608E-02  0.1071077E+00
          2   -1    0    0  501    0  0.00000000000E+00  0.00000000000E+00  0.97893366867E+03  0.97893366867E+03  0.00000000000E+00 0.  1.
         -2   -1    0    0    0  501 -0.00000000000E+00 -0.00000000000E+00 -0.27833846599E+02  0.27833846599E+02  0.00000000000E+00 0.  1.
         25    1    1    2    0    0 -0.78827043380E+02  0.57602989023E+02  0.65114906385E+03  0.66927341981E+03  0.12000000000E+03 0.  0.
         25    1    1    2    0    0  0.78827043380E+02 -0.57602989023E+02  0.29995075823E+03  0.33749409546E+03  0.12000000000E+03 0.  0.
<mgrwt>
<rscale>  0 0.33013627E+03</rscale>
<asrwt>0</asrwt>
<pdfrwt beam="1">  1        2 0.15060515E+00 0.33013627E+03</pdfrwt>
<pdfrwt beam="2">  1       -2 0.42821310E-02 0.33013627E+03</pdfrwt>
<totfact> 0.67295343E+03</totfact>
</mgrwt>
</event>
<event>
 4    1  0.1762274E-004  0.2417158E+03  0.7818608E-02  0.1118655E+00
          4   -1    0    0  501    0  0.00000000000E+00  0.00000000000E+00  0.26044096242E+03  0.26044096242E+03  0.00000000000E+00 0.  1.
         -4   -1    0    0    0  501 -0.00000000000E+00 -0.00000000000E+00 -0.56084241549E+02  0.56084241549E+02  0.00000000000E+00 0.  1.
         25    1    1    2    0    0 -0.12702057926E+02  0.40727262739E+01  0.95162547495E+02  0.15373301474E+03  0.12000000000E+03 0.  0.
         25    1    1    2    0    0  0.12702057926E+02 -0.40727262739E+01  0.10919417337E+03  0.16279218923E+03  0.12000000000E+03 0.  0.
<mgrwt>
<rscale>  0 0.24171582E+03</rscale>
<asrwt>0</asrwt>
<pdfrwt beam="1">  1        4 0.40067840E-01 0.24171582E+03</pdfrwt>
<pdfrwt beam="2">  1       -4 0.86283450E-02 0.24171582E+03</pdfrwt>
<totfact> 0.10861806E+03</totfact>
</mgrwt>
</event>
<event>
 4    1  0.1762274E-004  0.2855271E+03  0.7818608E-02  0.1092708E+00
         -2   -1    0    0    0  501 -0.00000000000E+00  0.00000000000E+00  0.69762809245E+02  0.69762809245E+02  0.00000000000E+00 0. -1.
          2   -1    0    0  501    0  0.00000000000E+00 -0.00000000000E+00 -0.29215317329E+03  0.29215317329E+03  0.00000000000E+00 0. -1.
         25    1    1    2    0    0 -0.24482655391E+02  0.35362744757E+01 -0.20407647076E+03  0.23803174488E+03  0.12000000000E+03 0.  0.
         25    1    1    2    0    0  0.24482655391E+02 -0.35362744757E+01 -0.18313893284E+02  0.12388423766E+03  0.12000000000E+03 0.  0.
<mgrwt>
<rscale>  0 0.28552706E+03</rscale>
<asrwt>0</asrwt>
<pdfrwt beam="1">  1        2 0.44946642E-01 0.28552706E+03</pdfrwt>
<pdfrwt beam="2">  1       -2 0.10732740E-01 0.28552706E+03</pdfrwt>
<totfact> 0.66304587E+03</totfact>
</mgrwt>
</event>
<event>
 4    1  0.1762274E-004  0.5276975E+03  0.7818608E-02  0.1006792E+00
          2   -1    0    0  501    0  0.00000000000E+00  0.00000000000E+00  0.29263597021E+03  0.29263597021E+03  0.00000000000E+00 0.  1.
         -2   -1    0    0    0  501 -0.00000000000E+00 -0.00000000000E+00 -0.23789339661E+03  0.23789339661E+03  0.00000000000E+00 0.  1.
         25    1    1    2    0    0 -0.15378379239E+03 -0.17618265422E+03  0.43051376235E+01  0.26288460712E+03  0.12000000000E+03 0.  0.
         25    1    1    2    0    0  0.15378379239E+03  0.17618265422E+03  0.50437435969E+02  0.26764475970E+03  0.12000000000E+03 0.  0.
<mgrwt>
<rscale>  0 0.52769751E+03</rscale>
<asrwt>0</asrwt>
<pdfrwt beam="1">  1        2 0.45020919E-01 0.52769751E+03</pdfrwt>
<pdfrwt beam="2">  1       -2 0.36598984E-01 0.52769751E+03</pdfrwt>
<totfact> 0.79692530E+02</totfact>
</mgrwt>
</event>
<event>
 4    1  0.1762274E-004  0.3219033E+03  0.7818608E-02  0.1074777E+00
          2   -1    0    0  501    0  0.00000000000E+00  0.00000000000E+00  0.21168257021E+04  0.21168257021E+04  0.00000000000E+00 0. -1.
         -2   -1    0    0    0  501 -0.00000000000E+00 -0.00000000000E+00 -0.12237867455E+02  0.12237867455E+02  0.00000000000E+00 0. -1.
         25    1    1    2    0    0  0.39512466751E+02  0.85679023241E+02  0.71483142246E+03  0.73094876194E+03  0.12000000000E+03 0.  0.
         25    1    1    2    0    0 -0.39512466751E+02 -0.85679023241E+02  0.13897564122E+04  0.13981148076E+04  0.12000000000E+03 0.  0.
<mgrwt>
<rscale>  0 0.32190329E+03</rscale>
<asrwt>0</asrwt>
<pdfrwt beam="1">  1        2 0.32566520E+00 0.32190329E+03</pdfrwt>
<pdfrwt beam="2">  1       -2 0.18827505E-02 0.32190329E+03</pdfrwt>
<totfact> 0.54456896E+03</totfact>
</mgrwt>
</event>
<event>
 4    1  0.1762274E-004  0.2409794E+03  0.7818608E-02  0.1119142E+00
          1   -1    0    0  501    0  0.00000000000E+00  0.00000000000E+00  0.24431919611E+03  0.24431919611E+03  0.00000000000E+00 0. -1.
         -1   -1    0    0    0  501 -0.00000000000E+00 -0.00000000000E+00 -0.59421318423E+02  0.59421318423E+02  0.00000000000E+00 0. -1.
         25    1    1    2    0    0  0.48058164487E+00 -0.92072148548E+01  0.99663796674E+02  0.15626220314E+03  0.12000000000E+03 0.  0.
         25    1    1    2    0    0 -0.48058164487E+00  0.92072148548E+01  0.85234081013E+02  0.14747831139E+03  0.12000000000E+03 0.  0.
<mgrwt>
<rscale>  0 0.24097941E+03</rscale>
<asrwt>0</asrwt>
<pdfrwt beam="1">  1        1 0.37587568E-01 0.24097941E+03</pdfrwt>
<pdfrwt beam="2">  1       -1 0.91417415E-02 0.24097941E+03</pdfrwt>
<totfact> 0.78431508E+03</totfact>
</mgrwt>
</event>
<event>
 4    1  0.1762274E-004  0.2710026E+03  0.7818608E-02  0.1100707E+00
         -2   -1    0    0    0  501 -0.00000000000E+00  0.00000000000E+00  0.33356511405E+02  0.33356511405E+02  0.00000000000E+00 0.  1.
          2   -1    0    0  501    0  0.00000000000E+00 -0.00000000000E+00 -0.55043534869E+03  0.55043534869E+03  0.00000000000E+00 0.  1.
         25    1    1    2    0    0 -0.42862714034E+02 -0.19149524088E+01 -0.35771943975E+03  0.37974211890E+03  0.12000000000E+03 0.  0.
         25    1    1    2    0    0  0.42862714034E+02  0.19149524088E+01 -0.15935939754E+03  0.20404974120E+03  0.12000000000E+03 0.  0.
<mgrwt>
<rscale>  0 0.27100261E+03</rscale>
<asrwt>0</asrwt>
<pdfrwt beam="1">  1        2 0.84682354E-01 0.27100261E+03</pdfrwt>
<pdfrwt beam="2">  1       -2 0.51317714E-02 0.27100261E+03</pdfrwt>
<totfact> 0.10432638E+04</totfact>
</mgrwt>
</event>
<event>
 4    1  0.1762274E-004  0.2596650E+03  0.7818608E-02  0.1107345E+00
          1   -1    0    0  501    0  0.00000000000E+00  0.00000000000E+00  0.16217164513E+04  0.16217164513E+04  0.00000000000E+00 0.  1.
         -1   -1    0    0    0  501 -0.00000000000E+00 -0.00000000000E+00 -0.10394222945E+02  0.10394222945E+02  0.00000000000E+00 0.  1.
         25    1    1    2    0    0  0.41602544968E+01 -0.16984104841E+02  0.10971537234E+04  0.11038351599E+04  0.12000000000E+03 0.  0.
         25    1    1    2    0    0 -0.41602544968E+01  0.16984104841E+02  0.51416850497E+03  0.52827551433E+03  0.12000000000E+03 0.  0.
<mgrwt>
<rscale>  0 0.25966503E+03</rscale>
<asrwt>0</asrwt>
<pdfrwt beam="1">  1        1 0.24949464E+00 0.25966503E+03</pdfrwt>
<pdfrwt beam="2">  1       -1 0.15991125E-02 0.25966503E+03</pdfrwt>
<totfact> 0.56516264E+03</totfact>
</mgrwt>
</event>
<event>
 4    1  0.1762274E-004  0.3129086E+03  0.7818608E-02  0.1078960E+00
          1   -1    0    0  501    0  0.00000000000E+00  0.00000000000E+00  0.22122024914E+03  0.22122024914E+03  0.00000000000E+00 0.  1.
         -1   -1    0    0    0  501 -0.00000000000E+00 -0.00000000000E+00 -0.11064970627E+03  0.11064970627E+03  0.00000000000E+00 0.  1.
         25    1    1    2    0    0 -0.78341992101E+01  0.81537554315E+02  0.11683835740E+03  0.18644288455E+03  0.12000000000E+03 0.  0.
         25    1    1    2    0    0  0.78341992101E+01 -0.81537554315E+02 -0.62678145283E+01  0.14542707086E+03  0.12000000000E+03 0.  0.
<mgrwt>
<rscale>  0 0.31290865E+03</rscale>
<asrwt>0</asrwt>
<pdfrwt beam="1">  1        1 0.34033884E-01 0.31290865E+03</pdfrwt>
<pdfrwt beam="2">  1       -1 0.17023032E-01 0.31290865E+03</pdfrwt>
<totfact> 0.33806570E+03</totfact>
</mgrwt>
</event>
<event>
 4    1  0.1762274E-004  0.2848113E+03  0.7818608E-02  0.1093090E+00
         -2   -1    0    0    0  501 -0.00000000000E+00  0.00000000000E+00  0.10497671120E+02  0.10497671120E+02  0.00000000000E+00 0. -1.
          2   -1    0    0  501    0  0.00000000000E+00 -0.00000000000E+00 -0.19317964591E+04  0.19317964591E+04  0.00000000000E+00 0. -1.
         25    1    1    2    0    0  0.62522835236E+02 -0.32279744325E+02 -0.11684260017E+04  0.11766776994E+04  0.12000000000E+03 0.  0.
         25    1    1    2    0    0 -0.62522835236E+02  0.32279744325E+02 -0.75287278627E+03  0.76561643081E+03  0.12000000000E+03 0.  0.
<mgrwt>
<rscale>  0 0.28481126E+03</rscale>
<asrwt>0</asrwt>
<pdfrwt beam="1">  1        2 0.29719931E+00 0.28481126E+03</pdfrwt>
<pdfrwt beam="2">  1       -2 0.16150271E-02 0.28481126E+03</pdfrwt>
<totfact> 0.85465305E+03</totfact>
</mgrwt>
</event>
<event>
 4    1  0.1762274E-004  0.3447250E+03  0.7818608E-02  0.1064801E+00
          2   -1    0    0  501    0  0.00000000000E+00  0.00000000000E+00  0.11895754046E+03  0.11895754046E+03  0.00000000000E+00 0.  1.
         -2   -1    0    0    0  501 -0.00000000000E+00 -0.00000000000E+00 -0.24974309291E+03  0.24974309291E+03  0.00000000000E+00 0.  1.
         25    1    1    2    0    0  0.67925472815E+00 -0.73086215042E+02  0.41384374675E+02  0.14647430725E+03  0.12000000000E+03 0.  0.
         25    1    1    2    0    0 -0.67925472815E+00  0.73086215042E+02 -0.17216992712E+03  0.22222632612E+03  0.12000000000E+03 0.  0.
<mgrwt>
<rscale>  0 0.34472496E+03</rscale>
<asrwt>0</asrwt>
<pdfrwt beam="1">  1        2 0.18301160E-01 0.34472496E+03</pdfrwt>
<pdfrwt beam="2">  1       -2 0.38422014E-01 0.34472496E+03</pdfrwt>
<totfact> 0.19907156E+03</totfact>
</mgrwt>
</event>
<event>
 4    1  0.1762274E-004  0.2449688E+03  0.7818608E-02  0.1116526E+00
          2   -1    0    0  501    0  0.00000000000E+00  0.00000000000E+00  0.13341733575E+03  0.13341733575E+03  0.00000000000E+00 0.  1.
         -2   -1    0    0    0  501 -0.00000000000E+00 -0.00000000000E+00 -0.11244739179E+03  0.11244739179E+03  0.00000000000E+00 0.  1.
         25    1    1    2    0    0  0.37288029405E+01 -0.19701547464E+02  0.24692181312E+02  0.12414410482E+03  0.12000000000E+03 0.  0.
         25    1    1    2    0    0 -0.37288029405E+01  0.19701547464E+02 -0.37222373558E+01  0.12172062272E+03  0.12000000000E+03 0.  0.
<mgrwt>
<rscale>  0 0.24496883E+03</rscale>
<asrwt>0</asrwt>
<pdfrwt beam="1">  1        2 0.20525744E-01 0.24496883E+03</pdfrwt>
<pdfrwt beam="2">  1       -2 0.17299599E-01 0.24496883E+03</pdfrwt>
<totfact> 0.71488860E+03</totfact>
</mgrwt>
</event>
<event>
 4    1  0.1762274E-004  0.3718431E+03  0.7818608E-02  0.1053990E+00
         -1   -1    0    0    0  501 -0.00000000000E+00  0.00000000000E+00  0.85348013416E+03  0.85348013416E+03  0.00000000000E+00 0. -1.
          1   -1    0    0  501    0  0.00000000000E+00 -0.00000000000E+00 -0.40501033711E+02  0.40501033711E+02  0.00000000000E+00 0. -1.
         25    1    1    2    0    0  0.49585173039E+02  0.12729858312E+03  0.49970293988E+03  0.53175807166E+03  0.12000000000E+03 0.  0.
         25    1    1    2    0    0 -0.49585173039E+02 -0.12729858312E+03  0.31327616058E+03  0.36222309622E+03  0.12000000000E+03 0.  0.
<mgrwt>
<rscale>  0 0.37184313E+03</rscale>
<asrwt>0</asrwt>
<pdfrwt beam="1">  1        1 0.62309289E-02 0.37184313E+03</pdfrwt>
<pdfrwt beam="2">  1       -1 0.13130462E+00 0.37184313E+03</pdfrwt>
<totfact> 0.65232642E+02</totfact>
</mgrwt>
</event>
<event>
 4    1  0.1762274E-004  0.2508788E+03  0.7818608E-02  0.1112751E+00
         -1   -1    0    0    0  501 -0.00000000000E+00  0.00000000000E+00  0.11956204292E+02  0.11956204292E+02  0.00000000000E+00 0.  1.
          1   -1    0    0  501    0  0.00000000000E+00 -0.00000000000E+00 -0.13160566788E+04  0.13160566788E+04  0.00000000000E+00 0.  1.
         25    1    1    2    0    0  0.20710738386E+02  0.29717470072E+02 -0.67742555221E+03  0.68892484459E+03  0.12000000000E+03 0.  0.
         25    1    1    2    0    0 -0.20710738386E+02 -0.29717470072E+02 -0.62667492226E+03  0.63908803846E+03  0.12000000000E+03 0.  0.
<mgrwt>
<rscale>  0 0.25087880E+03</rscale>
<asrwt>0</asrwt>
<pdfrwt beam="1">  1        1 0.20247021E+00 0.25087880E+03</pdfrwt>
<pdfrwt beam="2">  1       -1 0.18394165E-02 0.25087880E+03</pdfrwt>
<totfact> 0.73561765E+03</totfact>
</mgrwt>
</event>
<event>
 4    1  0.1762274E-004  0.4408289E+03  0.7818608E-02  0.1030493E+00
          2   -1    0    0  501    0  0.00000000000E+00  0.00000000000E+00  0.15890188871E+04  0.15890188871E+04  0.00000000000E+00 0.  1.
         -2   -1    0    0    0  501 -0.00000000000E+00 -0.00000000000E+00 -0.30573912027E+02  0.30573912027E+02  0.00000000000E+00 0.  1.
         25    1    1    2    0    0  0.67547465378E+02 -0.16546335237E+03  0.95317418822E+03  0.97718054327E+03  0.12000000000E+03 0.  0.
         25    1    1    2    0    0 -0.67547465378E+02  0.16546335237E+03  0.60527078682E+03  0.64241225582E+03  0.12000000000E+03 0.  0.
<mgrwt>
<rscale>  0 0.44082887E+03</rscale>
<asrwt>0</asrwt>
<pdfrwt beam="1">  1        2 0.24446438E+00 0.44082887E+03</pdfrwt>
<pdfrwt beam="2">  1       -2 0.47036800E-02 0.44082887E+03</pdfrwt>
<totfact> 0.26210535E+03</totfact>
</mgrwt>
</event>
<event>
 4    1  0.1762274E-004  0.3421604E+03  0.7818608E-02  0.1065880E+00
         -2   -1    0    0    0  501 -0.00000000000E+00  0.00000000000E+00  0.13001751675E+02  0.13001751675E+02  0.00000000000E+00 0.  1.
          2   -1    0    0  501    0  0.00000000000E+00 -0.00000000000E+00 -0.22511143785E+04  0.22511143785E+04  0.00000000000E+00 0.  1.
         25    1    1    2    0    0  0.73397493903E+02  0.93935253852E+02 -0.12887188117E+04  0.12997719799E+04  0.12000000000E+03 0.  0.
         25    1    1    2    0    0 -0.73397493903E+02 -0.93935253852E+02 -0.94939381509E+03  0.96434415027E+03  0.12000000000E+03 0.  0.
<mgrwt>
<rscale>  0 0.34216037E+03</rscale>
<asrwt>0</asrwt>
<pdfrwt beam="1">  1        2 0.34632537E+00 0.34216037E+03</pdfrwt>
<pdfrwt beam="2">  1       -2 0.20002690E-02 0.34216037E+03</pdfrwt>
<totfact> 0.42175023E+03</totfact>
</mgrwt>
</event>
<event>
 4    1  0.1762274E-004  0.2806163E+03  0.7818608E-02  0.1095353E+00
          1   -1    0    0  501    0  0.00000000000E+00  0.00000000000E+00  0.42105517007E+03  0.42105517007E+03  0.00000000000E+00 0.  1.
         -1   -1    0    0    0  501 -0.00000000000E+00 -0.00000000000E+00 -0.46754849270E+02  0.46754849270E+02  0.00000000000E+00 0.  1.
         25    1    1    2    0    0 -0.10808567876E+02 -0.47480977024E+02  0.97141640565E+02  0.16188813005E+03  0.12000000000E+03 0.  0.
         25    1    1    2    0    0  0.10808567876E+02  0.47480977024E+02  0.27715868023E+03  0.30592188929E+03  0.12000000000E+03 0.  0.
<mgrwt>
<rscale>  0 0.28061626E+03</rscale>
<asrwt>0</asrwt>
<pdfrwt beam="1">  1        1 0.64777716E-01 0.28061626E+03</pdfrwt>
<pdfrwt beam="2">  1       -1 0.71930540E-02 0.28061626E+03</pdfrwt>
<totfact> 0.57184316E+03</totfact>
</mgrwt>
</event>
<event>
 4    1  0.1762274E-004  0.4305652E+03  0.7818608E-02  0.1033682E+00
         -1   -1    0    0    0  501 -0.00000000000E+00  0.00000000000E+00  0.97629512221E+02  0.97629512221E+02  0.00000000000E+00 0.  1.
          1   -1    0    0  501    0  0.00000000000E+00 -0.00000000000E+00 -0.47471905658E+03  0.47471905658E+03  0.00000000000E+00 0.  1.
         25    1    1    2    0    0  0.14569493006E+03  0.70223677341E+02 -0.87411526889E+02  0.21954305395E+03  0.12000000000E+03 0.  0.
         25    1    1    2    0    0 -0.14569493006E+03 -0.70223677341E+02 -0.28967801747E+03  0.35280551485E+03  0.12000000000E+03 0.  0.
<mgrwt>
<rscale>  0 0.43056516E+03</rscale>
<asrwt>0</asrwt>
<pdfrwt beam="1">  1        1 0.73033700E-01 0.43056516E+03</pdfrwt>
<pdfrwt beam="2">  1       -1 0.15019925E-01 0.43056516E+03</pdfrwt>
<totfact> 0.15583143E+03</totfact>
</mgrwt>
</event>
<event>
 4    1  0.1762274E-004  0.3133635E+03  0.7818608E-02  0.1078745E+00
         -2   -1    0    0    0  501 -0.00000000000E+00  0.00000000000E+00  0.57863434202E+01  0.57863434202E+01  0.00000000000E+00 0. -1.
          2   -1    0    0  501    0  0.00000000000E+00 -0.00000000000E+00 -0.42426039225E+04  0.42426039225E+04  0.00000000000E+00 0. -1.
         25    1    1    2    0    0  0.66432833775E+02 -0.64475293399E+02 -0.15797215921E+04  0.15869753285E+04  0.12000000000E+03 0.  0.
         25    1    1    2    0    0 -0.66432833775E+02  0.64475293399E+02 -0.26570959870E+04  0.26614149374E+04  0.12000000000E+03 0.  0.
<mgrwt>
<rscale>  0 0.31336345E+03</rscale>
<asrwt>0</asrwt>
<pdfrwt beam="1">  1        2 0.65270800E+00 0.31336345E+03</pdfrwt>
<pdfrwt beam="2">  1       -2 0.89020709E-03 0.31336345E+03</pdfrwt>
<totfact> 0.71502712E+02</totfact>
</mgrwt>
</event>
<event>
 4    1  0.1762274E-004  0.2490396E+03  0.7818608E-02  0.1113913E+00
          1   -1    0    0  501    0  0.00000000000E+00  0.00000000000E+00  0.63113537204E+03  0.63113537204E+03  0.00000000000E+00 0.  1.
         -1   -1    0    0    0  501 -0.00000000000E+00 -0.00000000000E+00 -0.24567133262E+02  0.24567133262E+02  0.00000000000E+00 0.  1.
         25    1    1    2    0    0  0.20549408095E+02 -0.35678824848E+01  0.23512347312E+03  0.26479814118E+03  0.12000000000E+03 0.  0.
         25    1    1    2    0    0 -0.20549408095E+02  0.35678824848E+01  0.37144476565E+03  0.39090436412E+03  0.12000000000E+03 0.  0.
<mgrwt>
<rscale>  0 0.24903965E+03</rscale>
<asrwt>0</asrwt>
<pdfrwt beam="1">  1        1 0.97097737E-01 0.24903965E+03</pdfrwt>
<pdfrwt beam="2">  1       -1 0.37795594E-02 0.24903965E+03</pdfrwt>
<totfact> 0.86922169E+03</totfact>
</mgrwt>
</event>
<event>
 4    1  0.1762274E-004  0.2666172E+03  0.7818608E-02  0.1103231E+00
          2   -1    0    0  501    0  0.00000000000E+00  0.00000000000E+00  0.54062903297E+02  0.54062903297E+02  0.00000000000E+00 0.  1.
         -2   -1    0    0    0  501 -0.00000000000E+00 -0.00000000000E+00 -0.32871303034E+03  0.32871303034E+03  0.00000000000E+00 0.  1.
         25    1    1    2    0    0  0.23894177160E+02 -0.43599142322E+02 -0.94270003197E+02  0.16049501680E+03  0.12000000000E+03 0.  0.
         25    1    1    2    0    0 -0.23894177160E+02  0.43599142322E+02 -0.18038012384E+03  0.22228091684E+03  0.12000000000E+03 0.  0.
<mgrwt>
<rscale>  0 0.26661718E+03</rscale>
<asrwt>0</asrwt>
<pdfrwt beam="1">  1        2 0.83173700E-02 0.26661718E+03</pdfrwt>
<pdfrwt beam="2">  1       -2 0.50571234E-01 0.26661718E+03</pdfrwt>
<totfact> 0.30217547E+03</totfact>
</mgrwt>
</event>
<event>
 4    1  0.1762274E-004  0.3397378E+03  0.7818608E-02  0.1066908E+00
         -2   -1    0    0    0  501 -0.00000000000E+00  0.00000000000E+00  0.30195584589E+03  0.30195584589E+03  0.00000000000E+00 0. -1.
          2   -1    0    0  501    0  0.00000000000E+00 -0.00000000000E+00 -0.95561769344E+02  0.95561769344E+02  0.00000000000E+00 0. -1.
         25    1    1    2    0    0 -0.45062213288E+02  0.10705333402E+03  0.13953366963E+03  0.21762505451E+03  0.12000000000E+03 0.  0.
         25    1    1    2    0    0  0.45062213288E+02 -0.10705333402E+03  0.66860406919E+02  0.17989256072E+03  0.12000000000E+03 0.  0.
<mgrwt>
<rscale>  0 0.33973775E+03</rscale>
<asrwt>0</asrwt>
<pdfrwt beam="1">  1        2 0.14701811E-01 0.33973775E+03</pdfrwt>
<pdfrwt beam="2">  1       -2 0.46454745E-01 0.33973775E+03</pdfrwt>
<totfact> 0.17836432E+03</totfact>
</mgrwt>
</event>
<event>
 4    1  0.1762274E-004  0.2780002E+03  0.7818608E-02  0.1096786E+00
          2   -1    0    0  501    0  0.00000000000E+00  0.00000000000E+00  0.41351499942E+04  0.41351499942E+04  0.00000000000E+00 0.  1.
         -2   -1    0    0    0  501 -0.00000000000E+00 -0.00000000000E+00 -0.46723894717E+01  0.46723894717E+01  0.00000000000E+00 0.  1.
         25    1    1    2    0    0 -0.35618781869E+02 -0.18832936307E+02  0.12100950719E+04  0.12166977686E+04  0.12000000000E+03 0.  0.
         25    1    1    2    0    0  0.35618781869E+02  0.18832936307E+02  0.29203825328E+04  0.29231246151E+04  0.12000000000E+03 0.  0.
<mgrwt>
<rscale>  0 0.27800023E+03</rscale>
<asrwt>0</asrwt>
<pdfrwt beam="1">  1        2 0.63617399E+00 0.27800023E+03</pdfrwt>
<pdfrwt beam="2">  1       -2 0.71883246E-03 0.27800023E+03</pdfrwt>
<totfact> 0.12046202E+03</totfact>
</mgrwt>
</event>
<event>
 4    1  0.1762274E-004  0.2613246E+03  0.7818608E-02  0.1106350E+00
          2   -1    0    0  501    0  0.00000000000E+00  0.00000000000E+00  0.63635616933E+02  0.63635616933E+02  0.00000000000E+00 0.  1.
         -2   -1    0    0    0  501 -0.00000000000E+00 -0.00000000000E+00 -0.26828753131E+03  0.26828753131E+03  0.00000000000E+00 0.  1.
         25    1    1    2    0    0 -0.20309863009E+02 -0.49246612591E+01 -0.16238568154E+03  0.20299224713E+03  0.12000000000E+03 0.  0.
         25    1    1    2    0    0  0.20309863009E+02  0.49246612591E+01 -0.42266232830E+02  0.12893090111E+03  0.12000000000E+03 0.  0.
<mgrwt>
<rscale>  0 0.26132465E+03</rscale>
<asrwt>0</asrwt>
<pdfrwt beam="1">  1        2 0.97900950E-02 0.26132465E+03</pdfrwt>
<pdfrwt beam="2">  1       -2 0.41275004E-01 0.26132465E+03</pdfrwt>
<totfact> 0.36635558E+03</totfact>
</mgrwt>
</event>
<event>
 4    1  0.1762274E-004  0.3192200E+03  0.7818608E-02  0.1076009E+00
         -2   -1    0    0    0  501 -0.00000000000E+00  0.00000000000E+00  0.23081851135E+02  0.23081851135E+02  0.00000000000E+00 0.  1.
          2   -1    0    0  501    0  0.00000000000E+00 -0.00000000000E+00 -0.11036961538E+04  0.11036961538E+04  0.00000000000E+00 0.  1.
         25    1    1    2    0    0  0.21440021910E+02  0.80236459432E+02 -0.76845763646E+03  0.78219224171E+03  0.12000000000E+03 0.  0.
         25    1    1    2    0    0 -0.21440021910E+02 -0.80236459432E+02 -0.31215666625E+03  0.34458576326E+03  0.12000000000E+03 0.  0.
<mgrwt>
<rscale>  0 0.31921999E+03</rscale>
<asrwt>0</asrwt>
<pdfrwt beam="1">  1        2 0.16979937E+00 0.31921999E+03</pdfrwt>
<pdfrwt beam="2">  1       -2 0.35510548E-02 0.31921999E+03</pdfrwt>
<totfact> 0.74961977E+03</totfact>
</mgrwt>
</event>
<event>
 4    1  0.1762274E-004  0.6027360E+03  0.7818608E-02  0.9899746E-01
         -2   -1    0    0    0  501 -0.00000000000E+00  0.00000000000E+00  0.40194155253E+03  0.40194155253E+03  0.00000000000E+00 0.  1.
          2   -1    0    0  501    0  0.00000000000E+00 -0.00000000000E+00 -0.22595989553E+03  0.22595989553E+03  0.00000000000E+00 0.  1.
         25    1    1    2    0    0 -0.37254440158E+02  0.22368225632E+03 -0.76728009669E+02  0.26778504919E+03  0.12000000000E+03 0.  0.
         25    1    1    2    0    0  0.37254440158E+02 -0.22368225632E+03  0.25270966667E+03  0.36011639886E+03  0.12000000000E+03 0.  0.
<mgrwt>
<rscale>  0 0.60273600E+03</rscale>
<asrwt>0</asrwt>
<pdfrwt beam="1">  1        2 0.34763061E-01 0.60273600E+03</pdfrwt>
<pdfrwt beam="2">  1       -2 0.61837162E-01 0.60273600E+03</pdfrwt>
<totfact> 0.36976763E+02</totfact>
</mgrwt>
</event>
<event>
 4    1  0.1762274E-004  0.2564342E+03  0.7818608E-02  0.1109305E+00
          2   -1    0    0  501    0  0.00000000000E+00  0.00000000000E+00  0.45051329023E+03  0.45051329023E+03  0.00000000000E+00 0.  1.
         -2   -1    0    0    0  501 -0.00000000000E+00 -0.00000000000E+00 -0.36490876663E+02  0.36490876663E+02  0.00000000000E+00 0.  1.
         25    1    1    2    0    0  0.30513057446E+02 -0.10853886093E+02  0.14723292084E+03  0.19268208660E+03  0.12000000000E+03 0.  0.
         25    1    1    2    0    0 -0.30513057446E+02  0.10853886093E+02  0.26678949273E+03  0.29432208029E+03  0.12000000000E+03 0.  0.
<mgrwt>
<rscale>  0 0.25643420E+03</rscale>
<asrwt>0</asrwt>
<pdfrwt beam="1">  1        2 0.69309733E-01 0.25643420E+03</pdfrwt>
<pdfrwt beam="2">  1       -2 0.56139814E-02 0.25643420E+03</pdfrwt>
<totfact> 0.11354360E+04</totfact>
</mgrwt>
</event>
<event>
 4    1  0.1762274E-004  0.2479223E+03  0.7818608E-02  0.1114625E+00
         -1   -1    0    0    0  501 -0.00000000000E+00  0.00000000000E+00  0.19243905906E+02  0.19243905906E+02  0.00000000000E+00 0. -1.
          1   -1    0    0  501    0  0.00000000000E+00 -0.00000000000E+00 -0.79850532517E+03  0.79850532517E+03  0.00000000000E+00 0. -1.
         25    1    1    2    0    0  0.24937995448E+02  0.17665977953E+02 -0.40839716913E+03  0.42675782143E+03  0.12000000000E+03 0.  0.
         25    1    1    2    0    0 -0.24937995448E+02 -0.17665977953E+02 -0.37086425013E+03  0.39099140965E+03  0.12000000000E+03 0.  0.
<mgrwt>
<rscale>  0 0.24792226E+03</rscale>
<asrwt>0</asrwt>
<pdfrwt beam="1">  1        1 0.12284693E+00 0.24792226E+03</pdfrwt>
<pdfrwt beam="2">  1       -1 0.29606019E-02 0.24792226E+03</pdfrwt>
<totfact> 0.88312834E+03</totfact>
</mgrwt>
</event>
<event>
 4    1  0.1762274E-004  0.3106937E+03  0.7818608E-02  0.1080014E+00
          2   -1    0    0  501    0  0.00000000000E+00  0.00000000000E+00  0.28845015014E+03  0.28845015014E+03  0.00000000000E+00 0.  1.
         -2   -1    0    0    0  501 -0.00000000000E+00 -0.00000000000E+00 -0.83663120697E+02  0.83663120697E+02  0.00000000000E+00 0.  1.
         25    1    1    2    0    0  0.56545794651E+02 -0.60808418817E+02  0.38594431809E+02  0.15094575469E+03  0.12000000000E+03 0.  0.
         25    1    1    2    0    0 -0.56545794651E+02  0.60808418817E+02  0.16619259764E+03  0.22116751615E+03  0.12000000000E+03 0.  0.
<mgrwt>
<rscale>  0 0.31069367E+03</rscale>
<asrwt>0</asrwt>
<pdfrwt beam="1">  1        2 0.44376946E-01 0.31069367E+03</pdfrwt>
<pdfrwt beam="2">  1       -2 0.12871249E-01 0.31069367E+03</pdfrwt>
<totfact> 0.50256711E+03</totfact>
</mgrwt>
</event>
<event>
 4    1  0.1762274E-004  0.4308708E+03  0.7818608E-02  0.1033585E+00
          2   -1    0    0  501    0  0.00000000000E+00  0.00000000000E+00  0.10471292625E+04  0.10471292625E+04  0.00000000000E+00 0. -1.
         -2   -1    0    0    0  501 -0.00000000000E+00 -0.00000000000E+00 -0.44323480177E+02  0.44323480177E+02  0.00000000000E+00 0. -1.
         25    1    1    2    0    0  0.16752318581E+03  0.60097718459E+01  0.34296001469E+03  0.40015210460E+03  0.12000000000E+03 0.  0.
         25    1    1    2    0    0 -0.16752318581E+03 -0.60097718459E+01  0.65984576763E+03  0.69130063807E+03  0.12000000000E+03 0.  0.
<mgrwt>
<rscale>  0 0.43087081E+03</rscale>
<asrwt>0</asrwt>
<pdfrwt beam="1">  1        2 0.16109679E+00 0.43087081E+03</pdfrwt>
<pdfrwt beam="2">  1       -2 0.68189977E-02 0.43087081E+03</pdfrwt>
<totfact> 0.29915326E+03</totfact>
</mgrwt>
</event>
<event>
 4    1  0.1762274E-004  0.2761801E+03  0.7818608E-02  0.1097794E+00
         -2   -1    0    0    0  501 -0.00000000000E+00  0.00000000000E+00  0.25186745648E+03  0.25186745648E+03  0.00000000000E+00 0. -1.
          2   -1    0    0  501    0  0.00000000000E+00 -0.00000000000E+00 -0.75709888266E+02  0.75709888266E+02  0.00000000000E+00 0. -1.
         25    1    1    2    0    0  0.87823448305E+01 -0.41038398105E+02  0.15203564882E+03  0.19818203302E+03  0.12000000000E+03 0.  0.
         25    1    1    2    0    0 -0.87823448305E+01  0.41038398105E+02  0.24121919385E+02  0.12939531172E+03  0.12000000000E+03 0.  0.
<mgrwt>
<rscale>  0 0.27618006E+03</rscale>
<asrwt>0</asrwt>
<pdfrwt beam="1">  1        2 0.11647675E-01 0.27618006E+03</pdfrwt>
<pdfrwt beam="2">  1       -2 0.38748839E-01 0.27618006E+03</pdfrwt>
<totfact> 0.33422056E+03</totfact>
</mgrwt>
</event>
<event>
 4    1  0.1762274E-004  0.2949080E+03  0.7818608E-02  0.1087814E+00
          1   -1    0    0  501    0  0.00000000000E+00  0.00000000000E+00  0.79358483600E+03  0.79358483600E+03  0.00000000000E+00 0.  1.
         -1   -1    0    0    0  501 -0.00000000000E+00 -0.00000000000E+00 -0.27398061010E+02  0.27398061010E+02  0.00000000000E+00 0.  1.
         25    1    1    2    0    0  0.13549959536E+00  0.71286458336E+02  0.51546321077E+03  0.53402630942E+03  0.12000000000E+03 0.  0.
         25    1    1    2    0    0 -0.13549959536E+00 -0.71286458336E+02  0.25072356422E+03  0.28695658758E+03  0.12000000000E+03 0.  0.
<mgrwt>
<rscale>  0 0.29490802E+03</rscale>
<asrwt>0</asrwt>
<pdfrwt beam="1">  1        1 0.12208996E+00 0.29490802E+03</pdfrwt>
<pdfrwt beam="2">  1       -1 0.42150869E-02 0.29490802E+03</pdfrwt>
<totfact> 0.53069052E+03</totfact>
</mgrwt>
</event>
<event>
 4    1  0.1762274E-004  0.2495616E+03  0.7818608E-02  0.1113582E+00
         -1   -1    0    0    0  501 -0.00000000000E+00  0.00000000000E+00  0.43982379028E+02  0.43982379028E+02  0.00000000000E+00 0. -1.
          1   -1    0    0  501    0  0.00000000000E+00 -0.00000000000E+00 -0.35401101053E+03  0.35401101053E+03  0.00000000000E+00 0. -1.
         25    1    1    2    0    0  0.96538129087E+01 -0.25736934561E+02 -0.18748896543E+03  0.22429377625E+03  0.12000000000E+03 0.  0.
         25    1    1    2    0    0 -0.96538129087E+01  0.25736934561E+02 -0.12253966607E+03  0.17369961331E+03  0.12000000000E+03 0.  0.
<mgrwt>
<rscale>  0 0.24956159E+03</rscale>
<asrwt>0</asrwt>
<pdfrwt beam="1">  1        1 0.54463236E-01 0.24956159E+03</pdfrwt>
<pdfrwt beam="2">  1       -1 0.67665194E-02 0.24956159E+03</pdfrwt>
<totfact> 0.77979180E+03</totfact>
</mgrwt>
</event>
<event>
 4    1  0.1762274E-004  0.3548224E+03  0.7818608E-02  0.1060653E+00
         -2   -1    0    0    0  501 -0.00000000000E+00  0.00000000000E+00  0.23933635645E+02  0.23933635645E+02  0.00000000000E+00 0.  1.
          2   -1    0    0  501    0  0.00000000000E+00 -0.00000000000E+00 -0.13150840609E+04  0.13150840609E+04  0.00000000000E+00 0.  1.
         25    1    1    2    0    0  0.57296480406E+02 -0.27369737769E+02 -0.21459248010E+03  0.25393290793E+03  0.12000000000E+03 0.  0.
         25    1    1    2    0    0 -0.57296480406E+02  0.27369737769E+02 -0.10765579452E+04  0.10850847886E+04  0.12000000000E+03 0.  0.
<mgrwt>
<rscale>  0 0.35482245E+03</rscale>
<asrwt>0</asrwt>
<pdfrwt beam="1">  1        2 0.20232068E+00 0.35482245E+03</pdfrwt>
<pdfrwt beam="2">  1       -2 0.36820969E-02 0.35482245E+03</pdfrwt>
<totfact> 0.53788975E+03</totfact>
</mgrwt>
</event>
<event>
 4    1  0.1762274E-004  0.2888188E+03  0.7818608E-02  0.1090967E+00
          1   -1    0    0  501    0  0.00000000000E+00  0.00000000000E+00  0.42986837775E+03  0.42986837775E+03  0.00000000000E+00 0.  1.
         -1   -1    0    0    0  501 -0.00000000000E+00 -0.00000000000E+00 -0.48512704242E+02  0.48512704242E+02  0.00000000000E+00 0.  1.
         25    1    1    2    0    0 -0.58035395685E+02 -0.55371711009E+02  0.18328086443E+03  0.23329382503E+03  0.12000000000E+03 0.  0.
         25    1    1    2    0    0  0.58035395685E+02  0.55371711009E+02  0.19807480908E+03  0.24508725696E+03  0.12000000000E+03 0.  0.
<mgrwt>
<rscale>  0 0.28881882E+03</rscale>
<asrwt>0</asrwt>
<pdfrwt beam="1">  1        1 0.66133594E-01 0.28881882E+03</pdfrwt>
<pdfrwt beam="2">  1       -1 0.74634932E-02 0.28881882E+03</pdfrwt>
<totfact> 0.52670182E+03</totfact>
</mgrwt>
</event>
<event>
 4    1  0.1762274E-004  0.2609119E+03  0.7818608E-02  0.1106597E+00
         -1   -1    0    0    0  501 -0.00000000000E+00  0.00000000000E+00  0.65673707938E+01  0.65673707938E+01  0.00000000000E+00 0.  1.
          1   -1    0    0  501    0  0.00000000000E+00 -0.00000000000E+00 -0.25914097838E+04  0.25914097838E+04  0.00000000000E+00 0.  1.
         25    1    1    2    0    0  0.23297196671E+02  0.56753200006E+01 -0.84226979043E+03  0.85111301747E+03  0.12000000000E+03 0.  0.
         25    1    1    2    0    0 -0.23297196671E+02 -0.56753200006E+01 -0.17425726226E+04  0.17468641371E+04  0.12000000000E+03 0.  0.
<mgrwt>
<rscale>  0 0.26091185E+03</rscale>
<asrwt>0</asrwt>
<pdfrwt beam="1">  1        1 0.39867825E+00 0.26091185E+03</pdfrwt>
<pdfrwt beam="2">  1       -1 0.10103652E-02 0.26091185E+03</pdfrwt>
<totfact> 0.25550414E+03</totfact>
</mgrwt>
</event>
<event>
 4    1  0.1762274E-004  0.2991588E+03  0.7818608E-02  0.1085662E+00
         -1   -1    0    0    0  501 -0.00000000000E+00  0.00000000000E+00  0.14927110484E+03  0.14927110484E+03  0.00000000000E+00 0.  1.
          1   -1    0    0  501    0  0.00000000000E+00 -0.00000000000E+00 -0.14988835807E+03  0.14988835807E+03  0.00000000000E+00 0.  1.
         25    1    1    2    0    0 -0.84436208778E+02  0.76425253367E+01  0.27729251554E+02  0.14952188113E+03  0.12000000000E+03 0.  0.
         25    1    1    2    0    0  0.84436208778E+02 -0.76425253367E+01 -0.28346504779E+02  0.14963758177E+03  0.12000000000E+03 0.  0.
<mgrwt>
<rscale>  0 0.29915883E+03</rscale>
<asrwt>0</asrwt>
<pdfrwt beam="1">  1        1 0.23059747E-01 0.29915883E+03</pdfrwt>
<pdfrwt beam="2">  1       -1 0.22964785E-01 0.29915883E+03</pdfrwt>
<totfact> 0.34004047E+03</totfact>
</mgrwt>
</event>
<event>
 4    1  0.1762274E-004  0.7296447E+03  0.7818608E-02  0.9667837E-01
         -1   -1    0    0    0  501 -0.00000000000E+00  0.00000000000E+00  0.42720974868E+03  0.42720974868E+03  0.00000000000E+00 0. -1.
          1   -1    0    0  501    0  0.00000000000E+00 -0.00000000000E+00 -0.31154568366E+03  0.31154568366E+03  0.00000000000E+00 0. -1.
         25    1    1    2    0    0 -0.28692481278E+03 -0.78304904578E+02 -0.11822958094E+03  0.34181243406E+03  0.12000000000E+03 0.  0.
         25    1    1    2    0    0  0.28692481278E+03  0.78304904578E+02  0.23389364596E+03  0.39694299828E+03  0.12000000000E+03 0.  0.
<mgrwt>
<rscale>  0 0.72964472E+03</rscale>
<asrwt>0</asrwt>
<pdfrwt beam="1">  1        1 0.47930105E-01 0.72964472E+03</pdfrwt>
<pdfrwt beam="2">  1       -1 0.65724577E-01 0.72964472E+03</pdfrwt>
<totfact> 0.19856605E+02</totfact>
</mgrwt>
</event>
<event>
 4    1  0.1762274E-004  0.3182736E+03  0.7818608E-02  0.1076447E+00
          1   -1    0    0  501    0  0.00000000000E+00  0.00000000000E+00  0.57044220395E+02  0.57044220395E+02  0.00000000000E+00 0.  1.
         -1   -1    0    0    0  501 -0.00000000000E+00 -0.00000000000E+00 -0.44394543399E+03  0.44394543399E+03  0.00000000000E+00 0.  1.
         25    1    1    2    0    0  0.95228995517E+02 -0.26280682537E+02 -0.24718400139E+03  0.29199172318E+03  0.12000000000E+03 0.  0.
         25    1    1    2    0    0 -0.95228995517E+02  0.26280682537E+02 -0.13971721220E+03  0.20899793120E+03  0.12000000000E+03 0.  0.
<mgrwt>
<rscale>  0 0.31827360E+03</rscale>
<asrwt>0</asrwt>
<pdfrwt beam="1">  1        1 0.87760341E-02 0.31827360E+03</pdfrwt>
<pdfrwt beam="2">  1       -1 0.68299296E-01 0.31827360E+03</pdfrwt>
<totfact> 0.17289847E+03</totfact>
</mgrwt>
</event>
<event>
 4    1  0.1762274E-004  0.3102913E+03  0.7818608E-02  0.1080206E+00
         -1   -1    0    0    0  501 -0.00000000000E+00  0.00000000000E+00  0.48372681116E+01  0.48372681116E+01  0.00000000000E+00 0. -1.
          1   -1    0    0  501    0  0.00000000000E+00 -0.00000000000E+00 -0.49759840268E+04  0.49759840268E+04  0.00000000000E+00 0. -1.
         25    1    1    2    0    0  0.47886703258E+02  0.76967391647E+02 -0.18736850876E+04  0.18797108616E+04  0.12000000000E+03 0.  0.
         25    1    1    2    0    0 -0.47886703258E+02 -0.76967391647E+02 -0.30974616711E+04  0.31011104333E+04  0.12000000000E+03 0.  0.
<mgrwt>
<rscale>  0 0.31029128E+03</rscale>
<asrwt>0</asrwt>
<pdfrwt beam="1">  1        1 0.76553282E+00 0.31029128E+03</pdfrwt>
<pdfrwt beam="2">  1       -1 0.74419819E-03 0.31029128E+03</pdfrwt>
<totfact> 0.38263669E+01</totfact>
</mgrwt>
</event>
<event>
 4    1  0.1762274E-004  0.2675304E+03  0.7818608E-02  0.1102701E+00
         -1   -1    0    0    0  501 -0.00000000000E+00  0.00000000000E+00  0.13822598678E+02  0.13822598678E+02  0.00000000000E+00 0.  1.
          1   -1    0    0  501    0  0.00000000000E+00 -0.00000000000E+00 -0.12944837079E+04  0.12944837079E+04  0.00000000000E+00 0.  1.
         25    1    1    2    0    0  0.40283378372E+00 -0.58267550461E+02 -0.59195378618E+03  0.60679861131E+03  0.12000000000E+03 0.  0.
         25    1    1    2    0    0 -0.40283378372E+00  0.58267550461E+02 -0.68870732303E+03  0.70150769526E+03  0.12000000000E+03 0.  0.
<mgrwt>
<rscale>  0 0.26753040E+03</rscale>
<asrwt>0</asrwt>
<pdfrwt beam="1">  1        1 0.19915131E+00 0.26753040E+03</pdfrwt>
<pdfrwt beam="2">  1       -1 0.21265539E-02 0.26753040E+03</pdfrwt>
<totfact> 0.61646156E+03</totfact>
</mgrwt>
</event>
<event>
 4    1  0.1762274E-004  0.2617858E+03  0.7818608E-02  0.1106075E+00
         -2   -1    0    0    0  501 -0.00000000000E+00  0.00000000000E+00  0.84483418858E+01  0.84483418858E+01  0.00000000000E+00 0. -1.
          2   -1    0    0  501    0  0.00000000000E+00 -0.00000000000E+00 -0.20279660547E+04  0.20279660547E+04  0.00000000000E+00 0. -1.
         25    1    1    2    0    0 -0.21581193214E+02 -0.19342552051E+02 -0.13482156443E+04  0.13538557182E+04  0.12000000000E+03 0.  0.
         25    1    1    2    0    0  0.21581193214E+02  0.19342552051E+02 -0.67130206845E+03  0.68255867830E+03  0.12000000000E+03 0.  0.
<mgrwt>
<rscale>  0 0.26178579E+03</rscale>
<asrwt>0</asrwt>
<pdfrwt beam="1">  1        2 0.31199464E+00 0.26178579E+03</pdfrwt>
<pdfrwt beam="2">  1       -2 0.12997455E-02 0.26178579E+03</pdfrwt>
<totfact> 0.10440191E+04</totfact>
</mgrwt>
</event>
<event>
 4    1  0.1762274E-004  0.2920452E+03  0.7818608E-02  0.1089286E+00
          2   -1    0    0  501    0  0.00000000000E+00  0.00000000000E+00  0.11937588801E+03  0.11937588801E+03  0.00000000000E+00 0.  1.
         -2   -1    0    0    0  501 -0.00000000000E+00 -0.00000000000E+00 -0.17861735636E+03  0.17861735636E+03  0.00000000000E+00 0.  1.
         25    1    1    2    0    0 -0.24288040019E+02 -0.57751476547E+02  0.26243422304E+02  0.13789075076E+03  0.12000000000E+03 0.  0.
         25    1    1    2    0    0  0.24288040019E+02  0.57751476547E+02 -0.85484890653E+02  0.16010249361E+03  0.12000000000E+03 0.  0.
<mgrwt>
<rscale>  0 0.29204524E+03</rscale>
<asrwt>0</asrwt>
<pdfrwt beam="1">  1        2 0.18365521E-01 0.29204524E+03</pdfrwt>
<pdfrwt beam="2">  1       -2 0.27479593E-01 0.29204524E+03</pdfrwt>
<totfact> 0.36690563E+03</totfact>
</mgrwt>
</event>
<event>
 4    1  0.1762274E-004  0.2541332E+03  0.7818608E-02  0.1110720E+00
          2   -1    0    0  501    0  0.00000000000E+00  0.00000000000E+00  0.40364545613E+03  0.40364545613E+03  0.00000000000E+00 0.  1.
         -2   -1    0    0    0  501 -0.00000000000E+00 -0.00000000000E+00 -0.40000240815E+02  0.40000240815E+02  0.00000000000E+00 0.  1.
         25    1    1    2    0    0 -0.15113920771E+02  0.10341249170E+02  0.24738701950E+03  0.27556434721E+03  0.12000000000E+03 0.  0.
         25    1    1    2    0    0  0.15113920771E+02 -0.10341249170E+02  0.11625819582E+03  0.16808134974E+03  0.12000000000E+03 0.  0.
<mgrwt>
<rscale>  0 0.25413316E+03</rscale>
<asrwt>0</asrwt>
<pdfrwt beam="1">  1        2 0.62099298E-01 0.25413316E+03</pdfrwt>
<pdfrwt beam="2">  1       -2 0.61538835E-02 0.25413316E+03</pdfrwt>
<totfact> 0.11118869E+04</totfact>
</mgrwt>
</event>
<event>
 4    1  0.1762274E-004  0.2955989E+03  0.7818608E-02  0.1087462E+00
          1   -1    0    0  501    0  0.00000000000E+00  0.00000000000E+00  0.22350542474E+02  0.22350542474E+02  0.00000000000E+00 0.  1.
         -1   -1    0    0    0  501 -0.00000000000E+00 -0.00000000000E+00 -0.97736664195E+03  0.97736664195E+03  0.00000000000E+00 0.  1.
         25    1    1    2    0    0 -0.36852144314E+02  0.27848325380E+02 -0.72397867942E+03  0.73530860054E+03  0.12000000000E+03 0.  0.
         25    1    1    2    0    0  0.36852144314E+02 -0.27848325380E+02 -0.23103742005E+03  0.26440858388E+03  0.12000000000E+03 0.  0.
<mgrwt>
<rscale>  0 0.29559888E+03</rscale>
<asrwt>0</asrwt>
<pdfrwt beam="1">  1        1 0.34385447E-02 0.29559888E+03</pdfrwt>
<pdfrwt beam="2">  1       -1 0.15036411E+00 0.29559888E+03</pdfrwt>
<totfact> 0.10576290E+03</totfact>
</mgrwt>
</event>
<event>
 4    1  0.1762274E-004  0.3775910E+03  0.7818608E-02  0.1051828E+00
         -1   -1    0    0    0  501 -0.00000000000E+00  0.00000000000E+00  0.51144468464E+02  0.51144468464E+02  0.00000000000E+00 0.  1.
          1   -1    0    0  501    0  0.00000000000E+00 -0.00000000000E+00 -0.69692275835E+03  0.69692275835E+03  0.00000000000E+00 0.  1.
         25    1    1    2    0    0 -0.91894166653E+02 -0.10703481407E+03 -0.39548591910E+03  0.43670367699E+03  0.12000000000E+03 0.  0.
         25    1    1    2    0    0  0.91894166653E+02  0.10703481407E+03 -0.25029237078E+03  0.31136354982E+03  0.12000000000E+03 0.  0.
<mgrwt>
<rscale>  0 0.37759102E+03</rscale>
<asrwt>0</asrwt>
<pdfrwt beam="1">  1        1 0.10721889E+00 0.37759102E+03</pdfrwt>
<pdfrwt beam="2">  1       -1 0.78683792E-02 0.37759102E+03</pdfrwt>
<totfact> 0.25143165E+03</totfact>
</mgrwt>
</event>
<event>
 4    1  0.1762274E-004  0.2851304E+03  0.7818608E-02  0.1092919E+00
          2   -1    0    0  501    0  0.00000000000E+00  0.00000000000E+00  0.46686536417E+03  0.46686536417E+03  0.00000000000E+00 0. -1.
         -2   -1    0    0    0  501 -0.00000000000E+00 -0.00000000000E+00 -0.43534672653E+02  0.43534672653E+02  0.00000000000E+00 0. -1.
         25    1    1    2    0    0 -0.22266435376E+02  0.31247430250E+02  0.33111248921E+03  0.35427062615E+03  0.12000000000E+03 0.  0.
         25    1    1    2    0    0  0.22266435376E+02 -0.31247430250E+02  0.92218202315E+02  0.15612941068E+03  0.12000000000E+03 0.  0.
<mgrwt>
<rscale>  0 0.28513036E+03</rscale>
<asrwt>0</asrwt>
<pdfrwt beam="1">  1        2 0.71825437E-01 0.28513036E+03</pdfrwt>
<pdfrwt beam="2">  1       -2 0.66976423E-02 0.28513036E+03</pdfrwt>
<totfact> 0.83596511E+03</totfact>
</mgrwt>
</event>
<event>
 4    1  0.1762274E-004  0.2466500E+03  0.7818608E-02  0.1115440E+00
          1   -1    0    0  501    0  0.00000000000E+00  0.00000000000E+00  0.73001014376E+02  0.73001014376E+02  0.00000000000E+00 0.  1.
         -1   -1    0    0    0  501 -0.00000000000E+00 -0.00000000000E+00 -0.20834031272E+03  0.20834031272E+03  0.00000000000E+00 0.  1.
         25    1    1    2    0    0  0.14717008936E+02  0.24299972183E+02 -0.69272724799E+02  0.14144182338E+03  0.12000000000E+03 0.  0.
         25    1    1    2    0    0 -0.14717008936E+02 -0.24299972183E+02 -0.66066573548E+02  0.13989950372E+03  0.12000000000E+03 0.  0.
<mgrwt>
<rscale>  0 0.24664999E+03</rscale>
<asrwt>0</asrwt>
<pdfrwt beam="1">  1        1 0.11230925E-01 0.24664999E+03</pdfrwt>
<pdfrwt beam="2">  1       -1 0.32052356E-01 0.24664999E+03</pdfrwt>
<totfact> 0.49413495E+03</totfact>
</mgrwt>
</event>
<event>
 4    1  0.1762274E-004  0.2505693E+03  0.7818608E-02  0.1112946E+00
          2   -1    0    0  501    0  0.00000000000E+00  0.00000000000E+00  0.12796807623E+04  0.12796807623E+04  0.00000000000E+00 0. -1.
         -2   -1    0    0    0  501 -0.00000000000E+00 -0.00000000000E+00 -0.12265753691E+02  0.12265753691E+02  0.00000000000E+00 0. -1.
         25    1    1    2    0    0 -0.19685973907E+02 -0.16239864254E+02  0.76465257122E+03  0.77443193725E+03  0.12000000000E+03 0.  0.
         25    1    1    2    0    0  0.19685973907E+02  0.16239864254E+02  0.50276243736E+03  0.51751457871E+03  0.12000000000E+03 0.  0.
<mgrwt>
<rscale>  0 0.25056934E+03</rscale>
<asrwt>0</asrwt>
<pdfrwt beam="1">  1        2 0.19687386E+00 0.25056934E+03</pdfrwt>
<pdfrwt beam="2">  1       -2 0.18870400E-02 0.25056934E+03</pdfrwt>
<totfact> 0.15099170E+04</totfact>
</mgrwt>
</event>
<event>
 4    1  0.1762274E-004  0.3347208E+03  0.7818608E-02  0.1069067E+00
          2   -1    0    0  501    0  0.00000000000E+00  0.00000000000E+00  0.15596736716E+04  0.15596736716E+04  0.00000000000E+00 0. -1.
         -2   -1    0    0    0  501 -0.00000000000E+00 -0.00000000000E+00 -0.17958569105E+02  0.17958569105E+02  0.00000000000E+00 0. -1.
         25    1    1    2    0    0 -0.11492352140E+03  0.23102970315E+01  0.86473986661E+03  0.88056106555E+03  0.12000000000E+03 0.  0.
         25    1    1    2    0    0  0.11492352140E+03 -0.23102970315E+01  0.67697523592E+03  0.69707117520E+03  0.12000000000E+03 0.  0.
<mgrwt>
<rscale>  0 0.33472082E+03</rscale>
<asrwt>0</asrwt>
<pdfrwt beam="1">  1        2 0.23994969E+00 0.33472082E+03</pdfrwt>
<pdfrwt beam="2">  1       -2 0.27628580E-02 0.33472082E+03</pdfrwt>
<totfact> 0.60859804E+03</totfact>
</mgrwt>
</event>
<event>
 4    1  0.1762274E-004  0.3326397E+03  0.7818608E-02  0.1069975E+00
         -2   -1    0    0    0  501 -0.00000000000E+00  0.00000000000E+00  0.19726417213E+02  0.19726417213E+02  0.00000000000E+00 0. -1.
          2   -1    0    0  501    0  0.00000000000E+00 -0.00000000000E+00 -0.14022971020E+04  0.14022971020E+04  0.00000000000E+00 0. -1.
         25    1    1    2    0    0 -0.41201650335E+02  0.72374966430E+02 -0.10313154431E+04  0.10416080140E+04  0.12000000000E+03 0.  0.
         25    1    1    2    0    0  0.41201650335E+02 -0.72374966430E+02 -0.35125524169E+03  0.38041550516E+03  0.12000000000E+03 0.  0.
<mgrwt>
<rscale>  0 0.33263973E+03</rscale>
<asrwt>0</asrwt>
<pdfrwt beam="1">  1        2 0.21573810E+00 0.33263973E+03</pdfrwt>
<pdfrwt beam="2">  1       -2 0.30348322E-02 0.33263973E+03</pdfrwt>
<totfact> 0.64346415E+03</totfact>
</mgrwt>
</event>
<event>
 4    1  0.1762274E-004  0.2529971E+03  0.7818608E-02  0.1111425E+00
         -2   -1    0    0    0  501 -0.00000000000E+00  0.00000000000E+00  0.14502700612E+03  0.14502700612E+03  0.00000000000E+00 0.  1.
          2   -1    0    0  501    0  0.00000000000E+00 -0.00000000000E+00 -0.11033723284E+03  0.11033723284E+03  0.00000000000E+00 0.  1.
         25    1    1    2    0    0  0.19598956841E+01 -0.36999294217E+02  0.32622209798E+02  0.12975745657E+03  0.12000000000E+03 0.  0.
         25    1    1    2    0    0 -0.19598956841E+01  0.36999294217E+02  0.20675634899E+01  0.12560678239E+03  0.12000000000E+03 0.  0.
<mgrwt>
<rscale>  0 0.25299706E+03</rscale>
<asrwt>0</asrwt>
<pdfrwt beam="1">  1        2 0.16974959E-01 0.25299706E+03</pdfrwt>
<pdfrwt beam="2">  1       -2 0.22311847E-01 0.25299706E+03</pdfrwt>
<totfact> 0.57758318E+03</totfact>
</mgrwt>
</event>
<event>
 4    1  0.1762274E-004  0.3460208E+03  0.7818608E-02  0.1064260E+00
         -2   -1    0    0    0  501 -0.00000000000E+00  0.00000000000E+00  0.76056238448E+03  0.76056238448E+03  0.00000000000E+00 0. -1.
          2   -1    0    0  501    0  0.00000000000E+00 -0.00000000000E+00 -0.39355881313E+02  0.39355881313E+02  0.00000000000E+00 0. -1.
         25    1    1    2    0    0 -0.91547286003E+02 -0.84557239904E+02  0.36367932169E+03  0.40273251845E+03  0.12000000000E+03 0.  0.
         25    1    1    2    0    0  0.91547286003E+02  0.84557239904E+02  0.35752718148E+03  0.39718574734E+03  0.12000000000E+03 0.  0.
<mgrwt>
<rscale>  0 0.34602083E+03</rscale>
<asrwt>0</asrwt>
<pdfrwt beam="1">  1        2 0.60547515E-02 0.34602083E+03</pdfrwt>
<pdfrwt beam="2">  1       -2 0.11700959E+00 0.34602083E+03</pdfrwt>
<totfact> 0.72441484E+02</totfact>
</mgrwt>
</event>
<event>
 4    1  0.1762274E-004  0.3669962E+03  0.7818608E-02  0.1055847E+00
         -1   -1    0    0    0  501 -0.00000000000E+00  0.00000000000E+00  0.11841471985E+03  0.11841471985E+03  0.00000000000E+00 0.  1.
          1   -1    0    0  501    0  0.00000000000E+00 -0.00000000000E+00 -0.28435282312E+03  0.28435282312E+03  0.00000000000E+00 0.  1.
         25    1    1    2    0    0  0.20170524352E+02 -0.12446415605E+03 -0.14671105700E+03  0.22764514148E+03  0.12000000000E+03 0.  0.
         25    1    1    2    0    0 -0.20170524352E+02  0.12446415605E+03 -0.19227046265E+02  0.17512240148E+03  0.12000000000E+03 0.  0.
<mgrwt>
<rscale>  0 0.36699624E+03</rscale>
<asrwt>0</asrwt>
<pdfrwt beam="1">  1        1 0.43746587E-01 0.36699624E+03</pdfrwt>
<pdfrwt beam="2">  1       -1 0.18217650E-01 0.36699624E+03</pdfrwt>
<totfact> 0.22116548E+03</totfact>
</mgrwt>
</event>
<event>
 4    1  0.1762274E-004  0.3771366E+03  0.7818608E-02  0.1051997E+00
          4   -1    0    0  501    0  0.00000000000E+00  0.00000000000E+00  0.98069253719E+02  0.98069253719E+02  0.00000000000E+00 0.  1.
         -4   -1    0    0    0  501 -0.00000000000E+00 -0.00000000000E+00 -0.36258050426E+03  0.36258050426E+03  0.00000000000E+00 0.  1.
         25    1    1    2    0    0  0.11407319276E+03 -0.25546707315E+02 -0.26527495509E+02  0.16961437315E+03  0.12000000000E+03 0.  0.
         25    1    1    2    0    0 -0.11407319276E+03  0.25546707315E+02 -0.23798375503E+03  0.29103538482E+03  0.12000000000E+03 0.  0.
<mgrwt>
<rscale>  0 0.37713658E+03</rscale>
<asrwt>0</asrwt>
<pdfrwt beam="1">  1        4 0.15087577E-01 0.37713658E+03</pdfrwt>
<pdfrwt beam="2">  1       -4 0.55781617E-01 0.37713658E+03</pdfrwt>
<totfact> 0.22302499E+02</totfact>
</mgrwt>
</event>
<event>
 4    1  0.1762274E-004  0.2551635E+03  0.7818608E-02  0.1110084E+00
          1   -1    0    0  501    0  0.00000000000E+00  0.00000000000E+00  0.15236484649E+04  0.15236484649E+04  0.00000000000E+00 0.  1.
         -1   -1    0    0    0  501 -0.00000000000E+00 -0.00000000000E+00 -0.10682980505E+02  0.10682980505E+02  0.00000000000E+00 0.  1.
         25    1    1    2    0    0 -0.41027177135E+02  0.11805998038E+01  0.67305746880E+03  0.68490216775E+03  0.12000000000E+03 0.  0.
         25    1    1    2    0    0  0.41027177135E+02 -0.11805998038E+01  0.83990801564E+03  0.84942927770E+03  0.12000000000E+03 0.  0.
<mgrwt>
<rscale>  0 0.25516353E+03</rscale>
<asrwt>0</asrwt>
<pdfrwt beam="1">  1        1 0.23440728E+00 0.25516353E+03</pdfrwt>
<pdfrwt beam="2">  1       -1 0.16435367E-02 0.25516353E+03</pdfrwt>
<totfact> 0.62977803E+03</totfact>
</mgrwt>
</event>
<event>
 4    1  0.1762274E-004  0.2688518E+03  0.7818608E-02  0.1101939E+00
          2   -1    0    0  501    0  0.00000000000E+00  0.00000000000E+00  0.42444783094E+03  0.42444783094E+03  0.00000000000E+00 0.  1.
         -2   -1    0    0    0  501 -0.00000000000E+00 -0.00000000000E+00 -0.42573717056E+02  0.42573717056E+02  0.00000000000E+00 0.  1.
         25    1    1    2    0    0 -0.48105200849E+02  0.11398602642E+02  0.25176727852E+03  0.28325042105E+03  0.12000000000E+03 0.  0.
         25    1    1    2    0    0  0.48105200849E+02 -0.11398602642E+02  0.13010683536E+03  0.18377112694E+03  0.12000000000E+03 0.  0.
<mgrwt>
<rscale>  0 0.26885179E+03</rscale>
<asrwt>0</asrwt>
<pdfrwt beam="1">  1        2 0.65299663E-01 0.26885179E+03</pdfrwt>
<pdfrwt beam="2">  1       -2 0.65498029E-02 0.26885179E+03</pdfrwt>
<totfact> 0.95873054E+03</totfact>
</mgrwt>
</event>
<event>
 4    1  0.1762274E-004  0.3321123E+03  0.7818608E-02  0.1070206E+00
          1   -1    0    0  501    0  0.00000000000E+00  0.00000000000E+00  0.20114941909E+04  0.20114941909E+04  0.00000000000E+00 0. -1.
         -1   -1    0    0    0  501 -0.00000000000E+00 -0.00000000000E+00 -0.13708539337E+02  0.13708539337E+02  0.00000000000E+00 0. -1.
         25    1    1    2    0    0 -0.80567814323E+02  0.67382352111E+02  0.12811883882E+04  0.12910752264E+04  0.12000000000E+03 0.  0.
         25    1    1    2    0    0  0.80567814323E+02 -0.67382352111E+02  0.71659726339E+03  0.73412750390E+03  0.12000000000E+03 0.  0.
<mgrwt>
<rscale>  0 0.33211231E+03</rscale>
<asrwt>0</asrwt>
<pdfrwt beam="1">  1        1 0.30946041E+00 0.33211231E+03</pdfrwt>
<pdfrwt beam="2">  1       -1 0.21090077E-02 0.33211231E+03</pdfrwt>
<totfact> 0.20978020E+03</totfact>
</mgrwt>
</event>
<event>
 4    1  0.1762274E-004  0.3054437E+03  0.7818608E-02  0.1082551E+00
         -1   -1    0    0    0  501 -0.00000000000E+00  0.00000000000E+00  0.93198472304E+02  0.93198472304E+02  0.00000000000E+00 0.  1.
          1   -1    0    0  501    0  0.00000000000E+00 -0.00000000000E+00 -0.25026130124E+03  0.25026130124E+03  0.00000000000E+00 0.  1.
         25    1    1    2    0    0  0.73567414813E+02 -0.50508839858E+02 -0.43679207153E+02  0.15579210687E+03  0.12000000000E+03 0.  0.
         25    1    1    2    0    0 -0.73567414813E+02  0.50508839858E+02 -0.11338362179E+03  0.18766766668E+03  0.12000000000E+03 0.  0.
<mgrwt>
<rscale>  0 0.30544375E+03</rscale>
<asrwt>0</asrwt>
<pdfrwt beam="1">  1        1 0.38501739E-01 0.30544375E+03</pdfrwt>
<pdfrwt beam="2">  1       -1 0.14338226E-01 0.30544375E+03</pdfrwt>
<totfact> 0.38039595E+03</totfact>
</mgrwt>
</event>
<event>
 4    1  0.1762274E-004  0.2692225E+03  0.7818608E-02  0.1101725E+00
         -2   -1    0    0    0  501 -0.00000000000E+00  0.00000000000E+00  0.31749478145E+02  0.31749478145E+02  0.00000000000E+00 0.  1.
          2   -1    0    0  501    0  0.00000000000E+00 -0.00000000000E+00 -0.57072396172E+03  0.57072396172E+03  0.00000000000E+00 0.  1.
         25    1    1    2    0    0  0.10576704220E+02  0.15039362510E+02 -0.39963068052E+03  0.41766341701E+03  0.12000000000E+03 0.  0.
         25    1    1    2    0    0 -0.10576704220E+02 -0.15039362510E+02 -0.13934380305E+03  0.18481002285E+03  0.12000000000E+03 0.  0.
<mgrwt>
<rscale>  0 0.26922249E+03</rscale>
<asrwt>0</asrwt>
<pdfrwt beam="1">  1        2 0.87803684E-01 0.26922249E+03</pdfrwt>
<pdfrwt beam="2">  1       -2 0.48845352E-02 0.26922249E+03</pdfrwt>
<totfact> 0.10786921E+04</totfact>
</mgrwt>
</event>
<event>
 4    1  0.1762274E-004  0.3811243E+03  0.7818608E-02  0.1050519E+00
          2   -1    0    0  501    0  0.00000000000E+00  0.00000000000E+00  0.78030174325E+03  0.78030174325E+03  0.00000000000E+00 0.  1.
         -2   -1    0    0    0  501 -0.00000000000E+00 -0.00000000000E+00 -0.46538309704E+02  0.46538309704E+02  0.00000000000E+00 0.  1.
         25    1    1    2    0    0  0.29120500097E+02 -0.34257423929E+02  0.67286518324E+03  0.68495921735E+03  0.12000000000E+03 0.  0.
         25    1    1    2    0    0 -0.29120500097E+02  0.34257423929E+02  0.60898250303E+02  0.14188083560E+03  0.12000000000E+03 0.  0.
<mgrwt>
<rscale>  0 0.38112425E+03</rscale>
<asrwt>0</asrwt>
<pdfrwt beam="1">  1        2 0.12004641E+00 0.38112425E+03</pdfrwt>
<pdfrwt beam="2">  1       -2 0.71597405E-02 0.38112425E+03</pdfrwt>
<totfact> 0.41413042E+03</totfact>
</mgrwt>
</event>
<event>
 4    1  0.1762274E-004  0.3450960E+03  0.7818608E-02  0.1064646E+00
          2   -1    0    0  501    0  0.00000000000E+00  0.00000000000E+00  0.23155872107E+04  0.23155872107E+04  0.00000000000E+00 0. -1.
         -2   -1    0    0    0  501 -0.00000000000E+00 -0.00000000000E+00 -0.12857565926E+02  0.12857565926E+02  0.00000000000E+00 0. -1.
         25    1    1    2    0    0  0.10466379007E+03 -0.40043879668E+02  0.79339262178E+03  0.81020360006E+03  0.12000000000E+03 0.  0.
         25    1    1    2    0    0 -0.10466379007E+03  0.40043879668E+02  0.15093370230E+04  0.15182411766E+04  0.12000000000E+03 0.  0.
<mgrwt>
<rscale>  0 0.34509602E+03</rscale>
<asrwt>0</asrwt>
<pdfrwt beam="1">  1        2 0.35624385E+00 0.34509602E+03</pdfrwt>
<pdfrwt beam="2">  1       -2 0.19780889E-02 0.34509602E+03</pdfrwt>
<totfact> 0.39569584E+03</totfact>
</mgrwt>
</event>
<event>
 4    1  0.1762274E-004  0.2573465E+03  0.7818608E-02  0.1108748E+00
          2   -1    0    0  501    0  0.00000000000E+00  0.00000000000E+00  0.93902164153E+03  0.93902164153E+03  0.00000000000E+00 0. -1.
         -2   -1    0    0    0  501 -0.00000000000E+00 -0.00000000000E+00 -0.17631972362E+02  0.17631972362E+02  0.00000000000E+00 0. -1.
         25    1    1    2    0    0 -0.43109471689E+01  0.43908277083E+02  0.40678871021E+03  0.42640775768E+03  0.12000000000E+03 0.  0.
         25    1    1    2    0    0  0.43109471689E+01 -0.43908277083E+02  0.51460095896E+03  0.53024585621E+03  0.12000000000E+03 0.  0.
<mgrwt>
<rscale>  0 0.25734649E+03</rscale>
<asrwt>0</asrwt>
<pdfrwt beam="1">  1        2 0.14446483E+00 0.25734649E+03</pdfrwt>
<pdfrwt beam="2">  1       -2 0.27126119E-02 0.25734649E+03</pdfrwt>
<totfact> 0.14027085E+04</totfact>
</mgrwt>
</event>
<event>
 4    1  0.1762274E-004  0.3179265E+03  0.7818608E-02  0.1076608E+00
         -1   -1    0    0    0  501 -0.00000000000E+00  0.00000000000E+00  0.27424432564E+03  0.27424432564E+03  0.00000000000E+00 0.  1.
          1   -1    0    0  501    0  0.00000000000E+00 -0.00000000000E+00 -0.92141591211E+02  0.92141591211E+02  0.00000000000E+00 0.  1.
         25    1    1    2    0    0 -0.23471841672E+02 -0.97960666724E+02  0.12201896034E+03  0.19858460731E+03  0.12000000000E+03 0.  0.
         25    1    1    2    0    0  0.23471841672E+02  0.97960666724E+02  0.60083774089E+02  0.16780130955E+03  0.12000000000E+03 0.  0.
<mgrwt>
<rscale>  0 0.31792646E+03</rscale>
<asrwt>0</asrwt>
<pdfrwt beam="1">  1        1 0.14175630E-01 0.31792646E+03</pdfrwt>
<pdfrwt beam="2">  1       -1 0.42191434E-01 0.31792646E+03</pdfrwt>
<totfact> 0.22557781E+03</totfact>
</mgrwt>
</event>
<event>
 4    1  0.1762274E-004  0.2712751E+03  0.7818608E-02  0.1100552E+00
         -2   -1    0    0    0  501 -0.00000000000E+00  0.00000000000E+00  0.20113648895E+02  0.20113648895E+02  0.00000000000E+00 0.  1.
          2   -1    0    0  501    0  0.00000000000E+00 -0.00000000000E+00 -0.91467981020E+03  0.91467981020E+03  0.00000000000E+00 0.  1.
         25    1    1    2    0    0  0.42709716753E+02  0.22739121354E+02 -0.58752672529E+03  0.60160521978E+03  0.12000000000E+03 0.  0.
         25    1    1    2    0    0 -0.42709716753E+02 -0.22739121354E+02 -0.30703943602E+03  0.33318823932E+03  0.12000000000E+03 0.  0.
<mgrwt>
<rscale>  0 0.27127513E+03</rscale>
<asrwt>0</asrwt>
<pdfrwt beam="1">  1        2 0.14071996E+00 0.27127513E+03</pdfrwt>
<pdfrwt beam="2">  1       -2 0.30944077E-02 0.27127513E+03</pdfrwt>
<totfact> 0.11976213E+04</totfact>
</mgrwt>
</event>
<event>
 4    1  0.1762274E-004  0.3266014E+03  0.7818608E-02  0.1072651E+00
         -4   -1    0    0    0  501 -0.00000000000E+00  0.00000000000E+00  0.12321368819E+02  0.12321368819E+02  0.00000000000E+00 0.  1.
          4   -1    0    0  501    0  0.00000000000E+00 -0.00000000000E+00 -0.21642988371E+04  0.21642988371E+04  0.00000000000E+00 0.  1.
         25    1    1    2    0    0  0.10490910061E+03 -0.33353828968E+02 -0.99471329112E+03  0.10079548248E+04  0.12000000000E+03 0.  0.
         25    1    1    2    0    0 -0.10490910061E+03  0.33353828968E+02 -0.11572641772E+04  0.11686653812E+04  0.12000000000E+03 0.  0.
<mgrwt>
<rscale>  0 0.32660143E+03</rscale>
<asrwt>0</asrwt>
<pdfrwt beam="1">  1        4 0.33296894E+00 0.32660143E+03</pdfrwt>
<pdfrwt beam="2">  1       -4 0.18955958E-02 0.32660143E+03</pdfrwt>
<totfact> 0.47684919E+01</totfact>
</mgrwt>
</event>
<event>
 4    1  0.1762274E-004  0.4786464E+03  0.7818608E-02  0.1019508E+00
         -2   -1    0    0    0  501 -0.00000000000E+00  0.00000000000E+00  0.31643807922E+02  0.31643807922E+02  0.00000000000E+00 0. -1.
          2   -1    0    0  501    0  0.00000000000E+00 -0.00000000000E+00 -0.18100093928E+04  0.18100093928E+04  0.00000000000E+00 0. -1.
         25    1    1    2    0    0 -0.12987184875E+03 -0.49874313986E+02 -0.14792820578E+04  0.14906473597E+04  0.12000000000E+03 0.  0.
         25    1    1    2    0    0  0.12987184875E+03  0.49874313986E+02 -0.29908352702E+03  0.35100584102E+03  0.12000000000E+03 0.  0.
<mgrwt>
<rscale>  0 0.47864638E+03</rscale>
<asrwt>0</asrwt>
<pdfrwt beam="1">  1        2 0.27846298E+00 0.47864638E+03</pdfrwt>
<pdfrwt beam="2">  1       -2 0.48682782E-02 0.47864638E+03</pdfrwt>
<totfact> 0.18879362E+03</totfact>
</mgrwt>
</event>
<event>
 4    1  0.1762274E-004  0.2832665E+03  0.7818608E-02  0.1093918E+00
         -2   -1    0    0    0  501 -0.00000000000E+00  0.00000000000E+00  0.36170408123E+02  0.36170408123E+02  0.00000000000E+00 0. -1.
          2   -1    0    0  501    0  0.00000000000E+00 -0.00000000000E+00 -0.55459621027E+03  0.55459621027E+03  0.00000000000E+00 0. -1.
         25    1    1    2    0    0  0.30373883614E+02 -0.44258512320E+02 -0.14927879476E+03  0.19891090288E+03  0.12000000000E+03 0.  0.
         25    1    1    2    0    0 -0.30373883614E+02  0.44258512320E+02 -0.36914700739E+03  0.39185571551E+03  0.12000000000E+03 0.  0.
<mgrwt>
<rscale>  0 0.28326646E+03</rscale>
<asrwt>0</asrwt>
<pdfrwt beam="1">  1        2 0.85322491E-01 0.28326646E+03</pdfrwt>
<pdfrwt beam="2">  1       -2 0.55646783E-02 0.28326646E+03</pdfrwt>
<totfact> 0.91568327E+03</totfact>
</mgrwt>
</event>
<event>
 4    1  0.1762274E-004  0.3539005E+03  0.7818608E-02  0.1061025E+00
         -2   -1    0    0    0  501 -0.00000000000E+00  0.00000000000E+00  0.22780253549E+02  0.22780253549E+02  0.00000000000E+00 0. -1.
          2   -1    0    0  501    0  0.00000000000E+00 -0.00000000000E+00 -0.13744969301E+04  0.13744969301E+04  0.00000000000E+00 0. -1.
         25    1    1    2    0    0 -0.69841812590E+02  0.48016100694E+01 -0.24316408636E+03  0.28005304344E+03  0.12000000000E+03 0.  0.
         25    1    1    2    0    0  0.69841812590E+02 -0.48016100694E+01 -0.11085525902E+04  0.11172241402E+04  0.12000000000E+03 0.  0.
<mgrwt>
<rscale>  0 0.35390049E+03</rscale>
<asrwt>0</asrwt>
<pdfrwt beam="1">  1        2 0.21146104E+00 0.35390049E+03</pdfrwt>
<pdfrwt beam="2">  1       -2 0.35046548E-02 0.35390049E+03</pdfrwt>
<totfact> 0.53715325E+03</totfact>
</mgrwt>
</event>
<event>
 4    1  0.1762274E-004  0.3051495E+03  0.7818608E-02  0.1082694E+00
         -2   -1    0    0    0  501 -0.00000000000E+00  0.00000000000E+00  0.28018368886E+02  0.28018368886E+02  0.00000000000E+00 0.  1.
          2   -1    0    0  501    0  0.00000000000E+00 -0.00000000000E+00 -0.83084968799E+03  0.83084968799E+03  0.00000000000E+00 0.  1.
         25    1    1    2    0    0  0.65069562397E+02 -0.33873045541E+02 -0.23495936268E+03  0.27383815161E+03  0.12000000000E+03 0.  0.
         25    1    1    2    0    0 -0.65069562397E+02  0.33873045541E+02 -0.56787195642E+03  0.58502990527E+03  0.12000000000E+03 0.  0.
<mgrwt>
<rscale>  0 0.30514949E+03</rscale>
<asrwt>0</asrwt>
<pdfrwt beam="1">  1        2 0.12782303E+00 0.30514949E+03</pdfrwt>
<pdfrwt beam="2">  1       -2 0.43105182E-02 0.30514949E+03</pdfrwt>
<totfact> 0.82983418E+03</totfact>
</mgrwt>
</event>
<event>
 4    1  0.1762274E-004  0.2418792E+03  0.7818608E-02  0.1118547E+00
          2   -1    0    0  501    0  0.00000000000E+00  0.00000000000E+00  0.27965060848E+03  0.27965060848E+03  0.00000000000E+00 0. -1.
         -2   -1    0    0    0  501 -0.00000000000E+00 -0.00000000000E+00 -0.52302361826E+02  0.52302361826E+02  0.00000000000E+00 0. -1.
         25    1    1    2    0    0 -0.11067617879E+02  0.45054210559E+01  0.12622203991E+03  0.17457031347E+03  0.12000000000E+03 0.  0.
         25    1    1    2    0    0  0.11067617879E+02 -0.45054210559E+01  0.10112620674E+03  0.15738265684E+03  0.12000000000E+03 0.  0.
<mgrwt>
<rscale>  0 0.24187920E+03</rscale>
<asrwt>0</asrwt>
<pdfrwt beam="1">  1        2 0.43023170E-01 0.24187920E+03</pdfrwt>
<pdfrwt beam="2">  1       -2 0.80465174E-02 0.24187920E+03</pdfrwt>
<totfact> 0.10876339E+04</totfact>
</mgrwt>
</event>
<event>
 4    1  0.1762274E-004  0.2604005E+03  0.7818608E-02  0.1106903E+00
          1   -1    0    0  501    0  0.00000000000E+00  0.00000000000E+00  0.35945806272E+02  0.35945806272E+02  0.00000000000E+00 0. -1.
         -1   -1    0    0    0  501 -0.00000000000E+00 -0.00000000000E+00 -0.47160180116E+03  0.47160180116E+03  0.00000000000E+00 0. -1.
         25    1    1    2    0    0  0.46069327575E+02  0.20228182165E+02 -0.22666255269E+03  0.26135698784E+03  0.12000000000E+03 0.  0.
         25    1    1    2    0    0 -0.46069327575E+02 -0.20228182165E+02 -0.20899344219E+03  0.24619061960E+03  0.12000000000E+03 0.  0.
<mgrwt>
<rscale>  0 0.26040051E+03</rscale>
<asrwt>0</asrwt>
<pdfrwt beam="1">  1        1 0.55301238E-02 0.26040051E+03</pdfrwt>
<pdfrwt beam="2">  1       -1 0.72554127E-01 0.26040051E+03</pdfrwt>
<totfact> 0.28722315E+03</totfact>
</mgrwt>
</event>
<event>
 4    1  0.1762274E-004  0.2521591E+03  0.7818608E-02  0.1111948E+00
         -2   -1    0    0    0  501 -0.00000000000E+00  0.00000000000E+00  0.24890782748E+03  0.24890782748E+03  0.00000000000E+00 0.  1.
          2   -1    0    0  501    0  0.00000000000E+00 -0.00000000000E+00 -0.63863203028E+02  0.63863203028E+02  0.00000000000E+00 0.  1.
         25    1    1    2    0    0 -0.25594575436E+02 -0.22320557258E+02  0.69558290381E+02  0.14279931838E+03  0.12000000000E+03 0.  0.
         25    1    1    2    0    0  0.25594575436E+02  0.22320557258E+02  0.11548633407E+03  0.16997171213E+03  0.12000000000E+03 0.  0.
<mgrwt>
<rscale>  0 0.25215909E+03</rscale>
<asrwt>0</asrwt>
<pdfrwt beam="1">  1        2 0.98251082E-02 0.25215909E+03</pdfrwt>
<pdfrwt beam="2">  1       -2 0.38293512E-01 0.25215909E+03</pdfrwt>
<totfact> 0.42021826E+03</totfact>
</mgrwt>
</event>
<event>
 4    1  0.1762274E-004  0.5552573E+03  0.7818608E-02  0.1000284E+00
         -3   -1    0    0    0  501 -0.00000000000E+00  0.00000000000E+00  0.18835178884E+03  0.18835178884E+03  0.00000000000E+00 0.  1.
          3   -1    0    0  501    0  0.00000000000E+00 -0.00000000000E+00 -0.40922180785E+03  0.40922180785E+03  0.00000000000E+00 0.  1.
         25    1    1    2    0    0 -0.11847275531E+03  0.14015906028E+03 -0.29369849961E+03  0.36652307513E+03  0.12000000000E+03 0.  0.
         25    1    1    2    0    0  0.11847275531E+03 -0.14015906028E+03  0.72828480603E+02  0.23105052156E+03  0.12000000000E+03 0.  0.
<mgrwt>
<rscale>  0 0.55525727E+03</rscale>
<asrwt>0</asrwt>
<pdfrwt beam="1">  1        3 0.62957200E-01 0.55525727E+03</pdfrwt>
<pdfrwt beam="2">  1       -3 0.28977199E-01 0.55525727E+03</pdfrwt>
<totfact> 0.74413188E+01</totfact>
</mgrwt>
</event>
<event>
 4    1  0.1762274E-004  0.3235158E+03  0.7818608E-02  0.1074043E+00
          2   -1    0    0  501    0  0.00000000000E+00  0.00000000000E+00  0.58650532874E+03  0.58650532874E+03  0.00000000000E+00 0. -1.
         -2   -1    0    0    0  501 -0.00000000000E+00 -0.00000000000E+00 -0.44612751335E+02  0.44612751335E+02  0.00000000000E+00 0. -1.
         25    1    1    2    0    0  0.34523505012E+02  0.22290832997E+02  0.46677565251E+03  0.48370266012E+03  0.12000000000E+03 0.  0.
         25    1    1    2    0    0 -0.34523505012E+02 -0.22290832997E+02  0.75116924898E+02  0.14741541995E+03  0.12000000000E+03 0.  0.
<mgrwt>
<rscale>  0 0.32351579E+03</rscale>
<asrwt>0</asrwt>
<pdfrwt beam="1">  1        2 0.90231584E-01 0.32351579E+03</pdfrwt>
<pdfrwt beam="2">  1       -2 0.68635006E-02 0.32351579E+03</pdfrwt>
<totfact> 0.62385667E+03</totfact>
</mgrwt>
</event>
<event>
 4    1  0.1762274E-004  0.2659685E+03  0.7818608E-02  0.1103609E+00
          2   -1    0    0  501    0  0.00000000000E+00  0.00000000000E+00  0.19740403789E+03  0.19740403789E+03  0.00000000000E+00 0.  1.
         -2   -1    0    0    0  501 -0.00000000000E+00 -0.00000000000E+00 -0.89586876418E+02  0.89586876418E+02  0.00000000000E+00 0.  1.
         25    1    1    2    0    0 -0.33665328136E+02  0.41908644642E+02  0.32459744788E+02  0.13543752747E+03  0.12000000000E+03 0.  0.
         25    1    1    2    0    0  0.33665328136E+02 -0.41908644642E+02  0.75357416682E+02  0.15155338684E+03  0.12000000000E+03 0.  0.
<mgrwt>
<rscale>  0 0.26596850E+03</rscale>
<asrwt>0</asrwt>
<pdfrwt beam="1">  1        2 0.30369852E-01 0.26596850E+03</pdfrwt>
<pdfrwt beam="2">  1       -2 0.13782596E-01 0.26596850E+03</pdfrwt>
<totfact> 0.67487426E+03</totfact>
</mgrwt>
</event>
<event>
 4    1  0.1762274E-004  0.2433778E+03  0.7818608E-02  0.1117563E+00
         -2   -1    0    0    0  501 -0.00000000000E+00  0.00000000000E+00  0.65544267744E+02  0.65544267744E+02  0.00000000000E+00 0. -1.
          2   -1    0    0  501    0  0.00000000000E+00 -0.00000000000E+00 -0.22592651629E+03  0.22592651629E+03  0.00000000000E+00 0. -1.
         25    1    1    2    0    0  0.10346364498E+02  0.16843300202E+02 -0.75189192219E+02  0.14298307119E+03  0.12000000000E+03 0.  0.
         25    1    1    2    0    0 -0.10346364498E+02 -0.16843300202E+02 -0.85193056330E+02  0.14848771285E+03  0.12000000000E+03 0.  0.
<mgrwt>
<rscale>  0 0.24337780E+03</rscale>
<asrwt>0</asrwt>
<pdfrwt beam="1">  1        2 0.34757926E-01 0.24337780E+03</pdfrwt>
<pdfrwt beam="2">  1       -2 0.10083733E-01 0.24337780E+03</pdfrwt>
<totfact> 0.96001033E+03</totfact>
</mgrwt>
</event>
<event>
 4    1  0.1762274E-004  0.3446207E+03  0.7818608E-02  0.1064845E+00
          2   -1    0    0  501    0  0.00000000000E+00  0.00000000000E+00  0.33017640982E+03  0.33017640982E+03  0.00000000000E+00 0.  1.
         -2   -1    0    0    0  501 -0.00000000000E+00 -0.00000000000E+00 -0.89924199824E+02  0.89924199824E+02  0.00000000000E+00 0.  1.
         25    1    1    2    0    0  0.64379749243E+02 -0.12217930651E+02 -0.77076520957E+01  0.13694319203E+03  0.12000000000E+03 0.  0.
         25    1    1    2    0    0 -0.64379749243E+02  0.12217930651E+02  0.24795986209E+03  0.28315741761E+03  0.12000000000E+03 0.  0.
<mgrwt>
<rscale>  0 0.34462066E+03</rscale>
<asrwt>0</asrwt>
<pdfrwt beam="1">  1        2 0.50796370E-01 0.34462066E+03</pdfrwt>
<pdfrwt beam="2">  1       -2 0.13834492E-01 0.34462066E+03</pdfrwt>
<totfact> 0.38676348E+03</totfact>
</mgrwt>
</event>
<event>
 4    1  0.1762274E-004  0.2673269E+03  0.7818608E-02  0.1102819E+00
          2   -1    0    0  501    0  0.00000000000E+00  0.00000000000E+00  0.82164517438E+03  0.82164517438E+03  0.00000000000E+00 0. -1.
         -2   -1    0    0    0  501 -0.00000000000E+00 -0.00000000000E+00 -0.21744077890E+02  0.21744077890E+02  0.00000000000E+00 0. -1.
         25    1    1    2    0    0 -0.12164366639E+02 -0.30839952726E+02  0.55343700618E+03  0.56726677526E+03  0.12000000000E+03 0.  0.
         25    1    1    2    0    0  0.12164366639E+02  0.30839952726E+02  0.24646409030E+03  0.27612247701E+03  0.12000000000E+03 0.  0.
<mgrwt>
<rscale>  0 0.26732689E+03</rscale>
<asrwt>0</asrwt>
<pdfrwt beam="1">  1        2 0.12640693E+00 0.26732689E+03</pdfrwt>
<pdfrwt beam="2">  1       -2 0.33452434E-02 0.26732689E+03</pdfrwt>
<totfact> 0.12271869E+04</totfact>
</mgrwt>
</event>
<event>
 4    1  0.1762274E-004  0.2626711E+03  0.7818608E-02  0.1105549E+00
          1   -1    0    0  501    0  0.00000000000E+00  0.00000000000E+00  0.63817603784E+02  0.63817603784E+02  0.00000000000E+00 0.  1.
         -1   -1    0    0    0  501 -0.00000000000E+00 -0.00000000000E+00 -0.27028625780E+03  0.27028625780E+03  0.00000000000E+00 0.  1.
         25    1    1    2    0    0  0.10568692455E+01  0.52773765115E+02 -0.93151860203E+02  0.16082119362E+03  0.12000000000E+03 0.  0.
         25    1    1    2    0    0 -0.10568692455E+01 -0.52773765115E+02 -0.11331679381E+03  0.17328266796E+03  0.12000000000E+03 0.  0.
<mgrwt>
<rscale>  0 0.26267106E+03</rscale>
<asrwt>0</asrwt>
<pdfrwt beam="1">  1        1 0.98180928E-02 0.26267106E+03</pdfrwt>
<pdfrwt beam="2">  1       -1 0.41582502E-01 0.26267106E+03</pdfrwt>
<totfact> 0.37617871E+03</totfact>
</mgrwt>
</event>
<event>
 4    1  0.1762274E-004  0.3504401E+03  0.7818608E-02  0.1062435E+00
          1   -1    0    0  501    0  0.00000000000E+00  0.00000000000E+00  0.17371860957E+03  0.17371860957E+03  0.00000000000E+00 0.  1.
         -1   -1    0    0    0  501 -0.00000000000E+00 -0.00000000000E+00 -0.17673445169E+03  0.17673445169E+03  0.00000000000E+00 0.  1.
         25    1    1    2    0    0  0.64502706767E+02  0.10351509364E+03  0.36257076429E+02  0.17490154197E+03  0.12000000000E+03 0.  0.
         25    1    1    2    0    0 -0.64502706767E+02 -0.10351509364E+03 -0.39272918551E+02  0.17555151929E+03  0.12000000000E+03 0.  0.
<mgrwt>
<rscale>  0 0.35044008E+03</rscale>
<asrwt>0</asrwt>
<pdfrwt beam="1">  1        1 0.26725940E-01 0.35044008E+03</pdfrwt>
<pdfrwt beam="2">  1       -1 0.27189916E-01 0.35044008E+03</pdfrwt>
<totfact> 0.21293281E+03</totfact>
</mgrwt>
</event>
<event>
 4    1  0.1762274E-004  0.2699361E+03  0.7818608E-02  0.1101316E+00
          2   -1    0    0  501    0  0.00000000000E+00  0.00000000000E+00  0.18556011076E+04  0.18556011076E+04  0.00000000000E+00 0. -1.
         -2   -1    0    0    0  501 -0.00000000000E+00 -0.00000000000E+00 -0.98169676039E+01  0.98169676039E+01  0.00000000000E+00 0. -1.
         25    1    1    2    0    0  0.51712716273E+02 -0.29217746391E+01  0.11555681070E+04  0.11629361081E+04  0.12000000000E+03 0.  0.
         25    1    1    2    0    0 -0.51712716273E+02  0.29217746391E+01  0.69021603307E+03  0.70248196710E+03  0.12000000000E+03 0.  0.
<mgrwt>
<rscale>  0 0.26993611E+03</rscale>
<asrwt>0</asrwt>
<pdfrwt beam="1">  1        2 0.28547681E+00 0.26993611E+03</pdfrwt>
<pdfrwt beam="2">  1       -2 0.15103042E-02 0.26993611E+03</pdfrwt>
<totfact> 0.10331577E+04</totfact>
</mgrwt>
</event>
<event>
 4    1  0.1762274E-004  0.2928056E+03  0.7818608E-02  0.1088893E+00
          1   -1    0    0  501    0  0.00000000000E+00  0.00000000000E+00  0.13590113756E+03  0.13590113756E+03  0.00000000000E+00 0.  1.
         -1   -1    0    0    0  501 -0.00000000000E+00 -0.00000000000E+00 -0.15771600680E+03  0.15771600680E+03  0.00000000000E+00 0.  1.
         25    1    1    2    0    0  0.13022725177E+02  0.64570036765E+02  0.41148902844E+02  0.14294094313E+03  0.12000000000E+03 0.  0.
         25    1    1    2    0    0 -0.13022725177E+02 -0.64570036765E+02 -0.62963772085E+02  0.15067620122E+03  0.12000000000E+03 0.  0.
<mgrwt>
<rscale>  0 0.29280563E+03</rscale>
<asrwt>0</asrwt>
<pdfrwt beam="1">  1        1 0.20907867E-01 0.29280563E+03</pdfrwt>
<pdfrwt beam="2">  1       -1 0.24264001E-01 0.29280563E+03</pdfrwt>
<totfact> 0.35186830E+03</totfact>
</mgrwt>
</event>
<event>
 4    1  0.1762274E-004  0.2500377E+03  0.7818608E-02  0.1113281E+00
         -1   -1    0    0    0  501 -0.00000000000E+00  0.00000000000E+00  0.36396404490E+02  0.36396404490E+02  0.00000000000E+00 0.  1.
          1   -1    0    0  501    0  0.00000000000E+00 -0.00000000000E+00 -0.42943011076E+03  0.42943011076E+03  0.00000000000E+00 0.  1.
         25    1    1    2    0    0 -0.27930761696E+02 -0.15139596892E+02 -0.22417365900E+03  0.25624824728E+03  0.12000000000E+03 0.  0.
         25    1    1    2    0    0  0.27930761696E+02  0.15139596892E+02 -0.16886004727E+03  0.20957826797E+03  0.12000000000E+03 0.  0.
<mgrwt>
<rscale>  0 0.25003769E+03</rscale>
<asrwt>0</asrwt>
<pdfrwt beam="1">  1        1 0.66066169E-01 0.25003769E+03</pdfrwt>
<pdfrwt beam="2">  1       -1 0.55994470E-02 0.25003769E+03</pdfrwt>
<totfact> 0.81062014E+03</totfact>
</mgrwt>
</event>
<event>
 4    1  0.1762274E-004  0.2729456E+03  0.7818608E-02  0.1099606E+00
         -2   -1    0    0    0  501 -0.00000000000E+00  0.00000000000E+00  0.54467585539E+01  0.54467585539E+01  0.00000000000E+00 0. -1.
          2   -1    0    0  501    0  0.00000000000E+00 -0.00000000000E+00 -0.34194326175E+04  0.34194326175E+04  0.00000000000E+00 0. -1.
         25    1    1    2    0    0 -0.46458006159E+02 -0.44189653263E+02 -0.15731643567E+04  0.15790367839E+04  0.12000000000E+03 0.  0.
         25    1    1    2    0    0  0.46458006159E+02  0.44189653263E+02 -0.18408215023E+04  0.18458425922E+04  0.12000000000E+03 0.  0.
<mgrwt>
<rscale>  0 0.27294559E+03</rscale>
<asrwt>0</asrwt>
<pdfrwt beam="1">  1        2 0.52606586E+00 0.27294559E+03</pdfrwt>
<pdfrwt beam="2">  1       -2 0.83796397E-03 0.27294559E+03</pdfrwt>
<totfact> 0.31572667E+03</totfact>
</mgrwt>
</event>
<event>
 4    1  0.1762274E-004  0.2998873E+03  0.7818608E-02  0.1085297E+00
          2   -1    0    0  501    0  0.00000000000E+00  0.00000000000E+00  0.41519400824E+03  0.41519400824E+03  0.00000000000E+00 0.  1.
         -2   -1    0    0    0  501 -0.00000000000E+00 -0.00000000000E+00 -0.54150835750E+02  0.54150835750E+02  0.00000000000E+00 0.  1.
         25    1    1    2    0    0 -0.75759782638E+02  0.31460521156E+02  0.12293648360E+03  0.19037512458E+03  0.12000000000E+03 0.  0.
         25    1    1    2    0    0  0.75759782638E+02 -0.31460521156E+02  0.23810668889E+03  0.27896971942E+03  0.12000000000E+03 0.  0.
<mgrwt>
<rscale>  0 0.29988733E+03</rscale>
<asrwt>0</asrwt>
<pdfrwt beam="1">  1        2 0.63875999E-01 0.29988733E+03</pdfrwt>
<pdfrwt beam="2">  1       -2 0.83308981E-02 0.29988733E+03</pdfrwt>
<totfact> 0.67818564E+03</totfact>
</mgrwt>
</event>
<event>
 4    1  0.1762274E-004  0.3153445E+03  0.7818608E-02  0.1077812E+00
          2   -1    0    0  501    0  0.00000000000E+00  0.00000000000E+00  0.13914796959E+04  0.13914796959E+04  0.00000000000E+00 0. -1.
         -2   -1    0    0    0  501 -0.00000000000E+00 -0.00000000000E+00 -0.17866259664E+02  0.17866259664E+02  0.00000000000E+00 0. -1.
         25    1    1    2    0    0 -0.29117002666E+02  0.97524237597E+02  0.73189073646E+03  0.74861393714E+03  0.12000000000E+03 0.  0.
         25    1    1    2    0    0  0.29117002666E+02 -0.97524237597E+02  0.64172269977E+03  0.66073201841E+03  0.12000000000E+03 0.  0.
<mgrwt>
<rscale>  0 0.31534449E+03</rscale>
<asrwt>0</asrwt>
<pdfrwt beam="1">  1        2 0.21407371E+00 0.31534449E+03</pdfrwt>
<pdfrwt beam="2">  1       -2 0.27486564E-02 0.31534449E+03</pdfrwt>
<totfact> 0.75581971E+03</totfact>
</mgrwt>
</event>
<event>
 4    1  0.1762274E-004  0.3221989E+03  0.7818608E-02  0.1074642E+00
          2   -1    0    0  501    0  0.00000000000E+00  0.00000000000E+00  0.80886522041E+03  0.80886522041E+03  0.00000000000E+00 0.  1.
         -2   -1    0    0    0  501 -0.00000000000E+00 -0.00000000000E+00 -0.32085736648E+02  0.32085736648E+02  0.00000000000E+00 0.  1.
         25    1    1    2    0    0  0.90349383734E+02 -0.41453618868E+02  0.28167713570E+03  0.32190592172E+03  0.12000000000E+03 0.  0.
         25    1    1    2    0    0 -0.90349383734E+02  0.41453618868E+02  0.49510234806E+03  0.51904503534E+03  0.12000000000E+03 0.  0.
<mgrwt>
<rscale>  0 0.32219892E+03</rscale>
<asrwt>0</asrwt>
<pdfrwt beam="1">  1        2 0.12444079E+00 0.32219892E+03</pdfrwt>
<pdfrwt beam="2">  1       -2 0.49362678E-02 0.32219892E+03</pdfrwt>
<totfact> 0.70014256E+03</totfact>
</mgrwt>
</event>
<event>
 4    1  0.1762274E-004  0.2442644E+03  0.7818608E-02  0.1116984E+00
         -2   -1    0    0    0  501 -0.00000000000E+00  0.00000000000E+00  0.41370413000E+03  0.41370413000E+03  0.00000000000E+00 0. -1.
          2   -1    0    0  501    0  0.00000000000E+00 -0.00000000000E+00 -0.36055412823E+02  0.36055412823E+02  0.00000000000E+00 0. -1.
         25    1    1    2    0    0 -0.47903992989E+01 -0.58761843287E+01  0.22826372309E+03  0.25799574560E+03  0.12000000000E+03 0.  0.
         25    1    1    2    0    0  0.47903992989E+01  0.58761843287E+01  0.14938499408E+03  0.19176379722E+03  0.12000000000E+03 0.  0.
<mgrwt>
<rscale>  0 0.24426439E+03</rscale>
<asrwt>0</asrwt>
<pdfrwt beam="1">  1        2 0.55469869E-02 0.24426439E+03</pdfrwt>
<pdfrwt beam="2">  1       -2 0.63646786E-01 0.24426439E+03</pdfrwt>
<totfact> 0.31714337E+03</totfact>
</mgrwt>
</event>
<event>
 4    1  0.1762274E-004  0.2678693E+03  0.7818608E-02  0.1102505E+00
         -1   -1    0    0    0  501 -0.00000000000E+00  0.00000000000E+00  0.33504523970E+02  0.33504523970E+02  0.00000000000E+00 0. -1.
          1   -1    0    0  501    0  0.00000000000E+00 -0.00000000000E+00 -0.53540498456E+03  0.53540498456E+03  0.00000000000E+00 0. -1.
         25    1    1    2    0    0 -0.47647532784E+02  0.31807221513E+02 -0.28496487958E+03  0.31446298560E+03  0.12000000000E+03 0.  0.
         25    1    1    2    0    0  0.47647532784E+02 -0.31807221513E+02 -0.21693558101E+03  0.25444652292E+03  0.12000000000E+03 0.  0.
<mgrwt>
<rscale>  0 0.26786929E+03</rscale>
<asrwt>0</asrwt>
<pdfrwt beam="1">  1        1 0.82369985E-01 0.26786929E+03</pdfrwt>
<pdfrwt beam="2">  1       -1 0.51545429E-02 0.26786929E+03</pdfrwt>
<totfact> 0.68814963E+03</totfact>
</mgrwt>
</event>
<event>
 4    1  0.1762274E-004  0.2818206E+03  0.7818608E-02  0.1094699E+00
          2   -1    0    0  501    0  0.00000000000E+00  0.00000000000E+00  0.16747799625E+03  0.16747799625E+03  0.00000000000E+00 0.  1.
         -2   -1    0    0    0  501 -0.00000000000E+00 -0.00000000000E+00 -0.11855711920E+03  0.11855711920E+03  0.00000000000E+00 0.  1.
         25    1    1    2    0    0  0.69177321423E+00 -0.70025381266E+02  0.62139746782E+00  0.13894034226E+03  0.12000000000E+03 0.  0.
         25    1    1    2    0    0 -0.69177321423E+00  0.70025381266E+02  0.48299479586E+02  0.14709477319E+03  0.12000000000E+03 0.  0.
<mgrwt>
<rscale>  0 0.28182057E+03</rscale>
<asrwt>0</asrwt>
<pdfrwt beam="1">  1        2 0.25765846E-01 0.28182057E+03</pdfrwt>
<pdfrwt beam="2">  1       -2 0.18239557E-01 0.28182057E+03</pdfrwt>
<totfact> 0.50897748E+03</totfact>
</mgrwt>
</event>
<event>
 4    1  0.1762274E-004  0.2706528E+03  0.7818608E-02  0.1100907E+00
         -2   -1    0    0    0  501 -0.00000000000E+00  0.00000000000E+00  0.18316013758E+02  0.18316013758E+02  0.00000000000E+00 0. -1.
          2   -1    0    0  501    0  0.00000000000E+00 -0.00000000000E+00 -0.99984803199E+03  0.99984803199E+03  0.00000000000E+00 0. -1.
         25    1    1    2    0    0  0.57174707350E+01  0.36977867952E+02 -0.67935525226E+03  0.69088610563E+03  0.12000000000E+03 0.  0.
         25    1    1    2    0    0 -0.57174707350E+01 -0.36977867952E+02 -0.30217676597E+03  0.32727794011E+03  0.12000000000E+03 0.  0.
<mgrwt>
<rscale>  0 0.27065277E+03</rscale>
<asrwt>0</asrwt>
<pdfrwt beam="1">  1        2 0.15382282E+00 0.27065277E+03</pdfrwt>
<pdfrwt beam="2">  1       -2 0.28178475E-02 0.27065277E+03</pdfrwt>
<totfact> 0.12174843E+04</totfact>
</mgrwt>
</event>
<event>
 4    1  0.1762274E-004  0.3480977E+03  0.7818608E-02  0.1063399E+00
         -2   -1    0    0    0  501 -0.00000000000E+00  0.00000000000E+00  0.13037775178E+02  0.13037775178E+02  0.00000000000E+00 0. -1.
          2   -1    0    0  501    0  0.00000000000E+00 -0.00000000000E+00 -0.23234798376E+04  0.23234798376E+04  0.00000000000E+00 0. -1.
         25    1    1    2    0    0 -0.10581761802E+03 -0.27027682160E+02 -0.73255500554E+03  0.75030973606E+03  0.12000000000E+03 0.  0.
         25    1    1    2    0    0  0.10581761802E+03  0.27027682160E+02 -0.15778870569E+04  0.15862078767E+04  0.12000000000E+03 0.  0.
<mgrwt>
<rscale>  0 0.34809773E+03</rscale>
<asrwt>0</asrwt>
<pdfrwt beam="1">  1        2 0.35745833E+00 0.34809773E+03</pdfrwt>
<pdfrwt beam="2">  1       -2 0.20058122E-02 0.34809773E+03</pdfrwt>
<totfact> 0.38377206E+03</totfact>
</mgrwt>
</event>
<event>
 4    1  0.1762274E-004  0.2498027E+03  0.7818608E-02  0.1113430E+00
         -2   -1    0    0    0  501 -0.00000000000E+00  0.00000000000E+00  0.15974095779E+02  0.15974095779E+02  0.00000000000E+00 0.  1.
          2   -1    0    0  501    0  0.00000000000E+00 -0.00000000000E+00 -0.97660274438E+03  0.97660274438E+03  0.00000000000E+00 0.  1.
         25    1    1    2    0    0  0.12150110608E+02 -0.32019331779E+02 -0.50114478865E+03  0.51644841174E+03  0.12000000000E+03 0.  0.
         25    1    1    2    0    0 -0.12150110608E+02  0.32019331779E+02 -0.45948385995E+03  0.47612842842E+03  0.12000000000E+03 0.  0.
<mgrwt>
<rscale>  0 0.24980269E+03</rscale>
<asrwt>0</asrwt>
<pdfrwt beam="1">  1        2 0.15024661E+00 0.24980269E+03</pdfrwt>
<pdfrwt beam="2">  1       -2 0.24575527E-02 0.24980269E+03</pdfrwt>
<totfact> 0.15361166E+04</totfact>
</mgrwt>
</event>
<event>
 4    1  0.1762274E-004  0.3515764E+03  0.7818608E-02  0.1061970E+00
          2   -1    0    0  501    0  0.00000000000E+00  0.00000000000E+00  0.49578426206E+03  0.49578426206E+03  0.00000000000E+00 0.  1.
         -2   -1    0    0    0  501 -0.00000000000E+00 -0.00000000000E+00 -0.62328498196E+02  0.62328498196E+02  0.00000000000E+00 0.  1.
         25    1    1    2    0    0 -0.75147346237E+02  0.81056161594E+02  0.11282194953E+03  0.19835830528E+03  0.12000000000E+03 0.  0.
         25    1    1    2    0    0  0.75147346237E+02 -0.81056161594E+02  0.32063381433E+03  0.35975445497E+03  0.12000000000E+03 0.  0.
<mgrwt>
<rscale>  0 0.35157638E+03</rscale>
<asrwt>0</asrwt>
<pdfrwt beam="1">  1        2 0.76274499E-01 0.35157638E+03</pdfrwt>
<pdfrwt beam="2">  1       -2 0.95890001E-02 0.35157638E+03</pdfrwt>
<totfact> 0.44770946E+03</totfact>
</mgrwt>
</event>
<event>
 4    1  0.1762274E-004  0.3904311E+03  0.7818608E-02  0.1047144E+00
         -2   -1    0    0    0  501 -0.00000000000E+00  0.00000000000E+00  0.50676350075E+02  0.50676350075E+02  0.00000000000E+00 0.  1.
          2   -1    0    0  501    0  0.00000000000E+00 -0.00000000000E+00 -0.75200994016E+03  0.75200994016E+03  0.00000000000E+00 0.  1.
         25    1    1    2    0    0  0.93704817660E+02  0.11888996690E+03 -0.29274658788E+03  0.35073634228E+03  0.12000000000E+03 0.  0.
         25    1    1    2    0    0 -0.93704817660E+02 -0.11888996690E+03 -0.40858700221E+03  0.45194994796E+03  0.12000000000E+03 0.  0.
<mgrwt>
<rscale>  0 0.39043114E+03</rscale>
<asrwt>0</asrwt>
<pdfrwt beam="1">  1        2 0.11569383E+00 0.39043114E+03</pdfrwt>
<pdfrwt beam="2">  1       -2 0.77963619E-02 0.39043114E+03</pdfrwt>
<totfact> 0.37981997E+03</totfact>
</mgrwt>
</event>
<event>
 4    1  0.1762274E-004  0.4146047E+03  0.7818608E-02  0.1038837E+00
         -1   -1    0    0    0  501 -0.00000000000E+00  0.00000000000E+00  0.13849961333E+03  0.13849961333E+03  0.00000000000E+00 0. -1.
          1   -1    0    0  501    0  0.00000000000E+00 -0.00000000000E+00 -0.31028432001E+03  0.31028432001E+03  0.00000000000E+00 0. -1.
         25    1    1    2    0    0 -0.22361200395E+02 -0.13593195452E+03  0.20146481514E+02  0.18380261222E+03  0.12000000000E+03 0.  0.
         25    1    1    2    0    0  0.22361200395E+02  0.13593195452E+03 -0.19193118819E+03  0.26498132112E+03  0.12000000000E+03 0.  0.
<mgrwt>
<rscale>  0 0.41460467E+03</rscale>
<asrwt>0</asrwt>
<pdfrwt beam="1">  1        1 0.47736049E-01 0.41460467E+03</pdfrwt>
<pdfrwt beam="2">  1       -1 0.21307633E-01 0.41460467E+03</pdfrwt>
<totfact> 0.15325323E+03</totfact>
</mgrwt>
</event>
<event>
 4    1  0.1762274E-004  0.2969491E+03  0.7818608E-02  0.1086776E+00
         -4   -1    0    0    0  501 -0.00000000000E+00  0.00000000000E+00  0.75283006445E+02  0.75283006445E+02  0.00000000000E+00 0. -1.
          4   -1    0    0  501    0  0.00000000000E+00 -0.00000000000E+00 -0.29282424735E+03  0.29282424735E+03  0.00000000000E+00 0. -1.
         25    1    1    2    0    0 -0.81592047752E+02 -0.22143518919E+02 -0.81132355360E+02  0.16772017402E+03  0.12000000000E+03 0.  0.
         25    1    1    2    0    0  0.81592047752E+02  0.22143518919E+02 -0.13640888555E+03  0.20038707978E+03  0.12000000000E+03 0.  0.
<mgrwt>
<rscale>  0 0.29694908E+03</rscale>
<asrwt>0</asrwt>
<pdfrwt beam="1">  1        4 0.45049884E-01 0.29694908E+03</pdfrwt>
<pdfrwt beam="2">  1       -4 0.11582001E-01 0.29694908E+03</pdfrwt>
<totfact> 0.53586009E+02</totfact>
</mgrwt>
</event>
<event>
 4    1  0.1762274E-004  0.2690247E+03  0.7818608E-02  0.1101839E+00
         -1   -1    0    0    0  501 -0.00000000000E+00  0.00000000000E+00  0.27131827679E+02  0.27131827679E+02  0.00000000000E+00 0. -1.
          1   -1    0    0  501    0  0.00000000000E+00 -0.00000000000E+00 -0.66687625026E+03  0.66687625026E+03  0.00000000000E+00 0. -1.
         25    1    1    2    0    0  0.85154807744E+01  0.52429721671E+02 -0.24368606029E+03  0.27677479132E+03  0.12000000000E+03 0.  0.
         25    1    1    2    0    0 -0.85154807744E+01 -0.52429721671E+02 -0.39605836229E+03  0.41723328663E+03  0.12000000000E+03 0.  0.
<mgrwt>
<rscale>  0 0.26902469E+03</rscale>
<asrwt>0</asrwt>
<pdfrwt beam="1">  1        1 0.10259634E+00 0.26902469E+03</pdfrwt>
<pdfrwt beam="2">  1       -1 0.41741277E-02 0.26902469E+03</pdfrwt>
<totfact> 0.69542217E+03</totfact>
</mgrwt>
</event>
<event>
 4    1  0.1762274E-004  0.2903959E+03  0.7818608E-02  0.1090143E+00
          1   -1    0    0  501    0  0.00000000000E+00  0.00000000000E+00  0.80305390057E+02  0.80305390057E+02  0.00000000000E+00 0. -1.
         -1   -1    0    0    0  501 -0.00000000000E+00 -0.00000000000E+00 -0.26252832729E+03  0.26252832729E+03  0.00000000000E+00 0. -1.
         25    1    1    2    0    0  0.62882703106E+02  0.28819686716E+02 -0.14253939165E+03  0.19875182229E+03  0.12000000000E+03 0.  0.
         25    1    1    2    0    0 -0.62882703106E+02 -0.28819686716E+02 -0.39683545584E+02  0.14408189505E+03  0.12000000000E+03 0.  0.
<mgrwt>
<rscale>  0 0.29039587E+03</rscale>
<asrwt>0</asrwt>
<pdfrwt beam="1">  1        1 0.12354675E-01 0.29039587E+03</pdfrwt>
<pdfrwt beam="2">  1       -1 0.40388974E-01 0.29039587E+03</pdfrwt>
<totfact> 0.29219097E+03</totfact>
</mgrwt>
</event>
<event>
 4    1  0.1762274E-004  0.3292371E+03  0.7818608E-02  0.1071475E+00
         -2   -1    0    0    0  501 -0.00000000000E+00  0.00000000000E+00  0.74630106368E+02  0.74630106368E+02  0.00000000000E+00 0. -1.
          2   -1    0    0  501    0  0.00000000000E+00 -0.00000000000E+00 -0.36311446264E+03  0.36311446264E+03  0.00000000000E+00 0. -1.
         25    1    1    2    0    0  0.75480190539E+02  0.83396360378E+02 -0.15336297471E+03  0.22488311208E+03  0.12000000000E+03 0.  0.
         25    1    1    2    0    0 -0.75480190539E+02 -0.83396360378E+02 -0.13512138156E+03  0.21286145692E+03  0.12000000000E+03 0.  0.
<mgrwt>
<rscale>  0 0.32923712E+03</rscale>
<asrwt>0</asrwt>
<pdfrwt beam="1">  1        2 0.55863763E-01 0.32923712E+03</pdfrwt>
<pdfrwt beam="2">  1       -2 0.11481555E-01 0.32923712E+03</pdfrwt>
<totfact> 0.47221948E+03</totfact>
</mgrwt>
</event>
<event>
 4    1  0.1762274E-004  0.3975699E+03  0.7818608E-02  0.1044624E+00
          2   -1    0    0  501    0  0.00000000000E+00  0.00000000000E+00  0.17948086325E+03  0.17948086325E+03  0.00000000000E+00 0.  1.
         -2   -1    0    0    0  501 -0.00000000000E+00 -0.00000000000E+00 -0.22016527145E+03  0.22016527145E+03  0.00000000000E+00 0.  1.
         25    1    1    2    0    0 -0.14690288073E+03 -0.49897011798E+02 -0.52841912293E+02  0.20313157275E+03  0.12000000000E+03 0.  0.
         25    1    1    2    0    0  0.14690288073E+03  0.49897011798E+02  0.12157504092E+02  0.19651456195E+03  0.12000000000E+03 0.  0.
<mgrwt>
<rscale>  0 0.39756988E+03</rscale>
<asrwt>0</asrwt>
<pdfrwt beam="1">  1        2 0.27612441E-01 0.39756988E+03</pdfrwt>
<pdfrwt beam="2">  1       -2 0.33871580E-01 0.39756988E+03</pdfrwt>
<totfact> 0.15822211E+03</totfact>
</mgrwt>
</event>
<event>
 4    1  0.1762274E-004  0.2494633E+03  0.7818608E-02  0.1113644E+00
         -1   -1    0    0    0  501 -0.00000000000E+00  0.00000000000E+00  0.13540843790E+02  0.13540843790E+02  0.00000000000E+00 0. -1.
          1   -1    0    0  501    0  0.00000000000E+00 -0.00000000000E+00 -0.11489667497E+04  0.11489667497E+04  0.00000000000E+00 0. -1.
         25    1    1    2    0    0 -0.27685935235E+02 -0.94415032136E+01 -0.48668643769E+03  0.50211486895E+03  0.12000000000E+03 0.  0.
         25    1    1    2    0    0  0.27685935235E+02  0.94415032136E+01 -0.64873946817E+03  0.66039272449E+03  0.12000000000E+03 0.  0.
<mgrwt>
<rscale>  0 0.24946326E+03</rscale>
<asrwt>0</asrwt>
<pdfrwt beam="1">  1        1 0.17676415E+00 0.24946326E+03</pdfrwt>
<pdfrwt beam="2">  1       -1 0.20832064E-02 0.24946326E+03</pdfrwt>
<totfact> 0.80067819E+03</totfact>
</mgrwt>
</event>
<event>
 4    1  0.1762274E-004  0.3292613E+03  0.7818608E-02  0.1071464E+00
         -1   -1    0    0    0  501 -0.00000000000E+00  0.00000000000E+00  0.51693032504E+02  0.51693032504E+02  0.00000000000E+00 0. -1.
          1   -1    0    0  501    0  0.00000000000E+00 -0.00000000000E+00 -0.52431133486E+03  0.52431133486E+03  0.00000000000E+00 0. -1.
         25    1    1    2    0    0  0.48984626764E+02 -0.27030077758E+02 -0.40747298164E+03  0.42844410315E+03  0.12000000000E+03 0.  0.
         25    1    1    2    0    0 -0.48984626764E+02  0.27030077758E+02 -0.65145320720E+02  0.14756026421E+03  0.12000000000E+03 0.  0.
<mgrwt>
<rscale>  0 0.32926125E+03</rscale>
<asrwt>0</asrwt>
<pdfrwt beam="1">  1        1 0.80663276E-01 0.32926125E+03</pdfrwt>
<pdfrwt beam="2">  1       -1 0.79527748E-02 0.32926125E+03</pdfrwt>
<totfact> 0.36864399E+03</totfact>
</mgrwt>
</event>
<event>
 4    1  0.1762274E-004  0.4520128E+03  0.7818608E-02  0.1027124E+00
         -1   -1    0    0    0  501 -0.00000000000E+00  0.00000000000E+00  0.33903626157E+03  0.33903626157E+03  0.00000000000E+00 0. -1.
          1   -1    0    0  501    0  0.00000000000E+00 -0.00000000000E+00 -0.15065906685E+03  0.15065906685E+03  0.00000000000E+00 0. -1.
         25    1    1    2    0    0  0.11766546537E+03 -0.28187846595E+02 -0.66643555160E+02  0.18297835905E+03  0.12000000000E+03 0.  0.
         25    1    1    2    0    0 -0.11766546537E+03  0.28187846595E+02  0.25502074988E+03  0.30671696938E+03  0.12000000000E+03 0.  0.
<mgrwt>
<rscale>  0 0.45201277E+03</rscale>
<asrwt>0</asrwt>
<pdfrwt beam="1">  1        1 0.23178318E-01 0.45201277E+03</pdfrwt>
<pdfrwt beam="2">  1       -1 0.52159425E-01 0.45201277E+03</pdfrwt>
<totfact> 0.80308302E+02</totfact>
</mgrwt>
</event>
<event>
 4    1  0.1762274E-004  0.3017292E+03  0.7818608E-02  0.1084379E+00
          1   -1    0    0  501    0  0.00000000000E+00  0.00000000000E+00  0.18584668572E+03  0.18584668572E+03  0.00000000000E+00 0.  1.
         -1   -1    0    0    0  501 -0.00000000000E+00 -0.00000000000E+00 -0.12246721235E+03  0.12246721235E+03  0.00000000000E+00 0.  1.
         25    1    1    2    0    0  0.60313898833E+02  0.25328951500E+02  0.96964997153E+02  0.16757545420E+03  0.12000000000E+03 0.  0.
         25    1    1    2    0    0 -0.60313898833E+02 -0.25328951500E+02 -0.33585523779E+02  0.14073844387E+03  0.12000000000E+03 0.  0.
<mgrwt>
<rscale>  0 0.30172919E+03</rscale>
<asrwt>0</asrwt>
<pdfrwt beam="1">  1        1 0.28591798E-01 0.30172919E+03</pdfrwt>
<pdfrwt beam="2">  1       -1 0.18841110E-01 0.30172919E+03</pdfrwt>
<totfact> 0.35744682E+03</totfact>
</mgrwt>
</event>
<event>
 4    1  0.1762274E-004  0.5194983E+03  0.7818608E-02  0.1008811E+00
         -2   -1    0    0    0  501 -0.00000000000E+00  0.00000000000E+00  0.34399562767E+02  0.34399562767E+02  0.00000000000E+00 0. -1.
          2   -1    0    0  501    0  0.00000000000E+00 -0.00000000000E+00 -0.19613509086E+04  0.19613509086E+04  0.00000000000E+00 0. -1.
         25    1    1    2    0    0  0.32160124143E+01 -0.16779522042E+03 -0.35721835798E+03  0.41251731359E+03  0.12000000000E+03 0.  0.
         25    1    1    2    0    0 -0.32160124143E+01  0.16779522042E+03 -0.15697329879E+04  0.15832331578E+04  0.12000000000E+03 0.  0.
<mgrwt>
<rscale>  0 0.51949827E+03</rscale>
<asrwt>0</asrwt>
<pdfrwt beam="1">  1        2 0.30174625E+00 0.51949827E+03</pdfrwt>
<pdfrwt beam="2">  1       -2 0.52922412E-02 0.51949827E+03</pdfrwt>
<totfact> 0.13729991E+03</totfact>
</mgrwt>
</event>
<event>
 4    1  0.1762274E-004  0.2668259E+03  0.7818608E-02  0.1103110E+00
         -2   -1    0    0    0  501 -0.00000000000E+00  0.00000000000E+00  0.59335056850E+01  0.59335056850E+01  0.00000000000E+00 0.  1.
          2   -1    0    0  501    0  0.00000000000E+00 -0.00000000000E+00 -0.29997476126E+04  0.29997476126E+04  0.00000000000E+00 0.  1.
         25    1    1    2    0    0 -0.17506701000E+02 -0.49309835352E+02 -0.12072792452E+04  0.12143562576E+04  0.12000000000E+03 0.  0.
         25    1    1    2    0    0  0.17506701000E+02  0.49309835352E+02 -0.17865348617E+04  0.17913248607E+04  0.12000000000E+03 0.  0.
<mgrwt>
<rscale>  0 0.26682593E+03</rscale>
<asrwt>0</asrwt>
<pdfrwt beam="1">  1        2 0.46150083E+00 0.26682593E+03</pdfrwt>
<pdfrwt beam="2">  1       -2 0.91284467E-03 0.26682593E+03</pdfrwt>
<totfact> 0.50759235E+03</totfact>
</mgrwt>
</event>
<event>
 4    1  0.1762274E-004  0.2716168E+03  0.7818608E-02  0.1100358E+00
          2   -1    0    0  501    0  0.00000000000E+00  0.00000000000E+00  0.64597392037E+03  0.64597392037E+03  0.00000000000E+00 0. -1.
         -2   -1    0    0    0  501 -0.00000000000E+00 -0.00000000000E+00 -0.28552121865E+02  0.28552121865E+02  0.00000000000E+00 0. -1.
         25    1    1    2    0    0 -0.60806712908E+02 -0.17983953917E+02  0.32063294476E+03  0.34817576625E+03  0.12000000000E+03 0.  0.
         25    1    1    2    0    0  0.60806712908E+02  0.17983953917E+02  0.29678885374E+03  0.32635027599E+03  0.12000000000E+03 0.  0.
<mgrwt>
<rscale>  0 0.27161683E+03</rscale>
<asrwt>0</asrwt>
<pdfrwt beam="1">  1        2 0.99380592E-01 0.27161683E+03</pdfrwt>
<pdfrwt beam="2">  1       -2 0.43926346E-02 0.27161683E+03</pdfrwt>
<totfact> 0.10969152E+04</totfact>
</mgrwt>
</event>
<event>
 4    1  0.1762274E-004  0.2766438E+03  0.7818608E-02  0.1097536E+00
          1   -1    0    0  501    0  0.00000000000E+00  0.00000000000E+00  0.94082963980E+03  0.94082963980E+03  0.00000000000E+00 0.  1.
         -1   -1    0    0    0  501 -0.00000000000E+00 -0.00000000000E+00 -0.20336246329E+02  0.20336246329E+02  0.00000000000E+00 0.  1.
         25    1    1    2    0    0  0.96356660263E+01 -0.60820902235E+02  0.56682104355E+03  0.58264751233E+03  0.12000000000E+03 0.  0.
         25    1    1    2    0    0 -0.96356660263E+01  0.60820902235E+02  0.35367234992E+03  0.37851837380E+03  0.12000000000E+03 0.  0.
<mgrwt>
<rscale>  0 0.27664377E+03</rscale>
<asrwt>0</asrwt>
<pdfrwt beam="1">  1        1 0.14474299E+00 0.27664377E+03</pdfrwt>
<pdfrwt beam="2">  1       -1 0.31286540E-02 0.27664377E+03</pdfrwt>
<totfact> 0.62840975E+03</totfact>
</mgrwt>
</event>
<event>
 4    1  0.1762274E-004  0.3432952E+03  0.7818608E-02  0.1065401E+00
          2   -1    0    0  501    0  0.00000000000E+00  0.00000000000E+00  0.85899278562E+02  0.85899278562E+02  0.00000000000E+00 0. -1.
         -2   -1    0    0    0  501 -0.00000000000E+00 -0.00000000000E+00 -0.34299347457E+03  0.34299347457E+03  0.00000000000E+00 0. -1.
         25    1    1    2    0    0 -0.98444418783E+02  0.18268421595E+02 -0.21722262529E+03  0.26760177084E+03  0.12000000000E+03 0.  0.
         25    1    1    2    0    0  0.98444418783E+02 -0.18268421595E+02 -0.39871570711E+02  0.16129098229E+03  0.12000000000E+03 0.  0.
<mgrwt>
<rscale>  0 0.34329516E+03</rscale>
<asrwt>0</asrwt>
<pdfrwt beam="1">  1        2 0.13215274E-01 0.34329516E+03</pdfrwt>
<pdfrwt beam="2">  1       -2 0.52768227E-01 0.34329516E+03</pdfrwt>
<totfact> 0.15717926E+03</totfact>
</mgrwt>
</event>
<event>
 4    1  0.1762274E-004  0.3167376E+03  0.7818608E-02  0.1077161E+00
          1   -1    0    0  501    0  0.00000000000E+00  0.00000000000E+00  0.23901856084E+04  0.23901856084E+04  0.00000000000E+00 0.  1.
         -1   -1    0    0    0  501 -0.00000000000E+00 -0.00000000000E+00 -0.10493191152E+02  0.10493191152E+02  0.00000000000E+00 0.  1.
         25    1    1    2    0    0  0.47616677976E+02  0.80755827915E+02  0.86017981776E+03  0.87355490419E+03  0.12000000000E+03 0.  0.
         25    1    1    2    0    0 -0.47616677976E+02 -0.80755827915E+02  0.15195125995E+04  0.15271238954E+04  0.12000000000E+03 0.  0.
<mgrwt>
<rscale>  0 0.31673759E+03</rscale>
<asrwt>0</asrwt>
<pdfrwt beam="1">  1        1 0.36772043E+00 0.31673759E+03</pdfrwt>
<pdfrwt beam="2">  1       -1 0.16143390E-02 0.31673759E+03</pdfrwt>
<totfact> 0.17531349E+03</totfact>
</mgrwt>
</event>
<event>
 4    1  0.1762274E-004  0.2956846E+03  0.7818608E-02  0.1087418E+00
         -2   -1    0    0    0  501 -0.00000000000E+00  0.00000000000E+00  0.39078205346E+03  0.39078205346E+03  0.00000000000E+00 0. -1.
          2   -1    0    0  501    0  0.00000000000E+00 -0.00000000000E+00 -0.55932333397E+02  0.55932333397E+02  0.00000000000E+00 0. -1.
         25    1    1    2    0    0 -0.41934909652E+02  0.43346856620E+02  0.26079869667E+03  0.29334867787E+03  0.12000000000E+03 0.  0.
         25    1    1    2    0    0  0.41934909652E+02 -0.43346856620E+02  0.74051023397E+02  0.15336570899E+03  0.12000000000E+03 0.  0.
<mgrwt>
<rscale>  0 0.29568464E+03</rscale>
<asrwt>0</asrwt>
<pdfrwt beam="1">  1        2 0.86049746E-02 0.29568464E+03</pdfrwt>
<pdfrwt beam="2">  1       -2 0.60120314E-01 0.29568464E+03</pdfrwt>
<totfact> 0.20409043E+03</totfact>
</mgrwt>
</event>
<event>
 4    1  0.1762274E-004  0.5484951E+03  0.7818608E-02  0.1001843E+00
         -1   -1    0    0    0  501 -0.00000000000E+00  0.00000000000E+00  0.91225411065E+02  0.91225411065E+02  0.00000000000E+00 0. -1.
          1   -1    0    0  501    0  0.00000000000E+00 -0.00000000000E+00 -0.82446022818E+03  0.82446022818E+03  0.00000000000E+00 0. -1.
         25    1    1    2    0    0  0.16909672068E+03  0.15428680370E+02 -0.68070403431E+02  0.21878145476E+03  0.12000000000E+03 0.  0.
         25    1    1    2    0    0 -0.16909672068E+03 -0.15428680370E+02 -0.66516441368E+03  0.69690418449E+03  0.12000000000E+03 0.  0.
<mgrwt>
<rscale>  0 0.54849512E+03</rscale>
<asrwt>0</asrwt>
<pdfrwt beam="1">  1        1 0.12684003E+00 0.54849512E+03</pdfrwt>
<pdfrwt beam="2">  1       -1 0.14034679E-01 0.54849512E+03</pdfrwt>
<totfact> 0.78030848E+02</totfact>
</mgrwt>
</event>
<event>
 4    1  0.1762274E-004  0.4756220E+03  0.7818608E-02  0.1020345E+00
          1   -1    0    0  501    0  0.00000000000E+00  0.00000000000E+00  0.24391911281E+03  0.24391911281E+03  0.00000000000E+00 0. -1.
         -1   -1    0    0    0  501 -0.00000000000E+00 -0.00000000000E+00 -0.23185586903E+03  0.23185586903E+03  0.00000000000E+00 0. -1.
         25    1    1    2    0    0 -0.55156112893E+02 -0.89805712714E+02 -0.17022610712E+03  0.23341848764E+03  0.12000000000E+03 0.  0.
         25    1    1    2    0    0  0.55156112893E+02  0.89805712714E+02  0.18228935091E+03  0.24235649420E+03  0.12000000000E+03 0.  0.
<mgrwt>
<rscale>  0 0.47562203E+03</rscale>
<asrwt>0</asrwt>
<pdfrwt beam="1">  1        1 0.37526017E-01 0.47562203E+03</pdfrwt>
<pdfrwt beam="2">  1       -1 0.35670134E-01 0.47562203E+03</pdfrwt>
<totfact> 0.86467607E+02</totfact>
</mgrwt>
</event>
<event>
 4    1  0.1762274E-004  0.5027595E+03  0.7818608E-02  0.1013061E+00
          2   -1    0    0  501    0  0.00000000000E+00  0.00000000000E+00  0.32027886802E+03  0.32027886802E+03  0.00000000000E+00 0. -1.
         -2   -1    0    0    0  501 -0.00000000000E+00 -0.00000000000E+00 -0.19730237345E+03  0.19730237345E+03  0.00000000000E+00 0. -1.
         25    1    1    2    0    0 -0.80960353872E+02 -0.16343178092E+03 -0.66793709664E+02  0.22831102813E+03  0.12000000000E+03 0.  0.
         25    1    1    2    0    0  0.80960353872E+02  0.16343178092E+03  0.18977020424E+03  0.28927021335E+03  0.12000000000E+03 0.  0.
<mgrwt>
<rscale>  0 0.50275951E+03</rscale>
<asrwt>0</asrwt>
<pdfrwt beam="1">  1        2 0.49273672E-01 0.50275951E+03</pdfrwt>
<pdfrwt beam="2">  1       -2 0.30354211E-01 0.50275951E+03</pdfrwt>
<totfact> 0.10249621E+03</totfact>
</mgrwt>
</event>
<event>
 4    1  0.1762274E-004  0.4273851E+03  0.7818608E-02  0.1034689E+00
         -2   -1    0    0    0  501 -0.00000000000E+00  0.00000000000E+00  0.24321546462E+02  0.24321546462E+02  0.00000000000E+00 0.  1.
          2   -1    0    0  501    0  0.00000000000E+00 -0.00000000000E+00 -0.18775331982E+04  0.18775331982E+04  0.00000000000E+00 0.  1.
         25    1    1    2    0    0  0.15481739260E+03  0.85410472937E+02 -0.93135079552E+03  0.95555098151E+03  0.12000000000E+03 0.  0.
         25    1    1    2    0    0 -0.15481739260E+03 -0.85410472937E+02 -0.92186085624E+03  0.94630376318E+03  0.12000000000E+03 0.  0.
<mgrwt>
<rscale>  0 0.42738512E+03</rscale>
<asrwt>0</asrwt>
<pdfrwt beam="1">  1        2 0.28885127E+00 0.42738512E+03</pdfrwt>
<pdfrwt beam="2">  1       -2 0.37417762E-02 0.42738512E+03</pdfrwt>
<totfact> 0.26042933E+03</totfact>
</mgrwt>
</event>
<event>
 4    1  0.1762274E-004  0.3335667E+03  0.7818608E-02  0.1069570E+00
          2   -1    0    0  501    0  0.00000000000E+00  0.00000000000E+00  0.24340495871E+04  0.24340495871E+04  0.00000000000E+00 0.  1.
         -2   -1    0    0    0  501 -0.00000000000E+00 -0.00000000000E+00 -0.11428151412E+02  0.11428151412E+02  0.00000000000E+00 0.  1.
         25    1    1    2    0    0  0.14158750043E+02  0.11495301679E+03  0.12008885172E+04  0.12124140781E+04  0.12000000000E+03 0.  0.
         25    1    1    2    0    0 -0.14158750043E+02 -0.11495301679E+03  0.12217329186E+04  0.12330636604E+04  0.12000000000E+03 0.  0.
<mgrwt>
<rscale>  0 0.33356671E+03</rscale>
<asrwt>0</asrwt>
<pdfrwt beam="1">  1        2 0.37446876E+00 0.33356671E+03</pdfrwt>
<pdfrwt beam="2">  1       -2 0.17581791E-02 0.33356671E+03</pdfrwt>
<totfact> 0.40620680E+03</totfact>
</mgrwt>
</event>
<event>
 4    1  0.1762274E-004  0.2493879E+03  0.7818608E-02  0.1113692E+00
         -2   -1    0    0    0  501 -0.00000000000E+00  0.00000000000E+00  0.20780267692E+02  0.20780267692E+02  0.00000000000E+00 0.  1.
          2   -1    0    0  501    0  0.00000000000E+00 -0.00000000000E+00 -0.74823795949E+03  0.74823795949E+03  0.00000000000E+00 0.  1.
         25    1    1    2    0    0 -0.23548595465E+02  0.18842185053E+02 -0.31605512416E+03  0.33941185276E+03  0.12000000000E+03 0.  0.
         25    1    1    2    0    0  0.23548595465E+02 -0.18842185053E+02 -0.41140256764E+03  0.42960637442E+03  0.12000000000E+03 0.  0.
<mgrwt>
<rscale>  0 0.24938793E+03</rscale>
<asrwt>0</asrwt>
<pdfrwt beam="1">  1        2 0.11511354E+00 0.24938793E+03</pdfrwt>
<pdfrwt beam="2">  1       -2 0.31969640E-02 0.24938793E+03</pdfrwt>
<totfact> 0.14732325E+04</totfact>
</mgrwt>
</event>
<event>
 4    1  0.1762274E-004  0.2901400E+03  0.7818608E-02  0.1090276E+00
          1   -1    0    0  501    0  0.00000000000E+00  0.00000000000E+00  0.39401893460E+02  0.39401893460E+02  0.00000000000E+00 0.  1.
         -1   -1    0    0    0  501 -0.00000000000E+00 -0.00000000000E+00 -0.53411912731E+03  0.53411912731E+03  0.00000000000E+00 0.  1.
         25    1    1    2    0    0  0.79970170985E+02  0.15705538128E+02 -0.24370691359E+03  0.28361056382E+03  0.12000000000E+03 0.  0.
         25    1    1    2    0    0 -0.79970170985E+02 -0.15705538128E+02 -0.25101032026E+03  0.28991045695E+03  0.12000000000E+03 0.  0.
<mgrwt>
<rscale>  0 0.29014000E+03</rscale>
<asrwt>0</asrwt>
<pdfrwt beam="1">  1        1 0.60618301E-02 0.29014000E+03</pdfrwt>
<pdfrwt beam="2">  1       -1 0.82172169E-01 0.29014000E+03</pdfrwt>
<totfact> 0.19648216E+03</totfact>
</mgrwt>
</event>
<event>
 4    1  0.1762274E-004  0.3355337E+03  0.7818608E-02  0.1068714E+00
         -2   -1    0    0    0  501 -0.00000000000E+00  0.00000000000E+00  0.15478795378E+03  0.15478795378E+03  0.00000000000E+00 0.  1.
          2   -1    0    0  501    0  0.00000000000E+00 -0.00000000000E+00 -0.18183397092E+03  0.18183397092E+03  0.00000000000E+00 0.  1.
         25    1    1    2    0    0  0.12487089331E+02 -0.82743640113E+02  0.68860752674E+02  0.16169180758E+03  0.12000000000E+03 0.  0.
         25    1    1    2    0    0 -0.12487089331E+02  0.82743640113E+02 -0.95906769815E+02  0.17493011712E+03  0.12000000000E+03 0.  0.
<mgrwt>
<rscale>  0 0.33553365E+03</rscale>
<asrwt>0</asrwt>
<pdfrwt beam="1">  1        2 0.27974457E-01 0.33553365E+03</pdfrwt>
<pdfrwt beam="2">  1       -2 0.23813531E-01 0.33553365E+03</pdfrwt>
<totfact> 0.29457533E+03</totfact>
</mgrwt>
</event>
<event>
 4    1  0.1762274E-004  0.2674139E+03  0.7818608E-02  0.1102769E+00
          1   -1    0    0  501    0  0.00000000000E+00  0.00000000000E+00  0.66420453028E+02  0.66420453028E+02  0.00000000000E+00 0. -1.
         -1   -1    0    0    0  501 -0.00000000000E+00 -0.00000000000E+00 -0.26915730161E+03  0.26915730161E+03  0.00000000000E+00 0. -1.
         25    1    1    2    0    0  0.23826779957E+02 -0.48268021143E+02 -0.13159127113E+03  0.18604778941E+03  0.12000000000E+03 0.  0.
         25    1    1    2    0    0 -0.23826779957E+02  0.48268021143E+02 -0.71145577446E+02  0.14952996522E+03  0.12000000000E+03 0.  0.
<mgrwt>
<rscale>  0 0.26741391E+03</rscale>
<asrwt>0</asrwt>
<pdfrwt beam="1">  1        1 0.10218531E-01 0.26741391E+03</pdfrwt>
<pdfrwt beam="2">  1       -1 0.41408816E-01 0.26741391E+03</pdfrwt>
<totfact> 0.35938736E+03</totfact>
</mgrwt>
</event>
<event>
 4    1  0.1762274E-004  0.3708500E+03  0.7818608E-02  0.1054368E+00
          2   -1    0    0  501    0  0.00000000000E+00  0.00000000000E+00  0.42954307372E+03  0.42954307372E+03  0.00000000000E+00 0.  1.
         -2   -1    0    0    0  501 -0.00000000000E+00 -0.00000000000E+00 -0.80044191409E+02  0.80044191409E+02  0.00000000000E+00 0.  1.
         25    1    1    2    0    0  0.64388385429E+02 -0.57419849406E+02  0.32862188005E+03  0.36032657872E+03  0.12000000000E+03 0.  0.
         25    1    1    2    0    0 -0.64388385429E+02  0.57419849406E+02  0.20877002260E+02  0.14926068641E+03  0.12000000000E+03 0.  0.
<mgrwt>
<rscale>  0 0.37084999E+03</rscale>
<asrwt>0</asrwt>
<pdfrwt beam="1">  1        2 0.66083549E-01 0.37084999E+03</pdfrwt>
<pdfrwt beam="2">  1       -2 0.12314491E-01 0.37084999E+03</pdfrwt>
<totfact> 0.35144548E+03</totfact>
</mgrwt>
</event>
<event>
 4    1  0.1762274E-004  0.3744353E+03  0.7818608E-02  0.1053010E+00
          1   -1    0    0  501    0  0.00000000000E+00  0.00000000000E+00  0.56161607156E+02  0.56161607156E+02  0.00000000000E+00 0.  1.
         -1   -1    0    0    0  501 -0.00000000000E+00 -0.00000000000E+00 -0.62409978792E+03  0.62409978792E+03  0.00000000000E+00 0.  1.
         25    1    1    2    0    0 -0.76745469852E+02 -0.92188014939E+02 -0.42773431327E+03  0.46015773381E+03  0.12000000000E+03 0.  0.
         25    1    1    2    0    0  0.76745469852E+02  0.92188014939E+02 -0.14020386750E+03  0.22010366127E+03  0.12000000000E+03 0.  0.
<mgrwt>
<rscale>  0 0.37443529E+03</rscale>
<asrwt>0</asrwt>
<pdfrwt beam="1">  1        1 0.86402477E-02 0.37443529E+03</pdfrwt>
<pdfrwt beam="2">  1       -1 0.96015347E-01 0.37443529E+03</pdfrwt>
<totfact> 0.86580301E+02</totfact>
</mgrwt>
</event>
<event>
 4    1  0.1762274E-004  0.3234210E+03  0.7818608E-02  0.1074086E+00
         -1   -1    0    0    0  501 -0.00000000000E+00  0.00000000000E+00  0.66272123288E+02  0.66272123288E+02  0.00000000000E+00 0. -1.
          1   -1    0    0  501    0  0.00000000000E+00 -0.00000000000E+00 -0.39458964928E+03  0.39458964928E+03  0.00000000000E+00 0. -1.
         25    1    1    2    0    0 -0.36792899723E+02  0.10196256287E+03 -0.16350237023E+03  0.22996327265E+03  0.12000000000E+03 0.  0.
         25    1    1    2    0    0  0.36792899723E+02 -0.10196256287E+03 -0.16481515576E+03  0.23089849992E+03  0.12000000000E+03 0.  0.
<mgrwt>
<rscale>  0 0.32342105E+03</rscale>
<asrwt>0</asrwt>
<pdfrwt beam="1">  1        1 0.60706099E-01 0.32342105E+03</pdfrwt>
<pdfrwt beam="2">  1       -1 0.10195711E-01 0.32342105E+03</pdfrwt>
<totfact> 0.36501315E+03</totfact>
</mgrwt>
</event>
<event>
 4    1  0.1762274E-004  0.3536084E+03  0.7818608E-02  0.1061144E+00
         -2   -1    0    0    0  501 -0.00000000000E+00  0.00000000000E+00  0.12103094867E+03  0.12103094867E+03  0.00000000000E+00 0. -1.
          2   -1    0    0  501    0  0.00000000000E+00 -0.00000000000E+00 -0.25827878521E+03  0.25827878521E+03  0.00000000000E+00 0. -1.
         25    1    1    2    0    0 -0.29074442416E+02  0.26561550851E+02 -0.20134600996E+03  0.23767846960E+03  0.12000000000E+03 0.  0.
         25    1    1    2    0    0  0.29074442416E+02 -0.26561550851E+02  0.64098173421E+02  0.14163126428E+03  0.12000000000E+03 0.  0.
<mgrwt>
<rscale>  0 0.35360841E+03</rscale>
<asrwt>0</asrwt>
<pdfrwt beam="1">  1        2 0.39735197E-01 0.35360841E+03</pdfrwt>
<pdfrwt beam="2">  1       -2 0.18620146E-01 0.35360841E+03</pdfrwt>
<totfact> 0.30711820E+03</totfact>
</mgrwt>
</event>
<event>
 4    1  0.1762274E-004  0.2530205E+03  0.7818608E-02  0.1111411E+00
         -1   -1    0    0    0  501 -0.00000000000E+00  0.00000000000E+00  0.77338257492E+02  0.77338257492E+02  0.00000000000E+00 0.  1.
          1   -1    0    0  501    0  0.00000000000E+00 -0.00000000000E+00 -0.20694602078E+03  0.20694602078E+03  0.00000000000E+00 0.  1.
         25    1    1    2    0    0 -0.27058652051E+02  0.25826427889E+01 -0.97868007954E+02  0.15721637216E+03  0.12000000000E+03 0.  0.
         25    1    1    2    0    0  0.27058652051E+02 -0.25826427889E+01 -0.31739755332E+02  0.12706790611E+03  0.12000000000E+03 0.  0.
<mgrwt>
<rscale>  0 0.25302051E+03</rscale>
<asrwt>0</asrwt>
<pdfrwt beam="1">  1        1 0.31837849E-01 0.25302051E+03</pdfrwt>
<pdfrwt beam="2">  1       -1 0.11898194E-01 0.25302051E+03</pdfrwt>
<totfact> 0.64394182E+03</totfact>
</mgrwt>
</event>
<event>
 4    1  0.1762274E-004  0.2497648E+03  0.7818608E-02  0.1113454E+00
          2   -1    0    0  501    0  0.00000000000E+00  0.00000000000E+00  0.39116145350E+03  0.39116145350E+03  0.00000000000E+00 0.  1.
         -2   -1    0    0    0  501 -0.00000000000E+00 -0.00000000000E+00 -0.39870023384E+02  0.39870023384E+02  0.00000000000E+00 0.  1.
         25    1    1    2    0    0 -0.30802829311E+02  0.12331129130E+02  0.19244367200E+03  0.22920610361E+03  0.12000000000E+03 0.  0.
         25    1    1    2    0    0  0.30802829311E+02 -0.12331129130E+02  0.15884775812E+03  0.20182537327E+03  0.12000000000E+03 0.  0.
<mgrwt>
<rscale>  0 0.24976482E+03</rscale>
<asrwt>0</asrwt>
<pdfrwt beam="1">  1        2 0.60178683E-01 0.24976482E+03</pdfrwt>
<pdfrwt beam="2">  1       -2 0.61338500E-02 0.24976482E+03</pdfrwt>
<totfact> 0.11552445E+04</totfact>
</mgrwt>
</event>
<event>
 4    1  0.1762274E-004  0.2763761E+03  0.7818608E-02  0.1097685E+00
         -1   -1    0    0    0  501 -0.00000000000E+00  0.00000000000E+00  0.24080310796E+02  0.24080310796E+02  0.00000000000E+00 0.  1.
          1   -1    0    0  501    0  0.00000000000E+00 -0.00000000000E+00 -0.79301053525E+03  0.79301053525E+03  0.00000000000E+00 0.  1.
         25    1    1    2    0    0  0.12792933515E+02 -0.35833258742E+02 -0.21596696739E+03  0.24997882427E+03  0.12000000000E+03 0.  0.
         25    1    1    2    0    0 -0.12792933515E+02  0.35833258742E+02 -0.55296325707E+03  0.56711202178E+03  0.12000000000E+03 0.  0.
<mgrwt>
<rscale>  0 0.27637612E+03</rscale>
<asrwt>0</asrwt>
<pdfrwt beam="1">  1        1 0.12200162E+00 0.27637612E+03</pdfrwt>
<pdfrwt beam="2">  1       -1 0.37046632E-02 0.27637612E+03</pdfrwt>
<totfact> 0.64288483E+03</totfact>
</mgrwt>
</event>
<event>
 4    1  0.1762274E-004  0.2409059E+03  0.7818608E-02  0.1119191E+00
         -2   -1    0    0    0  501 -0.00000000000E+00  0.00000000000E+00  0.37839897370E+02  0.37839897370E+02  0.00000000000E+00 0.  1.
          2   -1    0    0  501    0  0.00000000000E+00 -0.00000000000E+00 -0.38342886546E+03  0.38342886546E+03  0.00000000000E+00 0.  1.
         25    1    1    2    0    0 -0.30951458343E+00  0.96366914573E+01 -0.16581126903E+03  0.20490568211E+03  0.12000000000E+03 0.  0.
         25    1    1    2    0    0  0.30951458343E+00 -0.96366914573E+01 -0.17977769905E+03  0.21636308072E+03  0.12000000000E+03 0.  0.
<mgrwt>
<rscale>  0 0.24090586E+03</rscale>
<asrwt>0</asrwt>
<pdfrwt beam="1">  1        2 0.58989059E-01 0.24090586E+03</pdfrwt>
<pdfrwt beam="2">  1       -2 0.58215224E-02 0.24090586E+03</pdfrwt>
<totfact> 0.12765042E+04</totfact>
</mgrwt>
</event>
<event>
 4    1  0.1762274E-004  0.2695070E+03  0.7818608E-02  0.1101562E+00
          2   -1    0    0  501    0  0.00000000000E+00  0.00000000000E+00  0.33027012507E+03  0.33027012507E+03  0.00000000000E+00 0. -1.
         -2   -1    0    0    0  501 -0.00000000000E+00 -0.00000000000E+00 -0.54980784397E+02  0.54980784397E+02  0.00000000000E+00 0. -1.
         25    1    1    2    0    0 -0.81431767059E+01 -0.18404086114E+02  0.22042401760E+03  0.25177722146E+03  0.12000000000E+03 0.  0.
         25    1    1    2    0    0  0.81431767059E+01  0.18404086114E+02  0.54865323067E+02  0.13347368800E+03  0.12000000000E+03 0.  0.
<mgrwt>
<rscale>  0 0.26950704E+03</rscale>
<asrwt>0</asrwt>
<pdfrwt beam="1">  1        2 0.50810788E-01 0.26950704E+03</pdfrwt>
<pdfrwt beam="2">  1       -2 0.84585824E-02 0.26950704E+03</pdfrwt>
<totfact> 0.84541940E+03</totfact>
</mgrwt>
</event>
<event>
 4    1  0.1762274E-004  0.2985369E+03  0.7818608E-02  0.1085974E+00
          1   -1    0    0  501    0  0.00000000000E+00  0.00000000000E+00  0.11232924634E+03  0.11232924634E+03  0.00000000000E+00 0. -1.
         -1   -1    0    0    0  501 -0.00000000000E+00 -0.00000000000E+00 -0.19835505104E+03  0.19835505104E+03  0.00000000000E+00 0. -1.
         25    1    1    2    0    0 -0.83450266982E+02 -0.27641517673E+02 -0.55888586402E+02  0.15890731465E+03  0.12000000000E+03 0.  0.
         25    1    1    2    0    0  0.83450266982E+02  0.27641517673E+02 -0.30137218301E+02  0.15177698273E+03  0.12000000000E+03 0.  0.
<mgrwt>
<rscale>  0 0.29853692E+03</rscale>
<asrwt>0</asrwt>
<pdfrwt beam="1">  1        1 0.17281423E-01 0.29853692E+03</pdfrwt>
<pdfrwt beam="2">  1       -1 0.30516161E-01 0.29853692E+03</pdfrwt>
<totfact> 0.30627886E+03</totfact>
</mgrwt>
</event>
<event>
 4    1  0.1762274E-004  0.4912983E+03  0.7818608E-02  0.1016075E+00
         -2   -1    0    0    0  501 -0.00000000000E+00  0.00000000000E+00  0.17116756815E+03  0.17116756815E+03  0.00000000000E+00 0.  1.
          2   -1    0    0  501    0  0.00000000000E+00 -0.00000000000E+00 -0.35254057135E+03  0.35254057135E+03  0.00000000000E+00 0.  1.
         25    1    1    2    0    0 -0.72856286072E+01  0.21396830094E+03 -0.79608739017E+02  0.25801756823E+03  0.12000000000E+03 0.  0.
         25    1    1    2    0    0  0.72856286072E+01 -0.21396830094E+03 -0.10176426418E+03  0.26569057126E+03  0.12000000000E+03 0.  0.
<mgrwt>
<rscale>  0 0.49129833E+03</rscale>
<asrwt>0</asrwt>
<pdfrwt beam="1">  1        2 0.54237011E-01 0.49129833E+03</pdfrwt>
<pdfrwt beam="2">  1       -2 0.26333472E-01 0.49129833E+03</pdfrwt>
<totfact> 0.11949595E+03</totfact>
</mgrwt>
</event>
<event>
 4    1  0.1762274E-004  0.2724289E+03  0.7818608E-02  0.1099897E+00
         -1   -1    0    0    0  501 -0.00000000000E+00  0.00000000000E+00  0.44941392135E+02  0.44941392135E+02  0.00000000000E+00 0.  1.
          1   -1    0    0  501    0  0.00000000000E+00 -0.00000000000E+00 -0.41285730468E+03  0.41285730468E+03  0.00000000000E+00 0.  1.
         25    1    1    2    0    0 -0.10087385361E+02 -0.63659418526E+02 -0.18450277764E+03  0.22933720123E+03  0.12000000000E+03 0.  0.
         25    1    1    2    0    0  0.10087385361E+02  0.63659418526E+02 -0.18341313491E+03  0.22846149559E+03  0.12000000000E+03 0.  0.
<mgrwt>
<rscale>  0 0.27242894E+03</rscale>
<asrwt>0</asrwt>
<pdfrwt beam="1">  1        1 0.63516508E-01 0.27242894E+03</pdfrwt>
<pdfrwt beam="2">  1       -1 0.69140604E-02 0.27242894E+03</pdfrwt>
<totfact> 0.62227301E+03</totfact>
</mgrwt>
</event>
<event>
 4    1  0.1762274E-004  0.2476851E+03  0.7818608E-02  0.1114777E+00
          1   -1    0    0  501    0  0.00000000000E+00  0.00000000000E+00  0.10695601359E+04  0.10695601359E+04  0.00000000000E+00 0. -1.
         -1   -1    0    0    0  501 -0.00000000000E+00 -0.00000000000E+00 -0.14339513377E+02  0.14339513377E+02  0.00000000000E+00 0. -1.
         25    1    1    2    0    0  0.16918670716E+02  0.34852643750E+01  0.63819578380E+03  0.64960930331E+03  0.12000000000E+03 0.  0.
         25    1    1    2    0    0 -0.16918670716E+02 -0.34852643750E+01  0.41702483869E+03  0.43429034594E+03  0.12000000000E+03 0.  0.
<mgrwt>
<rscale>  0 0.24768506E+03</rscale>
<asrwt>0</asrwt>
<pdfrwt beam="1">  1        1 0.16454765E+00 0.24768506E+03</pdfrwt>
<pdfrwt beam="2">  1       -1 0.22060798E-02 0.24768506E+03</pdfrwt>
<totfact> 0.83925882E+03</totfact>
</mgrwt>
</event>
<event>
 4    1  0.1762274E-004  0.2500454E+03  0.7818608E-02  0.1113276E+00
         -1   -1    0    0    0  501 -0.00000000000E+00  0.00000000000E+00  0.15007971374E+03  0.15007971374E+03  0.00000000000E+00 0.  1.
          1   -1    0    0  501    0  0.00000000000E+00 -0.00000000000E+00 -0.10414914193E+03  0.10414914193E+03  0.00000000000E+00 0.  1.
         25    1    1    2    0    0  0.33522586162E+02 -0.66580794756E+01  0.31008366110E+02  0.12856754090E+03  0.12000000000E+03 0.  0.
         25    1    1    2    0    0 -0.33522586162E+02  0.66580794756E+01  0.14922205698E+02  0.12566131476E+03  0.12000000000E+03 0.  0.
<mgrwt>
<rscale>  0 0.25004538E+03</rscale>
<asrwt>0</asrwt>
<pdfrwt beam="1">  1        1 0.16022945E-01 0.25004538E+03</pdfrwt>
<pdfrwt beam="2">  1       -1 0.23089187E-01 0.25004538E+03</pdfrwt>
<totfact> 0.53654582E+03</totfact>
</mgrwt>
</event>
<event>
 4    1  0.1762274E-004  0.2993987E+03  0.7818608E-02  0.1085542E+00
          1   -1    0    0  501    0  0.00000000000E+00  0.00000000000E+00  0.24170425218E+03  0.24170425218E+03  0.00000000000E+00 0.  1.
         -1   -1    0    0    0  501 -0.00000000000E+00 -0.00000000000E+00 -0.92716162283E+02  0.92716162283E+02  0.00000000000E+00 0.  1.
         25    1    1    2    0    0  0.73844071103E+02 -0.47714247287E+02  0.55793676790E+02  0.15887898099E+03  0.12000000000E+03 0.  0.
         25    1    1    2    0    0 -0.73844071103E+02  0.47714247287E+02  0.93194413108E+02  0.17554143347E+03  0.12000000000E+03 0.  0.
<mgrwt>
<rscale>  0 0.29939867E+03</rscale>
<asrwt>0</asrwt>
<pdfrwt beam="1">  1        1 0.37185269E-01 0.29939867E+03</pdfrwt>
<pdfrwt beam="2">  1       -1 0.14264025E-01 0.29939867E+03</pdfrwt>
<totfact> 0.40052454E+03</totfact>
</mgrwt>
</event>
<event>
 4    1  0.1762274E-004  0.2858779E+03  0.7818608E-02  0.1092521E+00
          2   -1    0    0  501    0  0.00000000000E+00  0.00000000000E+00  0.25182124040E+04  0.25182124040E+04  0.00000000000E+00 0. -1.
         -2   -1    0    0    0  501 -0.00000000000E+00 -0.00000000000E+00 -0.81135102857E+01  0.81135102857E+01  0.00000000000E+00 0. -1.
         25    1    1    2    0    0  0.31129673711E+02 -0.71042875687E+02  0.12203753397E+04  0.12287115677E+04  0.12000000000E+03 0.  0.
         25    1    1    2    0    0 -0.31129673711E+02  0.71042875687E+02  0.12897235541E+04  0.12976143467E+04  0.12000000000E+03 0.  0.
<mgrwt>
<rscale>  0 0.28587789E+03</rscale>
<asrwt>0</asrwt>
<pdfrwt beam="1">  1        2 0.38741667E+00 0.28587789E+03</pdfrwt>
<pdfrwt beam="2">  1       -2 0.12482344E-02 0.28587789E+03</pdfrwt>
<totfact> 0.60486826E+03</totfact>
</mgrwt>
</event>
<event>
 4    1  0.1762274E-004  0.2787539E+03  0.7818608E-02  0.1096371E+00
         -1   -1    0    0    0  501 -0.00000000000E+00  0.00000000000E+00  0.17118944713E+02  0.17118944713E+02  0.00000000000E+00 0.  1.
          1   -1    0    0  501    0  0.00000000000E+00 -0.00000000000E+00 -0.11347623018E+04  0.11347623018E+04  0.00000000000E+00 0.  1.
         25    1    1    2    0    0  0.45357370682E+02 -0.49251496368E+02 -0.46253647732E+03  0.48251735080E+03  0.12000000000E+03 0.  0.
         25    1    1    2    0    0 -0.45357370682E+02  0.49251496368E+02 -0.65510687981E+03  0.66936389575E+03  0.12000000000E+03 0.  0.
<mgrwt>
<rscale>  0 0.27875389E+03</rscale>
<asrwt>0</asrwt>
<pdfrwt beam="1">  1        1 0.17457885E+00 0.27875389E+03</pdfrwt>
<pdfrwt beam="2">  1       -1 0.26336834E-02 0.27875389E+03</pdfrwt>
<totfact> 0.58252384E+03</totfact>
</mgrwt>
</event>
<event>
 4    1  0.1762274E-004  0.3999439E+03  0.7818608E-02  0.1043799E+00
          3   -1    0    0  501    0  0.00000000000E+00  0.00000000000E+00  0.35738392334E+03  0.35738392334E+03  0.00000000000E+00 0. -1.
         -3   -1    0    0    0  501 -0.00000000000E+00 -0.00000000000E+00 -0.11189307547E+03  0.11189307547E+03  0.00000000000E+00 0. -1.
         25    1    1    2    0    0  0.87292886509E+02  0.11731322140E+03  0.46645771010E+02  0.19482881692E+03  0.12000000000E+03 0.  0.
         25    1    1    2    0    0 -0.87292886509E+02 -0.11731322140E+03  0.19884507686E+03  0.27444818189E+03  0.12000000000E+03 0.  0.
<mgrwt>
<rscale>  0 0.39994393E+03</rscale>
<asrwt>0</asrwt>
<pdfrwt beam="1">  1        3 0.54982142E-01 0.39994393E+03</pdfrwt>
<pdfrwt beam="2">  1       -3 0.17214319E-01 0.39994393E+03</pdfrwt>
<totfact> 0.25096537E+02</totfact>
</mgrwt>
</event>
<event>
 4    1  0.1762274E-004  0.2756180E+03  0.7818608E-02  0.1098107E+00
         -1   -1    0    0    0  501 -0.00000000000E+00  0.00000000000E+00  0.98016776198E+02  0.98016776198E+02  0.00000000000E+00 0. -1.
          1   -1    0    0  501    0  0.00000000000E+00 -0.00000000000E+00 -0.19375586998E+03  0.19375586998E+03  0.00000000000E+00 0. -1.
         25    1    1    2    0    0  0.16826716649E+02  0.24759586197E+02  0.16481110460E+02  0.12477100025E+03  0.12000000000E+03 0.  0.
         25    1    1    2    0    0 -0.16826716649E+02 -0.24759586197E+02 -0.11222020424E+03  0.16700164593E+03  0.12000000000E+03 0.  0.
<mgrwt>
<rscale>  0 0.27561804E+03</rscale>
<asrwt>0</asrwt>
<pdfrwt beam="1">  1        1 0.29808595E-01 0.27561804E+03</pdfrwt>
<pdfrwt beam="2">  1       -1 0.15079504E-01 0.27561804E+03</pdfrwt>
<totfact> 0.48344772E+03</totfact>
</mgrwt>
</event>
<event>
 4    1  0.1762274E-004  0.4109791E+03  0.7818608E-02  0.1040043E+00
          1   -1    0    0  501    0  0.00000000000E+00  0.00000000000E+00  0.32827970953E+03  0.32827970953E+03  0.00000000000E+00 0. -1.
         -1   -1    0    0    0  501 -0.00000000000E+00 -0.00000000000E+00 -0.12862800839E+03  0.12862800839E+03  0.00000000000E+00 0. -1.
         25    1    1    2    0    0  0.99606733115E+02 -0.13113740089E+03  0.12939612569E+03  0.24137497082E+03  0.12000000000E+03 0.  0.
         25    1    1    2    0    0 -0.99606733115E+02  0.13113740089E+03  0.70255575445E+02  0.21553274711E+03  0.12000000000E+03 0.  0.
<mgrwt>
<rscale>  0 0.41097915E+03</rscale>
<asrwt>0</asrwt>
<pdfrwt beam="1">  1        1 0.50504570E-01 0.41097915E+03</pdfrwt>
<pdfrwt beam="2">  1       -1 0.19788925E-01 0.41097915E+03</pdfrwt>
<totfact> 0.16106846E+03</totfact>
</mgrwt>
</event>
<event>
 4    1  0.1762274E-004  0.2458296E+03  0.7818608E-02  0.1115969E+00
          2   -1    0    0  501    0  0.00000000000E+00  0.00000000000E+00  0.16338282534E+04  0.16338282534E+04  0.00000000000E+00 0. -1.
         -2   -1    0    0    0  501 -0.00000000000E+00 -0.00000000000E+00 -0.92470236569E+01  0.92470236569E+01  0.00000000000E+00 0. -1.
         25    1    1    2    0    0  0.26496165879E+02  0.10641546191E+01  0.82703937868E+03  0.83612039392E+03  0.12000000000E+03 0.  0.
         25    1    1    2    0    0 -0.26496165879E+02 -0.10641546191E+01  0.79754185107E+03  0.80695488315E+03  0.12000000000E+03 0.  0.
<mgrwt>
<rscale>  0 0.24582960E+03</rscale>
<asrwt>0</asrwt>
<pdfrwt beam="1">  1        2 0.25135796E+00 0.24582960E+03</pdfrwt>
<pdfrwt beam="2">  1       -2 0.14226203E-02 0.24582960E+03</pdfrwt>
<totfact> 0.14709034E+04</totfact>
</mgrwt>
</event>
<event>
 4    1  0.1762274E-004  0.2913453E+03  0.7818608E-02  0.1089649E+00
         -2   -1    0    0    0  501 -0.00000000000E+00  0.00000000000E+00  0.20704946950E+02  0.20704946950E+02  0.00000000000E+00 0.  1.
          2   -1    0    0  501    0  0.00000000000E+00 -0.00000000000E+00 -0.10249011998E+04  0.10249011998E+04  0.00000000000E+00 0.  1.
         25    1    1    2    0    0 -0.25952664559E+02 -0.29626111910E+02 -0.76261485286E+03  0.77300236811E+03  0.12000000000E+03 0.  0.
         25    1    1    2    0    0  0.25952664559E+02  0.29626111910E+02 -0.24158139996E+03  0.27260377861E+03  0.12000000000E+03 0.  0.
<mgrwt>
<rscale>  0 0.29134533E+03</rscale>
<asrwt>0</asrwt>
<pdfrwt beam="1">  1        2 0.15767711E+00 0.29134533E+03</pdfrwt>
<pdfrwt beam="2">  1       -2 0.31853765E-02 0.29134533E+03</pdfrwt>
<totfact> 0.98138595E+03</totfact>
</mgrwt>
</event>
<event>
 4    1  0.1762274E-004  0.2886912E+03  0.7818608E-02  0.1091034E+00
          1   -1    0    0  501    0  0.00000000000E+00  0.00000000000E+00  0.49918310450E+02  0.49918310450E+02  0.00000000000E+00 0.  1.
         -1   -1    0    0    0  501 -0.00000000000E+00 -0.00000000000E+00 -0.41739497680E+03  0.41739497680E+03  0.00000000000E+00 0.  1.
         25    1    1    2    0    0 -0.11560246766E+02  0.75216398710E+02 -0.22483324940E+03  0.26597205864E+03  0.12000000000E+03 0.  0.
         25    1    1    2    0    0  0.11560246766E+02 -0.75216398710E+02 -0.14264341695E+03  0.20134122862E+03  0.12000000000E+03 0.  0.
<mgrwt>
<rscale>  0 0.28869120E+03</rscale>
<asrwt>0</asrwt>
<pdfrwt beam="1">  1        1 0.76797398E-02 0.28869120E+03</pdfrwt>
<pdfrwt beam="2">  1       -1 0.64214614E-01 0.28869120E+03</pdfrwt>
<totfact> 0.23384886E+03</totfact>
</mgrwt>
</event>
<event>
 4    1  0.1762274E-004  0.3128551E+03  0.7818608E-02  0.1078985E+00
         -1   -1    0    0    0  501 -0.00000000000E+00  0.00000000000E+00  0.16108249087E+03  0.16108249087E+03  0.00000000000E+00 0. -1.
          1   -1    0    0  501    0  0.00000000000E+00 -0.00000000000E+00 -0.15190714482E+03  0.15190714482E+03  0.00000000000E+00 0. -1.
         25    1    1    2    0    0 -0.85964396583E+02  0.17267900288E+02  0.53409510365E+02  0.15792603857E+03  0.12000000000E+03 0.  0.
         25    1    1    2    0    0  0.85964396583E+02 -0.17267900288E+02 -0.44234164313E+02  0.15506359712E+03  0.12000000000E+03 0.  0.
<mgrwt>
<rscale>  0 0.31285512E+03</rscale>
<asrwt>0</asrwt>
<pdfrwt beam="1">  1        1 0.23370330E-01 0.31285512E+03</pdfrwt>
<pdfrwt beam="2">  1       -1 0.24781922E-01 0.31285512E+03</pdfrwt>
<totfact> 0.29486303E+03</totfact>
</mgrwt>
</event>
<event>
 4    1  0.1762274E-004  0.2645530E+03  0.7818608E-02  0.1104438E+00
          2   -1    0    0  501    0  0.00000000000E+00  0.00000000000E+00  0.55349116347E+03  0.55349116347E+03  0.00000000000E+00 0. -1.
         -2   -1    0    0    0  501 -0.00000000000E+00 -0.00000000000E+00 -0.31612196970E+02  0.31612196970E+02  0.00000000000E+00 0. -1.
         25    1    1    2    0    0 -0.45916776781E+02  0.86492658859E+01  0.32780034657E+03  0.35218777293E+03  0.12000000000E+03 0.  0.
         25    1    1    2    0    0  0.45916776781E+02 -0.86492658859E+01  0.19407861993E+03  0.23291558751E+03  0.12000000000E+03 0.  0.
<mgrwt>
<rscale>  0 0.26455299E+03</rscale>
<asrwt>0</asrwt>
<pdfrwt beam="1">  1        2 0.85152479E-01 0.26455299E+03</pdfrwt>
<pdfrwt beam="2">  1       -2 0.48634153E-02 0.26455299E+03</pdfrwt>
<totfact> 0.11237258E+04</totfact>
</mgrwt>
</event>
<event>
 4    1  0.1762274E-004  0.3763519E+03  0.7818608E-02  0.1052290E+00
         -3   -1    0    0    0  501 -0.00000000000E+00  0.00000000000E+00  0.25443792010E+03  0.25443792010E+03  0.00000000000E+00 0. -1.
          3   -1    0    0  501    0  0.00000000000E+00 -0.00000000000E+00 -0.13917026186E+03  0.13917026186E+03  0.00000000000E+00 0. -1.
         25    1    1    2    0    0 -0.13316304421E+03 -0.56850093389E+02  0.50551128761E+02  0.19472993114E+03  0.12000000000E+03 0.  0.
         25    1    1    2    0    0  0.13316304421E+03  0.56850093389E+02  0.64716529481E+02  0.19887825082E+03  0.12000000000E+03 0.  0.
<mgrwt>
<rscale>  0 0.37635192E+03</rscale>
<asrwt>0</asrwt>
<pdfrwt beam="1">  1        3 0.21410810E-01 0.37635192E+03</pdfrwt>
<pdfrwt beam="2">  1       -3 0.39144295E-01 0.37635192E+03</pdfrwt>
<totfact> 0.33464159E+02</totfact>
</mgrwt>
</event>
<event>
 4    1  0.1762274E-004  0.2632895E+03  0.7818608E-02  0.1105183E+00
          2   -1    0    0  501    0  0.00000000000E+00  0.00000000000E+00  0.13247683708E+04  0.13247683708E+04  0.00000000000E+00 0.  1.
         -2   -1    0    0    0  501 -0.00000000000E+00 -0.00000000000E+00 -0.13081784206E+02  0.13081784206E+02  0.00000000000E+00 0.  1.
         25    1    1    2    0    0  0.11647386395E+02  0.22123835913E+02  0.41187741328E+03  0.42973029832E+03  0.12000000000E+03 0.  0.
         25    1    1    2    0    0 -0.11647386395E+02 -0.22123835913E+02  0.89980917331E+03  0.90811985668E+03  0.12000000000E+03 0.  0.
<mgrwt>
<rscale>  0 0.26328945E+03</rscale>
<asrwt>0</asrwt>
<pdfrwt beam="1">  1        2 0.20381041E+00 0.26328945E+03</pdfrwt>
<pdfrwt beam="2">  1       -2 0.20125832E-02 0.26328945E+03</pdfrwt>
<totfact> 0.12991983E+04</totfact>
</mgrwt>
</event>
<event>
 4    1  0.1762274E-004  0.3759430E+03  0.7818608E-02  0.1052444E+00
         -2   -1    0    0    0  501 -0.00000000000E+00  0.00000000000E+00  0.11785343890E+03  0.11785343890E+03  0.00000000000E+00 0. -1.
          2   -1    0    0  501    0  0.00000000000E+00 -0.00000000000E+00 -0.29980702521E+03  0.29980702521E+03  0.00000000000E+00 0. -1.
         25    1    1    2    0    0  0.73942100049E+02  0.71748377139E+02 -0.20382629067E+03  0.25799306299E+03  0.12000000000E+03 0.  0.
         25    1    1    2    0    0 -0.73942100049E+02 -0.71748377139E+02  0.21872704365E+02  0.15966740111E+03  0.12000000000E+03 0.  0.
<mgrwt>
<rscale>  0 0.37594302E+03</rscale>
<asrwt>0</asrwt>
<pdfrwt beam="1">  1        2 0.46124157E-01 0.37594302E+03</pdfrwt>
<pdfrwt beam="2">  1       -2 0.18131299E-01 0.37594302E+03</pdfrwt>
<totfact> 0.27357341E+03</totfact>
</mgrwt>
</event>
<event>
 4    1  0.1762274E-004  0.3106723E+03  0.7818608E-02  0.1080024E+00
         -2   -1    0    0    0  501 -0.00000000000E+00  0.00000000000E+00  0.70484144914E+02  0.70484144914E+02  0.00000000000E+00 0.  1.
          2   -1    0    0  501    0  0.00000000000E+00 -0.00000000000E+00 -0.34233676317E+03  0.34233676317E+03  0.00000000000E+00 0.  1.
         25    1    1    2    0    0 -0.43904937900E+02  0.74898467162E+02 -0.19813751018E+03  0.24737804449E+03  0.12000000000E+03 0.  0.
         25    1    1    2    0    0  0.43904937900E+02 -0.74898467162E+02 -0.73715108074E+02  0.16544286359E+03  0.12000000000E+03 0.  0.
<mgrwt>
<rscale>  0 0.31067226E+03</rscale>
<asrwt>0</asrwt>
<pdfrwt beam="1">  1        2 0.52667195E-01 0.31067226E+03</pdfrwt>
<pdfrwt beam="2">  1       -2 0.10843715E-01 0.31067226E+03</pdfrwt>
<totfact> 0.55108024E+03</totfact>
</mgrwt>
</event>
<event>
 4    1  0.1762274E-004  0.3330438E+03  0.7818608E-02  0.1069798E+00
         -2   -1    0    0    0  501 -0.00000000000E+00  0.00000000000E+00  0.67696563328E+01  0.67696563328E+01  0.00000000000E+00 0.  1.
          2   -1    0    0  501    0  0.00000000000E+00 -0.00000000000E+00 -0.40961534262E+04  0.40961534262E+04  0.00000000000E+00 0.  1.
         25    1    1    2    0    0 -0.27687960188E+02 -0.35820344545E+02 -0.73628369815E+03  0.74737099514E+03  0.12000000000E+03 0.  0.
         25    1    1    2    0    0  0.27687960188E+02  0.35820344545E+02 -0.33531000717E+04  0.33555520874E+04  0.12000000000E+03 0.  0.
<mgrwt>
<rscale>  0 0.33304385E+03</rscale>
<asrwt>0</asrwt>
<pdfrwt beam="1">  1        2 0.63017528E+00 0.33304385E+03</pdfrwt>
<pdfrwt beam="2">  1       -2 0.10414892E-02 0.33304385E+03</pdfrwt>
<totfact> 0.74576657E+02</totfact>
</mgrwt>
</event>
<event>
 4    1  0.1762274E-004  0.2693710E+03  0.7818608E-02  0.1101640E+00
          2   -1    0    0  501    0  0.00000000000E+00  0.00000000000E+00  0.28438680784E+03  0.28438680784E+03  0.00000000000E+00 0. -1.
         -2   -1    0    0    0  501 -0.00000000000E+00 -0.00000000000E+00 -0.63787013293E+02  0.63787013293E+02  0.00000000000E+00 0. -1.
         25    1    1    2    0    0  0.42220156219E+02 -0.65131260310E+01  0.16686582317E+03  0.20992657132E+03  0.12000000000E+03 0.  0.
         25    1    1    2    0    0 -0.42220156219E+02  0.65131260310E+01  0.53733971372E+02  0.13824724981E+03  0.12000000000E+03 0.  0.
<mgrwt>
<rscale>  0 0.26937101E+03</rscale>
<asrwt>0</asrwt>
<pdfrwt beam="1">  1        2 0.43751816E-01 0.26937101E+03</pdfrwt>
<pdfrwt beam="2">  1       -2 0.98133868E-02 0.26937101E+03</pdfrwt>
<totfact> 0.78552239E+03</totfact>
</mgrwt>
</event>
<event>
 4    1  0.1762274E-004  0.2924574E+03  0.7818608E-02  0.1089073E+00
          2   -1    0    0  501    0  0.00000000000E+00  0.00000000000E+00  0.20985684474E+04  0.20985684474E+04  0.00000000000E+00 0. -1.
         -2   -1    0    0    0  501 -0.00000000000E+00 -0.00000000000E+00 -0.10189244340E+02  0.10189244340E+02  0.00000000000E+00 0. -1.
         25    1    1    2    0    0 -0.27014884960E+02  0.31366719449E+02  0.15675905101E+04  0.15727217435E+04  0.12000000000E+03 0.  0.
         25    1    1    2    0    0  0.27014884960E+02 -0.31366719449E+02  0.52078869296E+03  0.53603594825E+03  0.12000000000E+03 0.  0.
<mgrwt>
<rscale>  0 0.29245736E+03</rscale>
<asrwt>0</asrwt>
<pdfrwt beam="1">  1        2 0.32285634E+00 0.29245736E+03</pdfrwt>
<pdfrwt beam="2">  1       -2 0.15675777E-02 0.29245736E+03</pdfrwt>
<totfact> 0.72924573E+03</totfact>
</mgrwt>
</event>
<event>
 4    1  0.1762274E-004  0.3129528E+03  0.7818608E-02  0.1078939E+00
         -1   -1    0    0    0  501 -0.00000000000E+00  0.00000000000E+00  0.23885946718E+02  0.23885946718E+02  0.00000000000E+00 0.  1.
          1   -1    0    0  501    0  0.00000000000E+00 -0.00000000000E+00 -0.10250743564E+04  0.10250743564E+04  0.00000000000E+00 0.  1.
         25    1    1    2    0    0 -0.38007143240E+02  0.23861965683E+02 -0.19947249268E+03  0.23707216555E+03  0.12000000000E+03 0.  0.
         25    1    1    2    0    0  0.38007143240E+02 -0.23861965683E+02 -0.80171591696E+03  0.81188813752E+03  0.12000000000E+03 0.  0.
<mgrwt>
<rscale>  0 0.31295285E+03</rscale>
<asrwt>0</asrwt>
<pdfrwt beam="1">  1        1 0.15770378E+00 0.31295285E+03</pdfrwt>
<pdfrwt beam="2">  1       -1 0.36747603E-02 0.31295285E+03</pdfrwt>
<totfact> 0.42829751E+03</totfact>
</mgrwt>
</event>
<event>
 4    1  0.1762274E-004  0.2683843E+03  0.7818608E-02  0.1102208E+00
          2   -1    0    0  501    0  0.00000000000E+00  0.00000000000E+00  0.67071551591E+03  0.67071551591E+03  0.00000000000E+00 0.  1.
         -2   -1    0    0    0  501 -0.00000000000E+00 -0.00000000000E+00 -0.26848236760E+02  0.26848236760E+02  0.00000000000E+00 0.  1.
         25    1    1    2    0    0  0.88381028590E+01 -0.57744962449E+02  0.35822248227E+03  0.38227730714E+03  0.12000000000E+03 0.  0.
         25    1    1    2    0    0 -0.88381028590E+01  0.57744962449E+02  0.28564479689E+03  0.31528644553E+03  0.12000000000E+03 0.  0.
<mgrwt>
<rscale>  0 0.26838427E+03</rscale>
<asrwt>0</asrwt>
<pdfrwt beam="1">  1        2 0.10318699E+00 0.26838427E+03</pdfrwt>
<pdfrwt beam="2">  1       -2 0.41304984E-02 0.26838427E+03</pdfrwt>
<totfact> 0.11503636E+04</totfact>
</mgrwt>
</event>
<event>
 4    1  0.1762274E-004  0.2752041E+03  0.7818608E-02  0.1098338E+00
          1   -1    0    0  501    0  0.00000000000E+00  0.00000000000E+00  0.35630407604E+03  0.35630407604E+03  0.00000000000E+00 0.  1.
         -1   -1    0    0    0  501 -0.00000000000E+00 -0.00000000000E+00 -0.53140923404E+02  0.53140923404E+02  0.00000000000E+00 0.  1.
         25    1    1    2    0    0 -0.67719816349E+01  0.54794715507E+01  0.25092342888E+03  0.27827765182E+03  0.12000000000E+03 0.  0.
         25    1    1    2    0    0  0.67719816349E+01 -0.54794715507E+01  0.52239723758E+02  0.13116734762E+03  0.12000000000E+03 0.  0.
<mgrwt>
<rscale>  0 0.27520413E+03</rscale>
<asrwt>0</asrwt>
<pdfrwt beam="1">  1        1 0.54816010E-01 0.27520413E+03</pdfrwt>
<pdfrwt beam="2">  1       -1 0.81755269E-02 0.27520413E+03</pdfrwt>
<totfact> 0.58213260E+03</totfact>
</mgrwt>
</event>
<event>
 4    1  0.1762274E-004  0.2813321E+03  0.7818608E-02  0.1094964E+00
         -1   -1    0    0    0  501 -0.00000000000E+00  0.00000000000E+00  0.15264030070E+02  0.15264030070E+02  0.00000000000E+00 0. -1.
          1   -1    0    0  501    0  0.00000000000E+00 -0.00000000000E+00 -0.12963110400E+04  0.12963110400E+04  0.00000000000E+00 0. -1.
         25    1    1    2    0    0 -0.37266088363E+02 -0.50578494637E+02 -0.81743374028E+03  0.82858002946E+03  0.12000000000E+03 0.  0.
         25    1    1    2    0    0  0.37266088363E+02  0.50578494637E+02 -0.46361326961E+03  0.48299504057E+03  0.12000000000E+03 0.  0.
<mgrwt>
<rscale>  0 0.28133205E+03</rscale>
<asrwt>0</asrwt>
<pdfrwt beam="1">  1        1 0.19943247E+00 0.28133205E+03</pdfrwt>
<pdfrwt beam="2">  1       -1 0.23483123E-02 0.28133205E+03</pdfrwt>
<totfact> 0.53188896E+03</totfact>
</mgrwt>
</event>
<event>
 4    1  0.1762274E-004  0.2654886E+03  0.7818608E-02  0.1103890E+00
         -1   -1    0    0    0  501 -0.00000000000E+00  0.00000000000E+00  0.19618823302E+03  0.19618823302E+03  0.00000000000E+00 0.  1.
          1   -1    0    0  501    0  0.00000000000E+00 -0.00000000000E+00 -0.89817060978E+02  0.89817060978E+02  0.00000000000E+00 0.  1.
         25    1    1    2    0    0 -0.29939754899E+02  0.27512939681E+02  0.10531600387E+02  0.12713876427E+03  0.12000000000E+03 0.  0.
         25    1    1    2    0    0  0.29939754899E+02 -0.27512939681E+02  0.95839571657E+02  0.15886652973E+03  0.12000000000E+03 0.  0.
<mgrwt>
<rscale>  0 0.26548861E+03</rscale>
<asrwt>0</asrwt>
<pdfrwt beam="1">  1        1 0.13818009E-01 0.26548861E+03</pdfrwt>
<pdfrwt beam="2">  1       -1 0.30182805E-01 0.26548861E+03</pdfrwt>
<totfact> 0.41707212E+03</totfact>
</mgrwt>
</event>
<event>
 4    1  0.1762274E-004  0.3040942E+03  0.7818608E-02  0.1083212E+00
         -2   -1    0    0    0  501 -0.00000000000E+00  0.00000000000E+00  0.47110759778E+03  0.47110759778E+03  0.00000000000E+00 0. -1.
          2   -1    0    0  501    0  0.00000000000E+00 -0.00000000000E+00 -0.49072278859E+02  0.49072278859E+02  0.00000000000E+00 0. -1.
         25    1    1    2    0    0  0.51176232600E+02  0.64911083326E+01  0.77886197617E+02  0.15207695766E+03  0.12000000000E+03 0.  0.
         25    1    1    2    0    0 -0.51176232600E+02 -0.64911083326E+01  0.34414912130E+03  0.36810291898E+03  0.12000000000E+03 0.  0.
<mgrwt>
<rscale>  0 0.30409422E+03</rscale>
<asrwt>0</asrwt>
<pdfrwt beam="1">  1        2 0.75495817E-02 0.30409422E+03</pdfrwt>
<pdfrwt beam="2">  1       -2 0.72478089E-01 0.30409422E+03</pdfrwt>
<totfact> 0.16236830E+03</totfact>
</mgrwt>
</event>
<event>
 4    1  0.1762274E-004  0.4226262E+03  0.7818608E-02  0.1036215E+00
         -2   -1    0    0    0  501 -0.00000000000E+00  0.00000000000E+00  0.20914642265E+02  0.20914642265E+02  0.00000000000E+00 0. -1.
          2   -1    0    0  501    0  0.00000000000E+00 -0.00000000000E+00 -0.21350224572E+04  0.21350224572E+04  0.00000000000E+00 0. -1.
         25    1    1    2    0    0  0.79649666429E+02  0.12543876323E+03 -0.15182698962E+04  0.15302360701E+04  0.12000000000E+03 0.  0.
         25    1    1    2    0    0 -0.79649666429E+02 -0.12543876323E+03 -0.59583791872E+03  0.62570102930E+03  0.12000000000E+03 0.  0.
<mgrwt>
<rscale>  0 0.42262622E+03</rscale>
<asrwt>0</asrwt>
<pdfrwt beam="1">  1        2 0.32846503E+00 0.42262622E+03</pdfrwt>
<pdfrwt beam="2">  1       -2 0.32176369E-02 0.42262622E+03</pdfrwt>
<totfact> 0.23834185E+03</totfact>
</mgrwt>
</event>
<event>
 4    1  0.1762274E-004  0.2517243E+03  0.7818608E-02  0.1112220E+00
         -2   -1    0    0    0  501 -0.00000000000E+00  0.00000000000E+00  0.40815417002E+02  0.40815417002E+02  0.00000000000E+00 0.  1.
          2   -1    0    0  501    0  0.00000000000E+00 -0.00000000000E+00 -0.38812006398E+03  0.38812006398E+03  0.00000000000E+00 0.  1.
         25    1    1    2    0    0  0.18001270051E+02  0.28095534648E+02 -0.20450711359E+03  0.23945054666E+03  0.12000000000E+03 0.  0.
         25    1    1    2    0    0 -0.18001270051E+02 -0.28095534648E+02 -0.14279753339E+03  0.18948493432E+03  0.12000000000E+03 0.  0.
<mgrwt>
<rscale>  0 0.25172431E+03</rscale>
<asrwt>0</asrwt>
<pdfrwt beam="1">  1        2 0.59710783E-01 0.25172431E+03</pdfrwt>
<pdfrwt beam="2">  1       -2 0.62792946E-02 0.25172431E+03</pdfrwt>
<totfact> 0.11242933E+04</totfact>
</mgrwt>
</event>
<event>
 4    1  0.1762274E-004  0.3205339E+03  0.7818608E-02  0.1075404E+00
         -2   -1    0    0    0  501 -0.00000000000E+00  0.00000000000E+00  0.20212316877E+02  0.20212316877E+02  0.00000000000E+00 0.  1.
          2   -1    0    0  501    0  0.00000000000E+00 -0.00000000000E+00 -0.12707845409E+04  0.12707845409E+04  0.00000000000E+00 0.  1.
         25    1    1    2    0    0  0.32766954478E+02  0.91414291658E+02 -0.45180474183E+03  0.47744923370E+03  0.12000000000E+03 0.  0.
         25    1    1    2    0    0 -0.32766954478E+02 -0.91414291658E+02 -0.79876748221E+03  0.81354762409E+03  0.12000000000E+03 0.  0.
<mgrwt>
<rscale>  0 0.32053393E+03</rscale>
<asrwt>0</asrwt>
<pdfrwt beam="1">  1        2 0.19550527E+00 0.32053393E+03</pdfrwt>
<pdfrwt beam="2">  1       -2 0.31095879E-02 0.32053393E+03</pdfrwt>
<totfact> 0.73339146E+03</totfact>
</mgrwt>
</event>
<event>
 4    1  0.1762274E-004  0.2636213E+03  0.7818608E-02  0.1104987E+00
          3   -1    0    0  501    0  0.00000000000E+00  0.00000000000E+00  0.15716267726E+03  0.15716267726E+03  0.00000000000E+00 0.  1.
         -3   -1    0    0    0  501 -0.00000000000E+00 -0.00000000000E+00 -0.11054818979E+03  0.11054818979E+03  0.00000000000E+00 0.  1.
         25    1    1    2    0    0  0.13334095489E+02  0.50654675825E+02  0.78943395864E+01  0.13117170001E+03  0.12000000000E+03 0.  0.
         25    1    1    2    0    0 -0.13334095489E+02 -0.50654675825E+02  0.38720147888E+02  0.13653916705E+03  0.12000000000E+03 0.  0.
<mgrwt>
<rscale>  0 0.26362132E+03</rscale>
<asrwt>0</asrwt>
<pdfrwt beam="1">  1        3 0.24178874E-01 0.26362132E+03</pdfrwt>
<pdfrwt beam="2">  1       -3 0.17007414E-01 0.26362132E+03</pdfrwt>
<totfact> 0.12067313E+03</totfact>
</mgrwt>
</event>
<event>
 4    1  0.1762274E-004  0.3024587E+03  0.7818608E-02  0.1084018E+00
         -1   -1    0    0    0  501 -0.00000000000E+00  0.00000000000E+00  0.35063453363E+02  0.35063453363E+02  0.00000000000E+00 0. -1.
          1   -1    0    0  501    0  0.00000000000E+00 -0.00000000000E+00 -0.65225511709E+03  0.65225511709E+03  0.00000000000E+00 0. -1.
         25    1    1    2    0    0 -0.61654103314E+02 -0.61722458827E+02 -0.24197709993E+03  0.28383764245E+03  0.12000000000E+03 0.  0.
         25    1    1    2    0    0  0.61654103314E+02  0.61722458827E+02 -0.37521456380E+03  0.40348092801E+03  0.12000000000E+03 0.  0.
<mgrwt>
<rscale>  0 0.30245870E+03</rscale>
<asrwt>0</asrwt>
<pdfrwt beam="1">  1        1 0.10034695E+00 0.30245870E+03</pdfrwt>
<pdfrwt beam="2">  1       -1 0.53943769E-02 0.30245870E+03</pdfrwt>
<totfact> 0.49039292E+03</totfact>
</mgrwt>
</event>
<event>
 4    1  0.1762274E-004  0.2932817E+03  0.7818608E-02  0.1088648E+00
         -2   -1    0    0    0  501 -0.00000000000E+00  0.00000000000E+00  0.14371661865E+02  0.14371661865E+02  0.00000000000E+00 0. -1.
          2   -1    0    0  501    0  0.00000000000E+00 -0.00000000000E+00 -0.14962453629E+04  0.14962453629E+04  0.00000000000E+00 0. -1.
         25    1    1    2    0    0  0.76759469128E+02  0.31068419394E+02 -0.82176728456E+03  0.83460094222E+03  0.12000000000E+03 0.  0.
         25    1    1    2    0    0 -0.76759469128E+02 -0.31068419394E+02 -0.66010641642E+03  0.67601608249E+03  0.12000000000E+03 0.  0.
<mgrwt>
<rscale>  0 0.29328166E+03</rscale>
<asrwt>0</asrwt>
<pdfrwt beam="1">  1        2 0.23019155E+00 0.29328166E+03</pdfrwt>
<pdfrwt beam="2">  1       -2 0.22110253E-02 0.29328166E+03</pdfrwt>
<totfact> 0.91507285E+03</totfact>
</mgrwt>
</event>
<event>
 4    1  0.1762274E-004  0.2423918E+03  0.7818608E-02  0.1118210E+00
          2   -1    0    0  501    0  0.00000000000E+00  0.00000000000E+00  0.14491962963E+04  0.14491962963E+04  0.00000000000E+00 0.  1.
         -2   -1    0    0    0  501 -0.00000000000E+00 -0.00000000000E+00 -0.10135577826E+02  0.10135577826E+02  0.00000000000E+00 0.  1.
         25    1    1    2    0    0 -0.28232414660E+01 -0.13026943644E+02  0.78289501475E+03  0.79215041253E+03  0.12000000000E+03 0.  0.
         25    1    1    2    0    0  0.28232414660E+01  0.13026943644E+02  0.65616570373E+03  0.66718146160E+03  0.12000000000E+03 0.  0.
<mgrwt>
<rscale>  0 0.24239176E+03</rscale>
<asrwt>0</asrwt>
<pdfrwt beam="1">  1        2 0.22295311E+00 0.24239176E+03</pdfrwt>
<pdfrwt beam="2">  1       -2 0.15593208E-02 0.24239176E+03</pdfrwt>
<totfact> 0.16117160E+04</totfact>
</mgrwt>
</event>
<event>
 4    1  0.1762274E-004  0.2419808E+03  0.7818608E-02  0.1118480E+00
          1   -1    0    0  501    0  0.00000000000E+00  0.00000000000E+00  0.38698707597E+02  0.38698707597E+02  0.00000000000E+00 0. -1.
         -1   -1    0    0    0  501 -0.00000000000E+00 -0.00000000000E+00 -0.37827294405E+03  0.37827294405E+03  0.00000000000E+00 0. -1.
         25    1    1    2    0    0 -0.21228329414E+01  0.14860766640E+02 -0.17607730186E+03  0.21360843858E+03  0.12000000000E+03 0.  0.
         25    1    1    2    0    0  0.21228329414E+01 -0.14860766640E+02 -0.16349693459E+03  0.20336321306E+03  0.12000000000E+03 0.  0.
<mgrwt>
<rscale>  0 0.24198078E+03</rscale>
<asrwt>0</asrwt>
<pdfrwt beam="1">  1        1 0.59536474E-02 0.24198078E+03</pdfrwt>
<pdfrwt beam="2">  1       -1 0.58195837E-01 0.24198078E+03</pdfrwt>
<totfact> 0.39874105E+03</totfact>
</mgrwt>
</event>
<event>
 4    1  0.1762274E-004  0.2576761E+03  0.7818608E-02  0.1108548E+00
          2   -1    0    0  501    0  0.00000000000E+00  0.00000000000E+00  0.80583954117E+02  0.80583954117E+02  0.00000000000E+00 0. -1.
         -2   -1    0    0    0  501 -0.00000000000E+00 -0.00000000000E+00 -0.20598689164E+03  0.20598689164E+03  0.00000000000E+00 0. -1.
         25    1    1    2    0    0 -0.27821541326E+02  0.36659122004E+02 -0.72729756904E+02  0.14767378551E+03  0.12000000000E+03 0.  0.
         25    1    1    2    0    0  0.27821541326E+02 -0.36659122004E+02 -0.52673180616E+02  0.13889706024E+03  0.12000000000E+03 0.  0.
<mgrwt>
<rscale>  0 0.25767606E+03</rscale>
<asrwt>0</asrwt>
<pdfrwt beam="1">  1        2 0.12397532E-01 0.25767606E+03</pdfrwt>
<pdfrwt beam="2">  1       -2 0.31690291E-01 0.25767606E+03</pdfrwt>
<totfact> 0.44962646E+03</totfact>
</mgrwt>
</event>
<event>
 4    1  0.1762274E-004  0.2770936E+03  0.7818608E-02  0.1097287E+00
          2   -1    0    0  501    0  0.00000000000E+00  0.00000000000E+00  0.20863457832E+03  0.20863457832E+03  0.00000000000E+00 0. -1.
         -2   -1    0    0    0  501 -0.00000000000E+00 -0.00000000000E+00 -0.92004015934E+02  0.92004015934E+02  0.00000000000E+00 0. -1.
         25    1    1    2    0    0 -0.27003065136E+02 -0.60513777862E+02  0.80126608410E+02  0.15878084334E+03  0.12000000000E+03 0.  0.
         25    1    1    2    0    0  0.27003065136E+02  0.60513777862E+02  0.36503953979E+02  0.14185775091E+03  0.12000000000E+03 0.  0.
<mgrwt>
<rscale>  0 0.27709362E+03</rscale>
<asrwt>0</asrwt>
<pdfrwt beam="1">  1        2 0.32097627E-01 0.27709362E+03</pdfrwt>
<pdfrwt beam="2">  1       -2 0.14154464E-01 0.27709362E+03</pdfrwt>
<totfact> 0.60905144E+03</totfact>
</mgrwt>
</event>
<event>
 4    1  0.1762274E-004  0.3298620E+03  0.7818608E-02  0.1071198E+00
          2   -1    0    0  501    0  0.00000000000E+00  0.00000000000E+00  0.83656516912E+02  0.83656516912E+02  0.00000000000E+00 0. -1.
         -2   -1    0    0    0  501 -0.00000000000E+00 -0.00000000000E+00 -0.32516579056E+03  0.32516579056E+03  0.00000000000E+00 0. -1.
         25    1    1    2    0    0  0.22951082312E+02  0.11065190990E+03 -0.11378321619E+03  0.20029282970E+03  0.12000000000E+03 0.  0.
         25    1    1    2    0    0 -0.22951082312E+02 -0.11065190990E+03 -0.12772605746E+03  0.20852947777E+03  0.12000000000E+03 0.  0.
<mgrwt>
<rscale>  0 0.32986202E+03</rscale>
<asrwt>0</asrwt>
<pdfrwt beam="1">  1        2 0.12870233E-01 0.32986202E+03</pdfrwt>
<pdfrwt beam="2">  1       -2 0.50025507E-01 0.32986202E+03</pdfrwt>
<totfact> 0.18061033E+03</totfact>
</mgrwt>
</event>
<event>
 4    1  0.1762274E-004  0.2692835E+03  0.7818608E-02  0.1101690E+00
         -1   -1    0    0    0  501 -0.00000000000E+00  0.00000000000E+00  0.29385567157E+03  0.29385567157E+03  0.00000000000E+00 0. -1.
          1   -1    0    0  501    0  0.00000000000E+00 -0.00000000000E+00 -0.61691528996E+02  0.61691528996E+02  0.00000000000E+00 0. -1.
         25    1    1    2    0    0  0.52949960423E+02  0.93058964374E+01  0.77857962473E+02  0.15281413658E+03  0.12000000000E+03 0.  0.
         25    1    1    2    0    0 -0.52949960423E+02 -0.93058964374E+01  0.15430618010E+03  0.20273306399E+03  0.12000000000E+03 0.  0.
<mgrwt>
<rscale>  0 0.26928354E+03</rscale>
<asrwt>0</asrwt>
<pdfrwt beam="1">  1        1 0.94910046E-02 0.26928354E+03</pdfrwt>
<pdfrwt beam="2">  1       -1 0.45208564E-01 0.26928354E+03</pdfrwt>
<totfact> 0.33899111E+03</totfact>
</mgrwt>
</event>
<event>
 4    1  0.1762274E-004  0.2456376E+03  0.7818608E-02  0.1116093E+00
         -2   -1    0    0    0  501 -0.00000000000E+00  0.00000000000E+00  0.11134034468E+02  0.11134034468E+02  0.00000000000E+00 0. -1.
          2   -1    0    0  501    0  0.00000000000E+00 -0.00000000000E+00 -0.13548062069E+04  0.13548062069E+04  0.00000000000E+00 0. -1.
         25    1    1    2    0    0  0.38522263641E+01 -0.25782718761E+02 -0.65956351218E+03  0.67089761874E+03  0.12000000000E+03 0.  0.
         25    1    1    2    0    0 -0.38522263641E+01  0.25782718761E+02 -0.68410866028E+03  0.69504262265E+03  0.12000000000E+03 0.  0.
<mgrwt>
<rscale>  0 0.24563761E+03</rscale>
<asrwt>0</asrwt>
<pdfrwt beam="1">  1        2 0.20843171E+00 0.24563761E+03</pdfrwt>
<pdfrwt beam="2">  1       -2 0.17129285E-02 0.24563761E+03</pdfrwt>
<totfact> 0.15809274E+04</totfact>
</mgrwt>
</event>
<event>
 4    1  0.1762274E-004  0.2545267E+03  0.7818608E-02  0.1110477E+00
         -2   -1    0    0    0  501 -0.00000000000E+00  0.00000000000E+00  0.17263210310E+02  0.17263210310E+02  0.00000000000E+00 0.  1.
          2   -1    0    0  501    0  0.00000000000E+00 -0.00000000000E+00 -0.93817744982E+03  0.93817744982E+03  0.00000000000E+00 0.  1.
         25    1    1    2    0    0  0.52008300212E+01  0.27399367999E+02 -0.58023672082E+03  0.59317149813E+03  0.12000000000E+03 0.  0.
         25    1    1    2    0    0 -0.52008300212E+01 -0.27399367999E+02 -0.34067751869E+03  0.36226916200E+03  0.12000000000E+03 0.  0.
<mgrwt>
<rscale>  0 0.25452666E+03</rscale>
<asrwt>0</asrwt>
<pdfrwt beam="1">  1        2 0.14433500E+00 0.25452666E+03</pdfrwt>
<pdfrwt beam="2">  1       -2 0.26558783E-02 0.25452666E+03</pdfrwt>
<totfact> 0.14484503E+04</totfact>
</mgrwt>
</event>
<event>
 4    1  0.1762274E-004  0.2918890E+03  0.7818608E-02  0.1089367E+00
         -2   -1    0    0    0  501 -0.00000000000E+00  0.00000000000E+00  0.77610838014E+02  0.77610838014E+02  0.00000000000E+00 0. -1.
          2   -1    0    0  501    0  0.00000000000E+00 -0.00000000000E+00 -0.27444349937E+03  0.27444349937E+03  0.00000000000E+00 0. -1.
         25    1    1    2    0    0  0.64835255788E+02  0.20981008542E+01 -0.35839779103E+02  0.14104078200E+03  0.12000000000E+03 0.  0.
         25    1    1    2    0    0 -0.64835255788E+02 -0.20981008542E+01 -0.16099288225E+03  0.21101355538E+03  0.12000000000E+03 0.  0.
<mgrwt>
<rscale>  0 0.29188895E+03</rscale>
<asrwt>0</asrwt>
<pdfrwt beam="1">  1        2 0.42222076E-01 0.29188895E+03</pdfrwt>
<pdfrwt beam="2">  1       -2 0.11940129E-01 0.29188895E+03</pdfrwt>
<totfact> 0.59793293E+03</totfact>
</mgrwt>
</event>
<event>
 4    1  0.1762274E-004  0.3043459E+03  0.7818608E-02  0.1083088E+00
         -1   -1    0    0    0  501 -0.00000000000E+00  0.00000000000E+00  0.71134801400E+03  0.71134801400E+03  0.00000000000E+00 0.  1.
          1   -1    0    0  501    0  0.00000000000E+00 -0.00000000000E+00 -0.32553137741E+02  0.32553137741E+02  0.00000000000E+00 0.  1.
         25    1    1    2    0    0 -0.53007056863E+02 -0.17991461340E+02  0.52268724713E+03  0.53919884928E+03  0.12000000000E+03 0.  0.
         25    1    1    2    0    0  0.53007056863E+02  0.17991461340E+02  0.15610762913E+03  0.20470230246E+03  0.12000000000E+03 0.  0.
<mgrwt>
<rscale>  0 0.30434592E+03</rscale>
<asrwt>0</asrwt>
<pdfrwt beam="1">  1        1 0.50081756E-02 0.30434592E+03</pdfrwt>
<pdfrwt beam="2">  1       -1 0.10943814E+00 0.30434592E+03</pdfrwt>
<totfact> 0.13656404E+03</totfact>
</mgrwt>
</event>
<event>
 4    1  0.1762274E-004  0.2973176E+03  0.7818608E-02  0.1086589E+00
         -2   -1    0    0    0  501 -0.00000000000E+00  0.00000000000E+00  0.23140703371E+02  0.23140703371E+02  0.00000000000E+00 0.  1.
          2   -1    0    0  501    0  0.00000000000E+00 -0.00000000000E+00 -0.95500312254E+03  0.95500312254E+03  0.00000000000E+00 0.  1.
         25    1    1    2    0    0  0.23896508919E+02  0.72184660896E+02 -0.32185876015E+03  0.35181632977E+03  0.12000000000E+03 0.  0.
         25    1    1    2    0    0 -0.23896508919E+02 -0.72184660896E+02 -0.61000365902E+03  0.62632749614E+03  0.12000000000E+03 0.  0.
<mgrwt>
<rscale>  0 0.29731763E+03</rscale>
<asrwt>0</asrwt>
<pdfrwt beam="1">  1        2 0.14692356E+00 0.29731763E+03</pdfrwt>
<pdfrwt beam="2">  1       -2 0.35601082E-02 0.29731763E+03</pdfrwt>
<totfact> 0.91814295E+03</totfact>
</mgrwt>
</event>
<event>
 4    1  0.1762274E-004  0.2793083E+03  0.7818608E-02  0.1096067E+00
         -1   -1    0    0    0  501 -0.00000000000E+00  0.00000000000E+00  0.92412252521E+01  0.92412252521E+01  0.00000000000E+00 0. -1.
          1   -1    0    0  501    0  0.00000000000E+00 -0.00000000000E+00 -0.21104654768E+04  0.21104654768E+04  0.00000000000E+00 0. -1.
         25    1    1    2    0    0  0.20526587073E+02 -0.31898317421E+02 -0.15100173015E+04  0.15152528153E+04  0.12000000000E+03 0.  0.
         25    1    1    2    0    0 -0.20526587073E+02  0.31898317421E+02 -0.59120695007E+03  0.60445388678E+03  0.12000000000E+03 0.  0.
<mgrwt>
<rscale>  0 0.27930834E+03</rscale>
<asrwt>0</asrwt>
<pdfrwt beam="1">  1        1 0.32468698E+00 0.27930834E+03</pdfrwt>
<pdfrwt beam="2">  1       -1 0.14217270E-02 0.27930834E+03</pdfrwt>
<totfact> 0.32264296E+03</totfact>
</mgrwt>
</event>
<event>
 4    1  0.1762274E-004  0.3527668E+03  0.7818608E-02  0.1061485E+00
         -2   -1    0    0    0  501 -0.00000000000E+00  0.00000000000E+00  0.15011617574E+02  0.15011617574E+02  0.00000000000E+00 0. -1.
          2   -1    0    0  501    0  0.00000000000E+00 -0.00000000000E+00 -0.20724683337E+04  0.20724683337E+04  0.00000000000E+00 0. -1.
         25    1    1    2    0    0  0.10629199466E+03  0.71908061428E+02 -0.11208478049E+04  0.11345345121E+04  0.12000000000E+03 0.  0.
         25    1    1    2    0    0 -0.10629199466E+03 -0.71908061428E+02 -0.93660891126E+03  0.95294543919E+03  0.12000000000E+03 0.  0.
<mgrwt>
<rscale>  0 0.35276679E+03</rscale>
<asrwt>0</asrwt>
<pdfrwt beam="1">  1        2 0.31884133E+00 0.35276679E+03</pdfrwt>
<pdfrwt beam="2">  1       -2 0.23094793E-02 0.35276679E+03</pdfrwt>
<totfact> 0.42449780E+03</totfact>
</mgrwt>
</event>
<event>
 4    1  0.1762274E-004  0.3006001E+03  0.7818608E-02  0.1084941E+00
          1   -1    0    0  501    0  0.00000000000E+00  0.00000000000E+00  0.11657162129E+03  0.11657162129E+03  0.00000000000E+00 0. -1.
         -1   -1    0    0    0  501 -0.00000000000E+00 -0.00000000000E+00 -0.19378733249E+03  0.19378733249E+03  0.00000000000E+00 0. -1.
         25    1    1    2    0    0 -0.51144013266E+02 -0.36052696948E+02 -0.10611080284E+03  0.17197386293E+03  0.12000000000E+03 0.  0.
         25    1    1    2    0    0  0.51144013266E+02  0.36052696948E+02  0.28895091641E+02  0.13838509086E+03  0.12000000000E+03 0.  0.
<mgrwt>
<rscale>  0 0.30060009E+03</rscale>
<asrwt>0</asrwt>
<pdfrwt beam="1">  1        1 0.17934096E-01 0.30060009E+03</pdfrwt>
<pdfrwt beam="2">  1       -1 0.29813436E-01 0.30060009E+03</pdfrwt>
<totfact> 0.30372019E+03</totfact>
</mgrwt>
</event>
<event>
 4    1  0.1762274E-004  0.2595649E+03  0.7818608E-02  0.1107405E+00
          3   -1    0    0  501    0  0.00000000000E+00  0.00000000000E+00  0.14749989959E+03  0.14749989959E+03  0.00000000000E+00 0.  1.
         -3   -1    0    0    0  501 -0.00000000000E+00 -0.00000000000E+00 -0.11419321575E+03  0.11419321575E+03  0.00000000000E+00 0.  1.
         25    1    1    2    0    0  0.48715732099E+00  0.49162659437E+02  0.21822115336E+02  0.13150440724E+03  0.12000000000E+03 0.  0.
         25    1    1    2    0    0 -0.48715732099E+00 -0.49162659437E+02  0.11484568503E+02  0.13018870811E+03  0.12000000000E+03 0.  0.
<mgrwt>
<rscale>  0 0.25956493E+03</rscale>
<asrwt>0</asrwt>
<pdfrwt beam="1">  1        3 0.22692292E-01 0.25956493E+03</pdfrwt>
<pdfrwt beam="2">  1       -3 0.17568187E-01 0.25956493E+03</pdfrwt>
<totfact> 0.12766084E+03</totfact>
</mgrwt>
</event>
<event>
 4    1  0.1762274E-004  0.2851545E+03  0.7818608E-02  0.1092906E+00
          2   -1    0    0  501    0  0.00000000000E+00  0.00000000000E+00  0.85661553235E+03  0.85661553235E+03  0.00000000000E+00 0. -1.
         -2   -1    0    0    0  501 -0.00000000000E+00 -0.00000000000E+00 -0.23730925383E+02  0.23730925383E+02  0.00000000000E+00 0. -1.
         25    1    1    2    0    0 -0.12318899801E+02 -0.40463717968E+01  0.18213261580E+03  0.21849580809E+03  0.12000000000E+03 0.  0.
         25    1    1    2    0    0  0.12318899801E+02  0.40463717968E+01  0.65075199117E+03  0.66185064964E+03  0.12000000000E+03 0.  0.
<mgrwt>
<rscale>  0 0.28515455E+03</rscale>
<asrwt>0</asrwt>
<pdfrwt beam="1">  1        2 0.13178698E+00 0.28515455E+03</pdfrwt>
<pdfrwt beam="2">  1       -2 0.36509123E-02 0.28515455E+03</pdfrwt>
<totfact> 0.10221930E+04</totfact>
</mgrwt>
</event>
<event>
 4    1  0.1762274E-004  0.2514614E+03  0.7818608E-02  0.1112385E+00
         -1   -1    0    0    0  501 -0.00000000000E+00  0.00000000000E+00  0.97389363867E+02  0.97389363867E+02  0.00000000000E+00 0.  1.
          1   -1    0    0  501    0  0.00000000000E+00 -0.00000000000E+00 -0.16231969772E+03  0.16231969772E+03  0.00000000000E+00 0.  1.
         25    1    1    2    0    0  0.27334834073E+02 -0.23338273964E+02 -0.21325105805E+02  0.12706938389E+03  0.12000000000E+03 0.  0.
         25    1    1    2    0    0 -0.27334834073E+02  0.23338273964E+02 -0.43605228047E+02  0.13263967769E+03  0.12000000000E+03 0.  0.
<mgrwt>
<rscale>  0 0.25146143E+03</rscale>
<asrwt>0</asrwt>
<pdfrwt beam="1">  1        1 0.24972261E-01 0.25146143E+03</pdfrwt>
<pdfrwt beam="2">  1       -1 0.14982979E-01 0.25146143E+03</pdfrwt>
<totfact> 0.60910617E+03</totfact>
</mgrwt>
</event>
<event>
 4    1  0.1762274E-004  0.2742924E+03  0.7818608E-02  0.1098848E+00
          1   -1    0    0  501    0  0.00000000000E+00  0.00000000000E+00  0.41234462338E+02  0.41234462338E+02  0.00000000000E+00 0. -1.
         -1   -1    0    0    0  501 -0.00000000000E+00 -0.00000000000E+00 -0.45614964830E+03  0.45614964830E+03  0.00000000000E+00 0. -1.
         25    1    1    2    0    0  0.31332881998E+02 -0.58300113107E+02 -0.19778845033E+03  0.24062610782E+03  0.12000000000E+03 0.  0.
         25    1    1    2    0    0 -0.31332881998E+02  0.58300113107E+02 -0.21712673563E+03  0.25675800281E+03  0.12000000000E+03 0.  0.
<mgrwt>
<rscale>  0 0.27429244E+03</rscale>
<asrwt>0</asrwt>
<pdfrwt beam="1">  1        1 0.63437634E-02 0.27429244E+03</pdfrwt>
<pdfrwt beam="2">  1       -1 0.70176869E-01 0.27429244E+03</pdfrwt>
<totfact> 0.25456255E+03</totfact>
</mgrwt>
</event>
<event>
 4    1  0.1762274E-004  0.3458694E+03  0.7818608E-02  0.1064323E+00
          1   -1    0    0  501    0  0.00000000000E+00  0.00000000000E+00  0.23139433179E+04  0.23139433179E+04  0.00000000000E+00 0. -1.
         -1   -1    0    0    0  501 -0.00000000000E+00 -0.00000000000E+00 -0.12924436027E+02  0.12924436027E+02  0.00000000000E+00 0. -1.
         25    1    1    2    0    0 -0.82722602208E+02 -0.28123101316E+02  0.17474281373E+04  0.17537214810E+04  0.12000000000E+03 0.  0.
         25    1    1    2    0    0  0.82722602208E+02  0.28123101316E+02  0.55359074461E+03  0.57314627301E+03  0.12000000000E+03 0.  0.
<mgrwt>
<rscale>  0 0.34586941E+03</rscale>
<asrwt>0</asrwt>
<pdfrwt beam="1">  1        1 0.35599095E+00 0.34586941E+03</pdfrwt>
<pdfrwt beam="2">  1       -1 0.19883766E-02 0.34586941E+03</pdfrwt>
<totfact> 0.14470660E+03</totfact>
</mgrwt>
</event>
<event>
 4    1  0.1762274E-004  0.2984230E+03  0.7818608E-02  0.1086032E+00
          1   -1    0    0  501    0  0.00000000000E+00  0.00000000000E+00  0.33934174530E+03  0.33934174530E+03  0.00000000000E+00 0. -1.
         -1   -1    0    0    0  501 -0.00000000000E+00 -0.00000000000E+00 -0.65609594914E+02  0.65609594914E+02  0.00000000000E+00 0. -1.
         25    1    1    2    0    0  0.26878801334E+02  0.43757311430E+02  0.38760721348E+02  0.13616007412E+03  0.12000000000E+03 0.  0.
         25    1    1    2    0    0 -0.26878801334E+02 -0.43757311430E+02  0.23497142904E+03  0.26879126610E+03  0.12000000000E+03 0.  0.
<mgrwt>
<rscale>  0 0.29842302E+03</rscale>
<asrwt>0</asrwt>
<pdfrwt beam="1">  1        1 0.52206421E-01 0.29842302E+03</pdfrwt>
<pdfrwt beam="2">  1       -1 0.10093784E-01 0.29842302E+03</pdfrwt>
<totfact> 0.44875204E+03</totfact>
</mgrwt>
</event>
<event>
 4    1  0.1762274E-004  0.2662614E+03  0.7818608E-02  0.1103439E+00
         -1   -1    0    0    0  501 -0.00000000000E+00  0.00000000000E+00  0.44633010913E+02  0.44633010913E+02  0.00000000000E+00 0.  1.
          1   -1    0    0  501    0  0.00000000000E+00 -0.00000000000E+00 -0.39710042658E+03  0.39710042658E+03  0.00000000000E+00 0.  1.
         25    1    1    2    0    0  0.55121207548E+02  0.11069032780E+02 -0.19740926106E+03  0.23776309083E+03  0.12000000000E+03 0.  0.
         25    1    1    2    0    0 -0.55121207548E+02 -0.11069032780E+02 -0.15505815460E+03  0.20397034666E+03  0.12000000000E+03 0.  0.
<mgrwt>
<rscale>  0 0.26626143E+03</rscale>
<asrwt>0</asrwt>
<pdfrwt beam="1">  1        1 0.61092371E-01 0.26626143E+03</pdfrwt>
<pdfrwt beam="2">  1       -1 0.68666173E-02 0.26626143E+03</pdfrwt>
<totfact> 0.66051281E+03</totfact>
</mgrwt>
</event>
<event>
 4    1  0.1762274E-004  0.3164961E+03  0.7818608E-02  0.1077273E+00
         -1   -1    0    0    0  501 -0.00000000000E+00  0.00000000000E+00  0.16617509357E+03  0.16617509357E+03  0.00000000000E+00 0. -1.
          1   -1    0    0  501    0  0.00000000000E+00 -0.00000000000E+00 -0.15069919177E+03  0.15069919177E+03  0.00000000000E+00 0. -1.
         25    1    1    2    0    0 -0.38371147444E+01 -0.48317369273E+02  0.98913547485E+02  0.16289009024E+03  0.12000000000E+03 0.  0.
         25    1    1    2    0    0  0.38371147444E+01  0.48317369273E+02 -0.83437645689E+02  0.15398419510E+03  0.12000000000E+03 0.  0.
<mgrwt>
<rscale>  0 0.31649614E+03</rscale>
<asrwt>0</asrwt>
<pdfrwt beam="1">  1        1 0.23184491E-01 0.31649614E+03</pdfrwt>
<pdfrwt beam="2">  1       -1 0.25565399E-01 0.31649614E+03</pdfrwt>
<totfact> 0.28287051E+03</totfact>
</mgrwt>
</event>
<event>
 4    1  0.1762274E-004  0.6519235E+03  0.7818608E-02  0.9803177E-01
         -2   -1    0    0    0  501 -0.00000000000E+00  0.00000000000E+00  0.11519592428E+03  0.11519592428E+03  0.00000000000E+00 0.  1.
          2   -1    0    0  501    0  0.00000000000E+00 -0.00000000000E+00 -0.92235096224E+03  0.92235096224E+03  0.00000000000E+00 0.  1.
         25    1    1    2    0    0  0.10412384684E+03 -0.27965678969E+03 -0.31934170316E+03  0.45324256075E+03  0.12000000000E+03 0.  0.
         25    1    1    2    0    0 -0.10412384684E+03  0.27965678969E+03 -0.48781333480E+03  0.58430432577E+03  0.12000000000E+03 0.  0.
<mgrwt>
<rscale>  0 0.65192353E+03</rscale>
<asrwt>0</asrwt>
<pdfrwt beam="1">  1        2 0.14190015E+00 0.65192353E+03</pdfrwt>
<pdfrwt beam="2">  1       -2 0.17722449E-01 0.65192353E+03</pdfrwt>
<totfact> 0.75113204E+02</totfact>
</mgrwt>
</event>
<event>
 4    1  0.1762274E-004  0.2727300E+03  0.7818608E-02  0.1099727E+00
          1   -1    0    0  501    0  0.00000000000E+00  0.00000000000E+00  0.88696454050E+03  0.88696454050E+03  0.00000000000E+00 0.  1.
         -1   -1    0    0    0  501 -0.00000000000E+00 -0.00000000000E+00 -0.20965226847E+02  0.20965226847E+02  0.00000000000E+00 0.  1.
         25    1    1    2    0    0  0.28366950108E+02  0.82517450886E+01  0.62489341039E+03  0.63699650667E+03  0.12000000000E+03 0.  0.
         25    1    1    2    0    0 -0.28366950108E+02 -0.82517450886E+01  0.24110590326E+03  0.27093326068E+03  0.12000000000E+03 0.  0.
<mgrwt>
<rscale>  0 0.27273000E+03</rscale>
<asrwt>0</asrwt>
<pdfrwt beam="1">  1        1 0.13645605E+00 0.27273000E+03</pdfrwt>
<pdfrwt beam="2">  1       -1 0.32254202E-02 0.27273000E+03</pdfrwt>
<totfact> 0.66156161E+03</totfact>
</mgrwt>
</event>
<event>
 4    1  0.1762274E-004  0.2641079E+03  0.7818608E-02  0.1104700E+00
         -2   -1    0    0    0  501 -0.00000000000E+00  0.00000000000E+00  0.36580216987E+03  0.36580216987E+03  0.00000000000E+00 0. -1.
          2   -1    0    0  501    0  0.00000000000E+00 -0.00000000000E+00 -0.47671257333E+02  0.47671257333E+02  0.00000000000E+00 0. -1.
         25    1    1    2    0    0  0.12037121239E+01 -0.36938388246E+02  0.95043266744E+02  0.15747735076E+03  0.12000000000E+03 0.  0.
         25    1    1    2    0    0 -0.12037121239E+01  0.36938388246E+02  0.22308764579E+03  0.25599607644E+03  0.12000000000E+03 0.  0.
<mgrwt>
<rscale>  0 0.26410793E+03</rscale>
<asrwt>0</asrwt>
<pdfrwt beam="1">  1        2 0.73340398E-02 0.26410793E+03</pdfrwt>
<pdfrwt beam="2">  1       -2 0.56277255E-01 0.26410793E+03</pdfrwt>
<totfact> 0.28567747E+03</totfact>
</mgrwt>
</event>
<event>
 4    1  0.1762274E-004  0.2536903E+03  0.7818608E-02  0.1110995E+00
         -1   -1    0    0    0  501 -0.00000000000E+00  0.00000000000E+00  0.19690218814E+03  0.19690218814E+03  0.00000000000E+00 0. -1.
          1   -1    0    0  501    0  0.00000000000E+00 -0.00000000000E+00 -0.81714123757E+02  0.81714123757E+02  0.00000000000E+00 0. -1.
         25    1    1    2    0    0  0.14279974324E+02 -0.14045281810E+02  0.18171430326E+02  0.12300970892E+03  0.12000000000E+03 0.  0.
         25    1    1    2    0    0 -0.14279974324E+02  0.14045281810E+02  0.97016634061E+02  0.15560660298E+03  0.12000000000E+03 0.  0.
<mgrwt>
<rscale>  0 0.25369028E+03</rscale>
<asrwt>0</asrwt>
<pdfrwt beam="1">  1        1 0.12571404E-01 0.25369028E+03</pdfrwt>
<pdfrwt beam="2">  1       -1 0.30292644E-01 0.25369028E+03</pdfrwt>
<totfact> 0.46892317E+03</totfact>
</mgrwt>
</event>
<event>
 4    1  0.1762274E-004  0.3007199E+03  0.7818608E-02  0.1084881E+00
          1   -1    0    0  501    0  0.00000000000E+00  0.00000000000E+00  0.79419919211E+02  0.79419919211E+02  0.00000000000E+00 0.  1.
         -1   -1    0    0    0  501 -0.00000000000E+00 -0.00000000000E+00 -0.28466551249E+03  0.28466551249E+03  0.00000000000E+00 0.  1.
         25    1    1    2    0    0  0.32919174160E+02  0.77374252796E+02 -0.14345928164E+03  0.20506343533E+03  0.12000000000E+03 0.  0.
         25    1    1    2    0    0 -0.32919174160E+02 -0.77374252796E+02 -0.61786311645E+02  0.15902199637E+03  0.12000000000E+03 0.  0.
<mgrwt>
<rscale>  0 0.30071988E+03</rscale>
<asrwt>0</asrwt>
<pdfrwt beam="1">  1        1 0.12218449E-01 0.30071988E+03</pdfrwt>
<pdfrwt beam="2">  1       -1 0.43794694E-01 0.30071988E+03</pdfrwt>
<totfact> 0.25663095E+03</totfact>
</mgrwt>
</event>
<event>
 4    1  0.1762274E-004  0.2633477E+03  0.7818608E-02  0.1105148E+00
          2   -1    0    0  501    0  0.00000000000E+00  0.00000000000E+00  0.32203425277E+03  0.32203425277E+03  0.00000000000E+00 0. -1.
         -2   -1    0    0    0  501 -0.00000000000E+00 -0.00000000000E+00 -0.53839000557E+02  0.53839000557E+02  0.00000000000E+00 0. -1.
         25    1    1    2    0    0  0.52419415291E+02 -0.43031690055E+01  0.11539578610E+03  0.17459238188E+03  0.12000000000E+03 0.  0.
         25    1    1    2    0    0 -0.52419415291E+02  0.43031690055E+01  0.15279946611E+03  0.20128087144E+03  0.12000000000E+03 0.  0.
<mgrwt>
<rscale>  0 0.26334770E+03</rscale>
<asrwt>0</asrwt>
<pdfrwt beam="1">  1        2 0.49543730E-01 0.26334770E+03</pdfrwt>
<pdfrwt beam="2">  1       -2 0.82829233E-02 0.26334770E+03</pdfrwt>
<totfact> 0.89687986E+03</totfact>
</mgrwt>
</event>
<event>
 4    1  0.1762274E-004  0.2742391E+03  0.7818608E-02  0.1098878E+00
         -2   -1    0    0    0  501 -0.00000000000E+00  0.00000000000E+00  0.84138339915E+01  0.84138339915E+01  0.00000000000E+00 0. -1.
          2   -1    0    0  501    0  0.00000000000E+00 -0.00000000000E+00 -0.22346259093E+04  0.22346259093E+04  0.00000000000E+00 0. -1.
         25    1    1    2    0    0  0.66031757318E+02  0.20680864850E+01 -0.10631519989E+04  0.10719405966E+04  0.12000000000E+03 0.  0.
         25    1    1    2    0    0 -0.66031757318E+02 -0.20680864850E+01 -0.11630600764E+04  0.11710991466E+04  0.12000000000E+03 0.  0.
<mgrwt>
<rscale>  0 0.27423910E+03</rscale>
<asrwt>0</asrwt>
<pdfrwt beam="1">  1        2 0.34378838E+00 0.27423910E+03</pdfrwt>
<pdfrwt beam="2">  1       -2 0.12944368E-02 0.27423910E+03</pdfrwt>
<totfact> 0.81679083E+03</totfact>
</mgrwt>
</event>
<event>
 4    1  0.1762274E-004  0.2592138E+03  0.7818608E-02  0.1107617E+00
          2   -1    0    0  501    0  0.00000000000E+00  0.00000000000E+00  0.13031473141E+03  0.13031473141E+03  0.00000000000E+00 0.  1.
         -2   -1    0    0    0  501 -0.00000000000E+00 -0.00000000000E+00 -0.12890289021E+03  0.12890289021E+03  0.00000000000E+00 0.  1.
         25    1    1    2    0    0  0.19287257042E+02  0.96669214844E+01  0.44666757601E+02  0.12984824562E+03  0.12000000000E+03 0.  0.
         25    1    1    2    0    0 -0.19287257042E+02 -0.96669214844E+01 -0.43254916397E+02  0.12936937600E+03  0.12000000000E+03 0.  0.
<mgrwt>
<rscale>  0 0.25921378E+03</rscale>
<asrwt>0</asrwt>
<pdfrwt beam="1">  1        2 0.20048420E-01 0.25921378E+03</pdfrwt>
<pdfrwt beam="2">  1       -2 0.19831214E-01 0.25921378E+03</pdfrwt>
<totfact> 0.58428310E+03</totfact>
</mgrwt>
</event>
<event>
 4    1  0.1762274E-004  0.2791764E+03  0.7818608E-02  0.1096140E+00
          1   -1    0    0  501    0  0.00000000000E+00  0.00000000000E+00  0.21870299220E+03  0.21870299220E+03  0.00000000000E+00 0. -1.
         -1   -1    0    0    0  501 -0.00000000000E+00 -0.00000000000E+00 -0.89092820457E+02  0.89092820457E+02  0.00000000000E+00 0. -1.
         25    1    1    2    0    0 -0.61088322081E+02  0.30295337668E+02  0.41803050044E+02  0.14421194670E+03  0.12000000000E+03 0.  0.
         25    1    1    2    0    0  0.61088322081E+02 -0.30295337668E+02  0.87807121700E+02  0.16358386595E+03  0.12000000000E+03 0.  0.
<mgrwt>
<rscale>  0 0.27917641E+03</rscale>
<asrwt>0</asrwt>
<pdfrwt beam="1">  1        1 0.33646614E-01 0.27917641E+03</pdfrwt>
<pdfrwt beam="2">  1       -1 0.13706588E-01 0.27917641E+03</pdfrwt>
<totfact> 0.48288231E+03</totfact>
</mgrwt>
</event>
<event>
 4    1  0.1762274E-004  0.4737377E+03  0.7818608E-02  0.1020871E+00
          2   -1    0    0  501    0  0.00000000000E+00  0.00000000000E+00  0.76736216588E+03  0.76736216588E+03  0.00000000000E+00 0.  1.
         -2   -1    0    0    0  501 -0.00000000000E+00 -0.00000000000E+00 -0.73116515276E+02  0.73116515276E+02  0.00000000000E+00 0.  1.
         25    1    1    2    0    0 -0.10915542502E+03  0.12917230425E+03  0.55023287767E+03  0.58801072326E+03  0.12000000000E+03 0.  0.
         25    1    1    2    0    0  0.10915542502E+03 -0.12917230425E+03  0.14401277293E+03  0.25246795790E+03  0.12000000000E+03 0.  0.
<mgrwt>
<rscale>  0 0.47373768E+03</rscale>
<asrwt>0</asrwt>
<pdfrwt beam="1">  1        2 0.11805571E+00 0.47373768E+03</pdfrwt>
<pdfrwt beam="2">  1       -2 0.11248695E-01 0.47373768E+03</pdfrwt>
<totfact> 0.20613090E+03</totfact>
</mgrwt>
</event>
<event>
 4    1  0.1762274E-004  0.9510721E+03  0.7818608E-02  0.9363898E-01
         -3   -1    0    0    0  501 -0.00000000000E+00  0.00000000000E+00  0.10739621986E+04  0.10739621986E+04  0.00000000000E+00 0. -1.
          3   -1    0    0  501    0  0.00000000000E+00 -0.00000000000E+00 -0.21056098909E+03  0.21056098909E+03  0.00000000000E+00 0. -1.
         25    1    1    2    0    0  0.40979574319E+02  0.13872498114E+03 -0.15826914500E+03  0.24570931639E+03  0.12000000000E+03 0.  0.
         25    1    1    2    0    0 -0.40979574319E+02 -0.13872498114E+03  0.10216703545E+04  0.10388138713E+04  0.12000000000E+03 0.  0.
<mgrwt>
<rscale>  0 0.95107212E+03</rscale>
<asrwt>0</asrwt>
<pdfrwt beam="1">  1        3 0.32393999E-01 0.95107212E+03</pdfrwt>
<pdfrwt beam="2">  1       -3 0.16522495E+00 0.95107212E+03</pdfrwt>
<totfact> 0.61425694E+00</totfact>
</mgrwt>
</event>
<event>
 4    1  0.1762274E-004  0.3766608E+03  0.7818608E-02  0.1052175E+00
         -2   -1    0    0    0  501 -0.00000000000E+00  0.00000000000E+00  0.14328721672E+02  0.14328721672E+02  0.00000000000E+00 0.  1.
          2   -1    0    0  501    0  0.00000000000E+00 -0.00000000000E+00 -0.24753323821E+04  0.24753323821E+04  0.00000000000E+00 0.  1.
         25    1    1    2    0    0 -0.30049981438E+02 -0.13389830301E+03 -0.91790604407E+03  0.93583292455E+03  0.12000000000E+03 0.  0.
         25    1    1    2    0    0  0.30049981438E+02  0.13389830301E+03 -0.15430976163E+04  0.15538281792E+04  0.12000000000E+03 0.  0.
<mgrwt>
<rscale>  0 0.37666085E+03</rscale>
<asrwt>0</asrwt>
<pdfrwt beam="1">  1        2 0.38082011E+00 0.37666085E+03</pdfrwt>
<pdfrwt beam="2">  1       -2 0.22044202E-02 0.37666085E+03</pdfrwt>
<totfact> 0.27502298E+03</totfact>
</mgrwt>
</event>
<event>
 4    1  0.1762274E-004  0.2515963E+03  0.7818608E-02  0.1112300E+00
         -2   -1    0    0    0  501 -0.00000000000E+00  0.00000000000E+00  0.72568374649E+01  0.72568374649E+01  0.00000000000E+00 0.  1.
          2   -1    0    0  501    0  0.00000000000E+00 -0.00000000000E+00 -0.21807269049E+04  0.21807269049E+04  0.00000000000E+00 0.  1.
         25    1    1    2    0    0  0.16239896438E+02 -0.34008820185E+02 -0.10675898676E+04  0.10749737018E+04  0.12000000000E+03 0.  0.
         25    1    1    2    0    0 -0.16239896438E+02  0.34008820185E+02 -0.11058801998E+04  0.11130100406E+04  0.12000000000E+03 0.  0.
<mgrwt>
<rscale>  0 0.25159635E+03</rscale>
<asrwt>0</asrwt>
<pdfrwt beam="1">  1        2 0.33549668E+00 0.25159635E+03</pdfrwt>
<pdfrwt beam="2">  1       -2 0.11164358E-02 0.25159635E+03</pdfrwt>
<totfact> 0.10813192E+04</totfact>
</mgrwt>
</event>
<event>
 4    1  0.1762274E-004  0.5047796E+03  0.7818608E-02  0.1012539E+00
         -1   -1    0    0    0  501 -0.00000000000E+00  0.00000000000E+00  0.74204723603E+03  0.74204723603E+03  0.00000000000E+00 0.  1.
          1   -1    0    0  501    0  0.00000000000E+00 -0.00000000000E+00 -0.85844409146E+02  0.85844409146E+02  0.00000000000E+00 0.  1.
         25    1    1    2    0    0  0.21088686156E+03  0.98756053194E+01  0.21530544059E+03  0.32454156699E+03  0.12000000000E+03 0.  0.
         25    1    1    2    0    0 -0.21088686156E+03 -0.98756053194E+01  0.44089738630E+03  0.50335007818E+03  0.12000000000E+03 0.  0.
<mgrwt>
<rscale>  0 0.50477958E+03</rscale>
<asrwt>0</asrwt>
<pdfrwt beam="1">  1        1 0.13206833E-01 0.50477958E+03</pdfrwt>
<pdfrwt beam="2">  1       -1 0.11416111E+00 0.50477958E+03</pdfrwt>
<totfact> 0.32638870E+02</totfact>
</mgrwt>
</event>
<event>
 4    1  0.1762274E-004  0.2526828E+03  0.7818608E-02  0.1111621E+00
         -1   -1    0    0    0  501 -0.00000000000E+00  0.00000000000E+00  0.12218835995E+02  0.12218835995E+02  0.00000000000E+00 0.  1.
          1   -1    0    0  501    0  0.00000000000E+00 -0.00000000000E+00 -0.13063562648E+04  0.13063562648E+04  0.00000000000E+00 0.  1.
         25    1    1    2    0    0  0.25622887350E+02  0.28551060543E+02 -0.59743788680E+03  0.61057655048E+03  0.12000000000E+03 0.  0.
         25    1    1    2    0    0 -0.25622887350E+02 -0.28551060543E+02 -0.69669954201E+03  0.70799855032E+03  0.12000000000E+03 0.  0.
<mgrwt>
<rscale>  0 0.25268283E+03</rscale>
<asrwt>0</asrwt>
<pdfrwt beam="1">  1        1 0.20097784E+00 0.25268283E+03</pdfrwt>
<pdfrwt beam="2">  1       -1 0.18798213E-02 0.25268283E+03</pdfrwt>
<totfact> 0.72371153E+03</totfact>
</mgrwt>
</event>
<event>
 4    1  0.1762274E-004  0.4679341E+03  0.7818608E-02  0.1022505E+00
         -1   -1    0    0    0  501 -0.00000000000E+00  0.00000000000E+00  0.19251519444E+03  0.19251519444E+03  0.00000000000E+00 0. -1.
          1   -1    0    0  501    0  0.00000000000E+00 -0.00000000000E+00 -0.28434421782E+03  0.28434421782E+03  0.00000000000E+00 0. -1.
         25    1    1    2    0    0 -0.54777682669E+02 -0.19008671086E+03 -0.10509501126E+02  0.23161174793E+03  0.12000000000E+03 0.  0.
         25    1    1    2    0    0  0.54777682669E+02  0.19008671086E+03 -0.81319522251E+02  0.24524766434E+03  0.12000000000E+03 0.  0.
<mgrwt>
<rscale>  0 0.46793411E+03</rscale>
<asrwt>0</asrwt>
<pdfrwt beam="1">  1        1 0.43745264E-01 0.46793411E+03</pdfrwt>
<pdfrwt beam="2">  1       -1 0.29617722E-01 0.46793411E+03</pdfrwt>
<totfact> 0.98327603E+02</totfact>
</mgrwt>
</event>
<event>
 4    1  0.1762274E-004  0.2502777E+03  0.7818608E-02  0.1113129E+00
          1   -1    0    0  501    0  0.00000000000E+00  0.00000000000E+00  0.65944890874E+03  0.65944890874E+03  0.00000000000E+00 0. -1.
         -1   -1    0    0    0  501 -0.00000000000E+00 -0.00000000000E+00 -0.23746692531E+02  0.23746692531E+02  0.00000000000E+00 0. -1.
         25    1    1    2    0    0  0.32900083177E+02 -0.41391291603E+01  0.35239972062E+03  0.37374471361E+03  0.12000000000E+03 0.  0.
         25    1    1    2    0    0 -0.32900083177E+02  0.41391291603E+01  0.28330249559E+03  0.30945088766E+03  0.12000000000E+03 0.  0.
<mgrwt>
<rscale>  0 0.25027769E+03</rscale>
<asrwt>0</asrwt>
<pdfrwt beam="1">  1        1 0.10145366E+00 0.25027769E+03</pdfrwt>
<pdfrwt beam="2">  1       -1 0.36533378E-02 0.25027769E+03</pdfrwt>
<totfact> 0.85916374E+03</totfact>
</mgrwt>
</event>
<event>
 4    1  0.1762274E-004  0.2609222E+03  0.7818608E-02  0.1106590E+00
          2   -1    0    0  501    0  0.00000000000E+00  0.00000000000E+00  0.18727102515E+04  0.18727102515E+04  0.00000000000E+00 0. -1.
         -2   -1    0    0    0  501 -0.00000000000E+00 -0.00000000000E+00 -0.90884847023E+01  0.90884847023E+01  0.00000000000E+00 0. -1.
         25    1    1    2    0    0  0.23962773431E+02  0.43383723887E+02  0.10240966758E+04  0.10322937389E+04  0.12000000000E+03 0.  0.
         25    1    1    2    0    0 -0.23962773431E+02 -0.43383723887E+02  0.83952509095E+03  0.84950499724E+03  0.12000000000E+03 0.  0.
<mgrwt>
<rscale>  0 0.26092220E+03</rscale>
<asrwt>0</asrwt>
<pdfrwt beam="1">  1        2 0.28810896E+00 0.26092220E+03</pdfrwt>
<pdfrwt beam="2">  1       -2 0.13982299E-02 0.26092220E+03</pdfrwt>
<totfact> 0.11320703E+04</totfact>
</mgrwt>
</event>
<event>
 4    1  0.1762274E-004  0.2962081E+03  0.7818608E-02  0.1087152E+00
         -2   -1    0    0    0  501 -0.00000000000E+00  0.00000000000E+00  0.58482548229E+02  0.58482548229E+02  0.00000000000E+00 0. -1.
          2   -1    0    0  501    0  0.00000000000E+00 -0.00000000000E+00 -0.37506582779E+03  0.37506582779E+03  0.00000000000E+00 0. -1.
         25    1    1    2    0    0 -0.82075266213E+02 -0.28256746607E+02 -0.15845403571E+03  0.21689277186E+03  0.12000000000E+03 0.  0.
         25    1    1    2    0    0  0.82075266213E+02  0.28256746607E+02 -0.15812924386E+03  0.21665560416E+03  0.12000000000E+03 0.  0.
<mgrwt>
<rscale>  0 0.29620807E+03</rscale>
<asrwt>0</asrwt>
<pdfrwt beam="1">  1        2 0.57702434E-01 0.29620807E+03</pdfrwt>
<pdfrwt beam="2">  1       -2 0.89973153E-02 0.29620807E+03</pdfrwt>
<totfact> 0.67086948E+03</totfact>
</mgrwt>
</event>
<event>
 4    1  0.1762274E-004  0.2443999E+03  0.7818608E-02  0.1116896E+00
          2   -1    0    0  501    0  0.00000000000E+00  0.00000000000E+00  0.26841152062E+04  0.26841152062E+04  0.00000000000E+00 0. -1.
         -2   -1    0    0    0  501 -0.00000000000E+00 -0.00000000000E+00 -0.55634083099E+01  0.55634083099E+01  0.00000000000E+00 0. -1.
         25    1    1    2    0    0 -0.47540462417E+01 -0.10906352839E+02  0.11215837244E+04  0.11280476942E+04  0.12000000000E+03 0.  0.
         25    1    1    2    0    0  0.47540462417E+01  0.10906352839E+02  0.15569680734E+04  0.15616309203E+04  0.12000000000E+03 0.  0.
<mgrwt>
<rscale>  0 0.24439991E+03</rscale>
<asrwt>0</asrwt>
<pdfrwt beam="1">  1        2 0.41293977E+00 0.24439991E+03</pdfrwt>
<pdfrwt beam="2">  1       -2 0.85591112E-03 0.24439991E+03</pdfrwt>
<totfact> 0.84697586E+03</totfact>
</mgrwt>
</event>
<event>
 4    1  0.1762274E-004  0.3328649E+03  0.7818608E-02  0.1069876E+00
         -2   -1    0    0    0  501 -0.00000000000E+00  0.00000000000E+00  0.35935311708E+02  0.35935311708E+02  0.00000000000E+00 0. -1.
          2   -1    0    0  501    0  0.00000000000E+00 -0.00000000000E+00 -0.77082277663E+03  0.77082277663E+03  0.00000000000E+00 0. -1.
         25    1    1    2    0    0 -0.68080759605E+02  0.80300538350E+02 -0.48155225574E+03  0.50732212774E+03  0.12000000000E+03 0.  0.
         25    1    1    2    0    0  0.68080759605E+02 -0.80300538350E+02 -0.25333520918E+03  0.29943596060E+03  0.12000000000E+03 0.  0.
<mgrwt>
<rscale>  0 0.33286488E+03</rscale>
<asrwt>0</asrwt>
<pdfrwt beam="1">  1        2 0.11858811E+00 0.33286488E+03</pdfrwt>
<pdfrwt beam="2">  1       -2 0.55285100E-02 0.33286488E+03</pdfrwt>
<totfact> 0.62647063E+03</totfact>
</mgrwt>
</event>
<event>
 4    1  0.1762274E-004  0.2739777E+03  0.7818608E-02  0.1099024E+00
         -1   -1    0    0    0  501 -0.00000000000E+00  0.00000000000E+00  0.26587961963E+02  0.26587961963E+02  0.00000000000E+00 0.  1.
          1   -1    0    0  501    0  0.00000000000E+00 -0.00000000000E+00 -0.70580602674E+03  0.70580602674E+03  0.00000000000E+00 0.  1.
         25    1    1    2    0    0 -0.60975228605E+02  0.93392504058E+01 -0.27630785796E+03  0.30749184131E+03  0.12000000000E+03 0.  0.
         25    1    1    2    0    0  0.60975228605E+02 -0.93392504058E+01 -0.40291020682E+03  0.42490214739E+03  0.12000000000E+03 0.  0.
<mgrwt>
<rscale>  0 0.27397769E+03</rscale>
<asrwt>0</asrwt>
<pdfrwt beam="1">  1        1 0.10858553E+00 0.27397769E+03</pdfrwt>
<pdfrwt beam="2">  1       -1 0.40904560E-02 0.27397769E+03</pdfrwt>
<totfact> 0.66048258E+03</totfact>
</mgrwt>
</event>
<event>
 4    1  0.1762274E-004  0.2475925E+03  0.7818608E-02  0.1114836E+00
         -4   -1    0    0    0  501 -0.00000000000E+00  0.00000000000E+00  0.11528628067E+04  0.11528628067E+04  0.00000000000E+00 0.  1.
          4   -1    0    0  501    0  0.00000000000E+00 -0.00000000000E+00 -0.13293442048E+02  0.13293442048E+02  0.00000000000E+00 0.  1.
         25    1    1    2    0    0  0.16914712481E+02  0.22561465623E+02  0.62356674937E+03  0.63563402847E+03  0.12000000000E+03 0.  0.
         25    1    1    2    0    0 -0.16914712481E+02 -0.22561465623E+02  0.51600261527E+03  0.53052222027E+03  0.12000000000E+03 0.  0.
<mgrwt>
<rscale>  0 0.24759253E+03</rscale>
<asrwt>0</asrwt>
<pdfrwt beam="1">  1        4 0.20451458E-02 0.24759253E+03</pdfrwt>
<pdfrwt beam="2">  1       -4 0.17736343E+00 0.24759253E+03</pdfrwt>
<totfact> 0.36740108E+02</totfact>
</mgrwt>
</event>
<event>
 4    1  0.1762274E-004  0.2768935E+03  0.7818608E-02  0.1097398E+00
         -1   -1    0    0    0  501 -0.00000000000E+00  0.00000000000E+00  0.47272106912E+02  0.47272106912E+02  0.00000000000E+00 0. -1.
          1   -1    0    0  501    0  0.00000000000E+00 -0.00000000000E+00 -0.40547184307E+03  0.40547184307E+03  0.00000000000E+00 0. -1.
         25    1    1    2    0    0  0.24296696696E+02  0.52924081901E+02 -0.23975727288E+03  0.27436260280E+03  0.12000000000E+03 0.  0.
         25    1    1    2    0    0 -0.24296696696E+02 -0.52924081901E+02 -0.11844246327E+03  0.17838134718E+03  0.12000000000E+03 0.  0.
<mgrwt>
<rscale>  0 0.27689354E+03</rscale>
<asrwt>0</asrwt>
<pdfrwt beam="1">  1        1 0.62380287E-01 0.27689354E+03</pdfrwt>
<pdfrwt beam="2">  1       -1 0.72726315E-02 0.27689354E+03</pdfrwt>
<totfact> 0.59011200E+03</totfact>
</mgrwt>
</event>
<event>
 4    1  0.1762274E-004  0.2483990E+03  0.7818608E-02  0.1114321E+00
          2   -1    0    0  501    0  0.00000000000E+00  0.00000000000E+00  0.20797189484E+04  0.20797189484E+04  0.00000000000E+00 0.  1.
         -2   -1    0    0    0  501 -0.00000000000E+00 -0.00000000000E+00 -0.74171149540E+01  0.74171149540E+01  0.00000000000E+00 0.  1.
         25    1    1    2    0    0 -0.14134455541E+02 -0.12984677873E+02  0.82076042642E+03  0.82970842003E+03  0.12000000000E+03 0.  0.
         25    1    1    2    0    0  0.14134455541E+02  0.12984677873E+02  0.12515414070E+04  0.12574276433E+04  0.12000000000E+03 0.  0.
<mgrwt>
<rscale>  0 0.24839899E+03</rscale>
<asrwt>0</asrwt>
<pdfrwt beam="1">  1        2 0.31995630E+00 0.24839899E+03</pdfrwt>
<pdfrwt beam="2">  1       -2 0.11410963E-02 0.24839899E+03</pdfrwt>
<totfact> 0.11841010E+04</totfact>
</mgrwt>
</event>
<event>
 4    1  0.1762274E-004  0.3344303E+03  0.7818608E-02  0.1069193E+00
          1   -1    0    0  501    0  0.00000000000E+00  0.00000000000E+00  0.16106140577E+03  0.16106140577E+03  0.00000000000E+00 0. -1.
         -1   -1    0    0    0  501 -0.00000000000E+00 -0.00000000000E+00 -0.17360396224E+03  0.17360396224E+03  0.00000000000E+00 0. -1.
         25    1    1    2    0    0 -0.16519585521E+02 -0.11251378312E+03  0.18819244802E+02  0.16639234380E+03  0.12000000000E+03 0.  0.
         25    1    1    2    0    0  0.16519585521E+02  0.11251378312E+03 -0.31361801274E+02  0.16827302421E+03  0.12000000000E+03 0.  0.
<mgrwt>
<rscale>  0 0.33443025E+03</rscale>
<asrwt>0</asrwt>
<pdfrwt beam="1">  1        1 0.24778678E-01 0.33443025E+03</pdfrwt>
<pdfrwt beam="2">  1       -1 0.26708302E-01 0.33443025E+03</pdfrwt>
<totfact> 0.24160231E+03</totfact>
</mgrwt>
</event>
<event>
 4    1  0.1762274E-004  0.2435777E+03  0.7818608E-02  0.1117432E+00
         -1   -1    0    0    0  501 -0.00000000000E+00  0.00000000000E+00  0.48010298747E+02  0.48010298747E+02  0.00000000000E+00 0.  1.
          1   -1    0    0  501    0  0.00000000000E+00 -0.00000000000E+00 -0.30894450798E+03  0.30894450798E+03  0.00000000000E+00 0.  1.
         25    1    1    2    0    0 -0.12644539780E+02  0.83652572194E+01 -0.15132909556E+03  0.19372753309E+03  0.12000000000E+03 0.  0.
         25    1    1    2    0    0  0.12644539780E+02 -0.83652572194E+01 -0.10960511367E+03  0.16322727363E+03  0.12000000000E+03 0.  0.
<mgrwt>
<rscale>  0 0.24357765E+03</rscale>
<asrwt>0</asrwt>
<pdfrwt beam="1">  1        1 0.47529923E-01 0.24357765E+03</pdfrwt>
<pdfrwt beam="2">  1       -1 0.73861999E-02 0.24357765E+03</pdfrwt>
<totfact> 0.80981454E+03</totfact>
</mgrwt>
</event>
<event>
 4    1  0.1762274E-004  0.2670858E+03  0.7818608E-02  0.1102959E+00
         -3   -1    0    0    0  501 -0.00000000000E+00  0.00000000000E+00  0.24953952788E+02  0.24953952788E+02  0.00000000000E+00 0.  1.
          3   -1    0    0  501    0  0.00000000000E+00 -0.00000000000E+00 -0.71466446329E+03  0.71466446329E+03  0.00000000000E+00 0.  1.
         25    1    1    2    0    0  0.18936450002E+02  0.15249684830E+01 -0.49836052688E+03  0.51295626463E+03  0.12000000000E+03 0.  0.
         25    1    1    2    0    0 -0.18936450002E+02 -0.15249684830E+01 -0.19134998361E+03  0.22666215144E+03  0.12000000000E+03 0.  0.
<mgrwt>
<rscale>  0 0.26708578E+03</rscale>
<asrwt>0</asrwt>
<pdfrwt beam="1">  1        3 0.10994838E+00 0.26708578E+03</pdfrwt>
<pdfrwt beam="2">  1       -3 0.38390695E-02 0.26708578E+03</pdfrwt>
<totfact> 0.63816220E+02</totfact>
</mgrwt>
</event>
<event>
 4    1  0.1762274E-004  0.2734575E+03  0.7818608E-02  0.1099317E+00
         -3   -1    0    0    0  501 -0.00000000000E+00  0.00000000000E+00  0.12189435356E+02  0.12189435356E+02  0.00000000000E+00 0.  1.
          3   -1    0    0  501    0  0.00000000000E+00 -0.00000000000E+00 -0.15336849491E+04  0.15336849491E+04  0.00000000000E+00 0.  1.
         25    1    1    2    0    0 -0.43446322676E+02 -0.47984053585E+02 -0.81859200043E+03  0.82986921591E+03  0.12000000000E+03 0.  0.
         25    1    1    2    0    0  0.43446322676E+02  0.47984053585E+02 -0.70290351335E+03  0.71600516858E+03  0.12000000000E+03 0.  0.
<mgrwt>
<rscale>  0 0.27345752E+03</rscale>
<asrwt>0</asrwt>
<pdfrwt beam="1">  1        3 0.23595153E+00 0.27345752E+03</pdfrwt>
<pdfrwt beam="2">  1       -3 0.18752978E-02 0.27345752E+03</pdfrwt>
<totfact> 0.26373660E+02</totfact>
</mgrwt>
</event>
<event>
 4    1  0.1762274E-004  0.2736120E+03  0.7818608E-02  0.1099230E+00
          2   -1    0    0  501    0  0.00000000000E+00  0.00000000000E+00  0.20590111769E+03  0.20590111769E+03  0.00000000000E+00 0. -1.
         -2   -1    0    0    0  501 -0.00000000000E+00 -0.00000000000E+00 -0.90897457736E+02  0.90897457736E+02  0.00000000000E+00 0. -1.
         25    1    1    2    0    0  0.49983966037E+02 -0.62063908087E+00  0.10374171417E+03  0.16631634109E+03  0.12000000000E+03 0.  0.
         25    1    1    2    0    0 -0.49983966037E+02  0.62063908087E+00  0.11261945774E+02  0.13048223433E+03  0.12000000000E+03 0.  0.
<mgrwt>
<rscale>  0 0.27361205E+03</rscale>
<asrwt>0</asrwt>
<pdfrwt beam="1">  1        2 0.31677095E-01 0.27361205E+03</pdfrwt>
<pdfrwt beam="2">  1       -2 0.13984224E-01 0.27361205E+03</pdfrwt>
<totfact> 0.62998967E+03</totfact>
</mgrwt>
</event>
<event>
 4    1  0.1762274E-004  0.2516142E+03  0.7818608E-02  0.1112289E+00
          2   -1    0    0  501    0  0.00000000000E+00  0.00000000000E+00  0.11536622902E+04  0.11536622902E+04  0.00000000000E+00 0.  1.
         -2   -1    0    0    0  501 -0.00000000000E+00 -0.00000000000E+00 -0.13719285259E+02  0.13719285259E+02  0.00000000000E+00 0.  1.
         25    1    1    2    0    0  0.30257833883E+02  0.12949755634E+02  0.48389661302E+03  0.49963903448E+03  0.12000000000E+03 0.  0.
         25    1    1    2    0    0 -0.30257833883E+02 -0.12949755634E+02  0.65604639195E+03  0.66774254101E+03  0.12000000000E+03 0.  0.
<mgrwt>
<rscale>  0 0.25161417E+03</rscale>
<asrwt>0</asrwt>
<pdfrwt beam="1">  1        2 0.17748643E+00 0.25161417E+03</pdfrwt>
<pdfrwt beam="2">  1       -2 0.21106602E-02 0.25161417E+03</pdfrwt>
<totfact> 0.15089659E+04</totfact>
</mgrwt>
</event>
<event>
 4    1  0.1762274E-004  0.3292821E+03  0.7818608E-02  0.1071455E+00
         -2   -1    0    0    0  501 -0.00000000000E+00  0.00000000000E+00  0.14488793628E+03  0.14488793628E+03  0.00000000000E+00 0. -1.
          2   -1    0    0  501    0  0.00000000000E+00 -0.00000000000E+00 -0.18708719435E+03  0.18708719435E+03  0.00000000000E+00 0. -1.
         25    1    1    2    0    0  0.11073578763E+03  0.20967539581E+02 -0.23267825917E+02  0.16626317722E+03  0.12000000000E+03 0.  0.
         25    1    1    2    0    0 -0.11073578763E+03 -0.20967539581E+02 -0.18931432147E+02  0.16571195340E+03  0.12000000000E+03 0.  0.
<mgrwt>
<rscale>  0 0.32928211E+03</rscale>
<asrwt>0</asrwt>
<pdfrwt beam="1">  1        2 0.28782645E-01 0.32928211E+03</pdfrwt>
<pdfrwt beam="2">  1       -2 0.22290452E-01 0.32928211E+03</pdfrwt>
<totfact> 0.32030655E+03</totfact>
</mgrwt>
</event>
<event>
 4    1  0.1762274E-004  0.2465020E+03  0.7818608E-02  0.1115536E+00
         -2   -1    0    0    0  501 -0.00000000000E+00  0.00000000000E+00  0.75748009140E+01  0.75748009140E+01  0.00000000000E+00 0. -1.
          2   -1    0    0  501    0  0.00000000000E+00 -0.00000000000E+00 -0.20054402105E+04  0.20054402105E+04  0.00000000000E+00 0. -1.
         25    1    1    2    0    0 -0.27501161119E+01  0.24805570037E+02 -0.11047585754E+04  0.11115369491E+04  0.12000000000E+03 0.  0.
         25    1    1    2    0    0  0.27501161119E+01 -0.24805570037E+02 -0.89310683423E+03  0.90147806229E+03  0.12000000000E+03 0.  0.
<mgrwt>
<rscale>  0 0.24650201E+03</rscale>
<asrwt>0</asrwt>
<pdfrwt beam="1">  1        2 0.30852897E+00 0.24650201E+03</pdfrwt>
<pdfrwt beam="2">  1       -2 0.11653551E-02 0.24650201E+03</pdfrwt>
<totfact> 0.12561894E+04</totfact>
</mgrwt>
</event>
<event>
 4    1  0.1762274E-004  0.3615524E+03  0.7818608E-02  0.1057971E+00
         -2   -1    0    0    0  501 -0.00000000000E+00  0.00000000000E+00  0.26357563477E+02  0.26357563477E+02  0.00000000000E+00 0.  1.
          2   -1    0    0  501    0  0.00000000000E+00 -0.00000000000E+00 -0.12398733631E+04  0.12398733631E+04  0.00000000000E+00 0.  1.
         25    1    1    2    0    0 -0.23029688529E+02  0.11969775673E+03 -0.81163307047E+03  0.82946136776E+03  0.12000000000E+03 0.  0.
         25    1    1    2    0    0  0.23029688529E+02 -0.11969775673E+03 -0.40188272911E+03  0.43676955878E+03  0.12000000000E+03 0.  0.
<mgrwt>
<rscale>  0 0.36155244E+03</rscale>
<asrwt>0</asrwt>
<pdfrwt beam="1">  1        2 0.19074972E+00 0.36155244E+03</pdfrwt>
<pdfrwt beam="2">  1       -2 0.40550103E-02 0.36155244E+03</pdfrwt>
<totfact> 0.51250545E+03</totfact>
</mgrwt>
</event>
<event>
 4    1  0.1762274E-004  0.2957659E+03  0.7818608E-02  0.1087377E+00
         -2   -1    0    0    0  501 -0.00000000000E+00  0.00000000000E+00  0.42421144607E+03  0.42421144607E+03  0.00000000000E+00 0.  1.
          2   -1    0    0  501    0  0.00000000000E+00 -0.00000000000E+00 -0.51552970305E+02  0.51552970305E+02  0.00000000000E+00 0.  1.
         25    1    1    2    0    0  0.73102858854E+01 -0.15940329066E+02  0.32245985006E+03  0.34451108730E+03  0.12000000000E+03 0.  0.
         25    1    1    2    0    0 -0.73102858854E+01  0.15940329066E+02  0.50198625699E+02  0.13125332907E+03  0.12000000000E+03 0.  0.
<mgrwt>
<rscale>  0 0.29576585E+03</rscale>
<asrwt>0</asrwt>
<pdfrwt beam="1">  1        2 0.79312265E-02 0.29576585E+03</pdfrwt>
<pdfrwt beam="2">  1       -2 0.65263297E-01 0.29576585E+03</pdfrwt>
<totfact> 0.19062235E+03</totfact>
</mgrwt>
</event>
<event>
 4    1  0.1762274E-004  0.2677241E+03  0.7818608E-02  0.1102589E+00
         -2   -1    0    0    0  501 -0.00000000000E+00  0.00000000000E+00  0.95861656008E+02  0.95861656008E+02  0.00000000000E+00 0. -1.
          2   -1    0    0  501    0  0.00000000000E+00 -0.00000000000E+00 -0.18692611056E+03  0.18692611056E+03  0.00000000000E+00 0. -1.
         25    1    1    2    0    0  0.23464701822E+02  0.53473316032E+02 -0.34501518144E+02  0.13784172994E+03  0.12000000000E+03 0.  0.
         25    1    1    2    0    0 -0.23464701822E+02 -0.53473316032E+02 -0.56562936412E+02  0.14494603663E+03  0.12000000000E+03 0.  0.
<mgrwt>
<rscale>  0 0.26772409E+03</rscale>
<asrwt>0</asrwt>
<pdfrwt beam="1">  1        2 0.28757863E-01 0.26772409E+03</pdfrwt>
<pdfrwt beam="2">  1       -2 0.14747947E-01 0.26772409E+03</pdfrwt>
<totfact> 0.64129629E+03</totfact>
</mgrwt>
</event>
<event>
 4    1  0.1762274E-004  0.2734441E+03  0.7818608E-02  0.1099324E+00
         -2   -1    0    0    0  501 -0.00000000000E+00  0.00000000000E+00  0.36644512950E+03  0.36644512950E+03  0.00000000000E+00 0. -1.
          2   -1    0    0  501    0  0.00000000000E+00 -0.00000000000E+00 -0.51011502024E+02  0.51011502024E+02  0.00000000000E+00 0. -1.
         25    1    1    2    0    0 -0.38209946511E+02 -0.11019223708E+02  0.78220481304E+02  0.14866024014E+03  0.12000000000E+03 0.  0.
         25    1    1    2    0    0  0.38209946511E+02  0.11019223708E+02  0.23721314617E+03  0.26879639138E+03  0.12000000000E+03 0.  0.
<mgrwt>
<rscale>  0 0.27344408E+03</rscale>
<asrwt>0</asrwt>
<pdfrwt beam="1">  1        2 0.78479236E-02 0.27344408E+03</pdfrwt>
<pdfrwt beam="2">  1       -2 0.56376172E-01 0.27344408E+03</pdfrwt>
<totfact> 0.26135193E+03</totfact>
</mgrwt>
</event>
<event>
 4    1  0.1762274E-004  0.4215251E+03  0.7818608E-02  0.1036571E+00
          2   -1    0    0  501    0  0.00000000000E+00  0.00000000000E+00  0.17749019718E+04  0.17749019718E+04  0.00000000000E+00 0.  1.
         -2   -1    0    0    0  501 -0.00000000000E+00 -0.00000000000E+00 -0.25027217529E+02  0.25027217529E+02  0.00000000000E+00 0.  1.
         25    1    1    2    0    0  0.11931598517E+03  0.11210988715E+03  0.11170876817E+04  0.11353809140E+04  0.12000000000E+03 0.  0.
         25    1    1    2    0    0 -0.11931598517E+03 -0.11210988715E+03  0.63278707249E+03  0.66454827532E+03  0.12000000000E+03 0.  0.
<mgrwt>
<rscale>  0 0.42152512E+03</rscale>
<asrwt>0</asrwt>
<pdfrwt beam="1">  1        2 0.27306174E+00 0.42152512E+03</pdfrwt>
<pdfrwt beam="2">  1       -2 0.38503426E-02 0.42152512E+03</pdfrwt>
<totfact> 0.28295264E+03</totfact>
</mgrwt>
</event>
<event>
 4    1  0.1762274E-004  0.3004475E+03  0.7818608E-02  0.1085017E+00
          2   -1    0    0  501    0  0.00000000000E+00  0.00000000000E+00  0.19646058507E+04  0.19646058507E+04  0.00000000000E+00 0. -1.
         -2   -1    0    0    0  501 -0.00000000000E+00 -0.00000000000E+00 -0.11486871759E+02  0.11486871759E+02  0.00000000000E+00 0. -1.
         25    1    1    2    0    0  0.47430092501E+02  0.58297244416E+02  0.64645440948E+03  0.66177903104E+03  0.12000000000E+03 0.  0.
         25    1    1    2    0    0 -0.47430092501E+02 -0.58297244416E+02  0.13066645694E+04  0.13143136914E+04  0.12000000000E+03 0.  0.
<mgrwt>
<rscale>  0 0.30044750E+03</rscale>
<asrwt>0</asrwt>
<pdfrwt beam="1">  1        2 0.30224679E+00 0.30044750E+03</pdfrwt>
<pdfrwt beam="2">  1       -2 0.17672126E-02 0.30044750E+03</pdfrwt>
<totfact> 0.71980875E+03</totfact>
</mgrwt>
</event>
<event>
 4    1  0.1762274E-004  0.3572223E+03  0.7818608E-02  0.1059689E+00
         -2   -1    0    0    0  501 -0.00000000000E+00  0.00000000000E+00  0.10658825543E+03  0.10658825543E+03  0.00000000000E+00 0.  1.
          2   -1    0    0  501    0  0.00000000000E+00 -0.00000000000E+00 -0.29930077042E+03  0.29930077042E+03  0.00000000000E+00 0.  1.
         25    1    1    2    0    0  0.11539992156E+03  0.64161143571E+02 -0.10573641951E+03  0.20739813078E+03  0.12000000000E+03 0.  0.
         25    1    1    2    0    0 -0.11539992156E+03 -0.64161143571E+02 -0.86976095475E+02  0.19849089507E+03  0.12000000000E+03 0.  0.
<mgrwt>
<rscale>  0 0.35722232E+03</rscale>
<asrwt>0</asrwt>
<pdfrwt beam="1">  1        2 0.46046273E-01 0.35722232E+03</pdfrwt>
<pdfrwt beam="2">  1       -2 0.16398193E-01 0.35722232E+03</pdfrwt>
<totfact> 0.32451796E+03</totfact>
</mgrwt>
</event>
<event>
 4    1  0.1762274E-004  0.2721602E+03  0.7818608E-02  0.1100050E+00
          2   -1    0    0  501    0  0.00000000000E+00  0.00000000000E+00  0.23594117861E+04  0.23594117861E+04  0.00000000000E+00 0. -1.
         -2   -1    0    0    0  501 -0.00000000000E+00 -0.00000000000E+00 -0.78484786672E+01  0.78484786672E+01  0.00000000000E+00 0. -1.
         25    1    1    2    0    0  0.24833050948E+02  0.19281033589E+01  0.66139019812E+03  0.67264953146E+03  0.12000000000E+03 0.  0.
         25    1    1    2    0    0 -0.24833050948E+02 -0.19281033589E+01  0.16901731093E+04  0.16946107333E+04  0.12000000000E+03 0.  0.
<mgrwt>
<rscale>  0 0.27216020E+03</rscale>
<asrwt>0</asrwt>
<pdfrwt beam="1">  1        2 0.36298586E+00 0.27216020E+03</pdfrwt>
<pdfrwt beam="2">  1       -2 0.12074601E-02 0.27216020E+03</pdfrwt>
<totfact> 0.77488096E+03</totfact>
</mgrwt>
</event>
<event>
 4    1  0.1762274E-004  0.2594209E+03  0.7818608E-02  0.1107492E+00
          2   -1    0    0  501    0  0.00000000000E+00  0.00000000000E+00  0.38401296953E+03  0.38401296953E+03  0.00000000000E+00 0. -1.
         -2   -1    0    0    0  501 -0.00000000000E+00 -0.00000000000E+00 -0.43813112604E+02  0.43813112604E+02  0.00000000000E+00 0. -1.
         25    1    1    2    0    0  0.14673742635E+02  0.46887159105E+02  0.17558918830E+03  0.21827800499E+03  0.12000000000E+03 0.  0.
         25    1    1    2    0    0 -0.14673742635E+02 -0.46887159105E+02  0.16461066862E+03  0.20954807715E+03  0.12000000000E+03 0.  0.
<mgrwt>
<rscale>  0 0.25942092E+03</rscale>
<asrwt>0</asrwt>
<pdfrwt beam="1">  1        2 0.59078916E-01 0.25942092E+03</pdfrwt>
<pdfrwt beam="2">  1       -2 0.67404791E-02 0.25942092E+03</pdfrwt>
<totfact> 0.10211209E+04</totfact>
</mgrwt>
</event>
<event>
 4    1  0.1762274E-004  0.3552058E+03  0.7818608E-02  0.1060498E+00
         -2   -1    0    0    0  501 -0.00000000000E+00  0.00000000000E+00  0.34713716221E+02  0.34713716221E+02  0.00000000000E+00 0.  1.
          2   -1    0    0  501    0  0.00000000000E+00 -0.00000000000E+00 -0.90865479277E+03  0.90865479277E+03  0.00000000000E+00 0.  1.
         25    1    1    2    0    0 -0.10462696511E+03  0.76760844385E+02 -0.39068306417E+03  0.42880331819E+03  0.12000000000E+03 0.  0.
         25    1    1    2    0    0  0.10462696511E+03 -0.76760844385E+02 -0.48325801238E+03  0.51456519081E+03  0.12000000000E+03 0.  0.
<mgrwt>
<rscale>  0 0.35520577E+03</rscale>
<asrwt>0</asrwt>
<pdfrwt beam="1">  1        2 0.13979305E+00 0.35520577E+03</pdfrwt>
<pdfrwt beam="2">  1       -2 0.53405717E-02 0.35520577E+03</pdfrwt>
<totfact> 0.53318005E+03</totfact>
</mgrwt>
</event>
<event>
 4    1  0.1762274E-004  0.2690870E+03  0.7818608E-02  0.1101803E+00
          1   -1    0    0  501    0  0.00000000000E+00  0.00000000000E+00  0.20146386266E+03  0.20146386266E+03  0.00000000000E+00 0.  1.
         -1   -1    0    0    0  501 -0.00000000000E+00 -0.00000000000E+00 -0.89852114523E+02  0.89852114523E+02  0.00000000000E+00 0.  1.
         25    1    1    2    0    0 -0.33974398590E+02  0.31916966217E+02  0.13473215422E+02  0.12943909775E+03  0.12000000000E+03 0.  0.
         25    1    1    2    0    0  0.33974398590E+02 -0.31916966217E+02  0.98138532717E+02  0.16187687944E+03  0.12000000000E+03 0.  0.
<mgrwt>
<rscale>  0 0.26908700E+03</rscale>
<asrwt>0</asrwt>
<pdfrwt beam="1">  1        1 0.30994440E-01 0.26908700E+03</pdfrwt>
<pdfrwt beam="2">  1       -1 0.13823402E-01 0.26908700E+03</pdfrwt>
<totfact> 0.52771320E+03</totfact>
</mgrwt>
</event>
<event>
 4    1  0.1762274E-004  0.2704334E+03  0.7818608E-02  0.1101032E+00
         -2   -1    0    0    0  501 -0.00000000000E+00  0.00000000000E+00  0.96544326699E+02  0.96544326699E+02  0.00000000000E+00 0. -1.
          2   -1    0    0  501    0  0.00000000000E+00 -0.00000000000E+00 -0.18937986117E+03  0.18937986117E+03  0.00000000000E+00 0. -1.
         25    1    1    2    0    0  0.19394435511E+02 -0.47134210615E+02 -0.85061057991E+01  0.13065271438E+03  0.12000000000E+03 0.  0.
         25    1    1    2    0    0 -0.19394435511E+02  0.47134210615E+02 -0.84329428671E+02  0.15527147349E+03  0.12000000000E+03 0.  0.
<mgrwt>
<rscale>  0 0.27043336E+03</rscale>
<asrwt>0</asrwt>
<pdfrwt beam="1">  1        2 0.29135363E-01 0.27043336E+03</pdfrwt>
<pdfrwt beam="2">  1       -2 0.14852973E-01 0.27043336E+03</pdfrwt>
<totfact> 0.62504448E+03</totfact>
</mgrwt>
</event>
<event>
 4    1  0.1762274E-004  0.3781748E+03  0.7818608E-02  0.1051610E+00
          2   -1    0    0  501    0  0.00000000000E+00  0.00000000000E+00  0.40606458161E+03  0.40606458161E+03  0.00000000000E+00 0.  1.
         -2   -1    0    0    0  501 -0.00000000000E+00 -0.00000000000E+00 -0.88050158138E+02  0.88050158138E+02  0.00000000000E+00 0.  1.
         25    1    1    2    0    0 -0.12932835371E+03  0.50277315765E+02  0.21888809046E+03  0.28559696724E+03  0.12000000000E+03 0.  0.
         25    1    1    2    0    0  0.12932835371E+03 -0.50277315765E+02  0.99126333010E+02  0.20851777250E+03  0.12000000000E+03 0.  0.
<mgrwt>
<rscale>  0 0.37817483E+03</rscale>
<asrwt>0</asrwt>
<pdfrwt beam="1">  1        2 0.62471473E-01 0.37817483E+03</pdfrwt>
<pdfrwt beam="2">  1       -2 0.13546178E-01 0.37817483E+03</pdfrwt>
<totfact> 0.31995795E+03</totfact>
</mgrwt>
</event>
<event>
 4    1  0.1762274E-004  0.2816516E+03  0.7818608E-02  0.1094790E+00
          1   -1    0    0  501    0  0.00000000000E+00  0.00000000000E+00  0.49743214668E+02  0.49743214668E+02  0.00000000000E+00 0.  1.
         -1   -1    0    0    0  501 -0.00000000000E+00 -0.00000000000E+00 -0.39868572071E+03  0.39868572071E+03  0.00000000000E+00 0.  1.
         25    1    1    2    0    0 -0.53010448017E+02 -0.48851736211E+02 -0.15004812723E+03  0.20520974688E+03  0.12000000000E+03 0.  0.
         25    1    1    2    0    0  0.53010448017E+02  0.48851736211E+02 -0.19889437881E+03  0.24321918849E+03  0.12000000000E+03 0.  0.
<mgrwt>
<rscale>  0 0.28165162E+03</rscale>
<asrwt>0</asrwt>
<pdfrwt beam="1">  1        1 0.76528024E-02 0.28165162E+03</pdfrwt>
<pdfrwt beam="2">  1       -1 0.61336263E-01 0.28165162E+03</pdfrwt>
<totfact> 0.25678713E+03</totfact>
</mgrwt>
</event>
<event>
 4    1  0.1762274E-004  0.2579078E+03  0.7818608E-02  0.1108407E+00
         -3   -1    0    0    0  501 -0.00000000000E+00  0.00000000000E+00  0.54491787130E+02  0.54491787130E+02  0.00000000000E+00 0. -1.
          3   -1    0    0  501    0  0.00000000000E+00 -0.00000000000E+00 -0.30516716554E+03  0.30516716554E+03  0.00000000000E+00 0. -1.
         25    1    1    2    0    0 -0.19690642076E+02 -0.28547146061E+02 -0.17001571062E+03  0.21096919868E+03  0.12000000000E+03 0.  0.
         25    1    1    2    0    0  0.19690642076E+02  0.28547146061E+02 -0.80659667786E+02  0.14868975399E+03  0.12000000000E+03 0.  0.
<mgrwt>
<rscale>  0 0.25790777E+03</rscale>
<asrwt>0</asrwt>
<pdfrwt beam="1">  1        3 0.46948795E-01 0.25790777E+03</pdfrwt>
<pdfrwt beam="2">  1       -3 0.83833518E-02 0.25790777E+03</pdfrwt>
<totfact> 0.11311294E+03</totfact>
</mgrwt>
</event>
<event>
 4    1  0.1762274E-004  0.2794546E+03  0.7818608E-02  0.1095987E+00
          1   -1    0    0  501    0  0.00000000000E+00  0.00000000000E+00  0.21558332817E+04  0.21558332817E+04  0.00000000000E+00 0.  1.
         -1   -1    0    0    0  501 -0.00000000000E+00 -0.00000000000E+00 -0.90562313776E+01  0.90562313776E+01  0.00000000000E+00 0.  1.
         25    1    1    2    0    0 -0.59009339877E+02  0.72293522736E+01  0.13822298746E+04  0.13887021970E+04  0.12000000000E+03 0.  0.
         25    1    1    2    0    0  0.59009339877E+02 -0.72293522736E+01  0.76454717565E+03  0.77618731600E+03  0.12000000000E+03 0.  0.
<mgrwt>
<rscale>  0 0.27945465E+03</rscale>
<asrwt>0</asrwt>
<pdfrwt beam="1">  1        1 0.33166625E+00 0.27945465E+03</pdfrwt>
<pdfrwt beam="2">  1       -1 0.13932681E-02 0.27945465E+03</pdfrwt>
<totfact> 0.31040687E+03</totfact>
</mgrwt>
</event>
<event>
 4    1  0.1762274E-004  0.3217436E+03  0.7818608E-02  0.1074850E+00
          2   -1    0    0  501    0  0.00000000000E+00  0.00000000000E+00  0.59763816514E+02  0.59763816514E+02  0.00000000000E+00 0.  1.
         -2   -1    0    0    0  501 -0.00000000000E+00 -0.00000000000E+00 -0.43303351851E+03  0.43303351851E+03  0.00000000000E+00 0.  1.
         25    1    1    2    0    0 -0.64037713607E+02  0.25671839171E+02 -0.31219119660E+03  0.34150141336E+03  0.12000000000E+03 0.  0.
         25    1    1    2    0    0  0.64037713607E+02 -0.25671839171E+02 -0.61078505390E+02  0.15129592166E+03  0.12000000000E+03 0.  0.
<mgrwt>
<rscale>  0 0.32174360E+03</rscale>
<asrwt>0</asrwt>
<pdfrwt beam="1">  1        2 0.91944332E-02 0.32174360E+03</pdfrwt>
<pdfrwt beam="2">  1       -2 0.66620542E-01 0.32174360E+03</pdfrwt>
<totfact> 0.15157405E+03</totfact>
</mgrwt>
</event>
<event>
 4    1  0.1762274E-004  0.2588666E+03  0.7818608E-02  0.1107826E+00
         -1   -1    0    0    0  501 -0.00000000000E+00  0.00000000000E+00  0.26357803658E+02  0.26357803658E+02  0.00000000000E+00 0. -1.
          1   -1    0    0  501    0  0.00000000000E+00 -0.00000000000E+00 -0.63559821629E+03  0.63559821629E+03  0.00000000000E+00 0. -1.
         25    1    1    2    0    0 -0.28817893010E+02  0.31633763841E+02 -0.24620738888E+03  0.27721696253E+03  0.12000000000E+03 0.  0.
         25    1    1    2    0    0  0.28817893010E+02 -0.31633763841E+02 -0.36303302374E+03  0.38473905742E+03  0.12000000000E+03 0.  0.
<mgrwt>
<rscale>  0 0.25886655E+03</rscale>
<asrwt>0</asrwt>
<pdfrwt beam="1">  1        1 0.97784337E-01 0.25886655E+03</pdfrwt>
<pdfrwt beam="2">  1       -1 0.40550469E-02 0.25886655E+03</pdfrwt>
<totfact> 0.77639545E+03</totfact>
</mgrwt>
</event>
<event>
 4    1  0.1762274E-004  0.3957851E+03  0.7818608E-02  0.1045249E+00
         -2   -1    0    0    0  501 -0.00000000000E+00  0.00000000000E+00  0.29869860508E+02  0.29869860508E+02  0.00000000000E+00 0.  1.
          2   -1    0    0  501    0  0.00000000000E+00 -0.00000000000E+00 -0.13110691498E+04  0.13110691498E+04  0.00000000000E+00 0.  1.
         25    1    1    2    0    0 -0.35890594425E+01  0.13610786533E+03 -0.90787395631E+03  0.92583656921E+03  0.12000000000E+03 0.  0.
         25    1    1    2    0    0  0.35890594425E+01 -0.13610786533E+03 -0.37332533294E+03  0.41510244105E+03  0.12000000000E+03 0.  0.
<mgrwt>
<rscale>  0 0.39578506E+03</rscale>
<asrwt>0</asrwt>
<pdfrwt beam="1">  1        2 0.20170287E+00 0.39578506E+03</pdfrwt>
<pdfrwt beam="2">  1       -2 0.45953648E-02 0.39578506E+03</pdfrwt>
<totfact> 0.38629281E+03</totfact>
</mgrwt>
</event>
<event>
 4    1  0.1762274E-004  0.5366531E+03  0.7818608E-02  0.1004631E+00
          2   -1    0    0  501    0  0.00000000000E+00  0.00000000000E+00  0.16146115339E+04  0.16146115339E+04  0.00000000000E+00 0. -1.
         -2   -1    0    0    0  501 -0.00000000000E+00 -0.00000000000E+00 -0.44592230911E+02  0.44592230911E+02  0.00000000000E+00 0. -1.
         25    1    1    2    0    0 -0.15455428718E+03 -0.22369109176E+02  0.22156426909E+03  0.29644245659E+03  0.12000000000E+03 0.  0.
         25    1    1    2    0    0  0.15455428718E+03  0.22369109176E+02  0.13484550339E+04  0.13627613082E+04  0.12000000000E+03 0.  0.
<mgrwt>
<rscale>  0 0.53665307E+03</rscale>
<asrwt>0</asrwt>
<pdfrwt beam="1">  1        2 0.24840173E+00 0.53665307E+03</pdfrwt>
<pdfrwt beam="2">  1       -2 0.68603444E-02 0.53665307E+03</pdfrwt>
<totfact> 0.14070377E+03</totfact>
</mgrwt>
</event>
<event>
 4    1  0.1762274E-004  0.2539996E+03  0.7818608E-02  0.1110803E+00
          2   -1    0    0  501    0  0.00000000000E+00  0.00000000000E+00  0.17297300341E+04  0.17297300341E+04  0.00000000000E+00 0. -1.
         -2   -1    0    0    0  501 -0.00000000000E+00 -0.00000000000E+00 -0.93245438308E+01  0.93245438308E+01  0.00000000000E+00 0. -1.
         25    1    1    2    0    0  0.11948951556E+02  0.36590316482E+02  0.75253011488E+03  0.76300930696E+03  0.12000000000E+03 0.  0.
         25    1    1    2    0    0 -0.11948951556E+02 -0.36590316482E+02  0.96787537540E+03  0.97604527098E+03  0.12000000000E+03 0.  0.
<mgrwt>
<rscale>  0 0.25399956E+03</rscale>
<asrwt>0</asrwt>
<pdfrwt beam="1">  1        2 0.26611206E+00 0.25399956E+03</pdfrwt>
<pdfrwt beam="2">  1       -2 0.14345466E-02 0.25399956E+03</pdfrwt>
<totfact> 0.12950653E+04</totfact>
</mgrwt>
</event>
<event>
 4    1  0.1762274E-004  0.2577970E+03  0.7818608E-02  0.1108474E+00
         -2   -1    0    0    0  501 -0.00000000000E+00  0.00000000000E+00  0.32335603988E+02  0.32335603988E+02  0.00000000000E+00 0. -1.
          2   -1    0    0  501    0  0.00000000000E+00 -0.00000000000E+00 -0.51382426274E+03  0.51382426274E+03  0.00000000000E+00 0. -1.
         25    1    1    2    0    0  0.29556618221E+01  0.25865614089E+02 -0.15768541148E+03  0.19985608553E+03  0.12000000000E+03 0.  0.
         25    1    1    2    0    0 -0.29556618221E+01 -0.25865614089E+02 -0.32380324727E+03  0.34630378120E+03  0.12000000000E+03 0.  0.
<mgrwt>
<rscale>  0 0.25779696E+03</rscale>
<asrwt>0</asrwt>
<pdfrwt beam="1">  1        2 0.79049885E-01 0.25779696E+03</pdfrwt>
<pdfrwt beam="2">  1       -2 0.49747084E-02 0.25779696E+03</pdfrwt>
<totfact> 0.11797154E+04</totfact>
</mgrwt>
</event>
<event>
 4    1  0.1762274E-004  0.2638177E+03  0.7818608E-02  0.1104871E+00
         -1   -1    0    0    0  501 -0.00000000000E+00  0.00000000000E+00  0.68825532018E+02  0.68825532018E+02  0.00000000000E+00 0. -1.
          1   -1    0    0  501    0  0.00000000000E+00 -0.00000000000E+00 -0.25281235725E+03  0.25281235725E+03  0.00000000000E+00 0. -1.
         25    1    1    2    0    0  0.41313035098E+02  0.30028901077E+02 -0.67872282156E+02  0.14702091162E+03  0.12000000000E+03 0.  0.
         25    1    1    2    0    0 -0.41313035098E+02 -0.30028901077E+02 -0.11611454308E+03  0.17461697765E+03  0.12000000000E+03 0.  0.
<mgrwt>
<rscale>  0 0.26381770E+03</rscale>
<asrwt>0</asrwt>
<pdfrwt beam="1">  1        1 0.38894209E-01 0.26381770E+03</pdfrwt>
<pdfrwt beam="2">  1       -1 0.10588543E-01 0.26381770E+03</pdfrwt>
<totfact> 0.60131796E+03</totfact>
</mgrwt>
</event>
<event>
 4    1  0.1762274E-004  0.3000013E+03  0.7818608E-02  0.1085240E+00
          2   -1    0    0  501    0  0.00000000000E+00  0.00000000000E+00  0.82869848000E+02  0.82869848000E+02  0.00000000000E+00 0. -1.
         -2   -1    0    0    0  501 -0.00000000000E+00 -0.00000000000E+00 -0.27151245330E+03  0.27151245330E+03  0.00000000000E+00 0. -1.
         25    1    1    2    0    0 -0.38658389617E+02 -0.80143211352E+02 -0.78350546505E+02  0.16868969604E+03  0.12000000000E+03 0.  0.
         25    1    1    2    0    0  0.38658389617E+02  0.80143211352E+02 -0.11029205879E+03  0.18569260526E+03  0.12000000000E+03 0.  0.
<mgrwt>
<rscale>  0 0.30000130E+03</rscale>
<asrwt>0</asrwt>
<pdfrwt beam="1">  1        2 0.12749207E-01 0.30000130E+03</pdfrwt>
<pdfrwt beam="2">  1       -2 0.41771147E-01 0.30000130E+03</pdfrwt>
<totfact> 0.25989034E+03</totfact>
</mgrwt>
</event>
<event>
 4    1  0.1762274E-004  0.2810813E+03  0.7818608E-02  0.1095100E+00
          2   -1    0    0  501    0  0.00000000000E+00  0.00000000000E+00  0.25030728822E+04  0.25030728822E+04  0.00000000000E+00 0. -1.
         -2   -1    0    0    0  501 -0.00000000000E+00 -0.00000000000E+00 -0.78909693292E+01  0.78909693292E+01  0.00000000000E+00 0. -1.
         25    1    1    2    0    0 -0.72165346808E+02  0.37200176204E+01  0.11457382085E+04  0.11542693439E+04  0.12000000000E+03 0.  0.
         25    1    1    2    0    0  0.72165346808E+02 -0.37200176204E+01  0.13494437043E+04  0.13566945076E+04  0.12000000000E+03 0.  0.
<mgrwt>
<rscale>  0 0.28108128E+03</rscale>
<asrwt>0</asrwt>
<pdfrwt beam="1">  1        2 0.38508750E+00 0.28108128E+03</pdfrwt>
<pdfrwt beam="2">  1       -2 0.12139973E-02 0.28108128E+03</pdfrwt>
<totfact> 0.64215385E+03</totfact>
</mgrwt>
</event>
<event>
 4    1  0.1762274E-004  0.2932670E+03  0.7818608E-02  0.1088656E+00
          1   -1    0    0  501    0  0.00000000000E+00  0.00000000000E+00  0.50029818964E+03  0.50029818964E+03  0.00000000000E+00 0.  1.
         -1   -1    0    0    0  501 -0.00000000000E+00 -0.00000000000E+00 -0.42977135520E+02  0.42977135520E+02  0.00000000000E+00 0.  1.
         25    1    1    2    0    0 -0.35466420705E+02  0.75402147185E+02  0.20537265990E+03  0.25203428385E+03  0.12000000000E+03 0.  0.
         25    1    1    2    0    0  0.35466420705E+02 -0.75402147185E+02  0.25194839422E+03  0.29124104132E+03  0.12000000000E+03 0.  0.
<mgrwt>
<rscale>  0 0.29326700E+03</rscale>
<asrwt>0</asrwt>
<pdfrwt beam="1">  1        1 0.76968948E-01 0.29326700E+03</pdfrwt>
<pdfrwt beam="2">  1       -1 0.66118673E-02 0.29326700E+03</pdfrwt>
<totfact> 0.51905368E+03</totfact>
</mgrwt>
</event>
<event>
 4    1  0.1762274E-004  0.3147820E+03  0.7818608E-02  0.1078076E+00
         -4   -1    0    0    0  501 -0.00000000000E+00  0.00000000000E+00  0.90461398614E+03  0.90461398614E+03  0.00000000000E+00 0. -1.
          4   -1    0    0  501    0  0.00000000000E+00 -0.00000000000E+00 -0.27383968031E+02  0.27383968031E+02  0.00000000000E+00 0. -1.
         25    1    1    2    0    0  0.94859558242E+02  0.14522304347E+02  0.33765797087E+03  0.37097457919E+03  0.12000000000E+03 0.  0.
         25    1    1    2    0    0 -0.94859558242E+02 -0.14522304347E+02  0.53957204723E+03  0.56102337498E+03  0.12000000000E+03 0.  0.
<mgrwt>
<rscale>  0 0.31478196E+03</rscale>
<asrwt>0</asrwt>
<pdfrwt beam="1">  1        4 0.42129189E-02 0.31478196E+03</pdfrwt>
<pdfrwt beam="2">  1       -4 0.13917136E+00 0.31478196E+03</pdfrwt>
<totfact> 0.22854515E+02</totfact>
</mgrwt>
</event>
<event>
 4    1  0.1762274E-004  0.2900649E+03  0.7818608E-02  0.1090315E+00
         -2   -1    0    0    0  501 -0.00000000000E+00  0.00000000000E+00  0.17603787161E+02  0.17603787161E+02  0.00000000000E+00 0.  1.
          2   -1    0    0  501    0  0.00000000000E+00 -0.00000000000E+00 -0.11948797902E+04  0.11948797902E+04  0.00000000000E+00 0.  1.
         25    1    1    2    0    0  0.62412688983E+02 -0.43247623154E+02 -0.46543598075E+03  0.48661725496E+03  0.12000000000E+03 0.  0.
         25    1    1    2    0    0 -0.62412688983E+02  0.43247623154E+02 -0.71184002230E+03  0.72586632241E+03  0.12000000000E+03 0.  0.
<mgrwt>
<rscale>  0 0.29006489E+03</rscale>
<asrwt>0</asrwt>
<pdfrwt beam="1">  1        2 0.18382765E+00 0.29006489E+03</pdfrwt>
<pdfrwt beam="2">  1       -2 0.27082751E-02 0.29006489E+03</pdfrwt>
<totfact> 0.99295764E+03</totfact>
</mgrwt>
</event>
<event>
 4    1  0.1762274E-004  0.2828383E+03  0.7818608E-02  0.1094149E+00
         -3   -1    0    0    0  501 -0.00000000000E+00  0.00000000000E+00  0.51976107687E+03  0.51976107687E+03  0.00000000000E+00 0. -1.
          3   -1    0    0  501    0  0.00000000000E+00 -0.00000000000E+00 -0.38478018843E+02  0.38478018843E+02  0.00000000000E+00 0. -1.
         25    1    1    2    0    0 -0.53274926345E+01 -0.55032189311E+02  0.34016108876E+03  0.36491984099E+03  0.12000000000E+03 0.  0.
         25    1    1    2    0    0  0.53274926345E+01  0.55032189311E+02  0.14112196926E+03  0.19331925472E+03  0.12000000000E+03 0.  0.
<mgrwt>
<rscale>  0 0.28283830E+03</rscale>
<asrwt>0</asrwt>
<pdfrwt beam="1">  1        3 0.59196956E-02 0.28283830E+03</pdfrwt>
<pdfrwt beam="2">  1       -3 0.79963238E-01 0.28283830E+03</pdfrwt>
<totfact> 0.66105388E+02</totfact>
</mgrwt>
</event>
<event>
 4    1  0.1762274E-004  0.4048573E+03  0.7818608E-02  0.1042111E+00
          2   -1    0    0  501    0  0.00000000000E+00  0.00000000000E+00  0.36432978963E+03  0.36432978963E+03  0.00000000000E+00 0.  1.
         -2   -1    0    0    0  501 -0.00000000000E+00 -0.00000000000E+00 -0.11247327637E+03  0.11247327637E+03  0.00000000000E+00 0.  1.
         25    1    1    2    0    0 -0.11172063895E+03  0.20346645956E+02  0.26368405402E+03  0.31116678408E+03  0.12000000000E+03 0.  0.
         25    1    1    2    0    0  0.11172063895E+03 -0.20346645956E+02 -0.11827540757E+02  0.16563628192E+03  0.12000000000E+03 0.  0.
<mgrwt>
<rscale>  0 0.40485733E+03</rscale>
<asrwt>0</asrwt>
<pdfrwt beam="1">  1        2 0.56050736E-01 0.40485733E+03</pdfrwt>
<pdfrwt beam="2">  1       -2 0.17303581E-01 0.40485733E+03</pdfrwt>
<totfact> 0.23967829E+03</totfact>
</mgrwt>
</event>
<event>
 4    1  0.1762274E-004  0.2648210E+03  0.7818608E-02  0.1104281E+00
          2   -1    0    0  501    0  0.00000000000E+00  0.00000000000E+00  0.27592654906E+04  0.27592654906E+04  0.00000000000E+00 0. -1.
         -2   -1    0    0    0  501 -0.00000000000E+00 -0.00000000000E+00 -0.63540586690E+01  0.63540586690E+01  0.00000000000E+00 0. -1.
         25    1    1    2    0    0 -0.54302043799E+02 -0.76818478418E+01  0.12597832526E+04  0.12666734253E+04  0.12000000000E+03 0.  0.
         25    1    1    2    0    0  0.54302043799E+02  0.76818478418E+01  0.14931281793E+04  0.14989461240E+04  0.12000000000E+03 0.  0.
<mgrwt>
<rscale>  0 0.26482096E+03</rscale>
<asrwt>0</asrwt>
<pdfrwt beam="1">  1        2 0.42450143E+00 0.26482096E+03</pdfrwt>
<pdfrwt beam="2">  1       -2 0.97754969E-03 0.26482096E+03</pdfrwt>
<totfact> 0.63358435E+03</totfact>
</mgrwt>
</event>
<event>
 4    1  0.1762274E-004  0.4297489E+03  0.7818608E-02  0.1033939E+00
          1   -1    0    0  501    0  0.00000000000E+00  0.00000000000E+00  0.10367459619E+04  0.10367459619E+04  0.00000000000E+00 0. -1.
         -1   -1    0    0    0  501 -0.00000000000E+00 -0.00000000000E+00 -0.44534562884E+02  0.44534562884E+02  0.00000000000E+00 0. -1.
         25    1    1    2    0    0  0.41403457675E+02 -0.46665743041E+02  0.91621559536E+03  0.92614413298E+03  0.12000000000E+03 0.  0.
         25    1    1    2    0    0 -0.41403457675E+02  0.46665743041E+02  0.75995803618E+02  0.15513639176E+03  0.12000000000E+03 0.  0.
<mgrwt>
<rscale>  0 0.42974890E+03</rscale>
<asrwt>0</asrwt>
<pdfrwt beam="1">  1        1 0.15949936E+00 0.42974890E+03</pdfrwt>
<pdfrwt beam="2">  1       -1 0.68514720E-02 0.42974890E+03</pdfrwt>
<totfact> 0.16377761E+03</totfact>
</mgrwt>
</event>
<event>
 4    1  0.1762274E-004  0.2947845E+03  0.7818608E-02  0.1087877E+00
         -1   -1    0    0    0  501 -0.00000000000E+00  0.00000000000E+00  0.87022160792E+02  0.87022160792E+02  0.00000000000E+00 0.  1.
          1   -1    0    0  501    0  0.00000000000E+00 -0.00000000000E+00 -0.24964307065E+03  0.24964307065E+03  0.00000000000E+00 0.  1.
         25    1    1    2    0    0  0.62441869872E+02 -0.51533843171E+02 -0.11299663858E+03  0.18363813448E+03  0.12000000000E+03 0.  0.
         25    1    1    2    0    0 -0.62441869872E+02  0.51533843171E+02 -0.49624271279E+02  0.15302709696E+03  0.12000000000E+03 0.  0.
<mgrwt>
<rscale>  0 0.29478453E+03</rscale>
<asrwt>0</asrwt>
<pdfrwt beam="1">  1        1 0.38406626E-01 0.29478453E+03</pdfrwt>
<pdfrwt beam="2">  1       -1 0.13388025E-01 0.29478453E+03</pdfrwt>
<totfact> 0.42491173E+03</totfact>
</mgrwt>
</event>
<event>
 4    1  0.1762274E-004  0.2777865E+03  0.7818608E-02  0.1096904E+00
         -2   -1    0    0    0  501 -0.00000000000E+00  0.00000000000E+00  0.17792478150E+02  0.17792478150E+02  0.00000000000E+00 0.  1.
          2   -1    0    0  501    0  0.00000000000E+00 -0.00000000000E+00 -0.10842413564E+04  0.10842413564E+04  0.00000000000E+00 0.  1.
         25    1    1    2    0    0  0.25227053271E+02 -0.53689613138E+02 -0.68019083662E+03  0.69323773195E+03  0.12000000000E+03 0.  0.
         25    1    1    2    0    0 -0.25227053271E+02  0.53689613138E+02 -0.38625804158E+03  0.40879610256E+03  0.12000000000E+03 0.  0.
<mgrwt>
<rscale>  0 0.27778654E+03</rscale>
<asrwt>0</asrwt>
<pdfrwt beam="1">  1        2 0.16680642E+00 0.27778654E+03</pdfrwt>
<pdfrwt beam="2">  1       -2 0.27373034E-02 0.27778654E+03</pdfrwt>
<totfact> 0.11317911E+04</totfact>
</mgrwt>
</event>
<event>
 4    1  0.1762274E-004  0.4827641E+03  0.7818608E-02  0.1018378E+00
          2   -1    0    0  501    0  0.00000000000E+00  0.00000000000E+00  0.11556469240E+04  0.11556469240E+04  0.00000000000E+00 0. -1.
         -2   -1    0    0    0  501 -0.00000000000E+00 -0.00000000000E+00 -0.50417907808E+02  0.50417907808E+02  0.00000000000E+00 0. -1.
         25    1    1    2    0    0 -0.16010376520E+03 -0.13176009193E+03  0.62635994038E+03  0.67061219224E+03  0.12000000000E+03 0.  0.
         25    1    1    2    0    0  0.16010376520E+03  0.13176009193E+03  0.47886907580E+03  0.53545263956E+03  0.12000000000E+03 0.  0.
<mgrwt>
<rscale>  0 0.48276412E+03</rscale>
<asrwt>0</asrwt>
<pdfrwt beam="1">  1        2 0.17779181E+00 0.48276412E+03</pdfrwt>
<pdfrwt beam="2">  1       -2 0.77566021E-02 0.48276412E+03</pdfrwt>
<totfact> 0.21015203E+03</totfact>
</mgrwt>
</event>
<event>
 4    1  0.1762274E-004  0.5310565E+03  0.7818608E-02  0.1005976E+00
         -2   -1    0    0    0  501 -0.00000000000E+00  0.00000000000E+00  0.25080853420E+03  0.25080853420E+03  0.00000000000E+00 0.  1.
          2   -1    0    0  501    0  0.00000000000E+00 -0.00000000000E+00 -0.28111181563E+03  0.28111181563E+03  0.00000000000E+00 0.  1.
         25    1    1    2    0    0 -0.14068535018E+03 -0.19054938818E+03 -0.17105540482E+02  0.26607148777E+03  0.12000000000E+03 0.  0.
         25    1    1    2    0    0  0.14068535018E+03  0.19054938818E+03 -0.13197740944E+02  0.26584886206E+03  0.12000000000E+03 0.  0.
<mgrwt>
<rscale>  0 0.53105647E+03</rscale>
<asrwt>0</asrwt>
<pdfrwt beam="1">  1        2 0.43247972E-01 0.53105647E+03</pdfrwt>
<pdfrwt beam="2">  1       -2 0.38585928E-01 0.53105647E+03</pdfrwt>
<totfact> 0.75270800E+02</totfact>
</mgrwt>
</event>
<event>
 4    1  0.1762274E-004  0.2639734E+03  0.7818608E-02  0.1104779E+00
          2   -1    0    0  501    0  0.00000000000E+00  0.00000000000E+00  0.28575641111E+03  0.28575641111E+03  0.00000000000E+00 0. -1.
         -2   -1    0    0    0  501 -0.00000000000E+00 -0.00000000000E+00 -0.60962708098E+02  0.60962708098E+02  0.00000000000E+00 0. -1.
         25    1    1    2    0    0  0.33428165372E+02 -0.41866680591E+02  0.96298307193E+02  0.16292214445E+03  0.12000000000E+03 0.  0.
         25    1    1    2    0    0 -0.33428165372E+02  0.41866680591E+02  0.12849539582E+03  0.18379697476E+03  0.12000000000E+03 0.  0.
<mgrwt>
<rscale>  0 0.26397337E+03</rscale>
<asrwt>0</asrwt>
<pdfrwt beam="1">  1        2 0.43962524E-01 0.26397337E+03</pdfrwt>
<pdfrwt beam="2">  1       -2 0.93788784E-02 0.26397337E+03</pdfrwt>
<totfact> 0.83887473E+03</totfact>
</mgrwt>
</event>
<event>
 4    1  0.1762274E-004  0.2459605E+03  0.7818608E-02  0.1115885E+00
         -2   -1    0    0    0  501 -0.00000000000E+00  0.00000000000E+00  0.53900384932E+01  0.53900384932E+01  0.00000000000E+00 0.  1.
          2   -1    0    0  501    0  0.00000000000E+00 -0.00000000000E+00 -0.28059421278E+04  0.28059421278E+04  0.00000000000E+00 0.  1.
         25    1    1    2    0    0  0.70079273929E+01  0.23490730524E+02 -0.12734025404E+04  0.12792790764E+04  0.12000000000E+03 0.  0.
         25    1    1    2    0    0 -0.70079273929E+01 -0.23490730524E+02 -0.15271495489E+04  0.15320530899E+04  0.12000000000E+03 0.  0.
<mgrwt>
<rscale>  0 0.24596045E+03</rscale>
<asrwt>0</asrwt>
<pdfrwt beam="1">  1        2 0.43168405E+00 0.24596045E+03</pdfrwt>
<pdfrwt beam="2">  1       -2 0.82923546E-03 0.24596045E+03</pdfrwt>
<totfact> 0.75664973E+03</totfact>
</mgrwt>
</event>
<event>
 4    1  0.1762274E-004  0.2448525E+03  0.7818608E-02  0.1116602E+00
          2   -1    0    0  501    0  0.00000000000E+00  0.00000000000E+00  0.17978595142E+03  0.17978595142E+03  0.00000000000E+00 0. -1.
         -2   -1    0    0    0  501 -0.00000000000E+00 -0.00000000000E+00 -0.83366836504E+02  0.83366836504E+02  0.00000000000E+00 0. -1.
         25    1    1    2    0    0 -0.19855320402E+02  0.38892964222E+01  0.33837520034E+02  0.12631048308E+03  0.12000000000E+03 0.  0.
         25    1    1    2    0    0  0.19855320402E+02 -0.38892964222E+01  0.62581594878E+02  0.13684230483E+03  0.12000000000E+03 0.  0.
<mgrwt>
<rscale>  0 0.24485249E+03</rscale>
<asrwt>0</asrwt>
<pdfrwt beam="1">  1        2 0.27659377E-01 0.24485249E+03</pdfrwt>
<pdfrwt beam="2">  1       -2 0.12825667E-01 0.24485249E+03</pdfrwt>
<totfact> 0.83798114E+03</totfact>
</mgrwt>
</event>
<event>
 4    1  0.1762274E-004  0.3274480E+03  0.7818608E-02  0.1072272E+00
          1   -1    0    0  501    0  0.00000000000E+00  0.00000000000E+00  0.84493185176E+03  0.84493185176E+03  0.00000000000E+00 0. -1.
         -1   -1    0    0    0  501 -0.00000000000E+00 -0.00000000000E+00 -0.31725099564E+02  0.31725099564E+02  0.00000000000E+00 0. -1.
         25    1    1    2    0    0  0.96794038828E+02  0.52942435833E+02  0.44751872527E+03  0.47628247598E+03  0.12000000000E+03 0.  0.
         25    1    1    2    0    0 -0.96794038828E+02 -0.52942435833E+02  0.36568802694E+03  0.40037447535E+03  0.12000000000E+03 0.  0.
<mgrwt>
<rscale>  0 0.32744799E+03</rscale>
<asrwt>0</asrwt>
<pdfrwt beam="1">  1        1 0.12998950E+00 0.32744799E+03</pdfrwt>
<pdfrwt beam="2">  1       -1 0.48807852E-02 0.32744799E+03</pdfrwt>
<totfact> 0.38686381E+03</totfact>
</mgrwt>
</event>
<event>
 4    1  0.1762274E-004  0.2820688E+03  0.7818608E-02  0.1094564E+00
         -3   -1    0    0    0  501 -0.00000000000E+00  0.00000000000E+00  0.17226120098E+03  0.17226120098E+03  0.00000000000E+00 0.  1.
          3   -1    0    0  501    0  0.00000000000E+00 -0.00000000000E+00 -0.11546830537E+03  0.11546830537E+03  0.00000000000E+00 0.  1.
         25    1    1    2    0    0 -0.62706799563E+02 -0.38092175828E+02  0.38975318318E+02  0.14595284173E+03  0.12000000000E+03 0.  0.
         25    1    1    2    0    0  0.62706799563E+02  0.38092175828E+02  0.17817577288E+02  0.14177666462E+03  0.12000000000E+03 0.  0.
<mgrwt>
<rscale>  0 0.28206885E+03</rscale>
<asrwt>0</asrwt>
<pdfrwt beam="1">  1        3 0.17764355E-01 0.28206885E+03</pdfrwt>
<pdfrwt beam="2">  1       -3 0.26501723E-01 0.28206885E+03</pdfrwt>
<totfact> 0.95240976E+02</totfact>
</mgrwt>
</event>
<event>
 4    1  0.1762274E-004  0.2758467E+03  0.7818608E-02  0.1097979E+00
         -2   -1    0    0    0  501 -0.00000000000E+00  0.00000000000E+00  0.22863213191E+02  0.22863213191E+02  0.00000000000E+00 0.  1.
          2   -1    0    0  501    0  0.00000000000E+00 -0.00000000000E+00 -0.83202845488E+03  0.83202845488E+03  0.00000000000E+00 0.  1.
         25    1    1    2    0    0 -0.54021172828E+02 -0.21601402973E+02 -0.51362429260E+03  0.53065508729E+03  0.12000000000E+03 0.  0.
         25    1    1    2    0    0  0.54021172828E+02  0.21601402973E+02 -0.29554094909E+03  0.32423658077E+03  0.12000000000E+03 0.  0.
<mgrwt>
<rscale>  0 0.27584665E+03</rscale>
<asrwt>0</asrwt>
<pdfrwt beam="1">  1        2 0.12800437E+00 0.27584665E+03</pdfrwt>
<pdfrwt beam="2">  1       -2 0.35174176E-02 0.27584665E+03</pdfrwt>
<totfact> 0.11214556E+04</totfact>
</mgrwt>
</event>
<event>
 4    1  0.1762274E-004  0.3480492E+03  0.7818608E-02  0.1063419E+00
          1   -1    0    0  501    0  0.00000000000E+00  0.00000000000E+00  0.14137215088E+03  0.14137215088E+03  0.00000000000E+00 0. -1.
         -1   -1    0    0    0  501 -0.00000000000E+00 -0.00000000000E+00 -0.21421877207E+03  0.21421877207E+03  0.00000000000E+00 0. -1.
         25    1    1    2    0    0  0.22317861178E+02  0.35929212064E+02  0.84874049283E+02  0.15294639404E+03  0.12000000000E+03 0.  0.
         25    1    1    2    0    0 -0.22317861178E+02 -0.35929212064E+02 -0.15772067047E+03  0.20264452892E+03  0.12000000000E+03 0.  0.
<mgrwt>
<rscale>  0 0.34804924E+03</rscale>
<asrwt>0</asrwt>
<pdfrwt beam="1">  1        1 0.21749562E-01 0.34804924E+03</pdfrwt>
<pdfrwt beam="2">  1       -1 0.32956734E-01 0.34804924E+03</pdfrwt>
<totfact> 0.19960984E+03</totfact>
</mgrwt>
</event>
<event>
 4    1  0.1762274E-004  0.3209522E+03  0.7818608E-02  0.1075212E+00
          2   -1    0    0  501    0  0.00000000000E+00  0.00000000000E+00  0.26255032184E+04  0.26255032184E+04  0.00000000000E+00 0. -1.
         -2   -1    0    0    0  501 -0.00000000000E+00 -0.00000000000E+00 -0.98086256666E+01  0.98086256666E+01  0.00000000000E+00 0. -1.
         25    1    1    2    0    0 -0.68630758594E+02 -0.78363314719E+02  0.14917403349E+04  0.15001800614E+04  0.12000000000E+03 0.  0.
         25    1    1    2    0    0  0.68630758594E+02  0.78363314719E+02  0.11239542579E+04  0.11351317826E+04  0.12000000000E+03 0.  0.
<mgrwt>
<rscale>  0 0.32095220E+03</rscale>
<asrwt>0</asrwt>
<pdfrwt beam="1">  1        2 0.40392301E+00 0.32095220E+03</pdfrwt>
<pdfrwt beam="2">  1       -2 0.15090214E-02 0.32095220E+03</pdfrwt>
<totfact> 0.39882703E+03</totfact>
</mgrwt>
</event>
<event>
 4    1  0.1762274E-004  0.2579758E+03  0.7818608E-02  0.1108366E+00
         -2   -1    0    0    0  501 -0.00000000000E+00  0.00000000000E+00  0.28025750139E+02  0.28025750139E+02  0.00000000000E+00 0. -1.
          2   -1    0    0  501    0  0.00000000000E+00 -0.00000000000E+00 -0.59366380968E+03  0.59366380968E+03  0.00000000000E+00 0. -1.
         25    1    1    2    0    0 -0.18900313315E+02 -0.30180955425E+02 -0.20777309381E+03  0.24256498186E+03  0.12000000000E+03 0.  0.
         25    1    1    2    0    0  0.18900313315E+02  0.30180955425E+02 -0.35786496574E+03  0.37912457796E+03  0.12000000000E+03 0.  0.
<mgrwt>
<rscale>  0 0.25797576E+03</rscale>
<asrwt>0</asrwt>
<pdfrwt beam="1">  1        2 0.91332890E-01 0.25797576E+03</pdfrwt>
<pdfrwt beam="2">  1       -2 0.43116540E-02 0.25797576E+03</pdfrwt>
<totfact> 0.12426606E+04</totfact>
</mgrwt>
</event>
<event>
 4    1  0.1762274E-004  0.2891140E+03  0.7818608E-02  0.1090813E+00
         -1   -1    0    0    0  501 -0.00000000000E+00  0.00000000000E+00  0.14174098912E+03  0.14174098912E+03  0.00000000000E+00 0. -1.
          1   -1    0    0  501    0  0.00000000000E+00 -0.00000000000E+00 -0.14742895497E+03  0.14742895497E+03  0.00000000000E+00 0. -1.
         25    1    1    2    0    0  0.76954917925E+02 -0.24755375454E+01  0.21004670728E+02  0.14411586960E+03  0.12000000000E+03 0.  0.
         25    1    1    2    0    0 -0.76954917925E+02  0.24755375454E+01 -0.26692636576E+02  0.14505407449E+03  0.12000000000E+03 0.  0.
<mgrwt>
<rscale>  0 0.28911400E+03</rscale>
<asrwt>0</asrwt>
<pdfrwt beam="1">  1        1 0.22681378E-01 0.28911400E+03</pdfrwt>
<pdfrwt beam="2">  1       -1 0.21806306E-01 0.28911400E+03</pdfrwt>
<totfact> 0.37792011E+03</totfact>
</mgrwt>
</event>
<event>
 4    1  0.1762274E-004  0.3923067E+03  0.7818608E-02  0.1046477E+00
         -2   -1    0    0    0  501 -0.00000000000E+00  0.00000000000E+00  0.93969828530E+01  0.93969828530E+01  0.00000000000E+00 0. -1.
          2   -1    0    0  501    0  0.00000000000E+00 -0.00000000000E+00 -0.40945207053E+04  0.40945207053E+04  0.00000000000E+00 0. -1.
         25    1    1    2    0    0 -0.63910295512E+02 -0.10411400350E+03 -0.10418057032E+04  0.10557856671E+04  0.12000000000E+03 0.  0.
         25    1    1    2    0    0  0.63910295512E+02  0.10411400350E+03 -0.30433180193E+04  0.30481320211E+04  0.12000000000E+03 0.  0.
<mgrwt>
<rscale>  0 0.39230672E+03</rscale>
<asrwt>0</asrwt>
<pdfrwt beam="1">  1        2 0.62992721E+00 0.39230672E+03</pdfrwt>
<pdfrwt beam="2">  1       -2 0.14456875E-02 0.39230672E+03</pdfrwt>
<totfact> 0.45624327E+02</totfact>
</mgrwt>
</event>
<event>
 4    1  0.1762274E-004  0.4162627E+03  0.7818608E-02  0.1038290E+00
          1   -1    0    0  501    0  0.00000000000E+00  0.00000000000E+00  0.54307136744E+02  0.54307136744E+02  0.00000000000E+00 0.  1.
         -1   -1    0    0    0  501 -0.00000000000E+00 -0.00000000000E+00 -0.79766037364E+03  0.79766037364E+03  0.00000000000E+00 0.  1.
         25    1    1    2    0    0  0.75083715491E+02 -0.87525796700E+02 -0.11587660615E+03  0.20279476638E+03  0.12000000000E+03 0.  0.
         25    1    1    2    0    0 -0.75083715491E+02  0.87525796700E+02 -0.62747663075E+03  0.64917274400E+03  0.12000000000E+03 0.  0.
<mgrwt>
<rscale>  0 0.41626266E+03</rscale>
<asrwt>0</asrwt>
<pdfrwt beam="1">  1        1 0.83549444E-02 0.41626266E+03</pdfrwt>
<pdfrwt beam="2">  1       -1 0.12271698E+00 0.41626266E+03</pdfrwt>
<totfact> 0.51333389E+02</totfact>
</mgrwt>
</event>
<event>
 4    1  0.1762274E-004  0.2509435E+03  0.7818608E-02  0.1112710E+00
          2   -1    0    0  501    0  0.00000000000E+00  0.00000000000E+00  0.16637576972E+03  0.16637576972E+03  0.00000000000E+00 0. -1.
         -2   -1    0    0    0  501 -0.00000000000E+00 -0.00000000000E+00 -0.94624117112E+02  0.94624117112E+02  0.00000000000E+00 0. -1.
         25    1    1    2    0    0 -0.26122274488E+02  0.23494449603E+02  0.25027201611E+02  0.12751754078E+03  0.12000000000E+03 0.  0.
         25    1    1    2    0    0  0.26122274488E+02 -0.23494449603E+02  0.46724450999E+02  0.13348234605E+03  0.12000000000E+03 0.  0.
<mgrwt>
<rscale>  0 0.25094350E+03</rscale>
<asrwt>0</asrwt>
<pdfrwt beam="1">  1        2 0.25596272E-01 0.25094350E+03</pdfrwt>
<pdfrwt beam="2">  1       -2 0.14557556E-01 0.25094350E+03</pdfrwt>
<totfact> 0.74331642E+03</totfact>
</mgrwt>
</event>
<event>
 4    1  0.1762274E-004  0.2931641E+03  0.7818608E-02  0.1088709E+00
          1   -1    0    0  501    0  0.00000000000E+00  0.00000000000E+00  0.17269031879E+03  0.17269031879E+03  0.00000000000E+00 0. -1.
         -1   -1    0    0    0  501 -0.00000000000E+00 -0.00000000000E+00 -0.12442095631E+03  0.12442095631E+03  0.00000000000E+00 0. -1.
         25    1    1    2    0    0  0.63432920094E+02  0.47067269405E+02 -0.53644616834E+01  0.14376314079E+03  0.12000000000E+03 0.  0.
         25    1    1    2    0    0 -0.63432920094E+02 -0.47067269405E+02  0.53633824168E+02  0.15334813431E+03  0.12000000000E+03 0.  0.
<mgrwt>
<rscale>  0 0.29316408E+03</rscale>
<asrwt>0</asrwt>
<pdfrwt beam="1">  1        1 0.26567741E-01 0.29316408E+03</pdfrwt>
<pdfrwt beam="2">  1       -1 0.19141686E-01 0.29316408E+03</pdfrwt>
<totfact> 0.38215777E+03</totfact>
</mgrwt>
</event>
<event>
 4    1  0.1762274E-004  0.2775851E+03  0.7818608E-02  0.1097015E+00
          2   -1    0    0  501    0  0.00000000000E+00  0.00000000000E+00  0.22748385295E+03  0.22748385295E+03  0.00000000000E+00 0. -1.
         -2   -1    0    0    0  501 -0.00000000000E+00 -0.00000000000E+00 -0.84680199851E+02  0.84680199851E+02  0.00000000000E+00 0. -1.
         25    1    1    2    0    0  0.29022735199E+02 -0.61990495325E+02  0.56388180795E+02  0.14921383181E+03  0.12000000000E+03 0.  0.
         25    1    1    2    0    0 -0.29022735199E+02  0.61990495325E+02  0.86415472306E+02  0.16295022100E+03  0.12000000000E+03 0.  0.
<mgrwt>
<rscale>  0 0.27758514E+03</rscale>
<asrwt>0</asrwt>
<pdfrwt beam="1">  1        2 0.34997516E-01 0.27758514E+03</pdfrwt>
<pdfrwt beam="2">  1       -2 0.13027723E-01 0.27758514E+03</pdfrwt>
<totfact> 0.63487051E+03</totfact>
</mgrwt>
</event>
<event>
 4    1  0.1762274E-004  0.2815381E+03  0.7818608E-02  0.1094852E+00
         -1   -1    0    0    0  501 -0.00000000000E+00  0.00000000000E+00  0.31316702841E+02  0.31316702841E+02  0.00000000000E+00 0. -1.
          1   -1    0    0  501    0  0.00000000000E+00 -0.00000000000E+00 -0.63275880559E+03  0.63275880559E+03  0.00000000000E+00 0. -1.
         25    1    1    2    0    0 -0.14380126580E+02 -0.65580427439E+02 -0.37181036635E+03  0.39642216012E+03  0.12000000000E+03 0.  0.
         25    1    1    2    0    0  0.14380126580E+02  0.65580427439E+02 -0.22963173639E+03  0.26765334831E+03  0.12000000000E+03 0.  0.
<mgrwt>
<rscale>  0 0.28153806E+03</rscale>
<asrwt>0</asrwt>
<pdfrwt beam="1">  1        1 0.97347507E-01 0.28153806E+03</pdfrwt>
<pdfrwt beam="2">  1       -1 0.48179544E-02 0.28153806E+03</pdfrwt>
<totfact> 0.60570722E+03</totfact>
</mgrwt>
</event>
<event>
 4    1  0.1762274E-004  0.3289094E+03  0.7818608E-02  0.1071620E+00
         -2   -1    0    0    0  501 -0.00000000000E+00  0.00000000000E+00  0.17830808000E+02  0.17830808000E+02  0.00000000000E+00 0.  1.
          2   -1    0    0  501    0  0.00000000000E+00 -0.00000000000E+00 -0.15167764436E+04  0.15167764436E+04  0.00000000000E+00 0.  1.
         25    1    1    2    0    0  0.79166611728E+01 -0.72959237148E+02 -0.35193535025E+03  0.37900424083E+03  0.12000000000E+03 0.  0.
         25    1    1    2    0    0 -0.79166611728E+01  0.72959237148E+02 -0.11470102854E+04  0.11556030108E+04  0.12000000000E+03 0.  0.
<mgrwt>
<rscale>  0 0.32890941E+03</rscale>
<asrwt>0</asrwt>
<pdfrwt beam="1">  1        2 0.23335020E+00 0.32890941E+03</pdfrwt>
<pdfrwt beam="2">  1       -2 0.27432015E-02 0.32890941E+03</pdfrwt>
<totfact> 0.64856078E+03</totfact>
</mgrwt>
</event>
<event>
 4    1  0.1762274E-004  0.2483965E+03  0.7818608E-02  0.1114322E+00
         -2   -1    0    0    0  501 -0.00000000000E+00  0.00000000000E+00  0.28973983497E+02  0.28973983497E+02  0.00000000000E+00 0. -1.
          2   -1    0    0  501    0  0.00000000000E+00 -0.00000000000E+00 -0.53238116360E+03  0.53238116360E+03  0.00000000000E+00 0. -1.
         25    1    1    2    0    0 -0.25985789276E+02 -0.38175274604E+01 -0.21031760794E+03  0.24356381294E+03  0.12000000000E+03 0.  0.
         25    1    1    2    0    0  0.25985789276E+02  0.38175274604E+01 -0.29308957216E+03  0.31779133417E+03  0.12000000000E+03 0.  0.
<mgrwt>
<rscale>  0 0.24839648E+03</rscale>
<asrwt>0</asrwt>
<pdfrwt beam="1">  1        2 0.81904801E-01 0.24839648E+03</pdfrwt>
<pdfrwt beam="2">  1       -2 0.44575356E-02 0.24839648E+03</pdfrwt>
<totfact> 0.13360672E+04</totfact>
</mgrwt>
</event>
<event>
 4    1  0.1762274E-004  0.2685895E+03  0.7818608E-02  0.1102090E+00
         -2   -1    0    0    0  501 -0.00000000000E+00  0.00000000000E+00  0.40082508999E+03  0.40082508999E+03  0.00000000000E+00 0. -1.
          2   -1    0    0  501    0  0.00000000000E+00 -0.00000000000E+00 -0.44994892047E+02  0.44994892047E+02  0.00000000000E+00 0. -1.
         25    1    1    2    0    0  0.46530233840E+02  0.17607421383E+02  0.12138248813E+03  0.17778861711E+03  0.12000000000E+03 0.  0.
         25    1    1    2    0    0 -0.46530233840E+02 -0.17607421383E+02  0.23444770981E+03  0.26803136493E+03  0.12000000000E+03 0.  0.
<mgrwt>
<rscale>  0 0.26858951E+03</rscale>
<asrwt>0</asrwt>
<pdfrwt beam="1">  1        2 0.69222914E-02 0.26858951E+03</pdfrwt>
<pdfrwt beam="2">  1       -2 0.61665396E-01 0.26858951E+03</pdfrwt>
<totfact> 0.25494291E+03</totfact>
</mgrwt>
</event>
<event>
 4    1  0.1762274E-004  0.2460924E+03  0.7818608E-02  0.1115800E+00
         -2   -1    0    0    0  501 -0.00000000000E+00  0.00000000000E+00  0.12568153131E+03  0.12568153131E+03  0.00000000000E+00 0. -1.
          2   -1    0    0  501    0  0.00000000000E+00 -0.00000000000E+00 -0.12046611699E+03  0.12046611699E+03  0.00000000000E+00 0. -1.
         25    1    1    2    0    0 -0.18912580587E+02  0.83509261767E+01  0.20301856955E+02  0.12344873053E+03  0.12000000000E+03 0.  0.
         25    1    1    2    0    0  0.18912580587E+02 -0.83509261767E+01 -0.15086442632E+02  0.12269891778E+03  0.12000000000E+03 0.  0.
<mgrwt>
<rscale>  0 0.24609239E+03</rscale>
<asrwt>0</asrwt>
<pdfrwt beam="1">  1        2 0.18533249E-01 0.24609239E+03</pdfrwt>
<pdfrwt beam="2">  1       -2 0.19335620E-01 0.24609239E+03</pdfrwt>
<totfact> 0.66619105E+03</totfact>
</mgrwt>
</event>
<event>
 4    1  0.1762274E-004  0.4365653E+03  0.7818608E-02  0.1031806E+00
          2   -1    0    0  501    0  0.00000000000E+00  0.00000000000E+00  0.84378011902E+03  0.84378011902E+03  0.00000000000E+00 0.  1.
         -2   -1    0    0    0  501 -0.00000000000E+00 -0.00000000000E+00 -0.56468887220E+02  0.56468887220E+02  0.00000000000E+00 0.  1.
         25    1    1    2    0    0  0.49575914404E+02 -0.96432551392E+02  0.69595328463E+03  0.71449841333E+03  0.12000000000E+03 0.  0.
         25    1    1    2    0    0 -0.49575914404E+02  0.96432551392E+02  0.91357947168E+02  0.18575059291E+03  0.12000000000E+03 0.  0.
<mgrwt>
<rscale>  0 0.43656534E+03</rscale>
<asrwt>0</asrwt>
<pdfrwt beam="1">  1        2 0.12981232E+00 0.43656534E+03</pdfrwt>
<pdfrwt beam="2">  1       -2 0.86875217E-02 0.43656534E+03</pdfrwt>
<totfact> 0.27598582E+03</totfact>
</mgrwt>
</event>
<event>
 4    1  0.1762274E-004  0.2911723E+03  0.7818608E-02  0.1089739E+00
          2   -1    0    0  501    0  0.00000000000E+00  0.00000000000E+00  0.19783342720E+04  0.19783342720E+04  0.00000000000E+00 0.  1.
         -2   -1    0    0    0  501 -0.00000000000E+00 -0.00000000000E+00 -0.10713726901E+02  0.10713726901E+02  0.00000000000E+00 0.  1.
         25    1    1    2    0    0 -0.50569765648E+02  0.39363155671E+02  0.13380164513E+04  0.13449144148E+04  0.12000000000E+03 0.  0.
         25    1    1    2    0    0  0.50569765648E+02 -0.39363155671E+02  0.62960409385E+03  0.64413358413E+03  0.12000000000E+03 0.  0.
<mgrwt>
<rscale>  0 0.29117234E+03</rscale>
<asrwt>0</asrwt>
<pdfrwt beam="1">  1        2 0.30435883E+00 0.29117234E+03</pdfrwt>
<pdfrwt beam="2">  1       -2 0.16482672E-02 0.29117234E+03</pdfrwt>
<totfact> 0.78412360E+03</totfact>
</mgrwt>
</event>
<event>
 4    1  0.1762274E-004  0.2758798E+03  0.7818608E-02  0.1097961E+00
         -2   -1    0    0    0  501 -0.00000000000E+00  0.00000000000E+00  0.61759512346E+02  0.61759512346E+02  0.00000000000E+00 0. -1.
          2   -1    0    0  501    0  0.00000000000E+00 -0.00000000000E+00 -0.30808889400E+03  0.30808889400E+03  0.00000000000E+00 0. -1.
         25    1    1    2    0    0 -0.62123554449E+02 -0.21889919578E+02 -0.14595179003E+03  0.20010104850E+03  0.12000000000E+03 0.  0.
         25    1    1    2    0    0  0.62123554449E+02  0.21889919578E+02 -0.10037759162E+03  0.16974735785E+03  0.12000000000E+03 0.  0.
<mgrwt>
<rscale>  0 0.27587983E+03</rscale>
<asrwt>0</asrwt>
<pdfrwt beam="1">  1        2 0.47398291E-01 0.27587983E+03</pdfrwt>
<pdfrwt beam="2">  1       -2 0.95014635E-02 0.27587983E+03</pdfrwt>
<totfact> 0.75929887E+03</totfact>
</mgrwt>
</event>
<event>
 4    1  0.1762274E-004  0.2619921E+03  0.7818608E-02  0.1105952E+00
         -2   -1    0    0    0  501 -0.00000000000E+00  0.00000000000E+00  0.13043559866E+03  0.13043559866E+03  0.00000000000E+00 0.  1.
          2   -1    0    0  501    0  0.00000000000E+00 -0.00000000000E+00 -0.13155886137E+03  0.13155886137E+03  0.00000000000E+00 0.  1.
         25    1    1    2    0    0 -0.44781923435E+02  0.10512793373E+02 -0.25939400936E+02  0.13110603347E+03  0.12000000000E+03 0.  0.
         25    1    1    2    0    0  0.44781923435E+02 -0.10512793373E+02  0.24816138224E+02  0.13088842656E+03  0.12000000000E+03 0.  0.
<mgrwt>
<rscale>  0 0.26199205E+03</rscale>
<asrwt>0</asrwt>
<pdfrwt beam="1">  1        2 0.20239825E-01 0.26199205E+03</pdfrwt>
<pdfrwt beam="2">  1       -2 0.20067015E-01 0.26199205E+03</pdfrwt>
<totfact> 0.56665251E+03</totfact>
</mgrwt>
</event>
<event>
 4    1  0.1762274E-004  0.3596242E+03  0.7818608E-02  0.1058733E+00
         -2   -1    0    0    0  501 -0.00000000000E+00  0.00000000000E+00  0.95532174658E+02  0.95532174658E+02  0.00000000000E+00 0. -1.
          2   -1    0    0  501    0  0.00000000000E+00 -0.00000000000E+00 -0.33844499261E+03  0.33844499261E+03  0.00000000000E+00 0. -1.
         25    1    1    2    0    0  0.10354880837E+03 -0.56541097009E+02 -0.19790330904E+03  0.25977869639E+03  0.12000000000E+03 0.  0.
         25    1    1    2    0    0 -0.10354880837E+03  0.56541097009E+02 -0.45009508916E+02  0.17419847089E+03  0.12000000000E+03 0.  0.
<mgrwt>
<rscale>  0 0.35962417E+03</rscale>
<asrwt>0</asrwt>
<pdfrwt beam="1">  1        2 0.52068461E-01 0.35962417E+03</pdfrwt>
<pdfrwt beam="2">  1       -2 0.14697258E-01 0.35962417E+03</pdfrwt>
<totfact> 0.34094899E+03</totfact>
</mgrwt>
</event>
<event>
 4    1  0.1762274E-004  0.2878669E+03  0.7818608E-02  0.1091468E+00
          2   -1    0    0  501    0  0.00000000000E+00  0.00000000000E+00  0.58451268267E+03  0.58451268267E+03  0.00000000000E+00 0. -1.
         -2   -1    0    0    0  501 -0.00000000000E+00 -0.00000000000E+00 -0.35442927333E+02  0.35442927333E+02  0.00000000000E+00 0. -1.
         25    1    1    2    0    0 -0.64764770920E+02  0.40934411154E+02  0.32005419660E+03  0.35029243545E+03  0.12000000000E+03 0.  0.
         25    1    1    2    0    0  0.64764770920E+02 -0.40934411154E+02  0.22901555873E+03  0.26966317455E+03  0.12000000000E+03 0.  0.
<mgrwt>
<rscale>  0 0.28786692E+03</rscale>
<asrwt>0</asrwt>
<pdfrwt beam="1">  1        2 0.89925020E-01 0.28786692E+03</pdfrwt>
<pdfrwt beam="2">  1       -2 0.54527585E-02 0.28786692E+03</pdfrwt>
<totfact> 0.88971491E+03</totfact>
</mgrwt>
</event>
<event>
 4    1  0.1762274E-004  0.2758230E+03  0.7818608E-02  0.1097992E+00
         -1   -1    0    0    0  501 -0.00000000000E+00  0.00000000000E+00  0.12051092360E+03  0.12051092360E+03  0.00000000000E+00 0. -1.
          1   -1    0    0  501    0  0.00000000000E+00 -0.00000000000E+00 -0.15782450692E+03  0.15782450692E+03  0.00000000000E+00 0. -1.
         25    1    1    2    0    0 -0.47047034056E+02  0.47981838701E+02 -0.83709642404E+01  0.13778879962E+03  0.12000000000E+03 0.  0.
         25    1    1    2    0    0  0.47047034056E+02 -0.47981838701E+02 -0.28942619080E+02  0.14054663090E+03  0.12000000000E+03 0.  0.
<mgrwt>
<rscale>  0 0.27582297E+03</rscale>
<asrwt>0</asrwt>
<pdfrwt beam="1">  1        1 0.24280693E-01 0.27582297E+03</pdfrwt>
<pdfrwt beam="2">  1       -1 0.18540142E-01 0.27582297E+03</pdfrwt>
<totfact> 0.45053586E+03</totfact>
</mgrwt>
</event>
<event>
 4    1  0.1762274E-004  0.4042624E+03  0.7818608E-02  0.1042314E+00
         -2   -1    0    0    0  501 -0.00000000000E+00  0.00000000000E+00  0.13243585328E+03  0.13243585328E+03  0.00000000000E+00 0.  1.
          2   -1    0    0  501    0  0.00000000000E+00 -0.00000000000E+00 -0.30850426174E+03  0.30850426174E+03  0.00000000000E+00 0.  1.
         25    1    1    2    0    0 -0.61288076491E+02  0.11954664307E+03 -0.18805692667E+03  0.26040936208E+03  0.12000000000E+03 0.  0.
         25    1    1    2    0    0  0.61288076491E+02 -0.11954664307E+03  0.11988518217E+02  0.18053075294E+03  0.12000000000E+03 0.  0.
<mgrwt>
<rscale>  0 0.40426242E+03</rscale>
<asrwt>0</asrwt>
<pdfrwt beam="1">  1        2 0.47462194E-01 0.40426242E+03</pdfrwt>
<pdfrwt beam="2">  1       -2 0.20374747E-01 0.40426242E+03</pdfrwt>
<totfact> 0.21730017E+03</totfact>
</mgrwt>
</event>
<event>
 4    1  0.1762274E-004  0.2738878E+03  0.7818608E-02  0.1099075E+00
          1   -1    0    0  501    0  0.00000000000E+00  0.00000000000E+00  0.22271236040E+03  0.22271236040E+03  0.00000000000E+00 0. -1.
         -1   -1    0    0    0  501 -0.00000000000E+00 -0.00000000000E+00 -0.84205593481E+02  0.84205593481E+02  0.00000000000E+00 0. -1.
         25    1    1    2    0    0 -0.60924627765E+02  0.19061215189E+02  0.50552954115E+02  0.14501979645E+03  0.12000000000E+03 0.  0.
         25    1    1    2    0    0  0.60924627765E+02 -0.19061215189E+02  0.87953812806E+02  0.16189815743E+03  0.12000000000E+03 0.  0.
<mgrwt>
<rscale>  0 0.27388776E+03</rscale>
<asrwt>0</asrwt>
<pdfrwt beam="1">  1        1 0.34263440E-01 0.27388776E+03</pdfrwt>
<pdfrwt beam="2">  1       -1 0.12954707E-01 0.27388776E+03</pdfrwt>
<totfact> 0.51547571E+03</totfact>
</mgrwt>
</event>
<event>
 4    1  0.1762274E-004  0.2430622E+03  0.7818608E-02  0.1117770E+00
         -1   -1    0    0    0  501 -0.00000000000E+00  0.00000000000E+00  0.89942622011E+03  0.89942622011E+03  0.00000000000E+00 0. -1.
          1   -1    0    0  501    0  0.00000000000E+00 -0.00000000000E+00 -0.16421369122E+02  0.16421369122E+02  0.00000000000E+00 0. -1.
         25    1    1    2    0    0 -0.17078494693E+02 -0.40771244200E+01  0.41195049874E+03  0.42943161428E+03  0.12000000000E+03 0.  0.
         25    1    1    2    0    0  0.17078494693E+02  0.40771244200E+01  0.47105435224E+03  0.48641597495E+03  0.12000000000E+03 0.  0.
<mgrwt>
<rscale>  0 0.24306221E+03</rscale>
<asrwt>0</asrwt>
<pdfrwt beam="1">  1        1 0.25263652E-02 0.24306221E+03</pdfrwt>
<pdfrwt beam="2">  1       -1 0.13837323E+00 0.24306221E+03</pdfrwt>
<totfact> 0.20137697E+03</totfact>
</mgrwt>
</event>
<event>
 4    1  0.1762274E-004  0.2538825E+03  0.7818608E-02  0.1110875E+00
          1   -1    0    0  501    0  0.00000000000E+00  0.00000000000E+00  0.21314523473E+02  0.21314523473E+02  0.00000000000E+00 0.  1.
         -1   -1    0    0    0  501 -0.00000000000E+00 -0.00000000000E+00 -0.75601421670E+03  0.75601421670E+03  0.00000000000E+00 0.  1.
         25    1    1    2    0    0 -0.37916074832E+02 -0.10437415661E+02 -0.32772222603E+03  0.35120994549E+03  0.12000000000E+03 0.  0.
         25    1    1    2    0    0  0.37916074832E+02  0.10437415661E+02 -0.40697746720E+03  0.42611879468E+03  0.12000000000E+03 0.  0.
<mgrwt>
<rscale>  0 0.25388251E+03</rscale>
<asrwt>0</asrwt>
<pdfrwt beam="1">  1        1 0.32791576E-02 0.25388251E+03</pdfrwt>
<pdfrwt beam="2">  1       -1 0.11630987E+00 0.25388251E+03</pdfrwt>
<totfact> 0.21336205E+03</totfact>
</mgrwt>
</event>
<event>
 4    1  0.1762274E-004  0.3194210E+03  0.7818608E-02  0.1075916E+00
         -1   -1    0    0    0  501 -0.00000000000E+00  0.00000000000E+00  0.38988450017E+02  0.38988450017E+02  0.00000000000E+00 0.  1.
          1   -1    0    0  501    0  0.00000000000E+00 -0.00000000000E+00 -0.65423068668E+03  0.65423068668E+03  0.00000000000E+00 0.  1.
         25    1    1    2    0    0  0.45647738338E+02  0.91587530355E+02 -0.36232867931E+03  0.39516333785E+03  0.12000000000E+03 0.  0.
         25    1    1    2    0    0 -0.45647738338E+02 -0.91587530355E+02 -0.25291355735E+03  0.29805579885E+03  0.12000000000E+03 0.  0.
<mgrwt>
<rscale>  0 0.31942098E+03</rscale>
<asrwt>0</asrwt>
<pdfrwt beam="1">  1        1 0.10065087E+00 0.31942098E+03</pdfrwt>
<pdfrwt beam="2">  1       -1 0.59982235E-02 0.31942098E+03</pdfrwt>
<totfact> 0.41639934E+03</totfact>
</mgrwt>
</event>
<event>
 4    1  0.1762274E-004  0.2500836E+03  0.7818608E-02  0.1113252E+00
         -1   -1    0    0    0  501 -0.00000000000E+00  0.00000000000E+00  0.97607593484E+02  0.97607593484E+02  0.00000000000E+00 0.  1.
          1   -1    0    0  501    0  0.00000000000E+00 -0.00000000000E+00 -0.16018685340E+03  0.16018685340E+03  0.00000000000E+00 0.  1.
         25    1    1    2    0    0 -0.12250321947E+01 -0.70534271752E+01 -0.66762895492E+02  0.13750831158E+03  0.12000000000E+03 0.  0.
         25    1    1    2    0    0  0.12250321947E+01  0.70534271752E+01  0.41836355803E+01  0.12028613530E+03  0.12000000000E+03 0.  0.
<mgrwt>
<rscale>  0 0.25008361E+03</rscale>
<asrwt>0</asrwt>
<pdfrwt beam="1">  1        1 0.24644131E-01 0.25008361E+03</pdfrwt>
<pdfrwt beam="2">  1       -1 0.15016553E-01 0.25008361E+03</pdfrwt>
<totfact> 0.61710550E+03</totfact>
</mgrwt>
</event>
<event>
 4    1  0.1762274E-004  0.4372172E+03  0.7818608E-02  0.1031604E+00
          2   -1    0    0  501    0  0.00000000000E+00  0.00000000000E+00  0.56757595968E+03  0.56757595968E+03  0.00000000000E+00 0.  1.
         -2   -1    0    0    0  501 -0.00000000000E+00 -0.00000000000E+00 -0.84199691917E+02  0.84199691917E+02  0.00000000000E+00 0.  1.
         25    1    1    2    0    0  0.13476152343E+03  0.12326321758E+03  0.25053662365E+03  0.33245012979E+03  0.12000000000E+03 0.  0.
         25    1    1    2    0    0 -0.13476152343E+03 -0.12326321758E+03  0.23283964411E+03  0.31932552181E+03  0.12000000000E+03 0.  0.
<mgrwt>
<rscale>  0 0.43721720E+03</rscale>
<asrwt>0</asrwt>
<pdfrwt beam="1">  1        2 0.87319376E-01 0.43721720E+03</pdfrwt>
<pdfrwt beam="2">  1       -2 0.12953799E-01 0.43721720E+03</pdfrwt>
<totfact> 0.23626747E+03</totfact>
</mgrwt>
</event>
<event>
 4    1  0.1762274E-004  0.2542704E+03  0.7818608E-02  0.1110635E+00
         -1   -1    0    0    0  501 -0.00000000000E+00  0.00000000000E+00  0.39718788844E+02  0.39718788844E+02  0.00000000000E+00 0.  1.
          1   -1    0    0  501    0  0.00000000000E+00 -0.00000000000E+00 -0.40694496632E+03  0.40694496632E+03  0.00000000000E+00 0.  1.
         25    1    1    2    0    0 -0.12488998846E+02  0.39469877835E+02 -0.17125211830E+03  0.21316926225E+03  0.12000000000E+03 0.  0.
         25    1    1    2    0    0  0.12488998846E+02 -0.39469877835E+02 -0.19597405918E+03  0.23349449291E+03  0.12000000000E+03 0.  0.
<mgrwt>
<rscale>  0 0.25427042E+03</rscale>
<asrwt>0</asrwt>
<pdfrwt beam="1">  1        1 0.62606916E-01 0.25427042E+03</pdfrwt>
<pdfrwt beam="2">  1       -1 0.61105830E-02 0.25427042E+03</pdfrwt>
<totfact> 0.76224621E+03</totfact>
</mgrwt>
</event>
<event>
 4    1  0.1762274E-004  0.3850708E+03  0.7818608E-02  0.1049075E+00
         -1   -1    0    0    0  501 -0.00000000000E+00  0.00000000000E+00  0.21052124900E+02  0.21052124900E+02  0.00000000000E+00 0. -1.
          1   -1    0    0  501    0  0.00000000000E+00 -0.00000000000E+00 -0.17608615526E+04  0.17608615526E+04  0.00000000000E+00 0. -1.
         25    1    1    2    0    0 -0.37281807234E+02 -0.20292657863E+02 -0.15383842073E+04  0.15436410510E+04  0.12000000000E+03 0.  0.
         25    1    1    2    0    0  0.37281807234E+02  0.20292657863E+02 -0.20142522034E+03  0.23827262642E+03  0.12000000000E+03 0.  0.
<mgrwt>
<rscale>  0 0.38507078E+03</rscale>
<asrwt>0</asrwt>
<pdfrwt beam="1">  1        1 0.27090185E+00 0.38507078E+03</pdfrwt>
<pdfrwt beam="2">  1       -1 0.32387875E-02 0.38507078E+03</pdfrwt>
<totfact> 0.16166504E+03</totfact>
</mgrwt>
</event>
<event>
 4    1  0.1762274E-004  0.2450749E+03  0.7818608E-02  0.1116457E+00
         -2   -1    0    0    0  501 -0.00000000000E+00  0.00000000000E+00  0.55481407168E+01  0.55481407168E+01  0.00000000000E+00 0.  1.
          2   -1    0    0  501    0  0.00000000000E+00 -0.00000000000E+00 -0.27063897823E+04  0.27063897823E+04  0.00000000000E+00 0.  1.
         25    1    1    2    0    0 -0.91672398954E+01 -0.22930705037E+02 -0.13242910599E+04  0.13299461142E+04  0.12000000000E+03 0.  0.
         25    1    1    2    0    0  0.91672398954E+01  0.22930705037E+02 -0.13765505817E+04  0.13819918087E+04  0.12000000000E+03 0.  0.
<mgrwt>
<rscale>  0 0.24507494E+03</rscale>
<asrwt>0</asrwt>
<pdfrwt beam="1">  1        2 0.41636748E+00 0.24507494E+03</pdfrwt>
<pdfrwt beam="2">  1       -2 0.85356047E-03 0.24507494E+03</pdfrwt>
<totfact> 0.82624228E+03</totfact>
</mgrwt>
</event>
<event>
 4    1  0.1762274E-004  0.2518484E+03  0.7818608E-02  0.1112142E+00
         -1   -1    0    0    0  501 -0.00000000000E+00  0.00000000000E+00  0.69572592266E+01  0.69572592266E+01  0.00000000000E+00 0.  1.
          1   -1    0    0  501    0  0.00000000000E+00 -0.00000000000E+00 -0.22791880326E+04  0.22791880326E+04  0.00000000000E+00 0.  1.
         25    1    1    2    0    0  0.18162830404E+02 -0.13248357422E+02 -0.14161216991E+04  0.14213747128E+04  0.12000000000E+03 0.  0.
         25    1    1    2    0    0 -0.18162830404E+02  0.13248357422E+02 -0.85610907422E+03  0.86477057902E+03  0.12000000000E+03 0.  0.
<mgrwt>
<rscale>  0 0.25184838E+03</rscale>
<asrwt>0</asrwt>
<pdfrwt beam="1">  1        1 0.35064452E+00 0.25184838E+03</pdfrwt>
<pdfrwt beam="2">  1       -1 0.10703469E-02 0.25184838E+03</pdfrwt>
<totfact> 0.37817468E+03</totfact>
</mgrwt>
</event>
<event>
 4    1  0.1762274E-004  0.4394211E+03  0.7818608E-02  0.1030925E+00
         -1   -1    0    0    0  501 -0.00000000000E+00  0.00000000000E+00  0.31931698635E+02  0.31931698635E+02  0.00000000000E+00 0. -1.
          1   -1    0    0  501    0  0.00000000000E+00 -0.00000000000E+00 -0.15117494293E+04  0.15117494293E+04  0.00000000000E+00 0. -1.
         25    1    1    2    0    0 -0.16041488418E+03  0.85382321966E+02 -0.84230817371E+03  0.87000352612E+03  0.12000000000E+03 0.  0.
         25    1    1    2    0    0  0.16041488418E+03 -0.85382321966E+02 -0.63750955692E+03  0.67367760177E+03  0.12000000000E+03 0.  0.
<mgrwt>
<rscale>  0 0.43942111E+03</rscale>
<asrwt>0</asrwt>
<pdfrwt beam="1">  1        1 0.23257676E+00 0.43942111E+03</pdfrwt>
<pdfrwt beam="2">  1       -1 0.49125707E-02 0.43942111E+03</pdfrwt>
<totfact> 0.12609992E+03</totfact>
</mgrwt>
</event>
<event>
 4    1  0.1762274E-004  0.3031579E+03  0.7818608E-02  0.1083673E+00
          1   -1    0    0  501    0  0.00000000000E+00  0.00000000000E+00  0.37296655462E+03  0.37296655462E+03  0.00000000000E+00 0. -1.
         -1   -1    0    0    0  501 -0.00000000000E+00 -0.00000000000E+00 -0.61603868513E+02  0.61603868513E+02  0.00000000000E+00 0. -1.
         25    1    1    2    0    0  0.15775946944E+02  0.90498641837E+02  0.17247801354E+03  0.22931975456E+03  0.12000000000E+03 0.  0.
         25    1    1    2    0    0 -0.15775946944E+02 -0.90498641837E+02  0.13888467257E+03  0.20525066858E+03  0.12000000000E+03 0.  0.
<mgrwt>
<rscale>  0 0.30315793E+03</rscale>
<asrwt>0</asrwt>
<pdfrwt beam="1">  1        1 0.57379468E-01 0.30315793E+03</pdfrwt>
<pdfrwt beam="2">  1       -1 0.94775185E-02 0.30315793E+03</pdfrwt>
<totfact> 0.43877416E+03</totfact>
</mgrwt>
</event>
<event>
 4    1  0.1762274E-004  0.2797642E+03  0.7818608E-02  0.1095818E+00
         -2   -1    0    0    0  501 -0.00000000000E+00  0.00000000000E+00  0.80514463497E+02  0.80514463497E+02  0.00000000000E+00 0.  1.
          2   -1    0    0  501    0  0.00000000000E+00 -0.00000000000E+00 -0.24302463266E+03  0.24302463266E+03  0.00000000000E+00 0.  1.
         25    1    1    2    0    0  0.31434465858E+01  0.25244514980E+02 -0.35059118042E+01  0.12271698420E+03  0.12000000000E+03 0.  0.
         25    1    1    2    0    0 -0.31434465858E+01 -0.25244514980E+02 -0.15900425736E+03  0.20082211196E+03  0.12000000000E+03 0.  0.
<mgrwt>
<rscale>  0 0.27976417E+03</rscale>
<asrwt>0</asrwt>
<pdfrwt beam="1">  1        2 0.37388405E-01 0.27976417E+03</pdfrwt>
<pdfrwt beam="2">  1       -2 0.12386841E-01 0.27976417E+03</pdfrwt>
<totfact> 0.64160455E+03</totfact>
</mgrwt>
</event>
<event>
 4    1  0.1762274E-004  0.2466093E+03  0.7818608E-02  0.1115467E+00
          1   -1    0    0  501    0  0.00000000000E+00  0.00000000000E+00  0.41803335844E+03  0.41803335844E+03  0.00000000000E+00 0. -1.
         -1   -1    0    0    0  501 -0.00000000000E+00 -0.00000000000E+00 -0.36370399959E+02  0.36370399959E+02  0.00000000000E+00 0. -1.
         25    1    1    2    0    0 -0.19400264138E+01 -0.64273758679E+01  0.14006892679E+03  0.18456537897E+03  0.12000000000E+03 0.  0.
         25    1    1    2    0    0  0.19400264138E+01  0.64273758679E+01  0.24159403169E+03  0.26983837943E+03  0.12000000000E+03 0.  0.
<mgrwt>
<rscale>  0 0.24660933E+03</rscale>
<asrwt>0</asrwt>
<pdfrwt beam="1">  1        1 0.64312821E-01 0.24660933E+03</pdfrwt>
<pdfrwt beam="2">  1       -1 0.55954464E-02 0.24660933E+03</pdfrwt>
<totfact> 0.83964460E+03</totfact>
</mgrwt>
</event>
<event>
 4    1  0.1762274E-004  0.5593094E+03  0.7818608E-02  0.9993618E-01
          1   -1    0    0  501    0  0.00000000000E+00  0.00000000000E+00  0.32186979390E+03  0.32186979390E+03  0.00000000000E+00 0. -1.
         -1   -1    0    0    0  501 -0.00000000000E+00 -0.00000000000E+00 -0.24297639374E+03  0.24297639374E+03  0.00000000000E+00 0. -1.
         25    1    1    2    0    0  0.20559052762E+03 -0.61063147365E+02 -0.95330736614E+02  0.26359841114E+03  0.12000000000E+03 0.  0.
         25    1    1    2    0    0 -0.20559052762E+03  0.61063147365E+02  0.17422413677E+03  0.30124777650E+03  0.12000000000E+03 0.  0.
<mgrwt>
<rscale>  0 0.55930944E+03</rscale>
<asrwt>0</asrwt>
<pdfrwt beam="1">  1        1 0.49518430E-01 0.55930944E+03</pdfrwt>
<pdfrwt beam="2">  1       -1 0.37380984E-01 0.55930944E+03</pdfrwt>
<totfact> 0.55656427E+02</totfact>
</mgrwt>
</event>
<event>
 4    1  0.1762274E-004  0.6031208E+03  0.7818608E-02  0.9898953E-01
          2   -1    0    0  501    0  0.00000000000E+00  0.00000000000E+00  0.10488806714E+04  0.10488806714E+04  0.00000000000E+00 0.  1.
         -2   -1    0    0    0  501 -0.00000000000E+00 -0.00000000000E+00 -0.86700681519E+02  0.86700681519E+02  0.00000000000E+00 0.  1.
         25    1    1    2    0    0  0.15839038350E+03  0.10001693670E+03  0.86441269033E+03  0.89258064085E+03  0.12000000000E+03 0.  0.
         25    1    1    2    0    0 -0.15839038350E+03 -0.10001693670E+03  0.97767299572E+02  0.24300071209E+03  0.12000000000E+03 0.  0.
<mgrwt>
<rscale>  0 0.60312078E+03</rscale>
<asrwt>0</asrwt>
<pdfrwt beam="1">  1        2 0.16136625E+00 0.60312078E+03</pdfrwt>
<pdfrwt beam="2">  1       -2 0.13338567E-01 0.60312078E+03</pdfrwt>
<totfact> 0.10096778E+03</totfact>
</mgrwt>
</event>
<event>
 4    1  0.1762274E-004  0.2923814E+03  0.7818608E-02  0.1089112E+00
          4   -1    0    0  501    0  0.00000000000E+00  0.00000000000E+00  0.85381848195E+03  0.85381848195E+03  0.00000000000E+00 0. -1.
         -4   -1    0    0    0  501 -0.00000000000E+00 -0.00000000000E+00 -0.25030754234E+02  0.25030754234E+02  0.00000000000E+00 0. -1.
         25    1    1    2    0    0 -0.64793985782E+01  0.17299604243E+02  0.65915165466E+03  0.67024037684E+03  0.12000000000E+03 0.  0.
         25    1    1    2    0    0  0.64793985782E+01 -0.17299604243E+02  0.16963607306E+03  0.20860885935E+03  0.12000000000E+03 0.  0.
<mgrwt>
<rscale>  0 0.29238140E+03</rscale>
<asrwt>0</asrwt>
<pdfrwt beam="1">  1        4 0.13135667E+00 0.29238140E+03</pdfrwt>
<pdfrwt beam="2">  1       -4 0.38508859E-02 0.29238140E+03</pdfrwt>
<totfact> 0.30296109E+02</totfact>
</mgrwt>
</event>
<event>
 4    1  0.1762274E-004  0.2665980E+03  0.7818608E-02  0.1103243E+00
         -2   -1    0    0    0  501 -0.00000000000E+00  0.00000000000E+00  0.47363830976E+03  0.47363830976E+03  0.00000000000E+00 0.  1.
          2   -1    0    0  501    0  0.00000000000E+00 -0.00000000000E+00 -0.37515163648E+02  0.37515163648E+02  0.00000000000E+00 0.  1.
         25    1    1    2    0    0 -0.12376573335E+02  0.48876421736E+01  0.32637824778E+03  0.34799400747E+03  0.12000000000E+03 0.  0.
         25    1    1    2    0    0  0.12376573335E+02 -0.48876421736E+01  0.10974489833E+03  0.16315946593E+03  0.12000000000E+03 0.  0.
<mgrwt>
<rscale>  0 0.26659796E+03</rscale>
<asrwt>0</asrwt>
<pdfrwt beam="1">  1        2 0.57715640E-02 0.26659796E+03</pdfrwt>
<pdfrwt beam="2">  1       -2 0.72867428E-01 0.26659796E+03</pdfrwt>
<totfact> 0.22650486E+03</totfact>
</mgrwt>
</event>
<event>
 4    1  0.1762274E-004  0.2520399E+03  0.7818608E-02  0.1112022E+00
         -3   -1    0    0    0  501 -0.00000000000E+00  0.00000000000E+00  0.15706991828E+03  0.15706991828E+03  0.00000000000E+00 0. -1.
          3   -1    0    0  501    0  0.00000000000E+00 -0.00000000000E+00 -0.10110799732E+03  0.10110799732E+03  0.00000000000E+00 0. -1.
         25    1    1    2    0    0 -0.25973209261E+02  0.27575645860E+02  0.21033379446E+02  0.12758301962E+03  0.12000000000E+03 0.  0.
         25    1    1    2    0    0  0.25973209261E+02 -0.27575645860E+02  0.34928541523E+02  0.13059489598E+03  0.12000000000E+03 0.  0.
<mgrwt>
<rscale>  0 0.25203988E+03</rscale>
<asrwt>0</asrwt>
<pdfrwt beam="1">  1        3 0.15555077E-01 0.25203988E+03</pdfrwt>
<pdfrwt beam="2">  1       -3 0.24164603E-01 0.25203988E+03</pdfrwt>
<totfact> 0.14036145E+03</totfact>
</mgrwt>
</event>
<event>
 4    1  0.1762274E-004  0.3262996E+03  0.7818608E-02  0.1072786E+00
         -2   -1    0    0    0  501 -0.00000000000E+00  0.00000000000E+00  0.21924670004E+03  0.21924670004E+03  0.00000000000E+00 0.  1.
          2   -1    0    0  501    0  0.00000000000E+00 -0.00000000000E+00 -0.12140598439E+03  0.12140598439E+03  0.00000000000E+00 0.  1.
         25    1    1    2    0    0 -0.97677220191E+02 -0.19050229274E+02  0.99141584987E+02  0.18475065481E+03  0.12000000000E+03 0.  0.
         25    1    1    2    0    0  0.97677220191E+02  0.19050229274E+02 -0.13008693320E+01  0.15590202962E+03  0.12000000000E+03 0.  0.
<mgrwt>
<rscale>  0 0.32629963E+03</rscale>
<asrwt>0</asrwt>
<pdfrwt beam="1">  1        2 0.18677844E-01 0.32629963E+03</pdfrwt>
<pdfrwt beam="2">  1       -2 0.33730261E-01 0.32629963E+03</pdfrwt>
<totfact> 0.24814953E+03</totfact>
</mgrwt>
</event>
<event>
 4    1  0.1762274E-004  0.4460419E+03  0.7818608E-02  0.1028909E+00
          2   -1    0    0  501    0  0.00000000000E+00  0.00000000000E+00  0.20033320824E+03  0.20033320824E+03  0.00000000000E+00 0.  1.
         -2   -1    0    0    0  501 -0.00000000000E+00 -0.00000000000E+00 -0.24827811829E+03  0.24827811829E+03  0.00000000000E+00 0.  1.
         25    1    1    2    0    0  0.48897011549E+02  0.17066127171E+03  0.38207332637E+02  0.21766025743E+03  0.12000000000E+03 0.  0.
         25    1    1    2    0    0 -0.48897011549E+02 -0.17066127171E+03 -0.86152242677E+02  0.23095106910E+03  0.12000000000E+03 0.  0.
<mgrwt>
<rscale>  0 0.44604194E+03</rscale>
<asrwt>0</asrwt>
<pdfrwt beam="1">  1        2 0.30820494E-01 0.44604194E+03</pdfrwt>
<pdfrwt beam="2">  1       -2 0.38196633E-01 0.44604194E+03</pdfrwt>
<totfact> 0.11159703E+03</totfact>
</mgrwt>
</event>
<event>
 4    1  0.1762274E-004  0.2484583E+03  0.7818608E-02  0.1114283E+00
          1   -1    0    0  501    0  0.00000000000E+00  0.00000000000E+00  0.87014673907E+03  0.87014673907E+03  0.00000000000E+00 0.  1.
         -1   -1    0    0    0  501 -0.00000000000E+00 -0.00000000000E+00 -0.17735953645E+02  0.17735953645E+02  0.00000000000E+00 0.  1.
         25    1    1    2    0    0 -0.86569999041E+01 -0.20975149321E+02  0.50753698572E+03  0.52202365120E+03  0.12000000000E+03 0.  0.
         25    1    1    2    0    0  0.86569999041E+01  0.20975149321E+02  0.34487379970E+03  0.36585904151E+03  0.12000000000E+03 0.  0.
<mgrwt>
<rscale>  0 0.24845830E+03</rscale>
<asrwt>0</asrwt>
<pdfrwt beam="1">  1        1 0.13386870E+00 0.24845830E+03</pdfrwt>
<pdfrwt beam="2">  1       -1 0.27286089E-02 0.24845830E+03</pdfrwt>
<totfact> 0.87055719E+03</totfact>
</mgrwt>
</event>
<event>
 4    1  0.1762274E-004  0.3774122E+03  0.7818608E-02  0.1051894E+00
          1   -1    0    0  501    0  0.00000000000E+00  0.00000000000E+00  0.10758246218E+04  0.10758246218E+04  0.00000000000E+00 0.  1.
         -1   -1    0    0    0  501 -0.00000000000E+00 -0.00000000000E+00 -0.33100184089E+02  0.33100184089E+02  0.00000000000E+00 0.  1.
         25    1    1    2    0    0 -0.34517139091E+02  0.29303160359E+02  0.92807011731E+03  0.93689073575E+03  0.12000000000E+03 0.  0.
         25    1    1    2    0    0  0.34517139091E+02 -0.29303160359E+02  0.11465432038E+03  0.17203407011E+03  0.12000000000E+03 0.  0.
<mgrwt>
<rscale>  0 0.37741220E+03</rscale>
<asrwt>0</asrwt>
<pdfrwt beam="1">  1        1 0.16551145E+00 0.37741220E+03</pdfrwt>
<pdfrwt beam="2">  1       -1 0.50923368E-02 0.37741220E+03</pdfrwt>
<totfact> 0.24095250E+03</totfact>
</mgrwt>
</event>
<event>
 4    1  0.1762274E-004  0.2450081E+03  0.7818608E-02  0.1116501E+00
          4   -1    0    0  501    0  0.00000000000E+00  0.00000000000E+00  0.95424180533E+03  0.95424180533E+03  0.00000000000E+00 0.  1.
         -4   -1    0    0    0  501 -0.00000000000E+00 -0.00000000000E+00 -0.15726879857E+02  0.15726879857E+02  0.00000000000E+00 0.  1.
         25    1    1    2    0    0  0.96241178197E+01 -0.13250656682E+02  0.39636134488E+03  0.41445207112E+03  0.12000000000E+03 0.  0.
         25    1    1    2    0    0 -0.96241178197E+01  0.13250656682E+02  0.54215358059E+03  0.55551661406E+03  0.12000000000E+03 0.  0.
<mgrwt>
<rscale>  0 0.24500813E+03</rscale>
<asrwt>0</asrwt>
<pdfrwt beam="1">  1        4 0.14680639E+00 0.24500813E+03</pdfrwt>
<pdfrwt beam="2">  1       -4 0.24195207E-02 0.24500813E+03</pdfrwt>
<totfact> 0.46654624E+02</totfact>
</mgrwt>
</event>
<event>
 4    1  0.1762274E-004  0.4252105E+03  0.7818608E-02  0.1035384E+00
         -2   -1    0    0    0  501 -0.00000000000E+00  0.00000000000E+00  0.29406804223E+02  0.29406804223E+02  0.00000000000E+00 0. -1.
          2   -1    0    0  501    0  0.00000000000E+00 -0.00000000000E+00 -0.15370926670E+04  0.15370926670E+04  0.00000000000E+00 0. -1.
         25    1    1    2    0    0  0.17086757939E+03  0.32696695231E+02 -0.83914929825E+03  0.86535330838E+03  0.12000000000E+03 0.  0.
         25    1    1    2    0    0 -0.17086757939E+03 -0.32696695231E+02 -0.66853656453E+03  0.70114616285E+03  0.12000000000E+03 0.  0.
<mgrwt>
<rscale>  0 0.42521046E+03</rscale>
<asrwt>0</asrwt>
<pdfrwt beam="1">  1        2 0.23647586E+00 0.42521046E+03</pdfrwt>
<pdfrwt beam="2">  1       -2 0.45241225E-02 0.42521046E+03</pdfrwt>
<totfact> 0.29695356E+03</totfact>
</mgrwt>
</event>
<event>
 4    1  0.1762274E-004  0.3035443E+03  0.7818608E-02  0.1083482E+00
         -1   -1    0    0    0  501 -0.00000000000E+00  0.00000000000E+00  0.21606024545E+03  0.21606024545E+03  0.00000000000E+00 0.  1.
          1   -1    0    0  501    0  0.00000000000E+00 -0.00000000000E+00 -0.10661281651E+03  0.10661281651E+03  0.00000000000E+00 0.  1.
         25    1    1    2    0    0  0.21227774200E+02 -0.85104430415E+02  0.22107788882E+02  0.15027353993E+03  0.12000000000E+03 0.  0.
         25    1    1    2    0    0 -0.21227774200E+02  0.85104430415E+02  0.87339640056E+02  0.17239952204E+03  0.12000000000E+03 0.  0.
<mgrwt>
<rscale>  0 0.30354434E+03</rscale>
<asrwt>0</asrwt>
<pdfrwt beam="1">  1        1 0.16401972E-01 0.30354434E+03</pdfrwt>
<pdfrwt beam="2">  1       -1 0.33240038E-01 0.30354434E+03</pdfrwt>
<totfact> 0.28319037E+03</totfact>
</mgrwt>
</event>
<event>
 4    1  0.1762274E-004  0.2508368E+03  0.7818608E-02  0.1112777E+00
          2   -1    0    0  501    0  0.00000000000E+00  0.00000000000E+00  0.37551456200E+03  0.37551456200E+03  0.00000000000E+00 0.  1.
         -2   -1    0    0    0  501 -0.00000000000E+00 -0.00000000000E+00 -0.41888587700E+02  0.41888587700E+02  0.00000000000E+00 0.  1.
         25    1    1    2    0    0  0.33005463671E+02  0.58566113099E+00  0.19259604097E+03  0.22930970025E+03  0.12000000000E+03 0.  0.
         25    1    1    2    0    0 -0.33005463671E+02 -0.58566113099E+00  0.14102993333E+03  0.18809344945E+03  0.12000000000E+03 0.  0.
<mgrwt>
<rscale>  0 0.25083680E+03</rscale>
<asrwt>0</asrwt>
<pdfrwt beam="1">  1        2 0.57771469E-01 0.25083680E+03</pdfrwt>
<pdfrwt beam="2">  1       -2 0.64443983E-02 0.25083680E+03</pdfrwt>
<totfact> 0.11193777E+04</totfact>
</mgrwt>
</event>
<event>
 4    1  0.1762274E-004  0.5001622E+03  0.7818608E-02  0.1013737E+00
          2   -1    0    0  501    0  0.00000000000E+00  0.00000000000E+00  0.19600194938E+03  0.19600194938E+03  0.00000000000E+00 0. -1.
         -2   -1    0    0    0  501 -0.00000000000E+00 -0.00000000000E+00 -0.31908125279E+03  0.31908125279E+03  0.00000000000E+00 0. -1.
         25    1    1    2    0    0 -0.11089221904E+02  0.12062253632E+03 -0.24993926511E+03  0.30255975171E+03  0.12000000000E+03 0.  0.
         25    1    1    2    0    0  0.11089221904E+02 -0.12062253632E+03  0.12685996170E+03  0.21252345046E+03  0.12000000000E+03 0.  0.
<mgrwt>
<rscale>  0 0.50016216E+03</rscale>
<asrwt>0</asrwt>
<pdfrwt beam="1">  1        2 0.30154146E-01 0.50016216E+03</pdfrwt>
<pdfrwt beam="2">  1       -2 0.49089423E-01 0.50016216E+03</pdfrwt>
<totfact> 0.69898548E+02</totfact>
</mgrwt>
</event>
<event>
 4    1  0.1762274E-004  0.3024783E+03  0.7818608E-02  0.1084008E+00
         -2   -1    0    0    0  501 -0.00000000000E+00  0.00000000000E+00  0.20966193438E+03  0.20966193438E+03  0.00000000000E+00 0.  1.
          2   -1    0    0  501    0  0.00000000000E+00 -0.00000000000E+00 -0.10909601545E+03  0.10909601545E+03  0.00000000000E+00 0.  1.
         25    1    1    2    0    0 -0.91335662390E+02  0.95730503978E+01  0.56900678789E+02  0.16146681939E+03  0.12000000000E+03 0.  0.
         25    1    1    2    0    0  0.91335662390E+02 -0.95730503978E+01  0.43665240143E+02  0.15729113044E+03  0.12000000000E+03 0.  0.
<mgrwt>
<rscale>  0 0.30247831E+03</rscale>
<asrwt>0</asrwt>
<pdfrwt beam="1">  1        2 0.16784002E-01 0.30247831E+03</pdfrwt>
<pdfrwt beam="2">  1       -2 0.32255682E-01 0.30247831E+03</pdfrwt>
<totfact> 0.30484191E+03</totfact>
</mgrwt>
</event>
<event>
 4    1  0.1762274E-004  0.2595809E+03  0.7818608E-02  0.1107395E+00
         -1   -1    0    0    0  501 -0.00000000000E+00  0.00000000000E+00  0.72770712367E+01  0.72770712367E+01  0.00000000000E+00 0.  1.
          1   -1    0    0  501    0  0.00000000000E+00 -0.00000000000E+00 -0.23148815579E+04  0.23148815579E+04  0.00000000000E+00 0.  1.
         25    1    1    2    0    0 -0.36897879522E+02 -0.32363289268E+02 -0.12080126076E+04  0.12149499150E+04  0.12000000000E+03 0.  0.
         25    1    1    2    0    0  0.36897879522E+02  0.32363289268E+02 -0.10995918791E+04  0.11072087141E+04  0.12000000000E+03 0.  0.
<mgrwt>
<rscale>  0 0.25958088E+03</rscale>
<asrwt>0</asrwt>
<pdfrwt beam="1">  1        1 0.35613552E+00 0.25958088E+03</pdfrwt>
<pdfrwt beam="2">  1       -1 0.11195497E-02 0.25958088E+03</pdfrwt>
<totfact> 0.33575635E+03</totfact>
</mgrwt>
</event>
<event>
 4    1  0.1762274E-004  0.2461805E+03  0.7818608E-02  0.1115743E+00
          1   -1    0    0  501    0  0.00000000000E+00  0.00000000000E+00  0.51999687996E+03  0.51999687996E+03  0.00000000000E+00 0. -1.
         -1   -1    0    0    0  501 -0.00000000000E+00 -0.00000000000E+00 -0.29137119494E+02  0.29137119494E+02  0.00000000000E+00 0. -1.
         25    1    1    2    0    0  0.12988798593E+02 -0.13629844620E+02  0.28985943946E+03  0.31428168289E+03  0.12000000000E+03 0.  0.
         25    1    1    2    0    0 -0.12988798593E+02  0.13629844620E+02  0.20100032100E+03  0.23485231657E+03  0.12000000000E+03 0.  0.
<mgrwt>
<rscale>  0 0.24618051E+03</rscale>
<asrwt>0</asrwt>
<pdfrwt beam="1">  1        1 0.79999513E-01 0.24618051E+03</pdfrwt>
<pdfrwt beam="2">  1       -1 0.44826341E-02 0.24618051E+03</pdfrwt>
<totfact> 0.87901758E+03</totfact>
</mgrwt>
</event>
<event>
 4    1  0.1762274E-004  0.2865182E+03  0.7818608E-02  0.1092181E+00
         -2   -1    0    0    0  501 -0.00000000000E+00  0.00000000000E+00  0.39898465906E+02  0.39898465906E+02  0.00000000000E+00 0. -1.
          2   -1    0    0  501    0  0.00000000000E+00 -0.00000000000E+00 -0.51438494249E+03  0.51438494249E+03  0.00000000000E+00 0. -1.
         25    1    1    2    0    0 -0.49317373459E+02  0.44627387230E+02 -0.31699177988E+03  0.34540931592E+03  0.12000000000E+03 0.  0.
         25    1    1    2    0    0  0.49317373459E+02 -0.44627387230E+02 -0.15749469671E+03  0.20887409247E+03  0.12000000000E+03 0.  0.
<mgrwt>
<rscale>  0 0.28651820E+03</rscale>
<asrwt>0</asrwt>
<pdfrwt beam="1">  1        2 0.79136139E-01 0.28651820E+03</pdfrwt>
<pdfrwt beam="2">  1       -2 0.61382260E-02 0.28651820E+03</pdfrwt>
<totfact> 0.85832377E+03</totfact>
</mgrwt>
</event>
<event>
 4    1  0.1762274E-004  0.2571476E+03  0.7818608E-02  0.1108869E+00
          1   -1    0    0  501    0  0.00000000000E+00  0.00000000000E+00  0.30571589692E+03  0.30571589692E+03  0.00000000000E+00 0.  1.
         -1   -1    0    0    0  501 -0.00000000000E+00 -0.00000000000E+00 -0.54073807078E+02  0.54073807078E+02  0.00000000000E+00 0.  1.
         25    1    1    2    0    0  0.34224270222E+02  0.39370065221E+01  0.16881914222E+03  0.20996833921E+03  0.12000000000E+03 0.  0.
         25    1    1    2    0    0 -0.34224270222E+02 -0.39370065221E+01  0.82822947622E+02  0.14982136478E+03  0.12000000000E+03 0.  0.
<mgrwt>
<rscale>  0 0.25714760E+03</rscale>
<asrwt>0</asrwt>
<pdfrwt beam="1">  1        1 0.47033214E-01 0.25714760E+03</pdfrwt>
<pdfrwt beam="2">  1       -1 0.83190474E-02 0.25714760E+03</pdfrwt>
<totfact> 0.68610503E+03</totfact>
</mgrwt>
</event>
<event>
 4    1  0.1762274E-004  0.2851407E+03  0.7818608E-02  0.1092914E+00
          1   -1    0    0  501    0  0.00000000000E+00  0.00000000000E+00  0.68728773605E+02  0.68728773605E+02  0.00000000000E+00 0.  1.
         -1   -1    0    0    0  501 -0.00000000000E+00 -0.00000000000E+00 -0.29574667850E+03  0.29574667850E+03  0.00000000000E+00 0.  1.
         25    1    1    2    0    0 -0.72556516101E+02 -0.18998364663E+02 -0.13568249218E+03  0.19604878110E+03  0.12000000000E+03 0.  0.
         25    1    1    2    0    0  0.72556516101E+02  0.18998364663E+02 -0.91335412718E+02  0.16842667100E+03  0.12000000000E+03 0.  0.
<mgrwt>
<rscale>  0 0.28514071E+03</rscale>
<asrwt>0</asrwt>
<pdfrwt beam="1">  1        1 0.10573658E-01 0.28514071E+03</pdfrwt>
<pdfrwt beam="2">  1       -1 0.45499489E-01 0.28514071E+03</pdfrwt>
<totfact> 0.29020994E+03</totfact>
</mgrwt>
</event>
<event>
 4    1  0.1762274E-004  0.2464772E+03  0.7818608E-02  0.1115552E+00
         -2   -1    0    0    0  501 -0.00000000000E+00  0.00000000000E+00  0.49585711943E+03  0.49585711943E+03  0.00000000000E+00 0.  1.
          2   -1    0    0  501    0  0.00000000000E+00 -0.00000000000E+00 -0.30629283636E+02  0.30629283636E+02  0.00000000000E+00 0.  1.
         25    1    1    2    0    0 -0.26941882460E+02  0.66781820239E+01  0.22373320615E+03  0.25539579221E+03  0.12000000000E+03 0.  0.
         25    1    1    2    0    0  0.26941882460E+02 -0.66781820239E+01  0.24149462965E+03  0.27109061085E+03  0.12000000000E+03 0.  0.
<mgrwt>
<rscale>  0 0.24647717E+03</rscale>
<asrwt>0</asrwt>
<pdfrwt beam="1">  1        2 0.47121978E-02 0.24647717E+03</pdfrwt>
<pdfrwt beam="2">  1       -2 0.76285705E-01 0.24647717E+03</pdfrwt>
<totfact> 0.26707571E+03</totfact>
</mgrwt>
</event>
<event>
 4    1  0.1762274E-004  0.3429684E+03  0.7818608E-02  0.1065539E+00
          2   -1    0    0  501    0  0.00000000000E+00  0.00000000000E+00  0.19665270264E+04  0.19665270264E+04  0.00000000000E+00 0. -1.
         -2   -1    0    0    0  501 -0.00000000000E+00 -0.00000000000E+00 -0.14953689195E+02  0.14953689195E+02  0.00000000000E+00 0. -1.
         25    1    1    2    0    0 -0.72799939777E+02  0.75205641555E+02  0.13435115042E+04  0.13529149573E+04  0.12000000000E+03 0.  0.
         25    1    1    2    0    0  0.72799939777E+02 -0.75205641555E+02  0.60806183307E+03  0.62856575836E+03  0.12000000000E+03 0.  0.
<mgrwt>
<rscale>  0 0.34296842E+03</rscale>
<asrwt>0</asrwt>
<pdfrwt beam="1">  1        2 0.30254241E+00 0.34296842E+03</pdfrwt>
<pdfrwt beam="2">  1       -2 0.23005691E-02 0.34296842E+03</pdfrwt>
<totfact> 0.48613270E+03</totfact>
</mgrwt>
</event>
<event>
 4    1  0.1762274E-004  0.2714680E+03  0.7818608E-02  0.1100442E+00
         -1   -1    0    0    0  501 -0.00000000000E+00  0.00000000000E+00  0.31339356699E+02  0.31339356699E+02  0.00000000000E+00 0. -1.
          1   -1    0    0  501    0  0.00000000000E+00 -0.00000000000E+00 -0.58787787019E+03  0.58787787019E+03  0.00000000000E+00 0. -1.
         25    1    1    2    0    0  0.63166570484E+02 -0.10846959518E+01 -0.29127734808E+03  0.32129999330E+03  0.12000000000E+03 0.  0.
         25    1    1    2    0    0 -0.63166570484E+02  0.10846959518E+01 -0.26526116541E+03  0.29791723358E+03  0.12000000000E+03 0.  0.
<mgrwt>
<rscale>  0 0.27146797E+03</rscale>
<asrwt>0</asrwt>
<pdfrwt beam="1">  1        1 0.90442747E-01 0.27146797E+03</pdfrwt>
<pdfrwt beam="2">  1       -1 0.48214396E-02 0.27146797E+03</pdfrwt>
<totfact> 0.66979161E+03</totfact>
</mgrwt>
</event>
<event>
 4    1  0.1762274E-004  0.3434143E+03  0.7818608E-02  0.1065351E+00
         -2   -1    0    0    0  501 -0.00000000000E+00  0.00000000000E+00  0.14559127332E+03  0.14559127332E+03  0.00000000000E+00 0.  1.
          2   -1    0    0  501    0  0.00000000000E+00 -0.00000000000E+00 -0.20250759443E+03  0.20250759443E+03  0.00000000000E+00 0.  1.
         25    1    1    2    0    0  0.30428039331E+02  0.11390136016E+03  0.64198364523E+01  0.16834666532E+03  0.12000000000E+03 0.  0.
         25    1    1    2    0    0 -0.30428039331E+02 -0.11390136016E+03 -0.63336157560E+02  0.17975220243E+03  0.12000000000E+03 0.  0.
<mgrwt>
<rscale>  0 0.34341426E+03</rscale>
<asrwt>0</asrwt>
<pdfrwt beam="1">  1        2 0.31155014E-01 0.34341426E+03</pdfrwt>
<pdfrwt beam="2">  1       -2 0.22398657E-01 0.34341426E+03</pdfrwt>
<totfact> 0.29126135E+03</totfact>
</mgrwt>
</event>
<event>
 4    1  0.1762274E-004  0.2692301E+03  0.7818608E-02  0.1101721E+00
          2   -1    0    0  501    0  0.00000000000E+00  0.00000000000E+00  0.45204780343E+02  0.45204780343E+02  0.00000000000E+00 0.  1.
         -2   -1    0    0    0  501 -0.00000000000E+00 -0.00000000000E+00 -0.40086923159E+03  0.40086923159E+03  0.00000000000E+00 0.  1.
         25    1    1    2    0    0 -0.52871323531E+02  0.30427400285E+02 -0.17775775551E+03  0.22297762934E+03  0.12000000000E+03 0.  0.
         25    1    1    2    0    0  0.52871323531E+02 -0.30427400285E+02 -0.17790669574E+03  0.22309638260E+03  0.12000000000E+03 0.  0.
<mgrwt>
<rscale>  0 0.26923005E+03</rscale>
<asrwt>0</asrwt>
<pdfrwt beam="1">  1        2 0.69545819E-02 0.26923005E+03</pdfrwt>
<pdfrwt beam="2">  1       -2 0.61672187E-01 0.26923005E+03</pdfrwt>
<totfact> 0.25338026E+03</totfact>
</mgrwt>
</event>
<event>
 4    1  0.1762274E-004  0.2847794E+03  0.7818608E-02  0.1093107E+00
         -3   -1    0    0    0  501 -0.00000000000E+00  0.00000000000E+00  0.51255741516E+03  0.51255741516E+03  0.00000000000E+00 0. -1.
          3   -1    0    0  501    0  0.00000000000E+00 -0.00000000000E+00 -0.39556211410E+02  0.39556211410E+02  0.00000000000E+00 0. -1.
         25    1    1    2    0    0  0.39058113297E+02 -0.56111717789E+02  0.16931913412E+03  0.21850178550E+03  0.12000000000E+03 0.  0.
         25    1    1    2    0    0 -0.39058113297E+02  0.56111717789E+02  0.30368206964E+03  0.33361184108E+03  0.12000000000E+03 0.  0.
<mgrwt>
<rscale>  0 0.28477942E+03</rscale>
<asrwt>0</asrwt>
<pdfrwt beam="1">  1        3 0.60855714E-02 0.28477942E+03</pdfrwt>
<pdfrwt beam="2">  1       -3 0.78854982E-01 0.28477942E+03</pdfrwt>
<totfact> 0.65228169E+02</totfact>
</mgrwt>
</event>
<event>
 4    1  0.1762274E-004  0.2506428E+03  0.7818608E-02  0.1112899E+00
          2   -1    0    0  501    0  0.00000000000E+00  0.00000000000E+00  0.12458849092E+04  0.12458849092E+04  0.00000000000E+00 0.  1.
         -2   -1    0    0    0  501 -0.00000000000E+00 -0.00000000000E+00 -0.12605863886E+02  0.12605863886E+02  0.00000000000E+00 0.  1.
         25    1    1    2    0    0  0.31848125650E+02  0.82193160959E+01  0.54155920099E+03  0.55566917176E+03  0.12000000000E+03 0.  0.
         25    1    1    2    0    0 -0.31848125650E+02 -0.82193160959E+01  0.69171984436E+03  0.70282160137E+03  0.12000000000E+03 0.  0.
<mgrwt>
<rscale>  0 0.25064282E+03</rscale>
<asrwt>0</asrwt>
<pdfrwt beam="1">  1        2 0.19167450E+00 0.25064282E+03</pdfrwt>
<pdfrwt beam="2">  1       -2 0.19393647E-02 0.25064282E+03</pdfrwt>
<totfact> 0.15147998E+04</totfact>
</mgrwt>
</event>
<event>
 4    1  0.1762274E-004  0.3418446E+03  0.7818608E-02  0.1066013E+00
          2   -1    0    0  501    0  0.00000000000E+00  0.00000000000E+00  0.15998093244E+03  0.15998093244E+03  0.00000000000E+00 0. -1.
         -2   -1    0    0    0  501 -0.00000000000E+00 -0.00000000000E+00 -0.18261192564E+03  0.18261192564E+03  0.00000000000E+00 0. -1.
         25    1    1    2    0    0  0.60656317671E+02  0.45740706119E+02 -0.10661848017E+03  0.17759195191E+03  0.12000000000E+03 0.  0.
         25    1    1    2    0    0 -0.60656317671E+02 -0.45740706119E+02  0.83987486965E+02  0.16500090617E+03  0.12000000000E+03 0.  0.
<mgrwt>
<rscale>  0 0.34184456E+03</rscale>
<asrwt>0</asrwt>
<pdfrwt beam="1">  1        2 0.24612451E-01 0.34184456E+03</pdfrwt>
<pdfrwt beam="2">  1       -2 0.28094142E-01 0.34184456E+03</pdfrwt>
<totfact> 0.25330155E+03</totfact>
</mgrwt>
</event>
<event>
 4    1  0.1762274E-004  0.2893411E+03  0.7818608E-02  0.1090694E+00
          1   -1    0    0  501    0  0.00000000000E+00  0.00000000000E+00  0.12731664776E+03  0.12731664776E+03  0.00000000000E+00 0.  1.
         -1   -1    0    0    0  501 -0.00000000000E+00 -0.00000000000E+00 -0.16438986081E+03  0.16438986081E+03  0.00000000000E+00 0.  1.
         25    1    1    2    0    0  0.45592376560E+02  0.28911492675E+02 -0.79153234364E+02  0.15355706991E+03  0.12000000000E+03 0.  0.
         25    1    1    2    0    0 -0.45592376560E+02 -0.28911492675E+02  0.42080021309E+02  0.13814943866E+03  0.12000000000E+03 0.  0.
<mgrwt>
<rscale>  0 0.28934109E+03</rscale>
<asrwt>0</asrwt>
<pdfrwt beam="1">  1        1 0.19587177E-01 0.28934109E+03</pdfrwt>
<pdfrwt beam="2">  1       -1 0.25290748E-01 0.28934109E+03</pdfrwt>
<totfact> 0.35715500E+03</totfact>
</mgrwt>
</event>
<event>
 4    1  0.1762274E-004  0.2958033E+03  0.7818608E-02  0.1087357E+00
          1   -1    0    0  501    0  0.00000000000E+00  0.00000000000E+00  0.21932842757E+02  0.21932842757E+02  0.00000000000E+00 0. -1.
         -1   -1    0    0    0  501 -0.00000000000E+00 -0.00000000000E+00 -0.99735840305E+03  0.99735840305E+03  0.00000000000E+00 0. -1.
         25    1    1    2    0    0 -0.45730445191E+02  0.35240829029E+01 -0.23517208725E+03  0.26797313932E+03  0.12000000000E+03 0.  0.
         25    1    1    2    0    0  0.45730445191E+02 -0.35240829029E+01 -0.74025347304E+03  0.75131810648E+03  0.12000000000E+03 0.  0.
<mgrwt>
<rscale>  0 0.29580335E+03</rscale>
<asrwt>0</asrwt>
<pdfrwt beam="1">  1        1 0.33742841E-02 0.29580335E+03</pdfrwt>
<pdfrwt beam="2">  1       -1 0.15343973E+00 0.29580335E+03</pdfrwt>
<totfact> 0.10294393E+03</totfact>
</mgrwt>
</event>
<event>
 4    1  0.1762274E-004  0.2568816E+03  0.7818608E-02  0.1109031E+00
          2   -1    0    0  501    0  0.00000000000E+00  0.00000000000E+00  0.26992307347E+03  0.26992307347E+03  0.00000000000E+00 0.  1.
         -2   -1    0    0    0  501 -0.00000000000E+00 -0.00000000000E+00 -0.61117546940E+02  0.61117546940E+02  0.00000000000E+00 0.  1.
         25    1    1    2    0    0 -0.24694322196E+02  0.18057556990E+02  0.14831572371E+03  0.19321862957E+03  0.12000000000E+03 0.  0.
         25    1    1    2    0    0  0.24694322196E+02 -0.18057556990E+02  0.60489802813E+02  0.13782199083E+03  0.12000000000E+03 0.  0.
<mgrwt>
<rscale>  0 0.25688158E+03</rscale>
<asrwt>0</asrwt>
<pdfrwt beam="1">  1        2 0.41526626E-01 0.25688158E+03</pdfrwt>
<pdfrwt beam="2">  1       -2 0.94026997E-02 0.25688158E+03</pdfrwt>
<totfact> 0.88726634E+03</totfact>
</mgrwt>
</event>
<event>
 4    1  0.1762274E-004  0.2637566E+03  0.7818608E-02  0.1104907E+00
         -2   -1    0    0    0  501 -0.00000000000E+00  0.00000000000E+00  0.20125121413E+03  0.20125121413E+03  0.00000000000E+00 0.  1.
          2   -1    0    0  501    0  0.00000000000E+00 -0.00000000000E+00 -0.86418770264E+02  0.86418770264E+02  0.00000000000E+00 0.  1.
         25    1    1    2    0    0 -0.39462932234E+02 -0.16262092409E+02  0.20108094830E+02  0.12894228999E+03  0.12000000000E+03 0.  0.
         25    1    1    2    0    0  0.39462932234E+02  0.16262092409E+02  0.94724349032E+02  0.15872769440E+03  0.12000000000E+03 0.  0.
<mgrwt>
<rscale>  0 0.26375657E+03</rscale>
<asrwt>0</asrwt>
<pdfrwt beam="1">  1        2 0.13295196E-01 0.26375657E+03</pdfrwt>
<pdfrwt beam="2">  1       -2 0.30961725E-01 0.26375657E+03</pdfrwt>
<totfact> 0.43157086E+03</totfact>
</mgrwt>
</event>
<event>
 4    1  0.1762274E-004  0.4068980E+03  0.7818608E-02  0.1041417E+00
         -3   -1    0    0    0  501 -0.00000000000E+00  0.00000000000E+00  0.73310958867E+02  0.73310958867E+02  0.00000000000E+00 0. -1.
          3   -1    0    0  501    0  0.00000000000E+00 -0.00000000000E+00 -0.56460182801E+03  0.56460182801E+03  0.00000000000E+00 0. -1.
         25    1    1    2    0    0  0.71341410703E+02  0.14254071550E+03 -0.18324896486E+03  0.27090152377E+03  0.12000000000E+03 0.  0.
         25    1    1    2    0    0 -0.71341410703E+02 -0.14254071550E+03 -0.30804190428E+03  0.36701126311E+03  0.12000000000E+03 0.  0.
<mgrwt>
<rscale>  0 0.40689803E+03</rscale>
<asrwt>0</asrwt>
<pdfrwt beam="1">  1        3 0.86861820E-01 0.40689803E+03</pdfrwt>
<pdfrwt beam="2">  1       -3 0.11278609E-01 0.40689803E+03</pdfrwt>
<totfact> 0.19525113E+02</totfact>
</mgrwt>
</event>
<event>
 4    1  0.1762274E-004  0.3979399E+03  0.7818608E-02  0.1044495E+00
          2   -1    0    0  501    0  0.00000000000E+00  0.00000000000E+00  0.12725757608E+03  0.12725757608E+03  0.00000000000E+00 0.  1.
         -2   -1    0    0    0  501 -0.00000000000E+00 -0.00000000000E+00 -0.31109379145E+03  0.31109379145E+03  0.00000000000E+00 0.  1.
         25    1    1    2    0    0  0.88841389177E+01 -0.15746345517E+02 -0.26560792570E+03  0.29201788561E+03  0.12000000000E+03 0.  0.
         25    1    1    2    0    0 -0.88841389177E+01  0.15746345517E+02  0.81771710324E+02  0.14633348192E+03  0.12000000000E+03 0.  0.
<mgrwt>
<rscale>  0 0.39793990E+03</rscale>
<asrwt>0</asrwt>
<pdfrwt beam="1">  1        2 0.19578089E-01 0.39793990E+03</pdfrwt>
<pdfrwt beam="2">  1       -2 0.47860583E-01 0.39793990E+03</pdfrwt>
<totfact> 0.12017632E+03</totfact>
</mgrwt>
</event>
<event>
 4    1  0.1762274E-004  0.2513042E+03  0.7818608E-02  0.1112483E+00
         -1   -1    0    0    0  501 -0.00000000000E+00  0.00000000000E+00  0.40528855459E+02  0.40528855459E+02  0.00000000000E+00 0.  1.
          1   -1    0    0  501    0  0.00000000000E+00 -0.00000000000E+00 -0.38956077788E+03  0.38956077788E+03  0.00000000000E+00 0.  1.
         25    1    1    2    0    0  0.40658247819E+01  0.34428236778E+02 -0.19789550376E+03  0.23401808654E+03  0.12000000000E+03 0.  0.
         25    1    1    2    0    0 -0.40658247819E+01 -0.34428236778E+02 -0.15113641866E+03  0.19607154680E+03  0.12000000000E+03 0.  0.
<mgrwt>
<rscale>  0 0.25130422E+03</rscale>
<asrwt>0</asrwt>
<pdfrwt beam="1">  1        1 0.59932425E-01 0.25130422E+03</pdfrwt>
<pdfrwt beam="2">  1       -1 0.62352088E-02 0.25130422E+03</pdfrwt>
<totfact> 0.78150937E+03</totfact>
</mgrwt>
</event>
<event>
 4    1  0.1762274E-004  0.4657470E+03  0.7818608E-02  0.1023127E+00
         -1   -1    0    0    0  501 -0.00000000000E+00  0.00000000000E+00  0.20753486549E+02  0.20753486549E+02  0.00000000000E+00 0. -1.
          1   -1    0    0  501    0  0.00000000000E+00 -0.00000000000E+00 -0.26130586883E+04  0.26130586883E+04  0.00000000000E+00 0. -1.
         25    1    1    2    0    0  0.13837166483E+03 -0.14299247186E+03 -0.13831212736E+04  0.14025041969E+04  0.12000000000E+03 0.  0.
         25    1    1    2    0    0 -0.13837166483E+03  0.14299247186E+03 -0.12091839281E+04  0.12313079780E+04  0.12000000000E+03 0.  0.
<mgrwt>
<rscale>  0 0.46574705E+03</rscale>
<asrwt>0</asrwt>
<pdfrwt beam="1">  1        1 0.40200866E+00 0.46574705E+03</pdfrwt>
<pdfrwt beam="2">  1       -1 0.31928470E-02 0.46574705E+03</pdfrwt>
<totfact> 0.44592289E+02</totfact>
</mgrwt>
</event>
<event>
 4    1  0.1762274E-004  0.2444173E+03  0.7818608E-02  0.1116885E+00
          2   -1    0    0  501    0  0.00000000000E+00  0.00000000000E+00  0.24770864731E+03  0.24770864731E+03  0.00000000000E+00 0. -1.
         -2   -1    0    0    0  501 -0.00000000000E+00 -0.00000000000E+00 -0.60292439007E+02  0.60292439007E+02  0.00000000000E+00 0. -1.
         25    1    1    2    0    0 -0.11526997940E+01 -0.39533475297E+01  0.12238852189E+03  0.17145234896E+03  0.12000000000E+03 0.  0.
         25    1    1    2    0    0  0.11526997940E+01  0.39533475297E+01  0.65027686412E+02  0.13654873736E+03  0.12000000000E+03 0.  0.
<mgrwt>
<rscale>  0 0.24441734E+03</rscale>
<asrwt>0</asrwt>
<pdfrwt beam="1">  1        2 0.38109022E-01 0.24441734E+03</pdfrwt>
<pdfrwt beam="2">  1       -2 0.92757600E-02 0.24441734E+03</pdfrwt>
<totfact> 0.99204176E+03</totfact>
</mgrwt>
</event>
<event>
 4    1  0.1762274E-004  0.2470877E+03  0.7818608E-02  0.1115159E+00
         -2   -1    0    0    0  501 -0.00000000000E+00  0.00000000000E+00  0.16972317937E+03  0.16972317937E+03  0.00000000000E+00 0.  1.
          2   -1    0    0  501    0  0.00000000000E+00 -0.00000000000E+00 -0.89929256351E+02  0.89929256351E+02  0.00000000000E+00 0.  1.
         25    1    1    2    0    0  0.24096071466E+02 -0.16518371138E+02  0.36640667817E+02  0.12882552458E+03  0.12000000000E+03 0.  0.
         25    1    1    2    0    0 -0.24096071466E+02  0.16518371138E+02  0.43153255206E+02  0.13082691115E+03  0.12000000000E+03 0.  0.
<mgrwt>
<rscale>  0 0.24708767E+03</rscale>
<asrwt>0</asrwt>
<pdfrwt beam="1">  1        2 0.13835270E-01 0.24708767E+03</pdfrwt>
<pdfrwt beam="2">  1       -2 0.26111258E-01 0.24708767E+03</pdfrwt>
<totfact> 0.55760578E+03</totfact>
</mgrwt>
</event>
<event>
 4    1  0.1762274E-004  0.3312560E+03  0.7818608E-02  0.1070582E+00
         -2   -1    0    0    0  501 -0.00000000000E+00  0.00000000000E+00  0.52713393085E+02  0.52713393085E+02  0.00000000000E+00 0.  1.
          2   -1    0    0  501    0  0.00000000000E+00 -0.00000000000E+00 -0.52041120734E+03  0.52041120734E+03  0.00000000000E+00 0.  1.
         25    1    1    2    0    0 -0.58863130701E+02  0.92014511640E+02 -0.17643738917E+03  0.23971168266E+03  0.12000000000E+03 0.  0.
         25    1    1    2    0    0  0.58863130701E+02 -0.92014511640E+02 -0.29126042508E+03  0.33341291776E+03  0.12000000000E+03 0.  0.
<mgrwt>
<rscale>  0 0.33125604E+03</rscale>
<asrwt>0</asrwt>
<pdfrwt beam="1">  1        2 0.80063262E-01 0.33125604E+03</pdfrwt>
<pdfrwt beam="2">  1       -2 0.81097529E-02 0.33125604E+03</pdfrwt>
<totfact> 0.55176730E+03</totfact>
</mgrwt>
</event>
<event>
 4    1  0.1762274E-004  0.2484336E+03  0.7818608E-02  0.1114299E+00
          1   -1    0    0  501    0  0.00000000000E+00  0.00000000000E+00  0.70861820472E+03  0.70861820472E+03  0.00000000000E+00 0.  1.
         -1   -1    0    0    0  501 -0.00000000000E+00 -0.00000000000E+00 -0.21774513314E+02  0.21774513314E+02  0.00000000000E+00 0.  1.
         25    1    1    2    0    0  0.50889025694E+01 -0.27301374835E+02  0.29614786882E+03  0.32074105163E+03  0.12000000000E+03 0.  0.
         25    1    1    2    0    0 -0.50889025694E+01  0.27301374835E+02  0.39069582259E+03  0.40965166640E+03  0.12000000000E+03 0.  0.
<mgrwt>
<rscale>  0 0.24843363E+03</rscale>
<asrwt>0</asrwt>
<pdfrwt beam="1">  1        1 0.10901817E+00 0.24843363E+03</pdfrwt>
<pdfrwt beam="2">  1       -1 0.33499257E-02 0.24843363E+03</pdfrwt>
<totfact> 0.88013343E+03</totfact>
</mgrwt>
</event>
<event>
 4    1  0.1762274E-004  0.2809146E+03  0.7818608E-02  0.1095190E+00
          2   -1    0    0  501    0  0.00000000000E+00  0.00000000000E+00  0.17760967349E+03  0.17760967349E+03  0.00000000000E+00 0.  1.
         -2   -1    0    0    0  501 -0.00000000000E+00 -0.00000000000E+00 -0.11107642791E+03  0.11107642791E+03  0.00000000000E+00 0.  1.
         25    1    1    2    0    0 -0.70498360339E+02 -0.71748925691E+01  0.15267802278E+02  0.14019487751E+03  0.12000000000E+03 0.  0.
         25    1    1    2    0    0  0.70498360339E+02  0.71748925691E+01  0.51265443304E+02  0.14849122389E+03  0.12000000000E+03 0.  0.
<mgrwt>
<rscale>  0 0.28091456E+03</rscale>
<asrwt>0</asrwt>
<pdfrwt beam="1">  1        2 0.27324565E-01 0.28091456E+03</pdfrwt>
<pdfrwt beam="2">  1       -2 0.17088681E-01 0.28091456E+03</pdfrwt>
<totfact> 0.53206586E+03</totfact>
</mgrwt>
</event>
<event>
 4    1  0.1762274E-004  0.2575912E+03  0.7818608E-02  0.1108599E+00
          1   -1    0    0  501    0  0.00000000000E+00  0.00000000000E+00  0.13669190986E+03  0.13669190986E+03  0.00000000000E+00 0. -1.
         -1   -1    0    0    0  501 -0.00000000000E+00 -0.00000000000E+00 -0.12135546080E+03  0.12135546080E+03  0.00000000000E+00 0. -1.
         25    1    1    2    0    0 -0.20370466177E+02 -0.25154341551E+02  0.41500991533E+02  0.13103445764E+03  0.12000000000E+03 0.  0.
         25    1    1    2    0    0  0.20370466177E+02  0.25154341551E+02 -0.26164542478E+02  0.12701291302E+03  0.12000000000E+03 0.  0.
<mgrwt>
<rscale>  0 0.25759122E+03</rscale>
<asrwt>0</asrwt>
<pdfrwt beam="1">  1        1 0.21029525E-01 0.25759122E+03</pdfrwt>
<pdfrwt beam="2">  1       -1 0.18670071E-01 0.25759122E+03</pdfrwt>
<totfact> 0.53415900E+03</totfact>
</mgrwt>
</event>
<event>
 4    1  0.1762274E-004  0.5466053E+03  0.7818608E-02  0.1002283E+00
          2   -1    0    0  501    0  0.00000000000E+00  0.00000000000E+00  0.38890434657E+03  0.38890434657E+03  0.00000000000E+00 0.  1.
         -2   -1    0    0    0  501 -0.00000000000E+00 -0.00000000000E+00 -0.19206349531E+03  0.19206349531E+03  0.00000000000E+00 0.  1.
         25    1    1    2    0    0 -0.98411992202E+02  0.19436894259E+03 -0.21970479615E+02  0.24969362832E+03  0.12000000000E+03 0.  0.
         25    1    1    2    0    0  0.98411992202E+02 -0.19436894259E+03  0.21881133088E+03  0.33127421356E+03  0.12000000000E+03 0.  0.
<mgrwt>
<rscale>  0 0.54660526E+03</rscale>
<asrwt>0</asrwt>
<pdfrwt beam="1">  1        2 0.59831438E-01 0.54660526E+03</pdfrwt>
<pdfrwt beam="2">  1       -2 0.29548230E-01 0.54660526E+03</pdfrwt>
<totfact> 0.86881105E+02</totfact>
</mgrwt>
</event>
<event>
 4    1  0.1762274E-004  0.2565702E+03  0.7818608E-02  0.1109222E+00
         -2   -1    0    0    0  501 -0.00000000000E+00  0.00000000000E+00  0.52247488424E+02  0.52247488424E+02  0.00000000000E+00 0. -1.
          2   -1    0    0  501    0  0.00000000000E+00 -0.00000000000E+00 -0.31498290833E+03  0.31498290833E+03  0.00000000000E+00 0. -1.
         25    1    1    2    0    0  0.76644011576E+01  0.51370182054E+01 -0.19492693514E+03  0.22908872090E+03  0.12000000000E+03 0.  0.
         25    1    1    2    0    0 -0.76644011576E+01 -0.51370182054E+01 -0.67808484766E+02  0.13814167585E+03  0.12000000000E+03 0.  0.
<mgrwt>
<rscale>  0 0.25657019E+03</rscale>
<asrwt>0</asrwt>
<pdfrwt beam="1">  1        2 0.48458910E-01 0.25657019E+03</pdfrwt>
<pdfrwt beam="2">  1       -2 0.80380750E-02 0.25657019E+03</pdfrwt>
<totfact> 0.96148977E+03</totfact>
</mgrwt>
</event>
<event>
 4    1  0.1762274E-004  0.2702272E+03  0.7818608E-02  0.1101150E+00
         -1   -1    0    0    0  501 -0.00000000000E+00  0.00000000000E+00  0.34598344741E+02  0.34598344741E+02  0.00000000000E+00 0.  1.
          1   -1    0    0  501    0  0.00000000000E+00 -0.00000000000E+00 -0.52764632914E+03  0.52764632914E+03  0.00000000000E+00 0.  1.
         25    1    1    2    0    0  0.30500302246E+02  0.53515023950E+02 -0.23019883277E+03  0.26680635081E+03  0.12000000000E+03 0.  0.
         25    1    1    2    0    0 -0.30500302246E+02 -0.53515023950E+02 -0.26284915163E+03  0.29543832307E+03  0.12000000000E+03 0.  0.
<mgrwt>
<rscale>  0 0.27022723E+03</rscale>
<asrwt>0</asrwt>
<pdfrwt beam="1">  1        1 0.81176364E-01 0.27022723E+03</pdfrwt>
<pdfrwt beam="2">  1       -1 0.53228219E-02 0.27022723E+03</pdfrwt>
<totfact> 0.66897026E+03</totfact>
</mgrwt>
</event>
<event>
 4    1  0.1762274E-004  0.2901215E+03  0.7818608E-02  0.1090286E+00
          1   -1    0    0  501    0  0.00000000000E+00  0.00000000000E+00  0.33491047760E+03  0.33491047760E+03  0.00000000000E+00 0.  1.
         -1   -1    0    0    0  501 -0.00000000000E+00 -0.00000000000E+00 -0.62830580557E+02  0.62830580557E+02  0.00000000000E+00 0.  1.
         25    1    1    2    0    0  0.70343961674E+02 -0.96442066938E+01  0.19090070217E+03  0.23639873468E+03  0.12000000000E+03 0.  0.
         25    1    1    2    0    0 -0.70343961674E+02  0.96442066938E+01  0.81179194876E+02  0.16134232348E+03  0.12000000000E+03 0.  0.
<mgrwt>
<rscale>  0 0.29012149E+03</rscale>
<asrwt>0</asrwt>
<pdfrwt beam="1">  1        1 0.51524688E-01 0.29012149E+03</pdfrwt>
<pdfrwt beam="2">  1       -1 0.96662433E-02 0.29012149E+03</pdfrwt>
<totfact> 0.48753802E+03</totfact>
</mgrwt>
</event>
<event>
 4    1  0.1762274E-004  0.3020175E+03  0.7818608E-02  0.1084236E+00
          1   -1    0    0  501    0  0.00000000000E+00  0.00000000000E+00  0.19196253749E+04  0.19196253749E+04  0.00000000000E+00 0. -1.
         -1   -1    0    0    0  501 -0.00000000000E+00 -0.00000000000E+00 -0.11879212202E+02  0.11879212202E+02  0.00000000000E+00 0. -1.
         25    1    1    2    0    0 -0.22151575990E+02 -0.85595457658E+02  0.79901039962E+03  0.81279449641E+03  0.12000000000E+03 0.  0.
         25    1    1    2    0    0  0.22151575990E+02  0.85595457658E+02  0.11087357631E+04  0.11187100907E+04  0.12000000000E+03 0.  0.
<mgrwt>
<rscale>  0 0.30201746E+03</rscale>
<asrwt>0</asrwt>
<pdfrwt beam="1">  1        1 0.29532673E+00 0.30201746E+03</pdfrwt>
<pdfrwt beam="2">  1       -1 0.18275726E-02 0.30201746E+03</pdfrwt>
<totfact> 0.29750842E+03</totfact>
</mgrwt>
</event>
<event>
 4    1  0.1762274E-004  0.3363755E+03  0.7818608E-02  0.1068350E+00
         -2   -1    0    0    0  501 -0.00000000000E+00  0.00000000000E+00  0.11262211711E+03  0.11262211711E+03  0.00000000000E+00 0. -1.
          2   -1    0    0  501    0  0.00000000000E+00 -0.00000000000E+00 -0.25116845713E+03  0.25116845713E+03  0.00000000000E+00 0. -1.
         25    1    1    2    0    0  0.38900732270E+02 -0.11112352384E+03 -0.63820550580E+02  0.17981870648E+03  0.12000000000E+03 0.  0.
         25    1    1    2    0    0 -0.38900732270E+02  0.11112352384E+03 -0.74725789445E+02  0.18397186777E+03  0.12000000000E+03 0.  0.
<mgrwt>
<rscale>  0 0.33637552E+03</rscale>
<asrwt>0</asrwt>
<pdfrwt beam="1">  1        2 0.38641300E-01 0.33637552E+03</pdfrwt>
<pdfrwt beam="2">  1       -2 0.17326480E-01 0.33637552E+03</pdfrwt>
<totfact> 0.35735165E+03</totfact>
</mgrwt>
</event>
<event>
 4    1  0.1762274E-004  0.2557894E+03  0.7818608E-02  0.1109700E+00
         -2   -1    0    0    0  501 -0.00000000000E+00  0.00000000000E+00  0.54819586123E+01  0.54819586123E+01  0.00000000000E+00 0.  1.
          2   -1    0    0  501    0  0.00000000000E+00 -0.00000000000E+00 -0.29837973203E+04  0.29837973203E+04  0.00000000000E+00 0.  1.
         25    1    1    2    0    0 -0.42063894808E+02  0.12456134344E+02 -0.15558084583E+04  0.15610459588E+04  0.12000000000E+03 0.  0.
         25    1    1    2    0    0  0.42063894808E+02 -0.12456134344E+02 -0.14225069034E+04  0.14282333202E+04  0.12000000000E+03 0.  0.
<mgrwt>
<rscale>  0 0.25578939E+03</rscale>
<asrwt>0</asrwt>
<pdfrwt beam="1">  1        2 0.45904432E+00 0.25578939E+03</pdfrwt>
<pdfrwt beam="2">  1       -2 0.84338087E-03 0.25578939E+03</pdfrwt>
<totfact> 0.58211892E+03</totfact>
</mgrwt>
</event>
<event>
 4    1  0.1762274E-004  0.3262329E+03  0.7818608E-02  0.1072816E+00
         -1   -1    0    0    0  501 -0.00000000000E+00  0.00000000000E+00  0.21531237897E+03  0.21531237897E+03  0.00000000000E+00 0.  1.
          1   -1    0    0  501    0  0.00000000000E+00 -0.00000000000E+00 -0.12357380141E+03  0.12357380141E+03  0.00000000000E+00 0.  1.
         25    1    1    2    0    0 -0.83628296674E+02  0.64291100927E+02  0.11732374316E+02  0.16020201706E+03  0.12000000000E+03 0.  0.
         25    1    1    2    0    0  0.83628296674E+02 -0.64291100927E+02  0.80006203241E+02  0.17868416332E+03  0.12000000000E+03 0.  0.
<mgrwt>
<rscale>  0 0.32623286E+03</rscale>
<asrwt>0</asrwt>
<pdfrwt beam="1">  1        1 0.19011354E-01 0.32623286E+03</pdfrwt>
<pdfrwt beam="2">  1       -1 0.33124981E-01 0.32623286E+03</pdfrwt>
<totfact> 0.23531390E+03</totfact>
</mgrwt>
</event>
<event>
 4    1  0.1762274E-004  0.3306847E+03  0.7818608E-02  0.1070834E+00
          2   -1    0    0  501    0  0.00000000000E+00  0.00000000000E+00  0.19741955479E+04  0.19741955479E+04  0.00000000000E+00 0. -1.
         -2   -1    0    0    0  501 -0.00000000000E+00 -0.00000000000E+00 -0.13847716158E+02  0.13847716158E+02  0.00000000000E+00 0. -1.
         25    1    1    2    0    0 -0.50966678188E+02 -0.35978106138E+02  0.15519707197E+04  0.15578527341E+04  0.12000000000E+03 0.  0.
         25    1    1    2    0    0  0.50966678188E+02  0.35978106138E+02  0.40837711204E+03  0.43019052994E+03  0.12000000000E+03 0.  0.
<mgrwt>
<rscale>  0 0.33068474E+03</rscale>
<asrwt>0</asrwt>
<pdfrwt beam="1">  1        2 0.30372217E+00 0.33068474E+03</pdfrwt>
<pdfrwt beam="2">  1       -2 0.21304194E-02 0.33068474E+03</pdfrwt>
<totfact> 0.53987623E+03</totfact>
</mgrwt>
</event>
<event>
 4    1  0.1762274E-004  0.3353111E+03  0.7818608E-02  0.1068811E+00
          2   -1    0    0  501    0  0.00000000000E+00  0.00000000000E+00  0.17093220186E+03  0.17093220186E+03  0.00000000000E+00 0. -1.
         -2   -1    0    0    0  501 -0.00000000000E+00 -0.00000000000E+00 -0.16444171530E+03  0.16444171530E+03  0.00000000000E+00 0. -1.
         25    1    1    2    0    0  0.84476030919E+02  0.76566052070E+02 -0.23402276296E+02  0.16717124952E+03  0.12000000000E+03 0.  0.
         25    1    1    2    0    0 -0.84476030919E+02 -0.76566052070E+02  0.29892762863E+02  0.16820266764E+03  0.12000000000E+03 0.  0.
<mgrwt>
<rscale>  0 0.33531111E+03</rscale>
<asrwt>0</asrwt>
<pdfrwt beam="1">  1        2 0.26297262E-01 0.33531111E+03</pdfrwt>
<pdfrwt beam="2">  1       -2 0.25298725E-01 0.33531111E+03</pdfrwt>
<totfact> 0.28358374E+03</totfact>
</mgrwt>
</event>
<event>
 4    1  0.1762274E-004  0.2868800E+03  0.7818608E-02  0.1091989E+00
          2   -1    0    0  501    0  0.00000000000E+00  0.00000000000E+00  0.18866236585E+03  0.18866236585E+03  0.00000000000E+00 0.  1.
         -2   -1    0    0    0  501 -0.00000000000E+00 -0.00000000000E+00 -0.10905745568E+03  0.10905745568E+03  0.00000000000E+00 0.  1.
         25    1    1    2    0    0 -0.41807197949E+02  0.58642937191E+02  0.72425931490E+02  0.15758283991E+03  0.12000000000E+03 0.  0.
         25    1    1    2    0    0  0.41807197949E+02 -0.58642937191E+02  0.71789786859E+01  0.14013698162E+03  0.12000000000E+03 0.  0.
<mgrwt>
<rscale>  0 0.28688003E+03</rscale>
<asrwt>0</asrwt>
<pdfrwt beam="1">  1        2 0.29024979E-01 0.28688003E+03</pdfrwt>
<pdfrwt beam="2">  1       -2 0.16778070E-01 0.28688003E+03</pdfrwt>
<totfact> 0.51361970E+03</totfact>
</mgrwt>
</event>
<event>
 4    1  0.1762274E-004  0.2679770E+03  0.7818608E-02  0.1102443E+00
         -2   -1    0    0    0  501 -0.00000000000E+00  0.00000000000E+00  0.25155611780E+03  0.25155611780E+03  0.00000000000E+00 0. -1.
          2   -1    0    0  501    0  0.00000000000E+00 -0.00000000000E+00 -0.71367460852E+02  0.71367460852E+02  0.00000000000E+00 0. -1.
         25    1    1    2    0    0  0.28854780527E+02  0.29723626797E+02  0.14174031348E+03  0.19027981715E+03  0.12000000000E+03 0.  0.
         25    1    1    2    0    0 -0.28854780527E+02 -0.29723626797E+02  0.38448343463E+02  0.13264376150E+03  0.12000000000E+03 0.  0.
<mgrwt>
<rscale>  0 0.26797702E+03</rscale>
<asrwt>0</asrwt>
<pdfrwt beam="1">  1        2 0.10979610E-01 0.26797702E+03</pdfrwt>
<pdfrwt beam="2">  1       -2 0.38700941E-01 0.26797702E+03</pdfrwt>
<totfact> 0.35980661E+03</totfact>
</mgrwt>
</event>
<event>
 4    1  0.1762274E-004  0.3985201E+03  0.7818608E-02  0.1044293E+00
         -1   -1    0    0    0  501 -0.00000000000E+00  0.00000000000E+00  0.52332783497E+02  0.52332783497E+02  0.00000000000E+00 0.  1.
          1   -1    0    0  501    0  0.00000000000E+00 -0.00000000000E+00 -0.75869387917E+03  0.75869387917E+03  0.00000000000E+00 0.  1.
         25    1    1    2    0    0 -0.40841253770E+02  0.12460078717E+03 -0.53646576542E+03  0.56514500939E+03  0.12000000000E+03 0.  0.
         25    1    1    2    0    0  0.40841253770E+02 -0.12460078717E+03 -0.16989533025E+03  0.24588165327E+03  0.12000000000E+03 0.  0.
<mgrwt>
<rscale>  0 0.39852007E+03</rscale>
<asrwt>0</asrwt>
<pdfrwt beam="1">  1        1 0.11672213E+00 0.39852007E+03</pdfrwt>
<pdfrwt beam="2">  1       -1 0.80511981E-02 0.39852007E+03</pdfrwt>
<totfact> 0.21370622E+03</totfact>
</mgrwt>
</event>
<event>
 4    1  0.1762274E-004  0.2663550E+03  0.7818608E-02  0.1103384E+00
         -2   -1    0    0    0  501 -0.00000000000E+00  0.00000000000E+00  0.14820330599E+03  0.14820330599E+03  0.00000000000E+00 0.  1.
          2   -1    0    0  501    0  0.00000000000E+00 -0.00000000000E+00 -0.11967512490E+03  0.11967512490E+03  0.00000000000E+00 0.  1.
         25    1    1    2    0    0  0.49308082561E+02  0.30079680495E+02  0.14684778313E+02  0.13398401733E+03  0.12000000000E+03 0.  0.
         25    1    1    2    0    0 -0.49308082561E+02 -0.30079680495E+02  0.13843402776E+02  0.13389441357E+03  0.12000000000E+03 0.  0.
<mgrwt>
<rscale>  0 0.26635502E+03</rscale>
<asrwt>0</asrwt>
<pdfrwt beam="1">  1        2 0.18411558E-01 0.26635502E+03</pdfrwt>
<pdfrwt beam="2">  1       -2 0.22800509E-01 0.26635502E+03</pdfrwt>
<totfact> 0.50718003E+03</totfact>
</mgrwt>
</event>
<event>
 4    1  0.1762274E-004  0.3092918E+03  0.7818608E-02  0.1080686E+00
         -2   -1    0    0    0  501 -0.00000000000E+00  0.00000000000E+00  0.33900291029E+02  0.33900291029E+02  0.00000000000E+00 0.  1.
          2   -1    0    0  501    0  0.00000000000E+00 -0.00000000000E+00 -0.70546174094E+03  0.70546174094E+03  0.00000000000E+00 0.  1.
         25    1    1    2    0    0 -0.23438671376E+02 -0.79653768079E+02 -0.45817020916E+03  0.48084720510E+03  0.12000000000E+03 0.  0.
         25    1    1    2    0    0  0.23438671376E+02  0.79653768079E+02 -0.21339124075E+03  0.25851482688E+03  0.12000000000E+03 0.  0.
<mgrwt>
<rscale>  0 0.30929183E+03</rscale>
<asrwt>0</asrwt>
<pdfrwt beam="1">  1        2 0.10853257E+00 0.30929183E+03</pdfrwt>
<pdfrwt beam="2">  1       -2 0.52154297E-02 0.30929183E+03</pdfrwt>
<totfact> 0.76334892E+03</totfact>
</mgrwt>
</event>
<event>
 4    1  0.1762274E-004  0.2753629E+03  0.7818608E-02  0.1098249E+00
         -1   -1    0    0    0  501 -0.00000000000E+00  0.00000000000E+00  0.10643974644E+02  0.10643974644E+02  0.00000000000E+00 0. -1.
          1   -1    0    0  501    0  0.00000000000E+00 -0.00000000000E+00 -0.17809306831E+04  0.17809306831E+04  0.00000000000E+00 0. -1.
         25    1    1    2    0    0  0.65159108306E+02 -0.94132472019E+01 -0.78823273719E+03  0.80002822862E+03  0.12000000000E+03 0.  0.
         25    1    1    2    0    0 -0.65159108306E+02  0.94132472019E+01 -0.98205397126E+03  0.99154642911E+03  0.12000000000E+03 0.  0.
<mgrwt>
<rscale>  0 0.27536290E+03</rscale>
<asrwt>0</asrwt>
<pdfrwt beam="1">  1        1 0.27398944E+00 0.27536290E+03</pdfrwt>
<pdfrwt beam="2">  1       -1 0.16375339E-02 0.27536290E+03</pdfrwt>
<totfact> 0.43001926E+03</totfact>
</mgrwt>
</event>
<event>
 4    1  0.1762274E-004  0.2701991E+03  0.7818608E-02  0.1101166E+00
          2   -1    0    0  501    0  0.00000000000E+00  0.00000000000E+00  0.88800330297E+03  0.88800330297E+03  0.00000000000E+00 0. -1.
         -2   -1    0    0    0  501 -0.00000000000E+00 -0.00000000000E+00 -0.20553854607E+02  0.20553854607E+02  0.00000000000E+00 0. -1.
         25    1    1    2    0    0  0.28581433482E+00  0.53562729286E+02  0.53914166990E+03  0.55492593008E+03  0.12000000000E+03 0.  0.
         25    1    1    2    0    0 -0.28581433482E+00 -0.53562729286E+02  0.32830777847E+03  0.35363122750E+03  0.12000000000E+03 0.  0.
<mgrwt>
<rscale>  0 0.27019912E+03</rscale>
<asrwt>0</asrwt>
<pdfrwt beam="1">  1        2 0.13661586E+00 0.27019912E+03</pdfrwt>
<pdfrwt beam="2">  1       -2 0.31621322E-02 0.27019912E+03</pdfrwt>
<totfact> 0.12063175E+04</totfact>
</mgrwt>
</event>
<event>
 4    1  0.1762274E-004  0.3192502E+03  0.7818608E-02  0.1075995E+00
         -2   -1    0    0    0  501 -0.00000000000E+00  0.00000000000E+00  0.14784606660E+02  0.14784606660E+02  0.00000000000E+00 0.  1.
          2   -1    0    0  501    0  0.00000000000E+00 -0.00000000000E+00 -0.17234255138E+04  0.17234255138E+04  0.00000000000E+00 0.  1.
         25    1    1    2    0    0 -0.96078624803E+02  0.42821452300E+02 -0.83296139484E+03  0.84810934685E+03  0.12000000000E+03 0.  0.
         25    1    1    2    0    0  0.96078624803E+02 -0.42821452300E+02 -0.87567951233E+03  0.89010077364E+03  0.12000000000E+03 0.  0.
<mgrwt>
<rscale>  0 0.31925017E+03</rscale>
<asrwt>0</asrwt>
<pdfrwt beam="1">  1        2 0.26514223E+00 0.31925017E+03</pdfrwt>
<pdfrwt beam="2">  1       -2 0.22745562E-02 0.31925017E+03</pdfrwt>
<totfact> 0.66482397E+03</totfact>
</mgrwt>
</event>
<event>
 4    1  0.1762274E-004  0.2720342E+03  0.7818608E-02  0.1100121E+00
         -1   -1    0    0    0  501 -0.00000000000E+00  0.00000000000E+00  0.20927477427E+02  0.20927477427E+02  0.00000000000E+00 0.  1.
          1   -1    0    0  501    0  0.00000000000E+00 -0.00000000000E+00 -0.88403643117E+03  0.88403643117E+03  0.00000000000E+00 0.  1.
         25    1    1    2    0    0  0.53286535216E+02 -0.34323224487E+02 -0.40122642393E+03  0.42355658635E+03  0.12000000000E+03 0.  0.
         25    1    1    2    0    0 -0.53286535216E+02  0.34323224487E+02 -0.46188252981E+03  0.48140732225E+03  0.12000000000E+03 0.  0.
<mgrwt>
<rscale>  0 0.27203421E+03</rscale>
<asrwt>0</asrwt>
<pdfrwt beam="1">  1        1 0.13600558E+00 0.27203421E+03</pdfrwt>
<pdfrwt beam="2">  1       -1 0.32196124E-02 0.27203421E+03</pdfrwt>
<totfact> 0.66683447E+03</totfact>
</mgrwt>
</event>
<event>
 4    1  0.1762274E-004  0.4063377E+03  0.7818608E-02  0.1041607E+00
         -2   -1    0    0    0  501 -0.00000000000E+00  0.00000000000E+00  0.23633931597E+02  0.23633931597E+02  0.00000000000E+00 0. -1.
          2   -1    0    0  501    0  0.00000000000E+00 -0.00000000000E+00 -0.17465391011E+04  0.17465391011E+04  0.00000000000E+00 0. -1.
         25    1    1    2    0    0  0.96968858106E+02  0.94014713500E+02 -0.12662906809E+04  0.12791144649E+04  0.12000000000E+03 0.  0.
         25    1    1    2    0    0 -0.96968858106E+02 -0.94014713500E+02 -0.45661448856E+03  0.49105856775E+03  0.12000000000E+03 0.  0.
<mgrwt>
<rscale>  0 0.40633772E+03</rscale>
<asrwt>0</asrwt>
<pdfrwt beam="1">  1        2 0.26869834E+00 0.40633772E+03</pdfrwt>
<pdfrwt beam="2">  1       -2 0.36359892E-02 0.40633772E+03</pdfrwt>
<totfact> 0.31975692E+03</totfact>
</mgrwt>
</event>
<event>
 4    1  0.1762274E-004  0.3254206E+03  0.7818608E-02  0.1073181E+00
         -2   -1    0    0    0  501 -0.00000000000E+00  0.00000000000E+00  0.33749937009E+02  0.33749937009E+02  0.00000000000E+00 0. -1.
          2   -1    0    0  501    0  0.00000000000E+00 -0.00000000000E+00 -0.78443507252E+03  0.78443507252E+03  0.00000000000E+00 0. -1.
         25    1    1    2    0    0 -0.42952363345E+02  0.10111077973E+03 -0.36901237997E+03  0.40328455446E+03  0.12000000000E+03 0.  0.
         25    1    1    2    0    0  0.42952363345E+02 -0.10111077973E+03 -0.38167275554E+03  0.41490045507E+03  0.12000000000E+03 0.  0.
<mgrwt>
<rscale>  0 0.32542055E+03</rscale>
<asrwt>0</asrwt>
<pdfrwt beam="1">  1        2 0.12068230E+00 0.32542055E+03</pdfrwt>
<pdfrwt beam="2">  1       -2 0.51922989E-02 0.32542055E+03</pdfrwt>
<totfact> 0.67419914E+03</totfact>
</mgrwt>
</event>
<event>
 4    1  0.1762274E-004  0.2791795E+03  0.7818608E-02  0.1096138E+00
          2   -1    0    0  501    0  0.00000000000E+00  0.00000000000E+00  0.50405133426E+03  0.50405133426E+03  0.00000000000E+00 0.  1.
         -2   -1    0    0    0  501 -0.00000000000E+00 -0.00000000000E+00 -0.38657373956E+02  0.38657373956E+02  0.00000000000E+00 0.  1.
         25    1    1    2    0    0 -0.68356488843E+02  0.33548540543E+01  0.27164555412E+03  0.30475428084E+03  0.12000000000E+03 0.  0.
         25    1    1    2    0    0  0.68356488843E+02 -0.33548540543E+01  0.19374840618E+03  0.23795442738E+03  0.12000000000E+03 0.  0.
<mgrwt>
<rscale>  0 0.27917952E+03</rscale>
<asrwt>0</asrwt>
<pdfrwt beam="1">  1        2 0.77546354E-01 0.27917952E+03</pdfrwt>
<pdfrwt beam="2">  1       -2 0.59472887E-02 0.27917952E+03</pdfrwt>
<totfact> 0.92095466E+03</totfact>
</mgrwt>
</event>
<event>
 4    1  0.1762274E-004  0.3443337E+03  0.7818608E-02  0.1064965E+00
          1   -1    0    0  501    0  0.00000000000E+00  0.00000000000E+00  0.15006417710E+03  0.15006417710E+03  0.00000000000E+00 0.  1.
         -1   -1    0    0    0  501 -0.00000000000E+00 -0.00000000000E+00 -0.19752494590E+03  0.19752494590E+03  0.00000000000E+00 0.  1.
         25    1    1    2    0    0  0.39556573647E+02 -0.64499138160E+02  0.74744758609E+02  0.16034849635E+03  0.12000000000E+03 0.  0.
         25    1    1    2    0    0 -0.39556573647E+02  0.64499138160E+02 -0.12220552741E+03  0.18724062666E+03  0.12000000000E+03 0.  0.
<mgrwt>
<rscale>  0 0.34433367E+03</rscale>
<asrwt>0</asrwt>
<pdfrwt beam="1">  1        1 0.23086797E-01 0.34433367E+03</pdfrwt>
<pdfrwt beam="2">  1       -1 0.30388453E-01 0.34433367E+03</pdfrwt>
<totfact> 0.21254537E+03</totfact>
</mgrwt>
</event>
<event>
 4    1  0.1762274E-004  0.2875852E+03  0.7818608E-02  0.1091617E+00
         -2   -1    0    0    0  501 -0.00000000000E+00  0.00000000000E+00  0.98757455642E+01  0.98757455642E+01  0.00000000000E+00 0. -1.
          2   -1    0    0  501    0  0.00000000000E+00 -0.00000000000E+00 -0.20936462923E+04  0.20936462923E+04  0.00000000000E+00 0. -1.
         25    1    1    2    0    0  0.53859607734E+02 -0.36657574335E+02 -0.13715772967E+04  0.13783573252E+04  0.12000000000E+03 0.  0.
         25    1    1    2    0    0 -0.53859607734E+02  0.36657574335E+02 -0.71219325005E+03  0.72516471268E+03  0.12000000000E+03 0.  0.
<mgrwt>
<rscale>  0 0.28758524E+03</rscale>
<asrwt>0</asrwt>
<pdfrwt beam="1">  1        2 0.32209963E+00 0.28758524E+03</pdfrwt>
<pdfrwt beam="2">  1       -2 0.15193445E-02 0.28758524E+03</pdfrwt>
<totfact> 0.76797691E+03</totfact>
</mgrwt>
</event>
<event>
 4    1  0.1762274E-004  0.2745856E+03  0.7818608E-02  0.1098683E+00
         -2   -1    0    0    0  501 -0.00000000000E+00  0.00000000000E+00  0.63745098347E+01  0.63745098347E+01  0.00000000000E+00 0.  1.
          2   -1    0    0  501    0  0.00000000000E+00 -0.00000000000E+00 -0.29569833298E+04  0.29569833298E+04  0.00000000000E+00 0.  1.
         25    1    1    2    0    0 -0.46803329443E+02 -0.47218948714E+02 -0.14170484654E+04  0.14236736051E+04  0.12000000000E+03 0.  0.
         25    1    1    2    0    0  0.46803329443E+02  0.47218948714E+02 -0.15335603546E+04  0.15396842345E+04  0.12000000000E+03 0.  0.
<mgrwt>
<rscale>  0 0.27458565E+03</rscale>
<asrwt>0</asrwt>
<pdfrwt beam="1">  1        2 0.45491977E+00 0.27458565E+03</pdfrwt>
<pdfrwt beam="2">  1       -2 0.98069543E-03 0.27458565E+03</pdfrwt>
<totfact> 0.48455691E+03</totfact>
</mgrwt>
</event>
<event>
 4    1  0.1762274E-004  0.2491465E+03  0.7818608E-02  0.1113845E+00
          1   -1    0    0  501    0  0.00000000000E+00  0.00000000000E+00  0.13754268455E+03  0.13754268455E+03  0.00000000000E+00 0. -1.
         -1   -1    0    0    0  501 -0.00000000000E+00 -0.00000000000E+00 -0.11282671050E+03  0.11282671050E+03  0.00000000000E+00 0. -1.
         25    1    1    2    0    0 -0.12977390682E+02 -0.29094625933E+02  0.22585306190E+02  0.12619431835E+03  0.12000000000E+03 0.  0.
         25    1    1    2    0    0  0.12977390682E+02  0.29094625933E+02  0.21306678599E+01  0.12417507670E+03  0.12000000000E+03 0.  0.
<mgrwt>
<rscale>  0 0.24914645E+03</rscale>
<asrwt>0</asrwt>
<pdfrwt beam="1">  1        1 0.21160413E-01 0.24914645E+03</pdfrwt>
<pdfrwt beam="2">  1       -1 0.17357955E-01 0.24914645E+03</pdfrwt>
<totfact> 0.59503223E+03</totfact>
</mgrwt>
</event>
<event>
 4    1  0.1762274E-004  0.2430955E+03  0.7818608E-02  0.1117748E+00
          1   -1    0    0  501    0  0.00000000000E+00  0.00000000000E+00  0.11492635928E+02  0.11492635928E+02  0.00000000000E+00 0. -1.
         -1   -1    0    0    0  501 -0.00000000000E+00 -0.00000000000E+00 -0.12855063236E+04  0.12855063236E+04  0.00000000000E+00 0. -1.
         25    1    1    2    0    0  0.19285333441E+02 -0.12160211983E+01 -0.64059926496E+03  0.65202823640E+03  0.12000000000E+03 0.  0.
         25    1    1    2    0    0 -0.19285333441E+02  0.12160211983E+01 -0.63341442267E+03  0.64497072308E+03  0.12000000000E+03 0.  0.
<mgrwt>
<rscale>  0 0.24309551E+03</rscale>
<asrwt>0</asrwt>
<pdfrwt beam="1">  1        1 0.17680991E-02 0.24309551E+03</pdfrwt>
<pdfrwt beam="2">  1       -1 0.19777007E+00 0.24309551E+03</pdfrwt>
<totfact> 0.12416251E+03</totfact>
</mgrwt>
</event>
<event>
 4    1  0.1762274E-004  0.4862116E+03  0.7818608E-02  0.1017442E+00
         -2   -1    0    0    0  501 -0.00000000000E+00  0.00000000000E+00  0.26212960084E+03  0.26212960084E+03  0.00000000000E+00 0.  1.
          2   -1    0    0  501    0  0.00000000000E+00 -0.00000000000E+00 -0.22546264136E+03  0.22546264136E+03  0.00000000000E+00 0.  1.
         25    1    1    2    0    0 -0.36814961628E+01  0.80144010974E+02 -0.17783336398E+03  0.22904436526E+03  0.12000000000E+03 0.  0.
         25    1    1    2    0    0  0.36814961628E+01 -0.80144010974E+02  0.21450032346E+03  0.25854787694E+03  0.12000000000E+03 0.  0.
<mgrwt>
<rscale>  0 0.48621161E+03</rscale>
<asrwt>0</asrwt>
<pdfrwt beam="1">  1        2 0.34686560E-01 0.48621161E+03</pdfrwt>
<pdfrwt beam="2">  1       -2 0.40327631E-01 0.48621161E+03</pdfrwt>
<totfact> 0.88182613E+02</totfact>
</mgrwt>
</event>
<event>
 4    1  0.1762274E-004  0.2550528E+03  0.7818608E-02  0.1110153E+00
         -2   -1    0    0    0  501 -0.00000000000E+00  0.00000000000E+00  0.37767624626E+02  0.37767624626E+02  0.00000000000E+00 0. -1.
          2   -1    0    0  501    0  0.00000000000E+00 -0.00000000000E+00 -0.43060649683E+03  0.43060649683E+03  0.00000000000E+00 0. -1.
         25    1    1    2    0    0 -0.92349073999E+01  0.39363598102E+02 -0.22416083515E+03  0.25745457150E+03  0.12000000000E+03 0.  0.
         25    1    1    2    0    0  0.92349073999E+01 -0.39363598102E+02 -0.16867803706E+03  0.21091954997E+03  0.12000000000E+03 0.  0.
<mgrwt>
<rscale>  0 0.25505281E+03</rscale>
<asrwt>0</asrwt>
<pdfrwt beam="1">  1        2 0.66247156E-01 0.25505281E+03</pdfrwt>
<pdfrwt beam="2">  1       -2 0.58104036E-02 0.25505281E+03</pdfrwt>
<totfact> 0.11317488E+04</totfact>
</mgrwt>
</event>
<event>
 4    1  0.1762274E-004  0.4206398E+03  0.7818608E-02  0.1036858E+00
          2   -1    0    0  501    0  0.00000000000E+00  0.00000000000E+00  0.13472451049E+04  0.13472451049E+04  0.00000000000E+00 0.  1.
         -2   -1    0    0    0  501 -0.00000000000E+00 -0.00000000000E+00 -0.32833272452E+02  0.32833272452E+02  0.00000000000E+00 0.  1.
         25    1    1    2    0    0 -0.90991528889E+02  0.14127453730E+03  0.52611291464E+03  0.56518382157E+03  0.12000000000E+03 0.  0.
         25    1    1    2    0    0  0.90991528889E+02 -0.14127453730E+03  0.78829891779E+03  0.81489455576E+03  0.12000000000E+03 0.  0.
<mgrwt>
<rscale>  0 0.42063982E+03</rscale>
<asrwt>0</asrwt>
<pdfrwt beam="1">  1        2 0.20726843E+00 0.42063982E+03</pdfrwt>
<pdfrwt beam="2">  1       -2 0.50512737E-02 0.42063982E+03</pdfrwt>
<totfact> 0.31887137E+03</totfact>
</mgrwt>
</event>
<event>
 4    1  0.1762274E-004  0.2574427E+03  0.7818608E-02  0.1108689E+00
         -2   -1    0    0    0  501 -0.00000000000E+00  0.00000000000E+00  0.10763931741E+03  0.10763931741E+03  0.00000000000E+00 0. -1.
          2   -1    0    0  501    0  0.00000000000E+00 -0.00000000000E+00 -0.15393252050E+03  0.15393252050E+03  0.00000000000E+00 0. -1.
         25    1    1    2    0    0  0.11959256237E+02  0.36503131749E+02 -0.49907009710E+02  0.13552199842E+03  0.12000000000E+03 0.  0.
         25    1    1    2    0    0 -0.11959256237E+02 -0.36503131749E+02  0.36138066224E+01  0.12604983949E+03  0.12000000000E+03 0.  0.
<mgrwt>
<rscale>  0 0.25744274E+03</rscale>
<asrwt>0</asrwt>
<pdfrwt beam="1">  1        2 0.23681926E-01 0.25744274E+03</pdfrwt>
<pdfrwt beam="2">  1       -2 0.16559895E-01 0.25744274E+03</pdfrwt>
<totfact> 0.65564281E+03</totfact>
</mgrwt>
</event>
<event>
 4    1  0.1762274E-004  0.2574736E+03  0.7818608E-02  0.1108671E+00
         -2   -1    0    0    0  501 -0.00000000000E+00  0.00000000000E+00  0.26990152751E+03  0.26990152751E+03  0.00000000000E+00 0. -1.
          2   -1    0    0  501    0  0.00000000000E+00 -0.00000000000E+00 -0.61404480373E+02  0.61404480373E+02  0.00000000000E+00 0. -1.
         25    1    1    2    0    0 -0.44035220752E+02  0.85748390704E+01  0.87945024365E+02  0.15539290795E+03  0.12000000000E+03 0.  0.
         25    1    1    2    0    0  0.44035220752E+02 -0.85748390704E+01  0.12055202277E+03  0.17591309993E+03  0.12000000000E+03 0.  0.
<mgrwt>
<rscale>  0 0.25747360E+03</rscale>
<asrwt>0</asrwt>
<pdfrwt beam="1">  1        2 0.94468432E-02 0.25747360E+03</pdfrwt>
<pdfrwt beam="2">  1       -2 0.41523311E-01 0.25747360E+03</pdfrwt>
<totfact> 0.37843205E+03</totfact>
</mgrwt>
</event>
<event>
 4    1  0.1762274E-004  0.3712741E+03  0.7818608E-02  0.1054207E+00
         -1   -1    0    0    0  501 -0.00000000000E+00  0.00000000000E+00  0.53016254210E+03  0.53016254210E+03  0.00000000000E+00 0. -1.
          1   -1    0    0  501    0  0.00000000000E+00 -0.00000000000E+00 -0.65001050668E+02  0.65001050668E+02  0.00000000000E+00 0. -1.
         25    1    1    2    0    0 -0.13279955765E+03  0.48646359603E+02  0.24488669748E+03  0.30719974840E+03  0.12000000000E+03 0.  0.
         25    1    1    2    0    0  0.13279955765E+03 -0.48646359603E+02  0.22027479395E+03  0.28796384437E+03  0.12000000000E+03 0.  0.
<mgrwt>
<rscale>  0 0.37127414E+03</rscale>
<asrwt>0</asrwt>
<pdfrwt beam="1">  1        1 0.10000162E-01 0.37127414E+03</pdfrwt>
<pdfrwt beam="2">  1       -1 0.81563465E-01 0.37127414E+03</pdfrwt>
<totfact> 0.10083577E+03</totfact>
</mgrwt>
</event>
<event>
 4    1  0.1762274E-004  0.3089508E+03  0.7818608E-02  0.1080850E+00
         -1   -1    0    0    0  501 -0.00000000000E+00  0.00000000000E+00  0.82800793516E+02  0.82800793516E+02  0.00000000000E+00 0.  1.
          1   -1    0    0  501    0  0.00000000000E+00 -0.00000000000E+00 -0.28819354338E+03  0.28819354338E+03  0.00000000000E+00 0.  1.
         25    1    1    2    0    0  0.59349321005E+02  0.66537117599E+02 -0.14940694784E+03  0.21135743655E+03  0.12000000000E+03 0.  0.
         25    1    1    2    0    0 -0.59349321005E+02 -0.66537117599E+02 -0.55985802016E+02  0.15963690034E+03  0.12000000000E+03 0.  0.
<mgrwt>
<rscale>  0 0.30895083E+03</rscale>
<asrwt>0</asrwt>
<pdfrwt beam="1">  1        1 0.44337468E-01 0.30895083E+03</pdfrwt>
<pdfrwt beam="2">  1       -1 0.12738584E-01 0.30895083E+03</pdfrwt>
<totfact> 0.38397543E+03</totfact>
</mgrwt>
</event>
<event>
 4    1  0.1762274E-004  0.2522632E+03  0.7818608E-02  0.1111883E+00
          1   -1    0    0  501    0  0.00000000000E+00  0.00000000000E+00  0.84804802232E+02  0.84804802232E+02  0.00000000000E+00 0. -1.
         -1   -1    0    0    0  501 -0.00000000000E+00 -0.00000000000E+00 -0.18759768556E+03  0.18759768556E+03  0.00000000000E+00 0. -1.
         25    1    1    2    0    0  0.35443951370E+02  0.39746407368E+00 -0.34229013637E+02  0.12972300120E+03  0.12000000000E+03 0.  0.
         25    1    1    2    0    0 -0.35443951370E+02 -0.39746407368E+00 -0.68563869692E+02  0.14267948659E+03  0.12000000000E+03 0.  0.
<mgrwt>
<rscale>  0 0.25226323E+03</rscale>
<asrwt>0</asrwt>
<pdfrwt beam="1">  1        1 0.13046893E-01 0.25226323E+03</pdfrwt>
<pdfrwt beam="2">  1       -1 0.28861182E-01 0.25226323E+03</pdfrwt>
<totfact> 0.48453783E+03</totfact>
</mgrwt>
</event>
<event>
 4    1  0.1762274E-004  0.3059989E+03  0.7818608E-02  0.1082280E+00
         -2   -1    0    0    0  501 -0.00000000000E+00  0.00000000000E+00  0.29546673325E+02  0.29546673325E+02  0.00000000000E+00 0. -1.
          2   -1    0    0  501    0  0.00000000000E+00 -0.00000000000E+00 -0.79226620312E+03  0.79226620312E+03  0.00000000000E+00 0. -1.
         25    1    1    2    0    0 -0.25329694191E+02 -0.63038039056E+02 -0.20334518257E+03  0.24569218761E+03  0.12000000000E+03 0.  0.
         25    1    1    2    0    0  0.25329694191E+02  0.63038039056E+02 -0.55937434722E+03  0.57612068884E+03  0.12000000000E+03 0.  0.
<mgrwt>
<rscale>  0 0.30599889E+03</rscale>
<asrwt>0</asrwt>
<pdfrwt beam="1">  1        2 0.12188712E+00 0.30599889E+03</pdfrwt>
<pdfrwt beam="2">  1       -2 0.45456416E-02 0.30599889E+03</pdfrwt>
<totfact> 0.81399862E+03</totfact>
</mgrwt>
</event>
<event>
 4    1  0.1762274E-004  0.3206283E+03  0.7818608E-02  0.1075361E+00
         -1   -1    0    0    0  501 -0.00000000000E+00  0.00000000000E+00  0.31259752537E+02  0.31259752537E+02  0.00000000000E+00 0. -1.
          1   -1    0    0  501    0  0.00000000000E+00 -0.00000000000E+00 -0.82216336376E+03  0.82216336376E+03  0.00000000000E+00 0. -1.
         25    1    1    2    0    0  0.43413698099E+02  0.21032698438E+02 -0.64759282545E+03  0.66038139825E+03  0.12000000000E+03 0.  0.
         25    1    1    2    0    0 -0.43413698099E+02 -0.21032698438E+02 -0.14331078578E+03  0.19304171805E+03  0.12000000000E+03 0.  0.
<mgrwt>
<rscale>  0 0.32062828E+03</rscale>
<asrwt>0</asrwt>
<pdfrwt beam="1">  1        1 0.12648665E+00 0.32062828E+03</pdfrwt>
<pdfrwt beam="2">  1       -1 0.48091933E-02 0.32062828E+03</pdfrwt>
<totfact> 0.41286991E+03</totfact>
</mgrwt>
</event>
<event>
 4    1  0.1762274E-004  0.2835562E+03  0.7818608E-02  0.1093762E+00
         -3   -1    0    0    0  501 -0.00000000000E+00  0.00000000000E+00  0.53468752492E+02  0.53468752492E+02  0.00000000000E+00 0. -1.
          3   -1    0    0  501    0  0.00000000000E+00 -0.00000000000E+00 -0.37593969074E+03  0.37593969074E+03  0.00000000000E+00 0. -1.
         25    1    1    2    0    0  0.29583850362E+02 -0.67057064432E+02 -0.13376013185E+03  0.19407119045E+03  0.12000000000E+03 0.  0.
         25    1    1    2    0    0 -0.29583850362E+02  0.67057064432E+02 -0.18871080640E+03  0.23533725278E+03  0.12000000000E+03 0.  0.
<mgrwt>
<rscale>  0 0.28355618E+03</rscale>
<asrwt>0</asrwt>
<pdfrwt beam="1">  1        3 0.57836877E-01 0.28355618E+03</pdfrwt>
<pdfrwt beam="2">  1       -3 0.82259618E-02 0.28355618E+03</pdfrwt>
<totfact> 0.77201889E+02</totfact>
</mgrwt>
</event>
<event>
 4    1  0.1762274E-004  0.2534580E+03  0.7818608E-02  0.1111139E+00
          1   -1    0    0  501    0  0.00000000000E+00  0.00000000000E+00  0.33289005368E+03  0.33289005368E+03  0.00000000000E+00 0. -1.
         -1   -1    0    0    0  501 -0.00000000000E+00 -0.00000000000E+00 -0.48244890275E+02  0.48244890275E+02  0.00000000000E+00 0. -1.
         25    1    1    2    0    0  0.24587388666E+02 -0.24533138687E+02  0.17435716516E+03  0.21449204092E+03  0.12000000000E+03 0.  0.
         25    1    1    2    0    0 -0.24587388666E+02  0.24533138687E+02  0.11028799824E+03  0.16664290303E+03  0.12000000000E+03 0.  0.
<mgrwt>
<rscale>  0 0.25345804E+03</rscale>
<asrwt>0</asrwt>
<pdfrwt beam="1">  1        1 0.51213853E-01 0.25345804E+03</pdfrwt>
<pdfrwt beam="2">  1       -1 0.74222910E-02 0.25345804E+03</pdfrwt>
<totfact> 0.73297409E+03</totfact>
</mgrwt>
</event>
<event>
 4    1  0.1762274E-004  0.3329916E+03  0.7818608E-02  0.1069821E+00
          2   -1    0    0  501    0  0.00000000000E+00  0.00000000000E+00  0.10504576982E+04  0.10504576982E+04  0.00000000000E+00 0. -1.
         -2   -1    0    0    0  501 -0.00000000000E+00 -0.00000000000E+00 -0.26389309986E+02  0.26389309986E+02  0.00000000000E+00 0. -1.
         25    1    1    2    0    0 -0.15544772976E+02 -0.31455784870E+02  0.86760764219E+03  0.87656952215E+03  0.12000000000E+03 0.  0.
         25    1    1    2    0    0  0.15544772976E+02  0.31455784870E+02  0.15646074603E+03  0.20027748604E+03  0.12000000000E+03 0.  0.
<mgrwt>
<rscale>  0 0.33299161E+03</rscale>
<asrwt>0</asrwt>
<pdfrwt beam="1">  1        2 0.16160884E+00 0.33299161E+03</pdfrwt>
<pdfrwt beam="2">  1       -2 0.40598946E-02 0.33299161E+03</pdfrwt>
<totfact> 0.65952676E+03</totfact>
</mgrwt>
</event>
<event>
 4    1  0.1762274E-004  0.3246867E+03  0.7818608E-02  0.1073512E+00
         -1   -1    0    0    0  501 -0.00000000000E+00  0.00000000000E+00  0.36957479930E+02  0.36957479930E+02  0.00000000000E+00 0. -1.
          1   -1    0    0  501    0  0.00000000000E+00 -0.00000000000E+00 -0.71312648444E+03  0.71312648444E+03  0.00000000000E+00 0. -1.
         25    1    1    2    0    0 -0.56244322541E+02 -0.36442753839E+02 -0.13849984220E+03  0.19512484315E+03  0.12000000000E+03 0.  0.
         25    1    1    2    0    0  0.56244322541E+02  0.36442753839E+02 -0.53766916230E+03  0.55495912121E+03  0.12000000000E+03 0.  0.
<mgrwt>
<rscale>  0 0.32468667E+03</rscale>
<asrwt>0</asrwt>
<pdfrwt beam="1">  1        1 0.10971176E+00 0.32468667E+03</pdfrwt>
<pdfrwt beam="2">  1       -1 0.56857666E-02 0.32468667E+03</pdfrwt>
<totfact> 0.39836174E+03</totfact>
</mgrwt>
</event>
<event>
 4    1  0.1762274E-004  0.2807360E+03  0.7818608E-02  0.1095288E+00
         -3   -1    0    0    0  501 -0.00000000000E+00  0.00000000000E+00  0.63977728701E+02  0.63977728701E+02  0.00000000000E+00 0.  1.
          3   -1    0    0  501    0  0.00000000000E+00 -0.00000000000E+00 -0.30796935154E+03  0.30796935154E+03  0.00000000000E+00 0.  1.
         25    1    1    2    0    0  0.35794194041E+02 -0.61644262470E+02 -0.10225790957E+03  0.17302577696E+03  0.12000000000E+03 0.  0.
         25    1    1    2    0    0 -0.35794194041E+02  0.61644262470E+02 -0.14173371327E+03  0.19892130329E+03  0.12000000000E+03 0.  0.
<mgrwt>
<rscale>  0 0.28073603E+03</rscale>
<asrwt>0</asrwt>
<pdfrwt beam="1">  1        3 0.47379901E-01 0.28073603E+03</pdfrwt>
<pdfrwt beam="2">  1       -3 0.98427274E-02 0.28073603E+03</pdfrwt>
<totfact> 0.85917335E+02</totfact>
</mgrwt>
</event>
<event>
 4    1  0.1762274E-004  0.2693811E+03  0.7818608E-02  0.1101634E+00
          2   -1    0    0  501    0  0.00000000000E+00  0.00000000000E+00  0.68430409043E+03  0.68430409043E+03  0.00000000000E+00 0. -1.
         -2   -1    0    0    0  501 -0.00000000000E+00 -0.00000000000E+00 -0.26510944301E+02  0.26510944301E+02  0.00000000000E+00 0. -1.
         25    1    1    2    0    0  0.52382758387E+02 -0.14699481665E+02  0.40266310216E+03  0.42367157324E+03  0.12000000000E+03 0.  0.
         25    1    1    2    0    0 -0.52382758387E+02  0.14699481665E+02  0.25513004397E+03  0.28714346149E+03  0.12000000000E+03 0.  0.
<mgrwt>
<rscale>  0 0.26938113E+03</rscale>
<asrwt>0</asrwt>
<pdfrwt beam="1">  1        2 0.10527754E+00 0.26938113E+03</pdfrwt>
<pdfrwt beam="2">  1       -2 0.40786073E-02 0.26938113E+03</pdfrwt>
<totfact> 0.11447363E+04</totfact>
</mgrwt>
</event>
<event>
 4    1  0.1762274E-004  0.2726533E+03  0.7818608E-02  0.1099771E+00
          1   -1    0    0  501    0  0.00000000000E+00  0.00000000000E+00  0.39855506742E+02  0.39855506742E+02  0.00000000000E+00 0. -1.
         -1   -1    0    0    0  501 -0.00000000000E+00 -0.00000000000E+00 -0.46630837605E+03  0.46630837605E+03  0.00000000000E+00 0. -1.
         25    1    1    2    0    0 -0.16807844016E+00 -0.17611985110E+02 -0.32878496783E+03  0.35044224252E+03  0.12000000000E+03 0.  0.
         25    1    1    2    0    0  0.16807844016E+00  0.17611985110E+02 -0.97667901472E+02  0.15572164027E+03  0.12000000000E+03 0.  0.
<mgrwt>
<rscale>  0 0.27265331E+03</rscale>
<asrwt>0</asrwt>
<pdfrwt beam="1">  1        1 0.61316164E-02 0.27265331E+03</pdfrwt>
<pdfrwt beam="2">  1       -1 0.71739750E-01 0.27265331E+03</pdfrwt>
<totfact> 0.25518316E+03</totfact>
</mgrwt>
</event>
<event>
 4    1  0.1762274E-004  0.2560739E+03  0.7818608E-02  0.1109525E+00
         -2   -1    0    0    0  501 -0.00000000000E+00  0.00000000000E+00  0.10910885653E+02  0.10910885653E+02  0.00000000000E+00 0.  1.
          2   -1    0    0  501    0  0.00000000000E+00 -0.00000000000E+00 -0.15024868747E+04  0.15024868747E+04  0.00000000000E+00 0.  1.
         25    1    1    2    0    0 -0.37303146714E+02  0.20572072938E+02 -0.82479825463E+03  0.83456988669E+03  0.12000000000E+03 0.  0.
         25    1    1    2    0    0  0.37303146714E+02 -0.20572072938E+02 -0.66677773441E+03  0.67882787365E+03  0.12000000000E+03 0.  0.
<mgrwt>
<rscale>  0 0.25607391E+03</rscale>
<asrwt>0</asrwt>
<pdfrwt beam="1">  1        2 0.23115184E+00 0.25607391E+03</pdfrwt>
<pdfrwt beam="2">  1       -2 0.16785977E-02 0.25607391E+03</pdfrwt>
<totfact> 0.13575086E+04</totfact>
</mgrwt>
</event>
<event>
 4    1  0.1762274E-004  0.2647107E+03  0.7818608E-02  0.1104346E+00
         -2   -1    0    0    0  501 -0.00000000000E+00  0.00000000000E+00  0.22283831963E+03  0.22283831963E+03  0.00000000000E+00 0. -1.
          2   -1    0    0  501    0  0.00000000000E+00 -0.00000000000E+00 -0.78612751537E+02  0.78612751537E+02  0.00000000000E+00 0. -1.
         25    1    1    2    0    0  0.50304555318E+01 -0.50791274862E+02  0.46322810445E+02  0.13838663900E+03  0.12000000000E+03 0.  0.
         25    1    1    2    0    0 -0.50304555318E+01  0.50791274862E+02  0.97902757652E+02  0.16306443218E+03  0.12000000000E+03 0.  0.
<mgrwt>
<rscale>  0 0.26471066E+03</rscale>
<asrwt>0</asrwt>
<pdfrwt beam="1">  1        2 0.12094270E-01 0.26471066E+03</pdfrwt>
<pdfrwt beam="2">  1       -2 0.34282818E-01 0.26471066E+03</pdfrwt>
<totfact> 0.40120142E+03</totfact>
</mgrwt>
</event>
<event>
 4    1  0.1762274E-004  0.2579372E+03  0.7818608E-02  0.1108389E+00
          2   -1    0    0  501    0  0.00000000000E+00  0.00000000000E+00  0.67795527562E+03  0.67795527562E+03  0.00000000000E+00 0. -1.
         -2   -1    0    0    0  501 -0.00000000000E+00 -0.00000000000E+00 -0.24533912210E+02  0.24533912210E+02  0.00000000000E+00 0. -1.
         25    1    1    2    0    0 -0.17313833821E+01 -0.22314889676E+02  0.21336824413E+03  0.24581895695E+03  0.12000000000E+03 0.  0.
         25    1    1    2    0    0  0.17313833821E+01  0.22314889676E+02  0.44005311928E+03  0.45667023088E+03  0.12000000000E+03 0.  0.
<mgrwt>
<rscale>  0 0.25793716E+03</rscale>
<asrwt>0</asrwt>
<pdfrwt beam="1">  1        2 0.10430080E+00 0.25793716E+03</pdfrwt>
<pdfrwt beam="2">  1       -2 0.37744486E-02 0.25793716E+03</pdfrwt>
<totfact> 0.12982326E+04</totfact>
</mgrwt>
</event>
<event>
 4    1  0.1762274E-004  0.4575352E+03  0.7818608E-02  0.1025499E+00
         -1   -1    0    0    0  501 -0.00000000000E+00  0.00000000000E+00  0.16150593191E+02  0.16150593191E+02  0.00000000000E+00 0. -1.
          1   -1    0    0  501    0  0.00000000000E+00 -0.00000000000E+00 -0.32404143616E+04  0.32404143616E+04  0.00000000000E+00 0. -1.
         25    1    1    2    0    0  0.13230078733E+03 -0.84984103643E+02 -0.79410568546E+03  0.81837010935E+03  0.12000000000E+03 0.  0.
         25    1    1    2    0    0 -0.13230078733E+03  0.84984103643E+02 -0.24301580830E+04  0.24381948455E+04  0.12000000000E+03 0.  0.
<mgrwt>
<rscale>  0 0.45753520E+03</rscale>
<asrwt>0</asrwt>
<pdfrwt beam="1">  1        1 0.49852512E+00 0.45753520E+03</pdfrwt>
<pdfrwt beam="2">  1       -1 0.24847075E-02 0.45753520E+03</pdfrwt>
<totfact> 0.23478872E+02</totfact>
</mgrwt>
</event>
<event>
 4    1  0.1762274E-004  0.2487697E+03  0.7818608E-02  0.1114085E+00
          2   -1    0    0  501    0  0.00000000000E+00  0.00000000000E+00  0.10577266219E+04  0.10577266219E+04  0.00000000000E+00 0. -1.
         -2   -1    0    0    0  501 -0.00000000000E+00 -0.00000000000E+00 -0.14627211628E+02  0.14627211628E+02  0.00000000000E+00 0. -1.
         25    1    1    2    0    0  0.31638384876E+02 -0.83125005108E-01  0.55776843731E+03  0.57140758130E+03  0.12000000000E+03 0.  0.
         25    1    1    2    0    0 -0.31638384876E+02  0.83125005108E-01  0.48533097301E+03  0.50094625227E+03  0.12000000000E+03 0.  0.
<mgrwt>
<rscale>  0 0.24876970E+03</rscale>
<asrwt>0</asrwt>
<pdfrwt beam="1">  1        2 0.16272711E+00 0.24876970E+03</pdfrwt>
<pdfrwt beam="2">  1       -2 0.22503411E-02 0.24876970E+03</pdfrwt>
<totfact> 0.15617180E+04</totfact>
</mgrwt>
</event>
<event>
 4    1  0.1762274E-004  0.2801876E+03  0.7818608E-02  0.1095587E+00
          3   -1    0    0  501    0  0.00000000000E+00  0.00000000000E+00  0.11123571603E+04  0.11123571603E+04  0.00000000000E+00 0. -1.
         -3   -1    0    0    0  501 -0.00000000000E+00 -0.00000000000E+00 -0.17643859209E+02  0.17643859209E+02  0.00000000000E+00 0. -1.
         25    1    1    2    0    0 -0.48287013783E+02  0.30317125857E+02  0.72661090024E+03  0.73865700035E+03  0.12000000000E+03 0.  0.
         25    1    1    2    0    0  0.48287013783E+02 -0.30317125857E+02  0.36810240089E+03  0.39134401920E+03  0.12000000000E+03 0.  0.
<mgrwt>
<rscale>  0 0.28018760E+03</rscale>
<asrwt>0</asrwt>
<pdfrwt beam="1">  1        3 0.17113182E+00 0.28018760E+03</pdfrwt>
<pdfrwt beam="2">  1       -3 0.27144407E-02 0.28018760E+03</pdfrwt>
<totfact> 0.36948224E+02</totfact>
</mgrwt>
</event>
<event>
 4    1  0.1762274E-004  0.3325747E+03  0.7818608E-02  0.1070003E+00
          1   -1    0    0  501    0  0.00000000000E+00  0.00000000000E+00  0.75770256956E+03  0.75770256956E+03  0.00000000000E+00 0.  1.
         -1   -1    0    0    0  501 -0.00000000000E+00 -0.00000000000E+00 -0.36493855839E+02  0.36493855839E+02  0.00000000000E+00 0.  1.
         25    1    1    2    0    0 -0.53043797243E+02  0.70957099673E+02  0.18507348728E+03  0.23769886435E+03  0.12000000000E+03 0.  0.
         25    1    1    2    0    0  0.53043797243E+02 -0.70957099673E+02  0.53613522645E+03  0.55649756105E+03  0.12000000000E+03 0.  0.
<mgrwt>
<rscale>  0 0.33257473E+03</rscale>
<asrwt>0</asrwt>
<pdfrwt beam="1">  1        1 0.11656961E+00 0.33257473E+03</pdfrwt>
<pdfrwt beam="2">  1       -1 0.56144399E-02 0.33257473E+03</pdfrwt>
<totfact> 0.37094988E+03</totfact>
</mgrwt>
</event>
<event>
 4    1  0.1762274E-004  0.2732635E+03  0.7818608E-02  0.1099426E+00
          1   -1    0    0  501    0  0.00000000000E+00  0.00000000000E+00  0.13865812262E+03  0.13865812262E+03  0.00000000000E+00 0.  1.
         -1   -1    0    0    0  501 -0.00000000000E+00 -0.00000000000E+00 -0.13463503886E+03  0.13463503886E+03  0.00000000000E+00 0.  1.
         25    1    1    2    0    0 -0.43896828700E+02  0.45378218055E+02  0.18810013077E+02  0.13689386705E+03  0.12000000000E+03 0.  0.
         25    1    1    2    0    0  0.43896828700E+02 -0.45378218055E+02 -0.14786929320E+02  0.13639929444E+03  0.12000000000E+03 0.  0.
<mgrwt>
<rscale>  0 0.27326355E+03</rscale>
<asrwt>0</asrwt>
<pdfrwt beam="1">  1        1 0.21332019E-01 0.27326355E+03</pdfrwt>
<pdfrwt beam="2">  1       -1 0.20713083E-01 0.27326355E+03</pdfrwt>
<totfact> 0.44403950E+03</totfact>
</mgrwt>
</event>
<event>
 4    1  0.1762274E-004  0.5053415E+03  0.7818608E-02  0.1012394E+00
         -2   -1    0    0    0  501 -0.00000000000E+00  0.00000000000E+00  0.37715933777E+02  0.37715933777E+02  0.00000000000E+00 0. -1.
          2   -1    0    0  501    0  0.00000000000E+00 -0.00000000000E+00 -0.16927194764E+04  0.16927194764E+04  0.00000000000E+00 0. -1.
         25    1    1    2    0    0 -0.27258223350E+02  0.21305392680E+03 -0.10244359069E+04  0.10535672327E+04  0.12000000000E+03 0.  0.
         25    1    1    2    0    0  0.27258223350E+02 -0.21305392680E+03 -0.63056763569E+03  0.67686817745E+03  0.12000000000E+03 0.  0.
<mgrwt>
<rscale>  0 0.50534145E+03</rscale>
<asrwt>0</asrwt>
<pdfrwt beam="1">  1        2 0.26041838E+00 0.50534145E+03</pdfrwt>
<pdfrwt beam="2">  1       -2 0.58024513E-02 0.50534145E+03</pdfrwt>
<totfact> 0.16614175E+03</totfact>
</mgrwt>
</event>
<event>
 4    1  0.1762274E-004  0.2520995E+03  0.7818608E-02  0.1111985E+00
         -2   -1    0    0    0  501 -0.00000000000E+00  0.00000000000E+00  0.47573053258E+01  0.47573053258E+01  0.00000000000E+00 0.  1.
          2   -1    0    0  501    0  0.00000000000E+00 -0.00000000000E+00 -0.33398197868E+04  0.33398197868E+04  0.00000000000E+00 0.  1.
         25    1    1    2    0    0  0.27051931752E+02 -0.23233493094E+02 -0.18629378504E+04  0.18671392655E+04  0.12000000000E+03 0.  0.
         25    1    1    2    0    0 -0.27051931752E+02  0.23233493094E+02 -0.14721246310E+04  0.14774378266E+04  0.12000000000E+03 0.  0.
<mgrwt>
<rscale>  0 0.25209952E+03</rscale>
<asrwt>0</asrwt>
<pdfrwt beam="1">  1        2 0.51381968E+00 0.25209952E+03</pdfrwt>
<pdfrwt beam="2">  1       -2 0.73189134E-03 0.25209952E+03</pdfrwt>
<totfact> 0.43295453E+03</totfact>
</mgrwt>
</event>
<event>
 4    1  0.1762274E-004  0.3309426E+03  0.7818608E-02  0.1070721E+00
         -1   -1    0    0    0  501 -0.00000000000E+00  0.00000000000E+00  0.15562653725E+03  0.15562653725E+03  0.00000000000E+00 0. -1.
          1   -1    0    0  501    0  0.00000000000E+00 -0.00000000000E+00 -0.17593884203E+03  0.17593884203E+03  0.00000000000E+00 0. -1.
         25    1    1    2    0    0  0.91896743708E+02 -0.46481852022E+02  0.38671363813E+02  0.16279142622E+03  0.12000000000E+03 0.  0.
         25    1    1    2    0    0 -0.91896743708E+02  0.46481852022E+02 -0.58983668599E+02  0.16877395306E+03  0.12000000000E+03 0.  0.
<mgrwt>
<rscale>  0 0.33094261E+03</rscale>
<asrwt>0</asrwt>
<pdfrwt beam="1">  1        1 0.27067514E-01 0.33094261E+03</pdfrwt>
<pdfrwt beam="2">  1       -1 0.23942544E-01 0.33094261E+03</pdfrwt>
<totfact> 0.25909079E+03</totfact>
</mgrwt>
</event>
<event>
 4    1  0.1762274E-004  0.2784356E+03  0.7818608E-02  0.1096546E+00
         -1   -1    0    0    0  501 -0.00000000000E+00  0.00000000000E+00  0.15254026851E+03  0.15254026851E+03  0.00000000000E+00 0.  1.
          1   -1    0    0  501    0  0.00000000000E+00 -0.00000000000E+00 -0.12705890887E+03  0.12705890887E+03  0.00000000000E+00 0.  1.
         25    1    1    2    0    0 -0.38041281546E+02 -0.18370573204E+01 -0.46930584399E+02  0.13436142911E+03  0.12000000000E+03 0.  0.
         25    1    1    2    0    0  0.38041281546E+02  0.18370573204E+01  0.72411944038E+02  0.14523774826E+03  0.12000000000E+03 0.  0.
<mgrwt>
<rscale>  0 0.27843563E+03</rscale>
<asrwt>0</asrwt>
<pdfrwt beam="1">  1        1 0.19547524E-01 0.27843563E+03</pdfrwt>
<pdfrwt beam="2">  1       -1 0.23467734E-01 0.27843563E+03</pdfrwt>
<totfact> 0.40503309E+03</totfact>
</mgrwt>
</event>
<event>
 4    1  0.1762274E-004  0.2518692E+03  0.7818608E-02  0.1112129E+00
          1   -1    0    0  501    0  0.00000000000E+00  0.00000000000E+00  0.27842648931E+04  0.27842648931E+04  0.00000000000E+00 0. -1.
         -1   -1    0    0    0  501 -0.00000000000E+00 -0.00000000000E+00 -0.56961265331E+01  0.56961265331E+01  0.00000000000E+00 0. -1.
         25    1    1    2    0    0 -0.37943793532E+01  0.36486864989E+02  0.15074697809E+04  0.15126833207E+04  0.12000000000E+03 0.  0.
         25    1    1    2    0    0  0.37943793532E+01 -0.36486864989E+02  0.12710989857E+04  0.12772776989E+04  0.12000000000E+03 0.  0.
<mgrwt>
<rscale>  0 0.25186921E+03</rscale>
<asrwt>0</asrwt>
<pdfrwt beam="1">  1        1 0.42834736E+00 0.25186921E+03</pdfrwt>
<pdfrwt beam="2">  1       -1 0.87632938E-03 0.25186921E+03</pdfrwt>
<totfact> 0.23265074E+03</totfact>
</mgrwt>
</event>
<event>
 4    1  0.1762274E-004  0.4836532E+03  0.7818608E-02  0.1018136E+00
          4   -1    0    0  501    0  0.00000000000E+00  0.00000000000E+00  0.73432124215E+03  0.73432124215E+03  0.00000000000E+00 0.  1.
         -4   -1    0    0    0  501 -0.00000000000E+00 -0.00000000000E+00 -0.79638316216E+02  0.79638316216E+02  0.00000000000E+00 0.  1.
         25    1    1    2    0    0 -0.82606737384E+02 -0.33536081876E+02  0.64723991649E+03  0.66428010006E+03  0.12000000000E+03 0.  0.
         25    1    1    2    0    0  0.82606737384E+02  0.33536081876E+02  0.74430094520E+01  0.14967945831E+03  0.12000000000E+03 0.  0.
<mgrwt>
<rscale>  0 0.48365321E+03</rscale>
<asrwt>0</asrwt>
<pdfrwt beam="1">  1        4 0.11297249E+00 0.48365321E+03</pdfrwt>
<pdfrwt beam="2">  1       -4 0.12252049E-01 0.48365321E+03</pdfrwt>
<totfact> 0.66725099E+01</totfact>
</mgrwt>
</event>
<event>
 4    1  0.1762274E-004  0.3056953E+03  0.7818608E-02  0.1082428E+00
         -2   -1    0    0    0  501 -0.00000000000E+00  0.00000000000E+00  0.11808022589E+02  0.11808022589E+02  0.00000000000E+00 0.  1.
          2   -1    0    0  501    0  0.00000000000E+00 -0.00000000000E+00 -0.19785190077E+04  0.19785190077E+04  0.00000000000E+00 0.  1.
         25    1    1    2    0    0  0.56886613522E+02 -0.49839603177E+02 -0.13540908179E+04  0.13614999140E+04  0.12000000000E+03 0.  0.
         25    1    1    2    0    0 -0.56886613522E+02  0.49839603177E+02 -0.61262016725E+03  0.62882711628E+03  0.12000000000E+03 0.  0.
<mgrwt>
<rscale>  0 0.30569525E+03</rscale>
<asrwt>0</asrwt>
<pdfrwt beam="1">  1        2 0.30438715E+00 0.30569525E+03</pdfrwt>
<pdfrwt beam="2">  1       -2 0.18166212E-02 0.30569525E+03</pdfrwt>
<totfact> 0.67962634E+03</totfact>
</mgrwt>
</event>
<event>
 4    1  0.1762274E-004  0.2503269E+03  0.7818608E-02  0.1113098E+00
          2   -1    0    0  501    0  0.00000000000E+00  0.00000000000E+00  0.88857435023E+03  0.88857435023E+03  0.00000000000E+00 0. -1.
         -2   -1    0    0    0  501 -0.00000000000E+00 -0.00000000000E+00 -0.17630366957E+02  0.17630366957E+02  0.00000000000E+00 0. -1.
         25    1    1    2    0    0 -0.33022602834E+02 -0.36765506940E+01  0.38941253971E+03  0.40883509562E+03  0.12000000000E+03 0.  0.
         25    1    1    2    0    0  0.33022602834E+02  0.36765506940E+01  0.48153144356E+03  0.49736962157E+03  0.12000000000E+03 0.  0.
<mgrwt>
<rscale>  0 0.25032692E+03</rscale>
<asrwt>0</asrwt>
<pdfrwt beam="1">  1        2 0.13670371E+00 0.25032692E+03</pdfrwt>
<pdfrwt beam="2">  1       -2 0.27123648E-02 0.25032692E+03</pdfrwt>
<totfact> 0.15093311E+04</totfact>
</mgrwt>
</event>
<event>
 4    1  0.1762274E-004  0.3029547E+03  0.7818608E-02  0.1083773E+00
          2   -1    0    0  501    0  0.00000000000E+00  0.00000000000E+00  0.27448993973E+03  0.27448993973E+03  0.00000000000E+00 0. -1.
         -2   -1    0    0    0  501 -0.00000000000E+00 -0.00000000000E+00 -0.83592840575E+02  0.83592840575E+02  0.00000000000E+00 0. -1.
         25    1    1    2    0    0 -0.45578603444E+02  0.78040998965E+02  0.11841607957E+03  0.19128558365E+03  0.12000000000E+03 0.  0.
         25    1    1    2    0    0  0.45578603444E+02 -0.78040998965E+02  0.72481019576E+02  0.16679719665E+03  0.12000000000E+03 0.  0.
<mgrwt>
<rscale>  0 0.30295474E+03</rscale>
<asrwt>0</asrwt>
<pdfrwt beam="1">  1        2 0.42229221E-01 0.30295474E+03</pdfrwt>
<pdfrwt beam="2">  1       -2 0.12860437E-01 0.30295474E+03</pdfrwt>
<totfact> 0.53056044E+03</totfact>
</mgrwt>
</event>
<event>
 4    1  0.1762274E-004  0.3042739E+03  0.7818608E-02  0.1083123E+00
         -1   -1    0    0    0  501 -0.00000000000E+00  0.00000000000E+00  0.35247458324E+02  0.35247458324E+02  0.00000000000E+00 0.  1.
          1   -1    0    0  501    0  0.00000000000E+00 -0.00000000000E+00 -0.65666145085E+03  0.65666145085E+03  0.00000000000E+00 0.  1.
         25    1    1    2    0    0 -0.29746193774E+02  0.28541597466E+01 -0.51221522909E+03  0.52693208593E+03  0.12000000000E+03 0.  0.
         25    1    1    2    0    0  0.29746193774E+02 -0.28541597466E+01 -0.10919876344E+03  0.16497682325E+03  0.12000000000E+03 0.  0.
<mgrwt>
<rscale>  0 0.30427387E+03</rscale>
<asrwt>0</asrwt>
<pdfrwt beam="1">  1        1 0.10102483E+00 0.30427387E+03</pdfrwt>
<pdfrwt beam="2">  1       -1 0.54226864E-02 0.30427387E+03</pdfrwt>
<totfact> 0.48193131E+03</totfact>
</mgrwt>
</event>
<event>
 4    1  0.1762274E-004  0.4222742E+03  0.7818608E-02  0.1036329E+00
          2   -1    0    0  501    0  0.00000000000E+00  0.00000000000E+00  0.14126939426E+04  0.14126939426E+04  0.00000000000E+00 0. -1.
         -2   -1    0    0    0  501 -0.00000000000E+00 -0.00000000000E+00 -0.31555939625E+02  0.31555939625E+02  0.00000000000E+00 0. -1.
         25    1    1    2    0    0 -0.11643564195E+03 -0.11045733405E+02  0.11298927574E+04  0.11422508087E+04  0.12000000000E+03 0.  0.
         25    1    1    2    0    0  0.11643564195E+03  0.11045733405E+02  0.25124524565E+03  0.30199907352E+03  0.12000000000E+03 0.  0.
<mgrwt>
<rscale>  0 0.42227425E+03</rscale>
<asrwt>0</asrwt>
<pdfrwt beam="1">  1        2 0.21733748E+00 0.42227425E+03</pdfrwt>
<pdfrwt beam="2">  1       -2 0.48547610E-02 0.42227425E+03</pdfrwt>
<totfact> 0.31172847E+03</totfact>
</mgrwt>
</event>
<event>
 4    1  0.1762274E-004  0.2897762E+03  0.7818608E-02  0.1090466E+00
          2   -1    0    0  501    0  0.00000000000E+00  0.00000000000E+00  0.18849285048E+04  0.18849285048E+04  0.00000000000E+00 0. -1.
         -2   -1    0    0    0  501 -0.00000000000E+00 -0.00000000000E+00 -0.11137061568E+02  0.11137061568E+02  0.00000000000E+00 0. -1.
         25    1    1    2    0    0 -0.45201930574E+02  0.32419595689E+02  0.54988733473E+03  0.56557079629E+03  0.12000000000E+03 0.  0.
         25    1    1    2    0    0  0.45201930574E+02 -0.32419595689E+02  0.13239041085E+04  0.13304947700E+04  0.12000000000E+03 0.  0.
<mgrwt>
<rscale>  0 0.28977622E+03</rscale>
<asrwt>0</asrwt>
<pdfrwt beam="1">  1        2 0.28998875E+00 0.28977622E+03</pdfrwt>
<pdfrwt beam="2">  1       -2 0.17133956E-02 0.28977622E+03</pdfrwt>
<totfact> 0.82950754E+03</totfact>
</mgrwt>
</event>
<event>
 4    1  0.1762274E-004  0.3418082E+03  0.7818608E-02  0.1066028E+00
          1   -1    0    0  501    0  0.00000000000E+00  0.00000000000E+00  0.45619426013E+03  0.45619426013E+03  0.00000000000E+00 0.  1.
         -1   -1    0    0    0  501 -0.00000000000E+00 -0.00000000000E+00 -0.64025834864E+02  0.64025834864E+02  0.00000000000E+00 0.  1.
         25    1    1    2    0    0  0.10734045207E+03 -0.15735000059E+02  0.27998099925E+03  0.32335572179E+03  0.12000000000E+03 0.  0.
         25    1    1    2    0    0 -0.10734045207E+03  0.15735000059E+02  0.11218742602E+03  0.19686437320E+03  0.12000000000E+03 0.  0.
<mgrwt>
<rscale>  0 0.34180824E+03</rscale>
<asrwt>0</asrwt>
<pdfrwt beam="1">  1        1 0.70183730E-01 0.34180824E+03</pdfrwt>
<pdfrwt beam="2">  1       -1 0.98501287E-02 0.34180824E+03</pdfrwt>
<totfact> 0.31915334E+03</totfact>
</mgrwt>
</event>
<event>
 4    1  0.1762274E-004  0.2717395E+03  0.7818608E-02  0.1100288E+00
         -1   -1    0    0    0  501 -0.00000000000E+00  0.00000000000E+00  0.25338697796E+02  0.25338697796E+02  0.00000000000E+00 0.  1.
          1   -1    0    0  501    0  0.00000000000E+00 -0.00000000000E+00 -0.72855330434E+03  0.72855330434E+03  0.00000000000E+00 0.  1.
         25    1    1    2    0    0 -0.51196078353E+02  0.37678514768E+02 -0.33923648861E+03  0.36540676529E+03  0.12000000000E+03 0.  0.
         25    1    1    2    0    0  0.51196078353E+02 -0.37678514768E+02 -0.36397811794E+03  0.38848523685E+03  0.12000000000E+03 0.  0.
<mgrwt>
<rscale>  0 0.27173952E+03</rscale>
<asrwt>0</asrwt>
<pdfrwt beam="1">  1        1 0.11208510E+00 0.27173952E+03</pdfrwt>
<pdfrwt beam="2">  1       -1 0.38982620E-02 0.27173952E+03</pdfrwt>
<totfact> 0.67695507E+03</totfact>
</mgrwt>
</event>
<event>
 4    1  0.1762274E-004  0.4368639E+03  0.7818608E-02  0.1031713E+00
          2   -1    0    0  501    0  0.00000000000E+00  0.00000000000E+00  0.20861953284E+04  0.20861953284E+04  0.00000000000E+00 0. -1.
         -2   -1    0    0    0  501 -0.00000000000E+00 -0.00000000000E+00 -0.22870587594E+02  0.22870587594E+02  0.00000000000E+00 0. -1.
         25    1    1    2    0    0 -0.10678187332E+03  0.14564420112E+03  0.90412305041E+03  0.92975969587E+03  0.12000000000E+03 0.  0.
         25    1    1    2    0    0  0.10678187332E+03 -0.14564420112E+03  0.11592016904E+04  0.11793062201E+04  0.12000000000E+03 0.  0.
<mgrwt>
<rscale>  0 0.43686388E+03</rscale>
<asrwt>0</asrwt>
<pdfrwt beam="1">  1        2 0.32095298E+00 0.43686388E+03</pdfrwt>
<pdfrwt beam="2">  1       -2 0.35185536E-02 0.43686388E+03</pdfrwt>
<totfact> 0.22098134E+03</totfact>
</mgrwt>
</event>
<event>
 4    1  0.1762274E-004  0.3370089E+03  0.7818608E-02  0.1068077E+00
          2   -1    0    0  501    0  0.00000000000E+00  0.00000000000E+00  0.63188276865E+03  0.63188276865E+03  0.00000000000E+00 0. -1.
         -2   -1    0    0    0  501 -0.00000000000E+00 -0.00000000000E+00 -0.44935146149E+02  0.44935146149E+02  0.00000000000E+00 0. -1.
         25    1    1    2    0    0 -0.26726524501E+02  0.49607191777E+02  0.50236269213E+03  0.51956082900E+03  0.12000000000E+03 0.  0.
         25    1    1    2    0    0  0.26726524501E+02 -0.49607191777E+02  0.84584930373E+02  0.15725708580E+03  0.12000000000E+03 0.  0.
<mgrwt>
<rscale>  0 0.33700887E+03</rscale>
<asrwt>0</asrwt>
<pdfrwt beam="1">  1        2 0.97212727E-01 0.33700887E+03</pdfrwt>
<pdfrwt beam="2">  1       -2 0.69130999E-02 0.33700887E+03</pdfrwt>
<totfact> 0.56577432E+03</totfact>
</mgrwt>
</event>
<event>
 4    1  0.1762274E-004  0.2604633E+03  0.7818608E-02  0.1106865E+00
          1   -1    0    0  501    0  0.00000000000E+00  0.00000000000E+00  0.37985830594E+02  0.37985830594E+02  0.00000000000E+00 0. -1.
         -1   -1    0    0    0  501 -0.00000000000E+00 -0.00000000000E+00 -0.44648961563E+03  0.44648961563E+03  0.00000000000E+00 0. -1.
         25    1    1    2    0    0 -0.21877361470E+02 -0.19179650207E+02 -0.12724927760E+03  0.17731005774E+03  0.12000000000E+03 0.  0.
         25    1    1    2    0    0  0.21877361470E+02  0.19179650207E+02 -0.28125450744E+03  0.30716538848E+03  0.12000000000E+03 0.  0.
<mgrwt>
<rscale>  0 0.26046327E+03</rscale>
<asrwt>0</asrwt>
<pdfrwt beam="1">  1        1 0.58439740E-02 0.26046327E+03</pdfrwt>
<pdfrwt beam="2">  1       -1 0.68690710E-01 0.26046327E+03</pdfrwt>
<totfact> 0.29698942E+03</totfact>
</mgrwt>
</event>
<event>
 4    1  0.1762274E-004  0.3215238E+03  0.7818608E-02  0.1074950E+00
          2   -1    0    0  501    0  0.00000000000E+00  0.00000000000E+00  0.35638761882E+04  0.35638761882E+04  0.00000000000E+00 0.  1.
         -2   -1    0    0    0  501 -0.00000000000E+00 -0.00000000000E+00 -0.72517658504E+01  0.72517658504E+01  0.00000000000E+00 0.  1.
         25    1    1    2    0    0  0.20313835353E+02  0.63006647527E+02  0.27116808285E+04  0.27151418757E+04  0.12000000000E+03 0.  0.
         25    1    1    2    0    0 -0.20313835353E+02 -0.63006647527E+02  0.84494359393E+03  0.85598607842E+03  0.12000000000E+03 0.  0.
<mgrwt>
<rscale>  0 0.32152384E+03</rscale>
<asrwt>0</asrwt>
<pdfrwt beam="1">  1        2 0.54828725E+00 0.32152384E+03</pdfrwt>
<pdfrwt beam="2">  1       -2 0.11156591E-02 0.32152384E+03</pdfrwt>
<totfact> 0.16586708E+03</totfact>
</mgrwt>
</event>
<event>
 4    1  0.1762274E-004  0.2572614E+03  0.7818608E-02  0.1108800E+00
          2   -1    0    0  501    0  0.00000000000E+00  0.00000000000E+00  0.23975342596E+04  0.23975342596E+04  0.00000000000E+00 0. -1.
         -2   -1    0    0    0  501 -0.00000000000E+00 -0.00000000000E+00 -0.69011948689E+01  0.69011948689E+01  0.00000000000E+00 0. -1.
         25    1    1    2    0    0  0.63911430535E+01 -0.40115328593E+02  0.14034186164E+04  0.14091252248E+04  0.12000000000E+03 0.  0.
         25    1    1    2    0    0 -0.63911430535E+01  0.40115328593E+02  0.98721444826E+03  0.99531022960E+03  0.12000000000E+03 0.  0.
<mgrwt>
<rscale>  0 0.25726135E+03</rscale>
<asrwt>0</asrwt>
<pdfrwt beam="1">  1        2 0.36885076E+00 0.25726135E+03</pdfrwt>
<pdfrwt beam="2">  1       -2 0.10617242E-02 0.25726135E+03</pdfrwt>
<totfact> 0.89091256E+03</totfact>
</mgrwt>
</event>
<event>
 4    1  0.1762274E-004  0.4503290E+03  0.7818608E-02  0.1027624E+00
          2   -1    0    0  501    0  0.00000000000E+00  0.00000000000E+00  0.10034158057E+04  0.10034158057E+04  0.00000000000E+00 0.  1.
         -2   -1    0    0    0  501 -0.00000000000E+00 -0.00000000000E+00 -0.50526467533E+02  0.50526467533E+02  0.00000000000E+00 0.  1.
         25    1    1    2    0    0 -0.41906939534E+02  0.14618745025E+03  0.74504979803E+03  0.76982216371E+03  0.12000000000E+03 0.  0.
         25    1    1    2    0    0  0.41906939534E+02 -0.14618745025E+03  0.20783954013E+03  0.28412010952E+03  0.12000000000E+03 0.  0.
<mgrwt>
<rscale>  0 0.45032902E+03</rscale>
<asrwt>0</asrwt>
<pdfrwt beam="1">  1        2 0.15437165E+00 0.45032902E+03</pdfrwt>
<pdfrwt beam="2">  1       -2 0.77733034E-02 0.45032902E+03</pdfrwt>
<totfact> 0.25909282E+03</totfact>
</mgrwt>
</event>
<event>
 4    1  0.1762274E-004  0.2577462E+03  0.7818608E-02  0.1108505E+00
          4   -1    0    0  501    0  0.00000000000E+00  0.00000000000E+00  0.40615433005E+02  0.40615433005E+02  0.00000000000E+00 0. -1.
         -4   -1    0    0    0  501 -0.00000000000E+00 -0.00000000000E+00 -0.40891549699E+03  0.40891549699E+03  0.00000000000E+00 0. -1.
         25    1    1    2    0    0  0.45317733891E+02 -0.42792288592E+01 -0.16379043188E+03  0.20808487302E+03  0.12000000000E+03 0.  0.
         25    1    1    2    0    0 -0.45317733891E+02  0.42792288592E+01 -0.20450963210E+03  0.24144605697E+03  0.12000000000E+03 0.  0.
<mgrwt>
<rscale>  0 0.25774623E+03</rscale>
<asrwt>0</asrwt>
<pdfrwt beam="1">  1        4 0.62485278E-02 0.25774623E+03</pdfrwt>
<pdfrwt beam="2">  1       -4 0.62910080E-01 0.25774623E+03</pdfrwt>
<totfact> 0.74044940E+02</totfact>
</mgrwt>
</event>
<event>
 4    1  0.1762274E-004  0.4236214E+03  0.7818608E-02  0.1035894E+00
         -1   -1    0    0    0  501 -0.00000000000E+00  0.00000000000E+00  0.43882367213E+03  0.43882367213E+03  0.00000000000E+00 0. -1.
          1   -1    0    0  501    0  0.00000000000E+00 -0.00000000000E+00 -0.10223645743E+03  0.10223645743E+03  0.00000000000E+00 0. -1.
         25    1    1    2    0    0 -0.48616226514E+02  0.14426090833E+03  0.59249424827E+02  0.20269494689E+03  0.12000000000E+03 0.  0.
         25    1    1    2    0    0  0.48616226514E+02 -0.14426090833E+03  0.27733778987E+03  0.33836518267E+03  0.12000000000E+03 0.  0.
<mgrwt>
<rscale>  0 0.42362142E+03</rscale>
<asrwt>0</asrwt>
<pdfrwt beam="1">  1        1 0.15728686E-01 0.42362142E+03</pdfrwt>
<pdfrwt beam="2">  1       -1 0.67511333E-01 0.42362142E+03</pdfrwt>
<totfact> 0.80912376E+02</totfact>
</mgrwt>
</event>
<event>
 4    1  0.1762274E-004  0.2869084E+03  0.7818608E-02  0.1091974E+00
          2   -1    0    0  501    0  0.00000000000E+00  0.00000000000E+00  0.10914248530E+04  0.10914248530E+04  0.00000000000E+00 0. -1.
         -2   -1    0    0    0  501 -0.00000000000E+00 -0.00000000000E+00 -0.18855261265E+02  0.18855261265E+02  0.00000000000E+00 0. -1.
         25    1    1    2    0    0 -0.54884838449E+01 -0.66704114963E+02  0.69581938310E+03  0.70925607245E+03  0.12000000000E+03 0.  0.
         25    1    1    2    0    0  0.54884838449E+01  0.66704114963E+02  0.37675020863E+03  0.40102404181E+03  0.12000000000E+03 0.  0.
<mgrwt>
<rscale>  0 0.28690835E+03</rscale>
<asrwt>0</asrwt>
<pdfrwt beam="1">  1        2 0.16791147E+00 0.28690835E+03</pdfrwt>
<pdfrwt beam="2">  1       -2 0.29008103E-02 0.28690835E+03</pdfrwt>
<totfact> 0.10291016E+04</totfact>
</mgrwt>
</event>
<event>
 4    1  0.1762274E-004  0.2593703E+03  0.7818608E-02  0.1107522E+00
          2   -1    0    0  501    0  0.00000000000E+00  0.00000000000E+00  0.76975789137E+03  0.76975789137E+03  0.00000000000E+00 0. -1.
         -2   -1    0    0    0  501 -0.00000000000E+00 -0.00000000000E+00 -0.21848738964E+02  0.21848738964E+02  0.00000000000E+00 0. -1.
         25    1    1    2    0    0  0.47564079397E+00  0.29055264926E+02  0.25287676346E+03  0.28140911882E+03  0.12000000000E+03 0.  0.
         25    1    1    2    0    0 -0.47564079397E+00 -0.29055264926E+02  0.49503238894E+03  0.51019751151E+03  0.12000000000E+03 0.  0.
<mgrwt>
<rscale>  0 0.25937031E+03</rscale>
<asrwt>0</asrwt>
<pdfrwt beam="1">  1        2 0.11842427E+00 0.25937031E+03</pdfrwt>
<pdfrwt beam="2">  1       -2 0.33613450E-02 0.25937031E+03</pdfrwt>
<totfact> 0.13219599E+04</totfact>
</mgrwt>
</event>
<event>
 4    1  0.1762274E-004  0.2673326E+03  0.7818608E-02  0.1102816E+00
          2   -1    0    0  501    0  0.00000000000E+00  0.00000000000E+00  0.75487082149E+03  0.75487082149E+03  0.00000000000E+00 0.  1.
         -2   -1    0    0    0  501 -0.00000000000E+00 -0.00000000000E+00 -0.23668519285E+02  0.23668519285E+02  0.00000000000E+00 0.  1.
         25    1    1    2    0    0  0.24920236200E+02 -0.90986049121E+00  0.21027064598E+03  0.24338362842E+03  0.12000000000E+03 0.  0.
         25    1    1    2    0    0 -0.24920236200E+02  0.90986049121E+00  0.52093165622E+03  0.53515571235E+03  0.12000000000E+03 0.  0.
<mgrwt>
<rscale>  0 0.26733256E+03</rscale>
<asrwt>0</asrwt>
<pdfrwt beam="1">  1        2 0.11613395E+00 0.26733256E+03</pdfrwt>
<pdfrwt beam="2">  1       -2 0.36413112E-02 0.26733256E+03</pdfrwt>
<totfact> 0.12032997E+04</totfact>
</mgrwt>
</event>
<event>
 4    1  0.1762274E-004  0.2446758E+03  0.7818608E-02  0.1116717E+00
          3   -1    0    0  501    0  0.00000000000E+00  0.00000000000E+00  0.54901046873E+02  0.54901046873E+02  0.00000000000E+00 0.  1.
         -3   -1    0    0    0  501 -0.00000000000E+00 -0.00000000000E+00 -0.27260984741E+03  0.27260984741E+03  0.00000000000E+00 0.  1.
         25    1    1    2    0    0 -0.21366254444E+02  0.86983716645E+01 -0.10100502574E+03  0.15853767288E+03  0.12000000000E+03 0.  0.
         25    1    1    2    0    0  0.21366254444E+02 -0.86983716645E+01 -0.11670377480E+03  0.16897322141E+03  0.12000000000E+03 0.  0.
<mgrwt>
<rscale>  0 0.24467583E+03</rscale>
<asrwt>0</asrwt>
<pdfrwt beam="1">  1        3 0.84463152E-02 0.24467583E+03</pdfrwt>
<pdfrwt beam="2">  1       -3 0.41939975E-01 0.24467583E+03</pdfrwt>
<totfact> 0.13871820E+03</totfact>
</mgrwt>
</event>
<event>
 4    1  0.1762274E-004  0.3447622E+03  0.7818608E-02  0.1064786E+00
         -2   -1    0    0    0  501 -0.00000000000E+00  0.00000000000E+00  0.57737174518E+03  0.57737174518E+03  0.00000000000E+00 0. -1.
          2   -1    0    0  501    0  0.00000000000E+00 -0.00000000000E+00 -0.51466411614E+02  0.51466411614E+02  0.00000000000E+00 0. -1.
         25    1    1    2    0    0 -0.83746696133E+02  0.57571715659E+02  0.13414274070E+03  0.20669370198E+03  0.12000000000E+03 0.  0.
         25    1    1    2    0    0  0.83746696133E+02 -0.57571715659E+02  0.39176259287E+03  0.42214445481E+03  0.12000000000E+03 0.  0.
<mgrwt>
<rscale>  0 0.34476225E+03</rscale>
<asrwt>0</asrwt>
<pdfrwt beam="1">  1        2 0.79179099E-02 0.34476225E+03</pdfrwt>
<pdfrwt beam="2">  1       -2 0.88826418E-01 0.34476225E+03</pdfrwt>
<totfact> 0.97563670E+02</totfact>
</mgrwt>
</event>
<event>
 4    1  0.1762274E-004  0.2843265E+03  0.7818608E-02  0.1093349E+00
          1   -1    0    0  501    0  0.00000000000E+00  0.00000000000E+00  0.81460547883E+02  0.81460547883E+02  0.00000000000E+00 0. -1.
         -1   -1    0    0    0  501 -0.00000000000E+00 -0.00000000000E+00 -0.24810037965E+03  0.24810037965E+03  0.00000000000E+00 0. -1.
         25    1    1    2    0    0  0.54085829401E+02 -0.52989398635E+02 -0.93506725767E+02  0.16993134223E+03  0.12000000000E+03 0.  0.
         25    1    1    2    0    0 -0.54085829401E+02  0.52989398635E+02 -0.73133106000E+02  0.15962958530E+03  0.12000000000E+03 0.  0.
<mgrwt>
<rscale>  0 0.28432652E+03</rscale>
<asrwt>0</asrwt>
<pdfrwt beam="1">  1        1 0.12532392E-01 0.28432652E+03</pdfrwt>
<pdfrwt beam="2">  1       -1 0.38169289E-01 0.28432652E+03</pdfrwt>
<totfact> 0.31674255E+03</totfact>
</mgrwt>
</event>
<event>
 4    1  0.1762274E-004  0.4668842E+03  0.7818608E-02  0.1022803E+00
          1   -1    0    0  501    0  0.00000000000E+00  0.00000000000E+00  0.26027923352E+03  0.26027923352E+03  0.00000000000E+00 0.  1.
         -1   -1    0    0    0  501 -0.00000000000E+00 -0.00000000000E+00 -0.20937214172E+03  0.20937214172E+03  0.00000000000E+00 0.  1.
         25    1    1    2    0    0  0.57498718280E+02  0.18133813070E+03  0.88318744798E+02  0.24163985791E+03  0.12000000000E+03 0.  0.
         25    1    1    2    0    0 -0.57498718280E+02 -0.18133813070E+03 -0.37411652995E+02  0.22801151732E+03  0.12000000000E+03 0.  0.
<mgrwt>
<rscale>  0 0.46688423E+03</rscale>
<asrwt>0</asrwt>
<pdfrwt beam="1">  1        1 0.40042959E-01 0.46688423E+03</pdfrwt>
<pdfrwt beam="2">  1       -1 0.32211099E-01 0.46688423E+03</pdfrwt>
<totfact> 0.95189795E+02</totfact>
</mgrwt>
</event>
<event>
 4    1  0.1762274E-004  0.2921239E+03  0.7818608E-02  0.1089245E+00
         -2   -1    0    0    0  501 -0.00000000000E+00  0.00000000000E+00  0.17429135266E+02  0.17429135266E+02  0.00000000000E+00 0.  1.
          2   -1    0    0  501    0  0.00000000000E+00 -0.00000000000E+00 -0.12240480238E+04  0.12240480238E+04  0.00000000000E+00 0.  1.
         25    1    1    2    0    0  0.51014457344E+02  0.62906045355E+02 -0.52107185889E+03  0.54081006603E+03  0.12000000000E+03 0.  0.
         25    1    1    2    0    0 -0.51014457344E+02 -0.62906045355E+02 -0.68554702965E+03  0.70066709304E+03  0.12000000000E+03 0.  0.
<mgrwt>
<rscale>  0 0.29212394E+03</rscale>
<asrwt>0</asrwt>
<pdfrwt beam="1">  1        2 0.18831503E+00 0.29212394E+03</pdfrwt>
<pdfrwt beam="2">  1       -2 0.26814061E-02 0.29212394E+03</pdfrwt>
<totfact> 0.97020094E+03</totfact>
</mgrwt>
</event>
<event>
 4    1  0.1762274E-004  0.2533805E+03  0.7818608E-02  0.1111187E+00
          2   -1    0    0  501    0  0.00000000000E+00  0.00000000000E+00  0.22433111430E+04  0.22433111430E+04  0.00000000000E+00 0. -1.
         -2   -1    0    0    0  501 -0.00000000000E+00 -0.00000000000E+00 -0.71547906977E+01  0.71547906977E+01  0.00000000000E+00 0. -1.
         25    1    1    2    0    0  0.15715980715E+02  0.21908054065E+01  0.78591564083E+03  0.79518248609E+03  0.12000000000E+03 0.  0.
         25    1    1    2    0    0 -0.15715980715E+02 -0.21908054065E+01  0.14502407115E+04  0.14552834476E+04  0.12000000000E+03 0.  0.
<mgrwt>
<rscale>  0 0.25338052E+03</rscale>
<asrwt>0</asrwt>
<pdfrwt beam="1">  1        2 0.34512423E+00 0.25338052E+03</pdfrwt>
<pdfrwt beam="2">  1       -2 0.11007388E-02 0.25338052E+03</pdfrwt>
<totfact> 0.10225945E+04</totfact>
</mgrwt>
</event>
<event>
 4    1  0.1762274E-004  0.2575204E+03  0.7818608E-02  0.1108642E+00
         -2   -1    0    0    0  501 -0.00000000000E+00  0.00000000000E+00  0.65516368018E+01  0.65516368018E+01  0.00000000000E+00 0.  1.
          2   -1    0    0  501    0  0.00000000000E+00 -0.00000000000E+00 -0.25305414223E+04  0.25305414223E+04  0.00000000000E+00 0.  1.
         25    1    1    2    0    0  0.33327610879E+02  0.22342307884E+02 -0.10269300330E+04  0.10346957045E+04  0.12000000000E+03 0.  0.
         25    1    1    2    0    0 -0.33327610879E+02 -0.22342307884E+02 -0.14970597526E+04  0.15023973546E+04  0.12000000000E+03 0.  0.
<mgrwt>
<rscale>  0 0.25752039E+03</rscale>
<asrwt>0</asrwt>
<pdfrwt beam="1">  1        2 0.38931454E+00 0.25752039E+03</pdfrwt>
<pdfrwt beam="2">  1       -2 0.10079429E-02 0.25752039E+03</pdfrwt>
<totfact> 0.81315665E+03</totfact>
</mgrwt>
</event>
<event>
 4    1  0.1762274E-004  0.3594405E+03  0.7818608E-02  0.1058806E+00
          2   -1    0    0  501    0  0.00000000000E+00  0.00000000000E+00  0.28777774027E+03  0.28777774027E+03  0.00000000000E+00 0.  1.
         -2   -1    0    0    0  501 -0.00000000000E+00 -0.00000000000E+00 -0.11223721707E+03  0.11223721707E+03  0.00000000000E+00 0.  1.
         25    1    1    2    0    0 -0.11718678050E+03 -0.64543018333E+02  0.86756400437E+02  0.19956256101E+03  0.12000000000E+03 0.  0.
         25    1    1    2    0    0  0.11718678050E+03  0.64543018333E+02  0.88784122762E+02  0.20045239633E+03  0.12000000000E+03 0.  0.
<mgrwt>
<rscale>  0 0.35944052E+03</rscale>
<asrwt>0</asrwt>
<pdfrwt beam="1">  1        2 0.44273498E-01 0.35944052E+03</pdfrwt>
<pdfrwt beam="2">  1       -2 0.17267264E-01 0.35944052E+03</pdfrwt>
<totfact> 0.31046720E+03</totfact>
</mgrwt>
</event>
<event>
 4    1  0.1762274E-004  0.3481193E+03  0.7818608E-02  0.1063390E+00
          4   -1    0    0  501    0  0.00000000000E+00  0.00000000000E+00  0.38640915266E+02  0.38640915266E+02  0.00000000000E+00 0.  1.
         -4   -1    0    0    0  501 -0.00000000000E+00 -0.00000000000E+00 -0.78405898937E+03  0.78405898937E+03  0.00000000000E+00 0.  1.
         25    1    1    2    0    0 -0.93474001742E+02  0.81885458558E+02 -0.32234644336E+03  0.36571826160E+03  0.12000000000E+03 0.  0.
         25    1    1    2    0    0  0.93474001742E+02 -0.81885458558E+02 -0.42307163074E+03  0.45698164303E+03  0.12000000000E+03 0.  0.
<mgrwt>
<rscale>  0 0.34811927E+03</rscale>
<asrwt>0</asrwt>
<pdfrwt beam="1">  1        4 0.59447561E-02 0.34811927E+03</pdfrwt>
<pdfrwt beam="2">  1       -4 0.12062446E+00 0.34811927E+03</pdfrwt>
<totfact> 0.18840543E+02</totfact>
</mgrwt>
</event>
<event>
 4    1  0.1762274E-004  0.2904271E+03  0.7818608E-02  0.1090126E+00
          2   -1    0    0  501    0  0.00000000000E+00  0.00000000000E+00  0.67079977373E+03  0.67079977373E+03  0.00000000000E+00 0. -1.
         -2   -1    0    0    0  501 -0.00000000000E+00 -0.00000000000E+00 -0.31435569055E+02  0.31435569055E+02  0.00000000000E+00 0. -1.
         25    1    1    2    0    0 -0.42562654616E-01  0.73796988530E+02  0.40486004303E+03  0.42866963010E+03  0.12000000000E+03 0.  0.
         25    1    1    2    0    0  0.42562654616E-01 -0.73796988530E+02  0.23450416164E+03  0.27356571268E+03  0.12000000000E+03 0.  0.
<mgrwt>
<rscale>  0 0.29042708E+03</rscale>
<asrwt>0</asrwt>
<pdfrwt beam="1">  1        2 0.10319995E+00 0.29042708E+03</pdfrwt>
<pdfrwt beam="2">  1       -2 0.48362419E-02 0.29042708E+03</pdfrwt>
<totfact> 0.90859471E+03</totfact>
</mgrwt>
</event>
<event>
 4    1  0.1762274E-004  0.2623308E+03  0.7818608E-02  0.1105751E+00
         -1   -1    0    0    0  501 -0.00000000000E+00  0.00000000000E+00  0.97552011414E+02  0.97552011414E+02  0.00000000000E+00 0.  1.
          1   -1    0    0  501    0  0.00000000000E+00 -0.00000000000E+00 -0.17636088701E+03  0.17636088701E+03  0.00000000000E+00 0.  1.
         25    1    1    2    0    0  0.45668565709E+02  0.18863667294E+02 -0.59295536379E+02  0.14267941853E+03  0.12000000000E+03 0.  0.
         25    1    1    2    0    0 -0.45668565709E+02 -0.18863667294E+02 -0.19513339217E+02  0.13123347989E+03  0.12000000000E+03 0.  0.
<mgrwt>
<rscale>  0 0.26233078E+03</rscale>
<asrwt>0</asrwt>
<pdfrwt beam="1">  1        1 0.27132444E-01 0.26233078E+03</pdfrwt>
<pdfrwt beam="2">  1       -1 0.15008002E-01 0.26233078E+03</pdfrwt>
<totfact> 0.54768214E+03</totfact>
</mgrwt>
</event>
<event>
 4    1  0.1762274E-004  0.2732039E+03  0.7818608E-02  0.1099460E+00
         -1   -1    0    0    0  501 -0.00000000000E+00  0.00000000000E+00  0.86870754083E+02  0.86870754083E+02  0.00000000000E+00 0. -1.
          1   -1    0    0  501    0  0.00000000000E+00 -0.00000000000E+00 -0.21480291945E+03  0.21480291945E+03  0.00000000000E+00 0. -1.
         25    1    1    2    0    0  0.49453533099E+01  0.64682541998E+02 -0.56018565407E+02  0.14746649595E+03  0.12000000000E+03 0.  0.
         25    1    1    2    0    0 -0.49453533099E+01 -0.64682541998E+02 -0.71913599965E+02  0.15420717758E+03  0.12000000000E+03 0.  0.
<mgrwt>
<rscale>  0 0.27320389E+03</rscale>
<asrwt>0</asrwt>
<pdfrwt beam="1">  1        1 0.33046602E-01 0.27320389E+03</pdfrwt>
<pdfrwt beam="2">  1       -1 0.13364732E-01 0.27320389E+03</pdfrwt>
<totfact> 0.51362973E+03</totfact>
</mgrwt>
</event>
<event>
 4    1  0.1762274E-004  0.3064937E+03  0.7818608E-02  0.1082039E+00
         -1   -1    0    0    0  501 -0.00000000000E+00  0.00000000000E+00  0.49895993531E+03  0.49895993531E+03  0.00000000000E+00 0.  1.
          1   -1    0    0  501    0  0.00000000000E+00 -0.00000000000E+00 -0.47067105039E+02  0.47067105039E+02  0.00000000000E+00 0.  1.
         25    1    1    2    0    0  0.54627965780E+02  0.41033691705E+02  0.10755024625E+03  0.17502866613E+03  0.12000000000E+03 0.  0.
         25    1    1    2    0    0 -0.54627965780E+02 -0.41033691705E+02  0.34434258402E+03  0.37099837422E+03  0.12000000000E+03 0.  0.
<mgrwt>
<rscale>  0 0.30649372E+03</rscale>
<asrwt>0</asrwt>
<pdfrwt beam="1">  1        1 0.72410934E-02 0.30649372E+03</pdfrwt>
<pdfrwt beam="2">  1       -1 0.76763063E-01 0.30649372E+03</pdfrwt>
<totfact> 0.17737205E+03</totfact>
</mgrwt>
</event>
<event>
 4    1  0.1762274E-004  0.3180638E+03  0.7818608E-02  0.1076544E+00
         -2   -1    0    0    0  501 -0.00000000000E+00  0.00000000000E+00  0.15939469517E+02  0.15939469517E+02  0.00000000000E+00 0.  1.
          2   -1    0    0  501    0  0.00000000000E+00 -0.00000000000E+00 -0.15866994053E+04  0.15866994053E+04  0.00000000000E+00 0.  1.
         25    1    1    2    0    0  0.62726602458E+02  0.12277017892E+02 -0.36969832367E+03  0.39390633703E+03  0.12000000000E+03 0.  0.
         25    1    1    2    0    0 -0.62726602458E+02 -0.12277017892E+02 -0.12010616121E+04  0.12087325378E+04  0.12000000000E+03 0.  0.
<mgrwt>
<rscale>  0 0.31806381E+03</rscale>
<asrwt>0</asrwt>
<pdfrwt beam="1">  1        2 0.24410765E+00 0.31806381E+03</pdfrwt>
<pdfrwt beam="2">  1       -2 0.24522256E-02 0.31806381E+03</pdfrwt>
<totfact> 0.70283019E+03</totfact>
</mgrwt>
</event>
<event>
 4    1  0.1762274E-004  0.2553506E+03  0.7818608E-02  0.1109969E+00
          2   -1    0    0  501    0  0.00000000000E+00  0.00000000000E+00  0.51211465059E+03  0.51211465059E+03  0.00000000000E+00 0. -1.
         -2   -1    0    0    0  501 -0.00000000000E+00 -0.00000000000E+00 -0.31830733805E+02  0.31830733805E+02  0.00000000000E+00 0. -1.
         25    1    1    2    0    0  0.88544098626E+01  0.11973929710E+02  0.15285068620E+03  0.19489768557E+03  0.12000000000E+03 0.  0.
         25    1    1    2    0    0 -0.88544098626E+01 -0.11973929710E+02  0.32743323058E+03  0.34904769883E+03  0.12000000000E+03 0.  0.
<mgrwt>
<rscale>  0 0.25535062E+03</rscale>
<asrwt>0</asrwt>
<pdfrwt beam="1">  1        2 0.78786863E-01 0.25535062E+03</pdfrwt>
<pdfrwt beam="2">  1       -2 0.48970363E-02 0.25535062E+03</pdfrwt>
<totfact> 0.12122212E+04</totfact>
</mgrwt>
</event>
<event>
 4    1  0.1762274E-004  0.2483490E+03  0.7818608E-02  0.1114353E+00
         -2   -1    0    0    0  501 -0.00000000000E+00  0.00000000000E+00  0.28612294294E+03  0.28612294294E+03  0.00000000000E+00 0. -1.
          2   -1    0    0  501    0  0.00000000000E+00 -0.00000000000E+00 -0.53890491019E+02  0.53890491019E+02  0.00000000000E+00 0. -1.
         25    1    1    2    0    0  0.11055617525E+02  0.36154791230E+01  0.15682252775E+03  0.19780951337E+03  0.12000000000E+03 0.  0.
         25    1    1    2    0    0 -0.11055617525E+02 -0.36154791230E+01  0.75409924167E+02  0.14220392059E+03  0.12000000000E+03 0.  0.
<mgrwt>
<rscale>  0 0.24834900E+03</rscale>
<asrwt>0</asrwt>
<pdfrwt beam="1">  1        2 0.82908449E-02 0.24834900E+03</pdfrwt>
<pdfrwt beam="2">  1       -2 0.44018913E-01 0.24834900E+03</pdfrwt>
<totfact> 0.39779443E+03</totfact>
</mgrwt>
</event>
<event>
 4    1  0.1762274E-004  0.2922898E+03  0.7818608E-02  0.1089160E+00
          1   -1    0    0  501    0  0.00000000000E+00  0.00000000000E+00  0.10351307837E+04  0.10351307837E+04  0.00000000000E+00 0.  1.
         -1   -1    0    0    0  501 -0.00000000000E+00 -0.00000000000E+00 -0.20633464750E+02  0.20633464750E+02  0.00000000000E+00 0.  1.
         25    1    1    2    0    0  0.72325587567E+02  0.99950671498E+01  0.65296427559E+03  0.66790211646E+03  0.12000000000E+03 0.  0.
         25    1    1    2    0    0 -0.72325587567E+02 -0.99950671498E+01  0.36153304335E+03  0.38786213197E+03  0.12000000000E+03 0.  0.
<mgrwt>
<rscale>  0 0.29228982E+03</rscale>
<asrwt>0</asrwt>
<pdfrwt beam="1">  1        1 0.15925085E+00 0.29228982E+03</pdfrwt>
<pdfrwt beam="2">  1       -1 0.31743800E-02 0.29228982E+03</pdfrwt>
<totfact> 0.52272690E+03</totfact>
</mgrwt>
</event>
<event>
 4    1  0.1762274E-004  0.2833337E+03  0.7818608E-02  0.1093882E+00
         -1   -1    0    0    0  501 -0.00000000000E+00  0.00000000000E+00  0.23995475649E+02  0.23995475649E+02  0.00000000000E+00 0.  1.
          1   -1    0    0  501    0  0.00000000000E+00 -0.00000000000E+00 -0.83638662229E+03  0.83638662229E+03  0.00000000000E+00 0.  1.
         25    1    1    2    0    0 -0.16903210160E+02  0.69475366476E+02 -0.47785959274E+03  0.49785774619E+03  0.12000000000E+03 0.  0.
         25    1    1    2    0    0  0.16903210160E+02 -0.69475366476E+02 -0.33453155390E+03  0.36252435176E+03  0.12000000000E+03 0.  0.
<mgrwt>
<rscale>  0 0.28333369E+03</rscale>
<asrwt>0</asrwt>
<pdfrwt beam="1">  1        1 0.12867484E+00 0.28333369E+03</pdfrwt>
<pdfrwt beam="2">  1       -1 0.36916122E-02 0.28333369E+03</pdfrwt>
<totfact> 0.59529721E+03</totfact>
</mgrwt>
</event>
<event>
 4    1  0.1762274E-004  0.2671096E+03  0.7818608E-02  0.1102945E+00
         -1   -1    0    0    0  501 -0.00000000000E+00  0.00000000000E+00  0.60321121928E+03  0.60321121928E+03  0.00000000000E+00 0.  1.
          1   -1    0    0  501    0  0.00000000000E+00 -0.00000000000E+00 -0.29569888471E+02  0.29569888471E+02  0.00000000000E+00 0.  1.
         25    1    1    2    0    0  0.30076023944E+02 -0.16204424911E+02  0.17395760753E+03  0.21407568713E+03  0.12000000000E+03 0.  0.
         25    1    1    2    0    0 -0.30076023944E+02  0.16204424911E+02  0.39968372328E+03  0.41870542062E+03  0.12000000000E+03 0.  0.
<mgrwt>
<rscale>  0 0.26710963E+03</rscale>
<asrwt>0</asrwt>
<pdfrwt beam="1">  1        1 0.45492140E-02 0.26710963E+03</pdfrwt>
<pdfrwt beam="2">  1       -1 0.92801717E-01 0.26710963E+03</pdfrwt>
<totfact> 0.22521768E+03</totfact>
</mgrwt>
</event>
<event>
 4    1  0.1762274E-004  0.2675899E+03  0.7818608E-02  0.1102667E+00
         -2   -1    0    0    0  501 -0.00000000000E+00  0.00000000000E+00  0.82104363090E+01  0.82104363090E+01  0.00000000000E+00 0.  1.
          2   -1    0    0  501    0  0.00000000000E+00 -0.00000000000E+00 -0.21802841798E+04  0.21802841798E+04  0.00000000000E+00 0.  1.
         25    1    1    2    0    0 -0.12568430213E+02 -0.50799270626E+02 -0.13118820646E+04  0.13183979227E+04  0.12000000000E+03 0.  0.
         25    1    1    2    0    0  0.12568430213E+02  0.50799270626E+02 -0.86019167895E+03  0.87009669340E+03  0.12000000000E+03 0.  0.
<mgrwt>
<rscale>  0 0.26758987E+03</rscale>
<asrwt>0</asrwt>
<pdfrwt beam="1">  1        2 0.33542858E+00 0.26758987E+03</pdfrwt>
<pdfrwt beam="2">  1       -2 0.12631431E-02 0.26758987E+03</pdfrwt>
<totfact> 0.90460599E+03</totfact>
</mgrwt>
</event>
<event>
 4    1  0.1762274E-004  0.3262332E+03  0.7818608E-02  0.1072816E+00
          1   -1    0    0  501    0  0.00000000000E+00  0.00000000000E+00  0.20679445991E+02  0.20679445991E+02  0.00000000000E+00 0.  1.
         -1   -1    0    0    0  501 -0.00000000000E+00 -0.00000000000E+00 -0.12866413735E+04  0.12866413735E+04  0.00000000000E+00 0.  1.
         25    1    1    2    0    0  0.21246015897E+01  0.25449416419E+02 -0.20222031713E+03  0.23652746857E+03  0.12000000000E+03 0.  0.
         25    1    1    2    0    0 -0.21246015897E+01 -0.25449416419E+02 -0.10637416104E+04  0.10707933509E+04  0.12000000000E+03 0.  0.
<mgrwt>
<rscale>  0 0.32623323E+03</rscale>
<asrwt>0</asrwt>
<pdfrwt beam="1">  1        1 0.31814523E-02 0.32623323E+03</pdfrwt>
<pdfrwt beam="2">  1       -1 0.19794488E+00 0.32623323E+03</pdfrwt>
<totfact> 0.54105592E+02</totfact>
</mgrwt>
</event>
<event>
 4    1  0.1762274E-004  0.2909446E+03  0.7818608E-02  0.1089857E+00
         -3   -1    0    0    0  501 -0.00000000000E+00  0.00000000000E+00  0.26360054911E+03  0.26360054911E+03  0.00000000000E+00 0.  1.
          3   -1    0    0  501    0  0.00000000000E+00 -0.00000000000E+00 -0.80281282764E+02  0.80281282764E+02  0.00000000000E+00 0.  1.
         25    1    1    2    0    0  0.38787275993E+02  0.66688135140E+02  0.58011830925E+02  0.15400367747E+03  0.12000000000E+03 0.  0.
         25    1    1    2    0    0 -0.38787275993E+02 -0.66688135140E+02  0.12530743542E+03  0.18987815440E+03  0.12000000000E+03 0.  0.
<mgrwt>
<rscale>  0 0.29094460E+03</rscale>
<asrwt>0</asrwt>
<pdfrwt beam="1">  1        3 0.12350967E-01 0.29094460E+03</pdfrwt>
<pdfrwt beam="2">  1       -3 0.40553930E-01 0.29094460E+03</pdfrwt>
<totfact> 0.79969776E+02</totfact>
</mgrwt>
</event>
<event>
 4    1  0.1762274E-004  0.2428933E+03  0.7818608E-02  0.1117880E+00
         -2   -1    0    0    0  501 -0.00000000000E+00  0.00000000000E+00  0.16514800483E+02  0.16514800483E+02  0.00000000000E+00 0. -1.
          2   -1    0    0  501    0  0.00000000000E+00 -0.00000000000E+00 -0.89309548618E+03  0.89309548618E+03  0.00000000000E+00 0. -1.
         25    1    1    2    0    0 -0.12828774670E+02  0.61306841753E+01 -0.48371502268E+03  0.49858037056E+03  0.12000000000E+03 0.  0.
         25    1    1    2    0    0  0.12828774670E+02 -0.61306841753E+01 -0.39286566302E+03  0.41102991610E+03  0.12000000000E+03 0.  0.
<mgrwt>
<rscale>  0 0.24289334E+03</rscale>
<asrwt>0</asrwt>
<pdfrwt beam="1">  1        2 0.13739933E+00 0.24289334E+03</pdfrwt>
<pdfrwt beam="2">  1       -2 0.25407381E-02 0.24289334E+03</pdfrwt>
<totfact> 0.16491615E+04</totfact>
</mgrwt>
</event>
<event>
 4    1  0.1762274E-004  0.2897342E+03  0.7818608E-02  0.1090488E+00
          3   -1    0    0  501    0  0.00000000000E+00  0.00000000000E+00  0.16062249662E+03  0.16062249662E+03  0.00000000000E+00 0. -1.
         -3   -1    0    0    0  501 -0.00000000000E+00 -0.00000000000E+00 -0.13065713741E+03  0.13065713741E+03  0.00000000000E+00 0. -1.
         25    1    1    2    0    0  0.26770034468E+02 -0.70530907719E+02  0.45062701598E+02  0.14873429586E+03  0.12000000000E+03 0.  0.
         25    1    1    2    0    0 -0.26770034468E+02  0.70530907719E+02 -0.15097342386E+02  0.14254533818E+03  0.12000000000E+03 0.  0.
<mgrwt>
<rscale>  0 0.28973419E+03</rscale>
<asrwt>0</asrwt>
<pdfrwt beam="1">  1        3 0.24711153E-01 0.28973419E+03</pdfrwt>
<pdfrwt beam="2">  1       -3 0.20101098E-01 0.28973419E+03</pdfrwt>
<totfact> 0.87233420E+02</totfact>
</mgrwt>
</event>
<event>
 4    1  0.1762274E-004  0.2903426E+03  0.7818608E-02  0.1090170E+00
          1   -1    0    0  501    0  0.00000000000E+00  0.00000000000E+00  0.37069882938E+03  0.37069882938E+03  0.00000000000E+00 0. -1.
         -1   -1    0    0    0  501 -0.00000000000E+00 -0.00000000000E+00 -0.56851295675E+02  0.56851295675E+02  0.00000000000E+00 0. -1.
         25    1    1    2    0    0 -0.56511226642E+02 -0.42897468036E+02  0.21657647689E+03  0.25756374326E+03  0.12000000000E+03 0.  0.
         25    1    1    2    0    0  0.56511226642E+02  0.42897468036E+02  0.97271056806E+02  0.16998638179E+03  0.12000000000E+03 0.  0.
<mgrwt>
<rscale>  0 0.29034262E+03</rscale>
<asrwt>0</asrwt>
<pdfrwt beam="1">  1        1 0.57030588E-01 0.29034262E+03</pdfrwt>
<pdfrwt beam="2">  1       -1 0.87463534E-02 0.29034262E+03</pdfrwt>
<totfact> 0.49988842E+03</totfact>
</mgrwt>
</event>
<event>
 4    1  0.1762274E-004  0.2681422E+03  0.7818608E-02  0.1102348E+00
         -1   -1    0    0    0  501 -0.00000000000E+00  0.00000000000E+00  0.24777396741E+02  0.24777396741E+02  0.00000000000E+00 0.  1.
          1   -1    0    0  501    0  0.00000000000E+00 -0.00000000000E+00 -0.72546220578E+03  0.72546220578E+03  0.00000000000E+00 0.  1.
         25    1    1    2    0    0 -0.18414430320E+02  0.56580542042E+02 -0.33388078189E+03  0.35974550101E+03  0.12000000000E+03 0.  0.
         25    1    1    2    0    0  0.18414430320E+02 -0.56580542042E+02 -0.36680402715E+03  0.39049410151E+03  0.12000000000E+03 0.  0.
<mgrwt>
<rscale>  0 0.26814224E+03</rscale>
<asrwt>0</asrwt>
<pdfrwt beam="1">  1        1 0.11160955E+00 0.26814224E+03</pdfrwt>
<pdfrwt beam="2">  1       -1 0.38119077E-02 0.26814224E+03</pdfrwt>
<totfact> 0.70400105E+03</totfact>
</mgrwt>
</event>
<event>
 4    1  0.1762274E-004  0.3612590E+03  0.7818608E-02  0.1058086E+00
         -1   -1    0    0    0  501 -0.00000000000E+00  0.00000000000E+00  0.30573674669E+02  0.30573674669E+02  0.00000000000E+00 0.  1.
          1   -1    0    0  501    0  0.00000000000E+00 -0.00000000000E+00 -0.10671603401E+04  0.10671603401E+04  0.00000000000E+00 0.  1.
         25    1    1    2    0    0  0.12441227026E+03 -0.50552611658E+02 -0.56051105856E+03  0.58873306881E+03  0.12000000000E+03 0.  0.
         25    1    1    2    0    0 -0.12441227026E+03  0.50552611658E+02 -0.47607560689E+03  0.50900094598E+03  0.12000000000E+03 0.  0.
<mgrwt>
<rscale>  0 0.36125898E+03</rscale>
<asrwt>0</asrwt>
<pdfrwt beam="1">  1        1 0.16417852E+00 0.36125898E+03</pdfrwt>
<pdfrwt beam="2">  1       -1 0.47036421E-02 0.36125898E+03</pdfrwt>
<totfact> 0.27566478E+03</totfact>
</mgrwt>
</event>
<event>
 4    1  0.1762274E-004  0.3500643E+03  0.7818608E-02  0.1062589E+00
          2   -1    0    0  501    0  0.00000000000E+00  0.00000000000E+00  0.14885262128E+04  0.14885262128E+04  0.00000000000E+00 0. -1.
         -2   -1    0    0    0  501 -0.00000000000E+00 -0.00000000000E+00 -0.20581598569E+02  0.20581598569E+02  0.00000000000E+00 0. -1.
         25    1    1    2    0    0  0.73878737855E+02 -0.93351558260E+02  0.92980822725E+03  0.94504810502E+03  0.12000000000E+03 0.  0.
         25    1    1    2    0    0 -0.73878737855E+02  0.93351558260E+02  0.53813638702E+03  0.56405970639E+03  0.12000000000E+03 0.  0.
<mgrwt>
<rscale>  0 0.35006427E+03</rscale>
<asrwt>0</asrwt>
<pdfrwt beam="1">  1        2 0.22900395E+00 0.35006427E+03</pdfrwt>
<pdfrwt beam="2">  1       -2 0.31664010E-02 0.35006427E+03</pdfrwt>
<totfact> 0.54214181E+03</totfact>
</mgrwt>
</event>
<event>
 4    1  0.1762274E-004  0.2478581E+03  0.7818608E-02  0.1114666E+00
          2   -1    0    0  501    0  0.00000000000E+00  0.00000000000E+00  0.63909405031E+03  0.63909405031E+03  0.00000000000E+00 0. -1.
         -2   -1    0    0    0  501 -0.00000000000E+00 -0.00000000000E+00 -0.24031526627E+02  0.24031526627E+02  0.00000000000E+00 0. -1.
         25    1    1    2    0    0 -0.28686538344E+02  0.10991585818E+02  0.31777965592E+03  0.34106838340E+03  0.12000000000E+03 0.  0.
         25    1    1    2    0    0  0.28686538344E+02 -0.10991585818E+02  0.29728286776E+03  0.32205719353E+03  0.12000000000E+03 0.  0.
<mgrwt>
<rscale>  0 0.24785807E+03</rscale>
<asrwt>0</asrwt>
<pdfrwt beam="1">  1        2 0.98322149E-01 0.24785807E+03</pdfrwt>
<pdfrwt beam="2">  1       -2 0.36971584E-02 0.24785807E+03</pdfrwt>
<totfact> 0.14338167E+04</totfact>
</mgrwt>
</event>
<event>
 4    1  0.1762274E-004  0.2534077E+03  0.7818608E-02  0.1111170E+00
          2   -1    0    0  501    0  0.00000000000E+00  0.00000000000E+00  0.79554848778E+02  0.79554848778E+02  0.00000000000E+00 0. -1.
         -2   -1    0    0    0  501 -0.00000000000E+00 -0.00000000000E+00 -0.20179618046E+03  0.20179618046E+03  0.00000000000E+00 0. -1.
         25    1    1    2    0    0  0.18801227588E+02 -0.16186428841E+02 -0.96897874176E+02  0.15621998802E+03  0.12000000000E+03 0.  0.
         25    1    1    2    0    0 -0.18801227588E+02  0.16186428841E+02 -0.25343457504E+02  0.12513104122E+03  0.12000000000E+03 0.  0.
<mgrwt>
<rscale>  0 0.25340769E+03</rscale>
<asrwt>0</asrwt>
<pdfrwt beam="1">  1        2 0.12239208E-01 0.25340769E+03</pdfrwt>
<pdfrwt beam="2">  1       -2 0.31045566E-01 0.25340769E+03</pdfrwt>
<totfact> 0.47386757E+03</totfact>
</mgrwt>
</event>
<event>
 4    1  0.1762274E-004  0.3065229E+03  0.7818608E-02  0.1082025E+00
          1   -1    0    0  501    0  0.00000000000E+00  0.00000000000E+00  0.32812039854E+03  0.32812039854E+03  0.00000000000E+00 0.  1.
         -1   -1    0    0    0  501 -0.00000000000E+00 -0.00000000000E+00 -0.71586728287E+02  0.71586728287E+02  0.00000000000E+00 0.  1.
         25    1    1    2    0    0  0.46739552917E+02 -0.44079606485E+02  0.22011788702E+03  0.25880394452E+03  0.12000000000E+03 0.  0.
         25    1    1    2    0    0 -0.46739552917E+02  0.44079606485E+02  0.36415783232E+02  0.14090318230E+03  0.12000000000E+03 0.  0.
<mgrwt>
<rscale>  0 0.30652286E+03</rscale>
<asrwt>0</asrwt>
<pdfrwt beam="1">  1        1 0.50480060E-01 0.30652286E+03</pdfrwt>
<pdfrwt beam="2">  1       -1 0.11013343E-01 0.30652286E+03</pdfrwt>
<totfact> 0.40922811E+03</totfact>
</mgrwt>
</event>
<event>
 4    1  0.1762274E-004  0.2889041E+03  0.7818608E-02  0.1090923E+00
          2   -1    0    0  501    0  0.00000000000E+00  0.00000000000E+00  0.23406535579E+04  0.23406535579E+04  0.00000000000E+00 0.  1.
         -2   -1    0    0    0  501 -0.00000000000E+00 -0.00000000000E+00 -0.89147735064E+01  0.89147735064E+01  0.00000000000E+00 0.  1.
         25    1    1    2    0    0 -0.19996564040E+02 -0.13848714492E+02  0.54252373635E+03  0.55616872797E+03  0.12000000000E+03 0.  0.
         25    1    1    2    0    0  0.19996564040E+02  0.13848714492E+02  0.17892150480E+04  0.17933996034E+04  0.12000000000E+03 0.  0.
<mgrwt>
<rscale>  0 0.28890411E+03</rscale>
<asrwt>0</asrwt>
<pdfrwt beam="1">  1        2 0.36010006E+00 0.28890411E+03</pdfrwt>
<pdfrwt beam="2">  1       -2 0.13715055E-02 0.28890411E+03</pdfrwt>
<totfact> 0.65852433E+03</totfact>
</mgrwt>
</event>
<event>
 4    1  0.1762274E-004  0.2685302E+03  0.7818608E-02  0.1102124E+00
         -1   -1    0    0    0  501 -0.00000000000E+00  0.00000000000E+00  0.66066040698E+02  0.66066040698E+02  0.00000000000E+00 0.  1.
          1   -1    0    0  501    0  0.00000000000E+00 -0.00000000000E+00 -0.27286500621E+03  0.27286500621E+03  0.00000000000E+00 0.  1.
         25    1    1    2    0    0 -0.98619999196E+01  0.46375537894E+02 -0.56526155006E+02  0.14086573663E+03  0.12000000000E+03 0.  0.
         25    1    1    2    0    0  0.98619999196E+01 -0.46375537894E+02 -0.15027281051E+03  0.19806531028E+03  0.12000000000E+03 0.  0.
<mgrwt>
<rscale>  0 0.26853015E+03</rscale>
<asrwt>0</asrwt>
<pdfrwt beam="1">  1        1 0.41979232E-01 0.26853015E+03</pdfrwt>
<pdfrwt beam="2">  1       -1 0.10164006E-01 0.26853015E+03</pdfrwt>
<totfact> 0.58253428E+03</totfact>
</mgrwt>
</event>
<event>
 4    1  0.1762274E-004  0.3044241E+03  0.7818608E-02  0.1083050E+00
          2   -1    0    0  501    0  0.00000000000E+00  0.00000000000E+00  0.51271237910E+03  0.51271237910E+03  0.00000000000E+00 0. -1.
         -2   -1    0    0    0  501 -0.00000000000E+00 -0.00000000000E+00 -0.45188112530E+02  0.45188112530E+02  0.00000000000E+00 0. -1.
         25    1    1    2    0    0 -0.39872702701E+02 -0.63057142501E+02  0.13005223317E+03  0.19204067015E+03  0.12000000000E+03 0.  0.
         25    1    1    2    0    0  0.39872702701E+02  0.63057142501E+02  0.33747203340E+03  0.36585982147E+03  0.12000000000E+03 0.  0.
<mgrwt>
<rscale>  0 0.30442408E+03</rscale>
<asrwt>0</asrwt>
<pdfrwt beam="1">  1        2 0.78878823E-01 0.30442408E+03</pdfrwt>
<pdfrwt beam="2">  1       -2 0.69520177E-02 0.30442408E+03</pdfrwt>
<totfact> 0.71209856E+03</totfact>
</mgrwt>
</event>
<event>
 4    1  0.1762274E-004  0.2524860E+03  0.7818608E-02  0.1111744E+00
          3   -1    0    0  501    0  0.00000000000E+00  0.00000000000E+00  0.43875676280E+03  0.43875676280E+03  0.00000000000E+00 0. -1.
         -3   -1    0    0    0  501 -0.00000000000E+00 -0.00000000000E+00 -0.36323754626E+02  0.36323754626E+02  0.00000000000E+00 0. -1.
         25    1    1    2    0    0  0.36662825158E+02 -0.13848778281E+02  0.20339591375E+03  0.23938640133E+03  0.12000000000E+03 0.  0.
         25    1    1    2    0    0 -0.36662825158E+02  0.13848778281E+02  0.19903709442E+03  0.23569411609E+03  0.12000000000E+03 0.  0.
<mgrwt>
<rscale>  0 0.25248598E+03</rscale>
<asrwt>0</asrwt>
<pdfrwt beam="1">  1        3 0.67501036E-01 0.25248598E+03</pdfrwt>
<pdfrwt beam="2">  1       -3 0.55882703E-02 0.25248598E+03</pdfrwt>
<totfact> 0.10342630E+03</totfact>
</mgrwt>
</event>
<event>
 4    1  0.1762274E-004  0.2415221E+03  0.7818608E-02  0.1118783E+00
          2   -1    0    0  501    0  0.00000000000E+00  0.00000000000E+00  0.18199386043E+03  0.18199386043E+03  0.00000000000E+00 0.  1.
         -2   -1    0    0    0  501 -0.00000000000E+00 -0.00000000000E+00 -0.80130340174E+02  0.80130340174E+02  0.00000000000E+00 0.  1.
         25    1    1    2    0    0 -0.23417328307E+01  0.83730801811E+01  0.62191609727E+02  0.13543776617E+03  0.12000000000E+03 0.  0.
         25    1    1    2    0    0  0.23417328307E+01 -0.83730801811E+01  0.39671910527E+02  0.12668643443E+03  0.12000000000E+03 0.  0.
<mgrwt>
<rscale>  0 0.24152209E+03</rscale>
<asrwt>0</asrwt>
<pdfrwt beam="1">  1        2 0.27999055E-01 0.24152209E+03</pdfrwt>
<pdfrwt beam="2">  1       -2 0.12327745E-01 0.24152209E+03</pdfrwt>
<totfact> 0.88094462E+03</totfact>
</mgrwt>
</event>
<event>
 4    1  0.1762274E-004  0.2668331E+03  0.7818608E-02  0.1103106E+00
         -2   -1    0    0    0  501 -0.00000000000E+00  0.00000000000E+00  0.85015991840E+01  0.85015991840E+01  0.00000000000E+00 0. -1.
          2   -1    0    0  501    0  0.00000000000E+00 -0.00000000000E+00 -0.20937208583E+04  0.20937208583E+04  0.00000000000E+00 0. -1.
         25    1    1    2    0    0  0.42810905746E+02 -0.31000931680E+02 -0.84864304319E+03  0.85871348316E+03  0.12000000000E+03 0.  0.
         25    1    1    2    0    0 -0.42810905746E+02  0.31000931680E+02 -0.12365762159E+04  0.12435089743E+04  0.12000000000E+03 0.  0.
<mgrwt>
<rscale>  0 0.26683310E+03</rscale>
<asrwt>0</asrwt>
<pdfrwt beam="1">  1        2 0.32211057E+00 0.26683310E+03</pdfrwt>
<pdfrwt beam="2">  1       -2 0.13079397E-02 0.26683310E+03</pdfrwt>
<totfact> 0.95541707E+03</totfact>
</mgrwt>
</event>
<event>
 4    1  0.1762274E-004  0.2656747E+03  0.7818608E-02  0.1103781E+00
         -1   -1    0    0    0  501 -0.00000000000E+00  0.00000000000E+00  0.28651904409E+03  0.28651904409E+03  0.00000000000E+00 0.  1.
          1   -1    0    0  501    0  0.00000000000E+00 -0.00000000000E+00 -0.61586699499E+02  0.61586699499E+02  0.00000000000E+00 0.  1.
         25    1    1    2    0    0 -0.54034490301E+02 -0.15358604277E+02  0.10002554138E+03  0.16601422167E+03  0.12000000000E+03 0.  0.
         25    1    1    2    0    0  0.54034490301E+02  0.15358604277E+02  0.12490680321E+03  0.18209152192E+03  0.12000000000E+03 0.  0.
<mgrwt>
<rscale>  0 0.26567471E+03</rscale>
<asrwt>0</asrwt>
<pdfrwt beam="1">  1        1 0.94748770E-02 0.26567471E+03</pdfrwt>
<pdfrwt beam="2">  1       -1 0.44079852E-01 0.26567471E+03</pdfrwt>
<totfact> 0.35552702E+03</totfact>
</mgrwt>
</event>
<event>
 4    1  0.1762274E-004  0.2877447E+03  0.7818608E-02  0.1091533E+00
          1   -1    0    0  501    0  0.00000000000E+00  0.00000000000E+00  0.22098453080E+04  0.22098453080E+04  0.00000000000E+00 0.  1.
         -1   -1    0    0    0  501 -0.00000000000E+00 -0.00000000000E+00 -0.93668303033E+01  0.93668303033E+01  0.00000000000E+00 0.  1.
         25    1    1    2    0    0  0.20538350288E+02 -0.64355156230E+02  0.14215652700E+04  0.14282196003E+04  0.12000000000E+03 0.  0.
         25    1    1    2    0    0 -0.20538350288E+02  0.64355156230E+02  0.77891320767E+03  0.79099253792E+03  0.12000000000E+03 0.  0.
<mgrwt>
<rscale>  0 0.28774465E+03</rscale>
<asrwt>0</asrwt>
<pdfrwt beam="1">  1        1 0.33997579E+00 0.28774465E+03</pdfrwt>
<pdfrwt beam="2">  1       -1 0.14410526E-02 0.28774465E+03</pdfrwt>
<totfact> 0.27240329E+03</totfact>
</mgrwt>
</event>
<event>
 4    1  0.1762274E-004  0.3154394E+03  0.7818608E-02  0.1077768E+00
          2   -1    0    0  501    0  0.00000000000E+00  0.00000000000E+00  0.12255607274E+04  0.12255607274E+04  0.00000000000E+00 0. -1.
         -2   -1    0    0    0  501 -0.00000000000E+00 -0.00000000000E+00 -0.20297241447E+02  0.20297241447E+02  0.00000000000E+00 0. -1.
         25    1    1    2    0    0  0.70478282329E+02  0.91219923651E+01  0.89354037272E+03  0.90435877654E+03  0.12000000000E+03 0.  0.
         25    1    1    2    0    0 -0.70478282329E+02 -0.91219923651E+01  0.31172311328E+03  0.34149919235E+03  0.12000000000E+03 0.  0.
<mgrwt>
<rscale>  0 0.31543939E+03</rscale>
<asrwt>0</asrwt>
<pdfrwt beam="1">  1        2 0.18854775E+00 0.31543939E+03</pdfrwt>
<pdfrwt beam="2">  1       -2 0.31226535E-02 0.31543939E+03</pdfrwt>
<totfact> 0.77271683E+03</totfact>
</mgrwt>
</event>
<event>
 4    1  0.1762274E-004  0.2518232E+03  0.7818608E-02  0.1112158E+00
          1   -1    0    0  501    0  0.00000000000E+00  0.00000000000E+00  0.40770765183E+03  0.40770765183E+03  0.00000000000E+00 0.  1.
         -1   -1    0    0    0  501 -0.00000000000E+00 -0.00000000000E+00 -0.38885034188E+02  0.38885034188E+02  0.00000000000E+00 0.  1.
         25    1    1    2    0    0 -0.80122449409E+01 -0.31390922000E+02  0.22006313794E+03  0.25273972923E+03  0.12000000000E+03 0.  0.
         25    1    1    2    0    0  0.80122449409E+01  0.31390922000E+02  0.14875947971E+03  0.19385295679E+03  0.12000000000E+03 0.  0.
<mgrwt>
<rscale>  0 0.25182316E+03</rscale>
<asrwt>0</asrwt>
<pdfrwt beam="1">  1        1 0.62724251E-01 0.25182316E+03</pdfrwt>
<pdfrwt beam="2">  1       -1 0.59823132E-02 0.25182316E+03</pdfrwt>
<totfact> 0.78481391E+03</totfact>
</mgrwt>
</event>
<event>
 4    1  0.1762274E-004  0.2841102E+03  0.7818608E-02  0.1093465E+00
          2   -1    0    0  501    0  0.00000000000E+00  0.00000000000E+00  0.24841504244E+03  0.24841504244E+03  0.00000000000E+00 0.  1.
         -2   -1    0    0    0  501 -0.00000000000E+00 -0.00000000000E+00 -0.81233621306E+02  0.81233621306E+02  0.00000000000E+00 0.  1.
         25    1    1    2    0    0 -0.33537476471E+02  0.60780312333E+01  0.16243840949E+03  0.20481196661E+03  0.12000000000E+03 0.  0.
         25    1    1    2    0    0  0.33537476471E+02 -0.60780312333E+01  0.47430116502E+01  0.12483669713E+03  0.12000000000E+03 0.  0.
<mgrwt>
<rscale>  0 0.28411021E+03</rscale>
<asrwt>0</asrwt>
<pdfrwt beam="1">  1        2 0.38217699E-01 0.28411021E+03</pdfrwt>
<pdfrwt beam="2">  1       -2 0.12497480E-01 0.28411021E+03</pdfrwt>
<totfact> 0.61790179E+03</totfact>
</mgrwt>
</event>
<event>
 4    1  0.1762274E-004  0.3012444E+03  0.7818608E-02  0.1084620E+00
          2   -1    0    0  501    0  0.00000000000E+00  0.00000000000E+00  0.51562754841E+03  0.51562754841E+03  0.00000000000E+00 0. -1.
         -2   -1    0    0    0  501 -0.00000000000E+00 -0.00000000000E+00 -0.43998907506E+02  0.43998907506E+02  0.00000000000E+00 0. -1.
         25    1    1    2    0    0 -0.73027579502E+02  0.28007317132E+02  0.14928361610E+03  0.20688894416E+03  0.12000000000E+03 0.  0.
         25    1    1    2    0    0  0.73027579502E+02 -0.28007317132E+02  0.32234502480E+03  0.35273751175E+03  0.12000000000E+03 0.  0.
<mgrwt>
<rscale>  0 0.30124441E+03</rscale>
<asrwt>0</asrwt>
<pdfrwt beam="1">  1        2 0.79327311E-01 0.30124441E+03</pdfrwt>
<pdfrwt beam="2">  1       -2 0.67690631E-02 0.30124441E+03</pdfrwt>
<totfact> 0.73719729E+03</totfact>
</mgrwt>
</event>
<event>
 4    1  0.1762274E-004  0.2452322E+03  0.7818608E-02  0.1116356E+00
         -2   -1    0    0    0  501 -0.00000000000E+00  0.00000000000E+00  0.37764296092E+02  0.37764296092E+02  0.00000000000E+00 0. -1.
          2   -1    0    0  501    0  0.00000000000E+00 -0.00000000000E+00 -0.39811947859E+03  0.39811947859E+03  0.00000000000E+00 0. -1.
         25    1    1    2    0    0  0.75539665222E+01 -0.43637132684E+01 -0.22218663324E+03  0.25267173248E+03  0.12000000000E+03 0.  0.
         25    1    1    2    0    0 -0.75539665222E+01  0.43637132684E+01 -0.13816854926E+03  0.18321204220E+03  0.12000000000E+03 0.  0.
<mgrwt>
<rscale>  0 0.24523215E+03</rscale>
<asrwt>0</asrwt>
<pdfrwt beam="1">  1        2 0.61249152E-01 0.24523215E+03</pdfrwt>
<pdfrwt beam="2">  1       -2 0.58098916E-02 0.24523215E+03</pdfrwt>
<totfact> 0.12304736E+04</totfact>
</mgrwt>
</event>
<event>
 4    1  0.1762274E-004  0.2519777E+03  0.7818608E-02  0.1112061E+00
          1   -1    0    0  501    0  0.00000000000E+00  0.00000000000E+00  0.20468558477E+03  0.20468558477E+03  0.00000000000E+00 0.  1.
         -1   -1    0    0    0  501 -0.00000000000E+00 -0.00000000000E+00 -0.77549133094E+02  0.77549133094E+02  0.00000000000E+00 0.  1.
         25    1    1    2    0    0  0.64284465850E+00 -0.32232942407E+02  0.86897435924E+02  0.15162631762E+03  0.12000000000E+03 0.  0.
         25    1    1    2    0    0 -0.64284465850E+00  0.32232942407E+02  0.40239015754E+02  0.13060840024E+03  0.12000000000E+03 0.  0.
<mgrwt>
<rscale>  0 0.25197769E+03</rscale>
<asrwt>0</asrwt>
<pdfrwt beam="1">  1        1 0.31490090E-01 0.25197769E+03</pdfrwt>
<pdfrwt beam="2">  1       -1 0.11930636E-01 0.25197769E+03</pdfrwt>
<totfact> 0.65002358E+03</totfact>
</mgrwt>
</event>
<event>
 4    1  0.1762274E-004  0.2527286E+03  0.7818608E-02  0.1111592E+00
         -1   -1    0    0    0  501 -0.00000000000E+00  0.00000000000E+00  0.80329175066E+02  0.80329175066E+02  0.00000000000E+00 0. -1.
          1   -1    0    0  501    0  0.00000000000E+00 -0.00000000000E+00 -0.19878132971E+03  0.19878132971E+03  0.00000000000E+00 0. -1.
         25    1    1    2    0    0  0.89018821096E+01  0.36988964223E+02 -0.71349888002E+02  0.14470049584E+03  0.12000000000E+03 0.  0.
         25    1    1    2    0    0 -0.89018821096E+01 -0.36988964223E+02 -0.47102266647E+02  0.13441000894E+03  0.12000000000E+03 0.  0.
<mgrwt>
<rscale>  0 0.25272863E+03</rscale>
<asrwt>0</asrwt>
<pdfrwt beam="1">  1        1 0.30581743E-01 0.25272863E+03</pdfrwt>
<pdfrwt beam="2">  1       -1 0.12358335E-01 0.25272863E+03</pdfrwt>
<totfact> 0.63840665E+03</totfact>
</mgrwt>
</event>
<event>
 4    1  0.1762274E-004  0.3323161E+03  0.7818608E-02  0.1070117E+00
         -2   -1    0    0    0  501 -0.00000000000E+00  0.00000000000E+00  0.36854530346E+03  0.36854530346E+03  0.00000000000E+00 0. -1.
          2   -1    0    0  501    0  0.00000000000E+00 -0.00000000000E+00 -0.74912082089E+02  0.74912082089E+02  0.00000000000E+00 0. -1.
         25    1    1    2    0    0 -0.14241480317E+02 -0.47635250936E+02  0.85449807762E+01  0.13017278360E+03  0.12000000000E+03 0.  0.
         25    1    1    2    0    0  0.14241480317E+02  0.47635250936E+02  0.28508824059E+03  0.31328460195E+03  0.12000000000E+03 0.  0.
<mgrwt>
<rscale>  0 0.33231609E+03</rscale>
<asrwt>0</asrwt>
<pdfrwt beam="1">  1        2 0.11524936E-01 0.33231609E+03</pdfrwt>
<pdfrwt beam="2">  1       -2 0.56699276E-01 0.33231609E+03</pdfrwt>
<totfact> 0.16034282E+03</totfact>
</mgrwt>
</event>
<event>
 4    1  0.1762274E-004  0.3326262E+03  0.7818608E-02  0.1069981E+00
         -2   -1    0    0    0  501 -0.00000000000E+00  0.00000000000E+00  0.74223278052E+03  0.74223278052E+03  0.00000000000E+00 0. -1.
          2   -1    0    0  501    0  0.00000000000E+00 -0.00000000000E+00 -0.37266000014E+02  0.37266000014E+02  0.00000000000E+00 0. -1.
         25    1    1    2    0    0  0.11204084738E+03 -0.23746071254E+02  0.32445768786E+03  0.36440337347E+03  0.12000000000E+03 0.  0.
         25    1    1    2    0    0 -0.11204084738E+03  0.23746071254E+02  0.38050909264E+03  0.41509540706E+03  0.12000000000E+03 0.  0.
<mgrwt>
<rscale>  0 0.33262620E+03</rscale>
<asrwt>0</asrwt>
<pdfrwt beam="1">  1        2 0.57332314E-02 0.33262620E+03</pdfrwt>
<pdfrwt beam="2">  1       -2 0.11418965E+00 0.33262620E+03</pdfrwt>
<totfact> 0.82497308E+02</totfact>
</mgrwt>
</event>
<event>
 4    1  0.1762274E-004  0.2689790E+03  0.7818608E-02  0.1101865E+00
          1   -1    0    0  501    0  0.00000000000E+00  0.00000000000E+00  0.23277037061E+03  0.23277037061E+03  0.00000000000E+00 0. -1.
         -1   -1    0    0    0  501 -0.00000000000E+00 -0.00000000000E+00 -0.77705004408E+02  0.77705004408E+02  0.00000000000E+00 0. -1.
         25    1    1    2    0    0  0.16182177614E+02  0.25856980787E+02  0.16925326726E+02  0.12496764786E+03  0.12000000000E+03 0.  0.
         25    1    1    2    0    0 -0.16182177614E+02 -0.25856980787E+02  0.13814003948E+03  0.18550772715E+03  0.12000000000E+03 0.  0.
<mgrwt>
<rscale>  0 0.26897898E+03</rscale>
<asrwt>0</asrwt>
<pdfrwt beam="1">  1        1 0.35810826E-01 0.26897898E+03</pdfrwt>
<pdfrwt beam="2">  1       -1 0.11954616E-01 0.26897898E+03</pdfrwt>
<totfact> 0.55266893E+03</totfact>
</mgrwt>
</event>
<event>
 4    1  0.1762274E-004  0.2409896E+03  0.7818608E-02  0.1119135E+00
         -1   -1    0    0    0  501 -0.00000000000E+00  0.00000000000E+00  0.30396299299E+03  0.30396299299E+03  0.00000000000E+00 0. -1.
          1   -1    0    0  501    0  0.00000000000E+00 -0.00000000000E+00 -0.47765683560E+02  0.47765683560E+02  0.00000000000E+00 0. -1.
         25    1    1    2    0    0 -0.35839993345E+00 -0.10725316743E+02  0.13095844114E+03  0.17794739159E+03  0.12000000000E+03 0.  0.
         25    1    1    2    0    0  0.35839993345E+00  0.10725316743E+02  0.12523886829E+03  0.17378128496E+03  0.12000000000E+03 0.  0.
<mgrwt>
<rscale>  0 0.24098963E+03</rscale>
<asrwt>0</asrwt>
<pdfrwt beam="1">  1        1 0.73485669E-02 0.24098963E+03</pdfrwt>
<pdfrwt beam="2">  1       -1 0.46763536E-01 0.24098963E+03</pdfrwt>
<totfact> 0.44914794E+03</totfact>
</mgrwt>
</event>
<event>
 4    1  0.1762274E-004  0.2694567E+03  0.7818608E-02  0.1101591E+00
         -2   -1    0    0    0  501 -0.00000000000E+00  0.00000000000E+00  0.17940968952E+02  0.17940968952E+02  0.00000000000E+00 0.  1.
          2   -1    0    0  501    0  0.00000000000E+00 -0.00000000000E+00 -0.10117474949E+04  0.10117474949E+04  0.00000000000E+00 0.  1.
         25    1    1    2    0    0  0.19174699656E+02  0.46419013284E+02 -0.63088704172E+03  0.64415902797E+03  0.12000000000E+03 0.  0.
         25    1    1    2    0    0 -0.19174699656E+02 -0.46419013284E+02 -0.36291948423E+03  0.38552943588E+03  0.12000000000E+03 0.  0.
<mgrwt>
<rscale>  0 0.26945672E+03</rscale>
<asrwt>0</asrwt>
<pdfrwt beam="1">  1        2 0.15565343E+00 0.26945672E+03</pdfrwt>
<pdfrwt beam="2">  1       -2 0.27601496E-02 0.26945672E+03</pdfrwt>
<totfact> 0.12344380E+04</totfact>
</mgrwt>
</event>
<event>
 4    1  0.1762274E-004  0.2601713E+03  0.7818608E-02  0.1107040E+00
          2   -1    0    0  501    0  0.00000000000E+00  0.00000000000E+00  0.20543698243E+04  0.20543698243E+04  0.00000000000E+00 0.  1.
         -2   -1    0    0    0  501 -0.00000000000E+00 -0.00000000000E+00 -0.82372087776E+01  0.82372087776E+01  0.00000000000E+00 0.  1.
         25    1    1    2    0    0  0.14890110739E+02 -0.99921997274E+01  0.13949772201E+04  0.14002439087E+04  0.12000000000E+03 0.  0.
         25    1    1    2    0    0 -0.14890110739E+02  0.99921997274E+01  0.65115539543E+03  0.66236312432E+03  0.12000000000E+03 0.  0.
<mgrwt>
<rscale>  0 0.26017128E+03</rscale>
<asrwt>0</asrwt>
<pdfrwt beam="1">  1        2 0.31605649E+00 0.26017128E+03</pdfrwt>
<pdfrwt beam="2">  1       -2 0.12672645E-02 0.26017128E+03</pdfrwt>
<totfact> 0.10490521E+04</totfact>
</mgrwt>
</event>
<event>
 4    1  0.1762274E-004  0.2663520E+03  0.7818608E-02  0.1103386E+00
          1   -1    0    0  501    0  0.00000000000E+00  0.00000000000E+00  0.32067629488E+03  0.32067629488E+03  0.00000000000E+00 0. -1.
         -1   -1    0    0    0  501 -0.00000000000E+00 -0.00000000000E+00 -0.55307628445E+02  0.55307628445E+02  0.00000000000E+00 0. -1.
         25    1    1    2    0    0 -0.90312796278E+01 -0.45061850462E+02  0.18206452393E+03  0.22284439695E+03  0.12000000000E+03 0.  0.
         25    1    1    2    0    0  0.90312796278E+01  0.45061850462E+02  0.83304142503E+02  0.15313952637E+03  0.12000000000E+03 0.  0.
<mgrwt>
<rscale>  0 0.26635199E+03</rscale>
<asrwt>0</asrwt>
<pdfrwt beam="1">  1        1 0.49334814E-01 0.26635199E+03</pdfrwt>
<pdfrwt beam="2">  1       -1 0.85088661E-02 0.26635199E+03</pdfrwt>
<totfact> 0.62496416E+03</totfact>
</mgrwt>
</event>
<event>
 4    1  0.1762274E-004  0.3289406E+03  0.7818608E-02  0.1071607E+00
          1   -1    0    0  501    0  0.00000000000E+00  0.00000000000E+00  0.33582081051E+03  0.33582081051E+03  0.00000000000E+00 0.  1.
         -1   -1    0    0    0  501 -0.00000000000E+00 -0.00000000000E+00 -0.80550330654E+02  0.80550330654E+02  0.00000000000E+00 0.  1.
         25    1    1    2    0    0  0.32551211460E+02  0.94884555880E+01 -0.81111893707E+01  0.12496160830E+03  0.12000000000E+03 0.  0.
         25    1    1    2    0    0 -0.32551211460E+02 -0.94884555880E+01  0.26338166923E+03  0.29140953286E+03  0.12000000000E+03 0.  0.
<mgrwt>
<rscale>  0 0.32894059E+03</rscale>
<asrwt>0</asrwt>
<pdfrwt beam="1">  1        1 0.51664739E-01 0.32894059E+03</pdfrwt>
<pdfrwt beam="2">  1       -1 0.12392359E-01 0.32894059E+03</pdfrwt>
<totfact> 0.33083992E+03</totfact>
</mgrwt>
</event>
<event>
 4    1  0.1762274E-004  0.3559819E+03  0.7818608E-02  0.1060186E+00
          2   -1    0    0  501    0  0.00000000000E+00  0.00000000000E+00  0.59077339226E+03  0.59077339226E+03  0.00000000000E+00 0.  1.
         -2   -1    0    0    0  501 -0.00000000000E+00 -0.00000000000E+00 -0.53625924608E+02  0.53625924608E+02  0.00000000000E+00 0.  1.
         25    1    1    2    0    0  0.77201602168E+02 -0.93060925034E+02  0.17520611184E+03  0.24437185757E+03  0.12000000000E+03 0.  0.
         25    1    1    2    0    0 -0.77201602168E+02  0.93060925034E+02  0.36194135582E+03  0.40002745931E+03  0.12000000000E+03 0.  0.
<mgrwt>
<rscale>  0 0.35598185E+03</rscale>
<asrwt>0</asrwt>
<pdfrwt beam="1">  1        2 0.90888209E-01 0.35598185E+03</pdfrwt>
<pdfrwt beam="2">  1       -2 0.82501427E-02 0.35598185E+03</pdfrwt>
<totfact> 0.46482811E+03</totfact>
</mgrwt>
</event>
<event>
 4    1  0.1762274E-004  0.3639449E+03  0.7818608E-02  0.1057033E+00
          1   -1    0    0  501    0  0.00000000000E+00  0.00000000000E+00  0.57252495767E+03  0.57252495767E+03  0.00000000000E+00 0.  1.
         -1   -1    0    0    0  501 -0.00000000000E+00 -0.00000000000E+00 -0.57838470151E+02  0.57838470151E+02  0.00000000000E+00 0.  1.
         25    1    1    2    0    0 -0.28053428015E+02 -0.12389760627E+03  0.34525730447E+03  0.38696281211E+03  0.12000000000E+03 0.  0.
         25    1    1    2    0    0  0.28053428015E+02  0.12389760627E+03  0.16942918305E+03  0.24340061571E+03  0.12000000000E+03 0.  0.
<mgrwt>
<rscale>  0 0.36394487E+03</rscale>
<asrwt>0</asrwt>
<pdfrwt beam="1">  1        1 0.88080759E-01 0.36394487E+03</pdfrwt>
<pdfrwt beam="2">  1       -1 0.88982266E-02 0.36394487E+03</pdfrwt>
<totfact> 0.27526381E+03</totfact>
</mgrwt>
</event>
<event>
 4    1  0.1762274E-004  0.2971723E+03  0.7818608E-02  0.1086663E+00
         -1   -1    0    0    0  501 -0.00000000000E+00  0.00000000000E+00  0.28794996181E+03  0.28794996181E+03  0.00000000000E+00 0.  1.
          1   -1    0    0  501    0  0.00000000000E+00 -0.00000000000E+00 -0.76672526902E+02  0.76672526902E+02  0.00000000000E+00 0.  1.
         25    1    1    2    0    0 -0.13929935085E+02 -0.82823141091E+02  0.74985613166E+02  0.16454956084E+03  0.12000000000E+03 0.  0.
         25    1    1    2    0    0  0.13929935085E+02  0.82823141091E+02  0.13629182174E+03  0.20007292786E+03  0.12000000000E+03 0.  0.
<mgrwt>
<rscale>  0 0.29717235E+03</rscale>
<asrwt>0</asrwt>
<pdfrwt beam="1">  1        1 0.11795773E-01 0.29717235E+03</pdfrwt>
<pdfrwt beam="2">  1       -1 0.44299994E-01 0.29717235E+03</pdfrwt>
<totfact> 0.26337962E+03</totfact>
</mgrwt>
</event>
<event>
 4    1  0.1762274E-004  0.3255777E+03  0.7818608E-02  0.1073111E+00
         -1   -1    0    0    0  501 -0.00000000000E+00  0.00000000000E+00  0.11069062961E+03  0.11069062961E+03  0.00000000000E+00 0.  1.
          1   -1    0    0  501    0  0.00000000000E+00 -0.00000000000E+00 -0.23940782579E+03  0.23940782579E+03  0.00000000000E+00 0.  1.
         25    1    1    2    0    0 -0.10148812448E+03 -0.32380395828E+02 -0.93844064059E+02  0.18588985395E+03  0.12000000000E+03 0.  0.
         25    1    1    2    0    0  0.10148812448E+03  0.32380395828E+02 -0.34873132128E+02  0.16420860144E+03  0.12000000000E+03 0.  0.
<mgrwt>
<rscale>  0 0.32557766E+03</rscale>
<asrwt>0</asrwt>
<pdfrwt beam="1">  1        1 0.36831973E-01 0.32557766E+03</pdfrwt>
<pdfrwt beam="2">  1       -1 0.17029328E-01 0.32557766E+03</pdfrwt>
<totfact> 0.30604168E+03</totfact>
</mgrwt>
</event>
<event>
 4    1  0.1762274E-004  0.3309546E+03  0.7818608E-02  0.1070715E+00
          2   -1    0    0  501    0  0.00000000000E+00  0.00000000000E+00  0.19990158734E+04  0.19990158734E+04  0.00000000000E+00 0.  1.
         -2   -1    0    0    0  501 -0.00000000000E+00 -0.00000000000E+00 -0.13698111274E+02  0.13698111274E+02  0.00000000000E+00 0.  1.
         25    1    1    2    0    0 -0.93680406820E+02  0.35648693883E+02  0.13221803984E+04  0.13313932003E+04  0.12000000000E+03 0.  0.
         25    1    1    2    0    0  0.93680406820E+02 -0.35648693883E+02  0.66313736375E+03  0.68132078436E+03  0.12000000000E+03 0.  0.
<mgrwt>
<rscale>  0 0.33095463E+03</rscale>
<asrwt>0</asrwt>
<pdfrwt beam="1">  1        2 0.30754067E+00 0.33095463E+03</pdfrwt>
<pdfrwt beam="2">  1       -2 0.21074033E-02 0.33095463E+03</pdfrwt>
<totfact> 0.53227612E+03</totfact>
</mgrwt>
</event>
<event>
 4    1  0.1762274E-004  0.2682146E+03  0.7818608E-02  0.1102306E+00
          4   -1    0    0  501    0  0.00000000000E+00  0.00000000000E+00  0.81147809094E+02  0.81147809094E+02  0.00000000000E+00 0.  1.
         -4   -1    0    0    0  501 -0.00000000000E+00 -0.00000000000E+00 -0.22162975046E+03  0.22162975046E+03  0.00000000000E+00 0.  1.
         25    1    1    2    0    0 -0.32610074640E+02 -0.43369869898E+02 -0.98808257108E+02  0.16464335473E+03  0.12000000000E+03 0.  0.
         25    1    1    2    0    0  0.32610074640E+02  0.43369869898E+02 -0.41673684255E+02  0.13813420482E+03  0.12000000000E+03 0.  0.
<mgrwt>
<rscale>  0 0.26821461E+03</rscale>
<asrwt>0</asrwt>
<pdfrwt beam="1">  1        4 0.12484278E-01 0.26821461E+03</pdfrwt>
<pdfrwt beam="2">  1       -4 0.34096885E-01 0.26821461E+03</pdfrwt>
<totfact> 0.80667390E+02</totfact>
</mgrwt>
</event>
<event>
 4    1  0.1762274E-004  0.3064729E+03  0.7818608E-02  0.1082049E+00
         -3   -1    0    0    0  501 -0.00000000000E+00  0.00000000000E+00  0.20824702648E+03  0.20824702648E+03  0.00000000000E+00 0.  1.
          3   -1    0    0  501    0  0.00000000000E+00 -0.00000000000E+00 -0.11275746454E+03  0.11275746454E+03  0.00000000000E+00 0.  1.
         25    1    1    2    0    0  0.38456461461E+02 -0.75400157849E+02  0.93608234285E+02  0.17414529783E+03  0.12000000000E+03 0.  0.
         25    1    1    2    0    0 -0.38456461461E+02  0.75400157849E+02  0.18813276534E+01  0.14685919319E+03  0.12000000000E+03 0.  0.
<mgrwt>
<rscale>  0 0.30647288E+03</rscale>
<asrwt>0</asrwt>
<pdfrwt beam="1">  1        3 0.17347302E-01 0.30647288E+03</pdfrwt>
<pdfrwt beam="2">  1       -3 0.32038004E-01 0.30647288E+03</pdfrwt>
<totfact> 0.70281846E+02</totfact>
</mgrwt>
</event>
<event>
 4    1  0.1762274E-004  0.4820125E+03  0.7818608E-02  0.1018584E+00
         -1   -1    0    0    0  501 -0.00000000000E+00  0.00000000000E+00  0.17815787018E+02  0.17815787018E+02  0.00000000000E+00 0. -1.
          1   -1    0    0  501    0  0.00000000000E+00 -0.00000000000E+00 -0.32602556522E+04  0.32602556522E+04  0.00000000000E+00 0. -1.
         25    1    1    2    0    0 -0.14300410936E+02  0.20011344032E+03 -0.20197567266E+04  0.20332405479E+04  0.12000000000E+03 0.  0.
         25    1    1    2    0    0  0.14300410936E+02 -0.20011344032E+03 -0.12226831386E+04  0.12448308914E+04  0.12000000000E+03 0.  0.
<mgrwt>
<rscale>  0 0.48201253E+03</rscale>
<asrwt>0</asrwt>
<pdfrwt beam="1">  1        1 0.50157838E+00 0.48201253E+03</pdfrwt>
<pdfrwt beam="2">  1       -1 0.27408871E-02 0.48201253E+03</pdfrwt>
<totfact> 0.19538412E+02</totfact>
</mgrwt>
</event>
<event>
 4    1  0.1762274E-004  0.3123714E+03  0.7818608E-02  0.1079215E+00
          1   -1    0    0  501    0  0.00000000000E+00  0.00000000000E+00  0.47590191341E+02  0.47590191341E+02  0.00000000000E+00 0.  1.
         -1   -1    0    0    0  501 -0.00000000000E+00 -0.00000000000E+00 -0.51258410005E+03  0.51258410005E+03  0.00000000000E+00 0.  1.
         25    1    1    2    0    0 -0.58129537484E+02  0.64862962077E+02 -0.32049147641E+03  0.35313033491E+03  0.12000000000E+03 0.  0.
         25    1    1    2    0    0  0.58129537484E+02 -0.64862962077E+02 -0.14450243229E+03  0.20704395648E+03  0.12000000000E+03 0.  0.
<mgrwt>
<rscale>  0 0.31237142E+03</rscale>
<asrwt>0</asrwt>
<pdfrwt beam="1">  1        1 0.73215680E-02 0.31237142E+03</pdfrwt>
<pdfrwt beam="2">  1       -1 0.78859091E-01 0.31237142E+03</pdfrwt>
<totfact> 0.16530466E+03</totfact>
</mgrwt>
</event>
<event>
 4    1  0.1762274E-004  0.2558979E+03  0.7818608E-02  0.1109633E+00
          2   -1    0    0  501    0  0.00000000000E+00  0.00000000000E+00  0.85810159773E+03  0.85810159773E+03  0.00000000000E+00 0.  1.
         -2   -1    0    0    0  501 -0.00000000000E+00 -0.00000000000E+00 -0.19078086397E+02  0.19078086397E+02  0.00000000000E+00 0.  1.
         25    1    1    2    0    0  0.32662198300E+02  0.25198247285E+02  0.36327353783E+03  0.38479791339E+03  0.12000000000E+03 0.  0.
         25    1    1    2    0    0 -0.32662198300E+02 -0.25198247285E+02  0.47574997350E+03  0.49238177073E+03  0.12000000000E+03 0.  0.
<mgrwt>
<rscale>  0 0.25589792E+03</rscale>
<asrwt>0</asrwt>
<pdfrwt beam="1">  1        2 0.13201560E+00 0.25589792E+03</pdfrwt>
<pdfrwt beam="2">  1       -2 0.29350909E-02 0.25589792E+03</pdfrwt>
<totfact> 0.14070856E+04</totfact>
</mgrwt>
</event>
<event>
 4    1  0.1762274E-004  0.2861501E+03  0.7818608E-02  0.1092377E+00
          1   -1    0    0  501    0  0.00000000000E+00  0.00000000000E+00  0.17272514019E+04  0.17272514019E+04  0.00000000000E+00 0. -1.
         -1   -1    0    0    0  501 -0.00000000000E+00 -0.00000000000E+00 -0.11851470821E+02  0.11851470821E+02  0.00000000000E+00 0. -1.
         25    1    1    2    0    0  0.77586267325E+02 -0.35846113472E+01  0.82023948827E+03  0.83260152320E+03  0.12000000000E+03 0.  0.
         25    1    1    2    0    0 -0.77586267325E+02  0.35846113472E+01  0.89516044285E+03  0.90650134957E+03  0.12000000000E+03 0.  0.
<mgrwt>
<rscale>  0 0.28615010E+03</rscale>
<asrwt>0</asrwt>
<pdfrwt beam="1">  1        1 0.26573079E+00 0.28615010E+03</pdfrwt>
<pdfrwt beam="2">  1       -1 0.18233046E-02 0.28615010E+03</pdfrwt>
<totfact> 0.39843878E+03</totfact>
</mgrwt>
</event>
<event>
 4    1  0.1762274E-004  0.3044932E+03  0.7818608E-02  0.1083016E+00
          1   -1    0    0  501    0  0.00000000000E+00  0.00000000000E+00  0.12988441932E+04  0.12988441932E+04  0.00000000000E+00 0. -1.
         -1   -1    0    0    0  501 -0.00000000000E+00 -0.00000000000E+00 -0.17845886040E+02  0.17845886040E+02  0.00000000000E+00 0. -1.
         25    1    1    2    0    0 -0.18172351307E+02 -0.25667134046E+02  0.25884111594E+03  0.28703268006E+03  0.12000000000E+03 0.  0.
         25    1    1    2    0    0  0.18172351307E+02  0.25667134046E+02  0.10221571912E+04  0.10296573992E+04  0.12000000000E+03 0.  0.
<mgrwt>
<rscale>  0 0.30449319E+03</rscale>
<asrwt>0</asrwt>
<pdfrwt beam="1">  1        1 0.19982211E+00 0.30449319E+03</pdfrwt>
<pdfrwt beam="2">  1       -1 0.27455220E-02 0.30449319E+03</pdfrwt>
<totfact> 0.42118901E+03</totfact>
</mgrwt>
</event>
<event>
 4    1  0.1762274E-004  0.2555354E+03  0.7818608E-02  0.1109856E+00
         -2   -1    0    0    0  501 -0.00000000000E+00  0.00000000000E+00  0.98516728388E+01  0.98516728388E+01  0.00000000000E+00 0.  1.
          2   -1    0    0  501    0  0.00000000000E+00 -0.00000000000E+00 -0.16570373010E+04  0.16570373010E+04  0.00000000000E+00 0.  1.
         25    1    1    2    0    0  0.18292304834E+02 -0.10758404583E+02 -0.10740533466E+04  0.10809444681E+04  0.12000000000E+03 0.  0.
         25    1    1    2    0    0 -0.18292304834E+02  0.10758404583E+02 -0.57313228155E+03  0.58594450576E+03  0.12000000000E+03 0.  0.
<mgrwt>
<rscale>  0 0.25553543E+03</rscale>
<asrwt>0</asrwt>
<pdfrwt beam="1">  1        2 0.25492857E+00 0.25553543E+03</pdfrwt>
<pdfrwt beam="2">  1       -2 0.15156434E-02 0.25553543E+03</pdfrwt>
<totfact> 0.13052367E+04</totfact>
</mgrwt>
</event>
<event>
 4    1  0.1762274E-004  0.3171574E+03  0.7818608E-02  0.1076965E+00
         -2   -1    0    0    0  501 -0.00000000000E+00  0.00000000000E+00  0.67647096599E+02  0.67647096599E+02  0.00000000000E+00 0.  1.
          2   -1    0    0  501    0  0.00000000000E+00 -0.00000000000E+00 -0.37174097600E+03  0.37174097600E+03  0.00000000000E+00 0.  1.
         25    1    1    2    0    0  0.47936527529E+02 -0.63458001653E+01 -0.25005295083E+02  0.13177042397E+03  0.12000000000E+03 0.  0.
         25    1    1    2    0    0 -0.47936527529E+02  0.63458001653E+01 -0.27908858432E+03  0.30761764863E+03  0.12000000000E+03 0.  0.
<mgrwt>
<rscale>  0 0.31715736E+03</rscale>
<asrwt>0</asrwt>
<pdfrwt beam="1">  1        2 0.57190919E-01 0.31715736E+03</pdfrwt>
<pdfrwt beam="2">  1       -2 0.10407246E-01 0.31715736E+03</pdfrwt>
<totfact> 0.53853484E+03</totfact>
</mgrwt>
</event>
<event>
 4    1  0.1762274E-004  0.2948402E+03  0.7818608E-02  0.1087849E+00
         -2   -1    0    0    0  501 -0.00000000000E+00  0.00000000000E+00  0.26633017265E+02  0.26633017265E+02  0.00000000000E+00 0. -1.
          2   -1    0    0  501    0  0.00000000000E+00 -0.00000000000E+00 -0.81600512382E+03  0.81600512382E+03  0.00000000000E+00 0. -1.
         25    1    1    2    0    0  0.54265574726E+02  0.22499333967E+02 -0.21662628481E+03  0.25451506812E+03  0.12000000000E+03 0.  0.
         25    1    1    2    0    0 -0.54265574726E+02 -0.22499333967E+02 -0.57274582174E+03  0.58812307296E+03  0.12000000000E+03 0.  0.
<mgrwt>
<rscale>  0 0.29484015E+03</rscale>
<asrwt>0</asrwt>
<pdfrwt beam="1">  1        2 0.12553925E+00 0.29484015E+03</pdfrwt>
<pdfrwt beam="2">  1       -2 0.40973874E-02 0.29484015E+03</pdfrwt>
<totfact> 0.91617710E+03</totfact>
</mgrwt>
</event>
<event>
 4    1  0.1762274E-004  0.6004381E+03  0.7818608E-02  0.9904498E-01
         -1   -1    0    0    0  501 -0.00000000000E+00  0.00000000000E+00  0.34383962059E+02  0.34383962059E+02  0.00000000000E+00 0. -1.
          1   -1    0    0  501    0  0.00000000000E+00 -0.00000000000E+00 -0.26213232141E+04  0.26213232141E+04  0.00000000000E+00 0. -1.
         25    1    1    2    0    0 -0.16122035952E+03 -0.10588965256E+03 -0.21616175378E+04  0.21735213371E+04  0.12000000000E+03 0.  0.
         25    1    1    2    0    0  0.16122035952E+03  0.10588965256E+03 -0.42532171422E+03  0.48218583910E+03  0.12000000000E+03 0.  0.
<mgrwt>
<rscale>  0 0.60043810E+03</rscale>
<asrwt>0</asrwt>
<pdfrwt beam="1">  1        1 0.40328043E+00 0.60043810E+03</pdfrwt>
<pdfrwt beam="2">  1       -1 0.52898412E-02 0.60043810E+03</pdfrwt>
<totfact> 0.20168978E+02</totfact>
</mgrwt>
</event>
<event>
 4    1  0.1762274E-004  0.3347112E+03  0.7818608E-02  0.1069071E+00
          1   -1    0    0  501    0  0.00000000000E+00  0.00000000000E+00  0.34972264808E+03  0.34972264808E+03  0.00000000000E+00 0.  1.
         -1   -1    0    0    0  501 -0.00000000000E+00 -0.00000000000E+00 -0.80086016559E+02  0.80086016559E+02  0.00000000000E+00 0.  1.
         25    1    1    2    0    0 -0.18822825254E+02  0.25896820898E+02 -0.92260167904E+01  0.12453940529E+03  0.12000000000E+03 0.  0.
         25    1    1    2    0    0  0.18822825254E+02 -0.25896820898E+02  0.27886264831E+03  0.30526925935E+03  0.12000000000E+03 0.  0.
<mgrwt>
<rscale>  0 0.33471118E+03</rscale>
<asrwt>0</asrwt>
<pdfrwt beam="1">  1        1 0.53803484E-01 0.33471118E+03</pdfrwt>
<pdfrwt beam="2">  1       -1 0.12320926E-01 0.33471118E+03</pdfrwt>
<totfact> 0.31714723E+03</totfact>
</mgrwt>
</event>
<event>
 4    1  0.1762274E-004  0.2858516E+03  0.7818608E-02  0.1092535E+00
          1   -1    0    0  501    0  0.00000000000E+00  0.00000000000E+00  0.35069971357E+03  0.35069971357E+03  0.00000000000E+00 0. -1.
         -1   -1    0    0    0  501 -0.00000000000E+00 -0.00000000000E+00 -0.58248645854E+02  0.58248645854E+02  0.00000000000E+00 0. -1.
         25    1    1    2    0    0 -0.32880246002E+02 -0.24559082482E+02  0.51939149839E+02  0.13704719769E+03  0.12000000000E+03 0.  0.
         25    1    1    2    0    0  0.32880246002E+02  0.24559082482E+02  0.24051191787E+03  0.27190116173E+03  0.12000000000E+03 0.  0.
<mgrwt>
<rscale>  0 0.28585159E+03</rscale>
<asrwt>0</asrwt>
<pdfrwt beam="1">  1        1 0.53953801E-01 0.28585159E+03</pdfrwt>
<pdfrwt beam="2">  1       -1 0.89613304E-02 0.28585159E+03</pdfrwt>
<totfact> 0.51659150E+03</totfact>
</mgrwt>
</event>
<event>
 4    1  0.1762274E-004  0.2789924E+03  0.7818608E-02  0.1096241E+00
          2   -1    0    0  501    0  0.00000000000E+00  0.00000000000E+00  0.19635921567E+04  0.19635921567E+04  0.00000000000E+00 0.  1.
         -2   -1    0    0    0  501 -0.00000000000E+00 -0.00000000000E+00 -0.99099939395E+01  0.99099939395E+01  0.00000000000E+00 0.  1.
         25    1    1    2    0    0 -0.36668525497E+02  0.57661049522E+02  0.83718135449E+03  0.84849395855E+03  0.12000000000E+03 0.  0.
         25    1    1    2    0    0  0.36668525497E+02 -0.57661049522E+02  0.11165008082E+04  0.11250081921E+04  0.12000000000E+03 0.  0.
<mgrwt>
<rscale>  0 0.27899238E+03</rscale>
<asrwt>0</asrwt>
<pdfrwt beam="1">  1        2 0.30209079E+00 0.27899238E+03</pdfrwt>
<pdfrwt beam="2">  1       -2 0.15246160E-02 0.27899238E+03</pdfrwt>
<totfact> 0.89463098E+03</totfact>
</mgrwt>
</event>
<event>
 4    1  0.1762274E-004  0.2491247E+03  0.7818608E-02  0.1113859E+00
         -2   -1    0    0    0  501 -0.00000000000E+00  0.00000000000E+00  0.53358108839E+01  0.53358108839E+01  0.00000000000E+00 0. -1.
          2   -1    0    0  501    0  0.00000000000E+00 -0.00000000000E+00 -0.29078566351E+04  0.29078566351E+04  0.00000000000E+00 0. -1.
         25    1    1    2    0    0 -0.99544868097E+01  0.25475942527E+02 -0.16754803665E+04  0.16799948137E+04  0.12000000000E+03 0.  0.
         25    1    1    2    0    0  0.99544868097E+01 -0.25475942527E+02 -0.12270404577E+04  0.12331976323E+04  0.12000000000E+03 0.  0.
<mgrwt>
<rscale>  0 0.24912465E+03</rscale>
<asrwt>0</asrwt>
<pdfrwt beam="1">  1        2 0.44736152E+00 0.24912465E+03</pdfrwt>
<pdfrwt beam="2">  1       -2 0.82089588E-03 0.24912465E+03</pdfrwt>
<totfact> 0.67071842E+03</totfact>
</mgrwt>
</event>
<event>
 4    1  0.1762274E-004  0.2864518E+03  0.7818608E-02  0.1092216E+00
          2   -1    0    0  501    0  0.00000000000E+00  0.00000000000E+00  0.22280078471E+03  0.22280078471E+03  0.00000000000E+00 0.  1.
         -2   -1    0    0    0  501 -0.00000000000E+00 -0.00000000000E+00 -0.92071734951E+02  0.92071734951E+02  0.00000000000E+00 0.  1.
         25    1    1    2    0    0  0.69402164844E+02  0.35965956000E+02  0.67404547627E+02  0.15828323827E+03  0.12000000000E+03 0.  0.
         25    1    1    2    0    0 -0.69402164844E+02 -0.35965956000E+02  0.63324502131E+02  0.15658928139E+03  0.12000000000E+03 0.  0.
<mgrwt>
<rscale>  0 0.28645177E+03</rscale>
<asrwt>0</asrwt>
<pdfrwt beam="1">  1        2 0.34277044E-01 0.28645177E+03</pdfrwt>
<pdfrwt beam="2">  1       -2 0.14164882E-01 0.28645177E+03</pdfrwt>
<totfact> 0.56690218E+03</totfact>
</mgrwt>
</event>
<event>
 4    1  0.1762274E-004  0.3023779E+03  0.7818608E-02  0.1084058E+00
         -1   -1    0    0    0  501 -0.00000000000E+00  0.00000000000E+00  0.18901066154E+02  0.18901066154E+02  0.00000000000E+00 0.  1.
          1   -1    0    0  501    0  0.00000000000E+00 -0.00000000000E+00 -0.12093549651E+04  0.12093549651E+04  0.00000000000E+00 0.  1.
         25    1    1    2    0    0  0.91437692275E+02 -0.67076160417E+01 -0.62458997380E+03  0.64258733185E+03  0.12000000000E+03 0.  0.
         25    1    1    2    0    0 -0.91437692275E+02  0.67076160417E+01 -0.56586392516E+03  0.58566869942E+03  0.12000000000E+03 0.  0.
<mgrwt>
<rscale>  0 0.30237790E+03</rscale>
<asrwt>0</asrwt>
<pdfrwt beam="1">  1        1 0.18605465E+00 0.30237790E+03</pdfrwt>
<pdfrwt beam="2">  1       -1 0.29078557E-02 0.30237790E+03</pdfrwt>
<totfact> 0.44629792E+03</totfact>
</mgrwt>
</event>
<event>
 4    1  0.1762274E-004  0.3261605E+03  0.7818608E-02  0.1072848E+00
         -2   -1    0    0    0  501 -0.00000000000E+00  0.00000000000E+00  0.13040523622E+02  0.13040523622E+02  0.00000000000E+00 0.  1.
          2   -1    0    0  501    0  0.00000000000E+00 -0.00000000000E+00 -0.20394253085E+04  0.20394253085E+04  0.00000000000E+00 0.  1.
         25    1    1    2    0    0  0.76217205250E+00  0.11023602692E+03 -0.97211458100E+03  0.98567708766E+03  0.12000000000E+03 0.  0.
         25    1    1    2    0    0 -0.76217205250E+00 -0.11023602692E+03 -0.10542702039E+04  0.10667887445E+04  0.12000000000E+03 0.  0.
<mgrwt>
<rscale>  0 0.32616054E+03</rscale>
<asrwt>0</asrwt>
<pdfrwt beam="1">  1        2 0.31375753E+00 0.32616054E+03</pdfrwt>
<pdfrwt beam="2">  1       -2 0.20062357E-02 0.32616054E+03</pdfrwt>
<totfact> 0.54497152E+03</totfact>
</mgrwt>
</event>
<event>
 4    1  0.1762274E-004  0.2525582E+03  0.7818608E-02  0.1111699E+00
          3   -1    0    0  501    0  0.00000000000E+00  0.00000000000E+00  0.48013721480E+03  0.48013721480E+03  0.00000000000E+00 0.  1.
         -3   -1    0    0    0  501 -0.00000000000E+00 -0.00000000000E+00 -0.33212196014E+02  0.33212196014E+02  0.00000000000E+00 0.  1.
         25    1    1    2    0    0  0.78681653302E+01 -0.36257914500E+02  0.19697104446E+03  0.23361108010E+03  0.12000000000E+03 0.  0.
         25    1    1    2    0    0 -0.78681653302E+01  0.36257914500E+02  0.24995397432E+03  0.27973833071E+03  0.12000000000E+03 0.  0.
<mgrwt>
<rscale>  0 0.25255820E+03</rscale>
<asrwt>0</asrwt>
<pdfrwt beam="1">  1        3 0.73867259E-01 0.25255820E+03</pdfrwt>
<pdfrwt beam="2">  1       -3 0.51095690E-02 0.25255820E+03</pdfrwt>
<totfact> 0.98444293E+02</totfact>
</mgrwt>
</event>
<event>
 4    1  0.1762274E-004  0.2424053E+03  0.7818608E-02  0.1118201E+00
          1   -1    0    0  501    0  0.00000000000E+00  0.00000000000E+00  0.19304654753E+04  0.19304654753E+04  0.00000000000E+00 0.  1.
         -1   -1    0    0    0  501 -0.00000000000E+00 -0.00000000000E+00 -0.76096084709E+01  0.76096084709E+01  0.00000000000E+00 0.  1.
         25    1    1    2    0    0 -0.16317859352E+02 -0.48778569874E+01  0.96257017664E+03  0.97017081536E+03  0.12000000000E+03 0.  0.
         25    1    1    2    0    0  0.16317859352E+02  0.48778569874E+01  0.96028569016E+03  0.96790426838E+03  0.12000000000E+03 0.  0.
<mgrwt>
<rscale>  0 0.24240533E+03</rscale>
<asrwt>0</asrwt>
<pdfrwt beam="1">  1        1 0.29699430E+00 0.24240533E+03</pdfrwt>
<pdfrwt beam="2">  1       -1 0.11707105E-02 0.24240533E+03</pdfrwt>
<totfact> 0.55947926E+03</totfact>
</mgrwt>
</event>
<event>
 4    1  0.1762274E-004  0.3185395E+03  0.7818608E-02  0.1076323E+00
          2   -1    0    0  501    0  0.00000000000E+00  0.00000000000E+00  0.85770393674E+02  0.85770393674E+02  0.00000000000E+00 0. -1.
         -2   -1    0    0    0  501 -0.00000000000E+00 -0.00000000000E+00 -0.29575295672E+03  0.29575295672E+03  0.00000000000E+00 0. -1.
         25    1    1    2    0    0  0.10196598616E+03  0.13143536651E+02 -0.12885680604E+03  0.20389676641E+03  0.12000000000E+03 0.  0.
         25    1    1    2    0    0 -0.10196598616E+03 -0.13143536651E+02 -0.81125757012E+02  0.17762658399E+03  0.12000000000E+03 0.  0.
<mgrwt>
<rscale>  0 0.31853946E+03</rscale>
<asrwt>0</asrwt>
<pdfrwt beam="1">  1        2 0.13195445E-01 0.31853946E+03</pdfrwt>
<pdfrwt beam="2">  1       -2 0.45500455E-01 0.31853946E+03</pdfrwt>
<totfact> 0.21134053E+03</totfact>
</mgrwt>
</event>
<event>
 4    1  0.1762274E-004  0.2924407E+03  0.7818608E-02  0.1089082E+00
          2   -1    0    0  501    0  0.00000000000E+00  0.00000000000E+00  0.41916946819E+03  0.41916946819E+03  0.00000000000E+00 0.  1.
         -2   -1    0    0    0  501 -0.00000000000E+00 -0.00000000000E+00 -0.51006551119E+02  0.51006551119E+02  0.00000000000E+00 0.  1.
         25    1    1    2    0    0 -0.42429465145E+02 -0.51831732097E+02  0.26436678088E+03  0.29795399443E+03  0.12000000000E+03 0.  0.
         25    1    1    2    0    0  0.42429465145E+02  0.51831732097E+02  0.10379613619E+03  0.17222202488E+03  0.12000000000E+03 0.  0.
<mgrwt>
<rscale>  0 0.29244069E+03</rscale>
<asrwt>0</asrwt>
<pdfrwt beam="1">  1        2 0.64487608E-01 0.29244069E+03</pdfrwt>
<pdfrwt beam="2">  1       -2 0.78471620E-02 0.29244069E+03</pdfrwt>
<totfact> 0.73649397E+03</totfact>
</mgrwt>
</event>
<event>
 4    1  0.1762274E-004  0.3663976E+03  0.7818608E-02  0.1056079E+00
         -2   -1    0    0    0  501 -0.00000000000E+00  0.00000000000E+00  0.16412457760E+02  0.16412457760E+02  0.00000000000E+00 0.  1.
          2   -1    0    0  501    0  0.00000000000E+00 -0.00000000000E+00 -0.20448976027E+04  0.20448976027E+04  0.00000000000E+00 0.  1.
         25    1    1    2    0    0 -0.44632024963E+02  0.11853249306E+02 -0.17483994234E+04  0.17531209487E+04  0.12000000000E+03 0.  0.
         25    1    1    2    0    0  0.44632024963E+02 -0.11853249306E+02 -0.28008572154E+03  0.30818911172E+03  0.12000000000E+03 0.  0.
<mgrwt>
<rscale>  0 0.36639757E+03</rscale>
<asrwt>0</asrwt>
<pdfrwt beam="1">  1        2 0.31459965E+00 0.36639757E+03</pdfrwt>
<pdfrwt beam="2">  1       -2 0.25249933E-02 0.36639757E+03</pdfrwt>
<totfact> 0.38427358E+03</totfact>
</mgrwt>
</event>
<event>
 4    1  0.1762274E-004  0.2970421E+03  0.7818608E-02  0.1086729E+00
         -1   -1    0    0    0  501 -0.00000000000E+00  0.00000000000E+00  0.39855695256E+02  0.39855695256E+02  0.00000000000E+00 0. -1.
          1   -1    0    0  501    0  0.00000000000E+00 -0.00000000000E+00 -0.55345910495E+03  0.55345910495E+03  0.00000000000E+00 0. -1.
         25    1    1    2    0    0  0.19216347686E+02  0.53667052110E+02 -0.38943148850E+03  0.41146847356E+03  0.12000000000E+03 0.  0.
         25    1    1    2    0    0 -0.19216347686E+02 -0.53667052110E+02 -0.12417192119E+03  0.18184632664E+03  0.12000000000E+03 0.  0.
<mgrwt>
<rscale>  0 0.29704207E+03</rscale>
<asrwt>0</asrwt>
<pdfrwt beam="1">  1        1 0.85147549E-01 0.29704207E+03</pdfrwt>
<pdfrwt beam="2">  1       -1 0.61316458E-02 0.29704207E+03</pdfrwt>
<totfact> 0.50802279E+03</totfact>
</mgrwt>
</event>
<event>
 4    1  0.1762274E-004  0.2565686E+03  0.7818608E-02  0.1109223E+00
         -2   -1    0    0    0  501 -0.00000000000E+00  0.00000000000E+00  0.99822216850E+02  0.99822216850E+02  0.00000000000E+00 0. -1.
          2   -1    0    0  501    0  0.00000000000E+00 -0.00000000000E+00 -0.16486165305E+03  0.16486165305E+03  0.00000000000E+00 0. -1.
         25    1    1    2    0    0 -0.72480968811E+01 -0.42858487331E+02 -0.45870098633E+02  0.13562245682E+03  0.12000000000E+03 0.  0.
         25    1    1    2    0    0  0.72480968811E+01  0.42858487331E+02 -0.19169337570E+02  0.12906141309E+03  0.12000000000E+03 0.  0.
<mgrwt>
<rscale>  0 0.25656855E+03</rscale>
<asrwt>0</asrwt>
<pdfrwt beam="1">  1        2 0.25363331E-01 0.25656855E+03</pdfrwt>
<pdfrwt beam="2">  1       -2 0.15357264E-01 0.25656855E+03</pdfrwt>
<totfact> 0.68817212E+03</totfact>
</mgrwt>
</event>
<event>
 4    1  0.1762274E-004  0.2815206E+03  0.7818608E-02  0.1094861E+00
         -1   -1    0    0    0  501 -0.00000000000E+00  0.00000000000E+00  0.24044177733E+03  0.24044177733E+03  0.00000000000E+00 0. -1.
          1   -1    0    0  501    0  0.00000000000E+00 -0.00000000000E+00 -0.82404396331E+02  0.82404396331E+02  0.00000000000E+00 0. -1.
         25    1    1    2    0    0 -0.26068721938E+02 -0.43321244394E+02  0.17719873767E+02  0.13141652257E+03  0.12000000000E+03 0.  0.
         25    1    1    2    0    0  0.26068721938E+02  0.43321244394E+02  0.14031750723E+03  0.19142965108E+03  0.12000000000E+03 0.  0.
<mgrwt>
<rscale>  0 0.28152058E+03</rscale>
<asrwt>0</asrwt>
<pdfrwt beam="1">  1        1 0.12677600E-01 0.28152058E+03</pdfrwt>
<pdfrwt beam="2">  1       -1 0.36991042E-01 0.28152058E+03</pdfrwt>
<totfact> 0.32953579E+03</totfact>
</mgrwt>
</event>
<event>
 4    1  0.1762274E-004  0.2665328E+03  0.7818608E-02  0.1103281E+00
         -1   -1    0    0    0  501 -0.00000000000E+00  0.00000000000E+00  0.63567696147E+02  0.63567696147E+02  0.00000000000E+00 0.  1.
          1   -1    0    0  501    0  0.00000000000E+00 -0.00000000000E+00 -0.27938618774E+03  0.27938618774E+03  0.00000000000E+00 0.  1.
         25    1    1    2    0    0  0.39497813023E+02  0.15675836407E+02 -0.15863497631E+03  0.20339829102E+03  0.12000000000E+03 0.  0.
         25    1    1    2    0    0 -0.39497813023E+02 -0.15675836407E+02 -0.57183515282E+02  0.13955559287E+03  0.12000000000E+03 0.  0.
<mgrwt>
<rscale>  0 0.26653282E+03</rscale>
<asrwt>0</asrwt>
<pdfrwt beam="1">  1        1 0.42982490E-01 0.26653282E+03</pdfrwt>
<pdfrwt beam="2">  1       -1 0.97796455E-02 0.26653282E+03</pdfrwt>
<totfact> 0.60006604E+03</totfact>
</mgrwt>
</event>
<event>
 4    1  0.1762274E-004  0.3213813E+03  0.7818608E-02  0.1075015E+00
          1   -1    0    0  501    0  0.00000000000E+00  0.00000000000E+00  0.72093933588E+03  0.72093933588E+03  0.00000000000E+00 0.  1.
         -1   -1    0    0    0  501 -0.00000000000E+00 -0.00000000000E+00 -0.35816441231E+02  0.35816441231E+02  0.00000000000E+00 0.  1.
         25    1    1    2    0    0  0.75979749631E+01 -0.10606594270E+03  0.36767713673E+03  0.40111618055E+03  0.12000000000E+03 0.  0.
         25    1    1    2    0    0 -0.75979749631E+01  0.10606594270E+03  0.31744575792E+03  0.35563959657E+03  0.12000000000E+03 0.  0.
<mgrwt>
<rscale>  0 0.32138128E+03</rscale>
<asrwt>0</asrwt>
<pdfrwt beam="1">  1        1 0.11091373E+00 0.32138128E+03</pdfrwt>
<pdfrwt beam="2">  1       -1 0.55102223E-02 0.32138128E+03</pdfrwt>
<totfact> 0.41094173E+03</totfact>
</mgrwt>
</event>
<event>
 4    1  0.1762274E-004  0.2886286E+03  0.7818608E-02  0.1091067E+00
         -1   -1    0    0    0  501 -0.00000000000E+00  0.00000000000E+00  0.48394301672E+02  0.48394301672E+02  0.00000000000E+00 0.  1.
          1   -1    0    0  501    0  0.00000000000E+00 -0.00000000000E+00 -0.43035277395E+03  0.43035277395E+03  0.00000000000E+00 0.  1.
         25    1    1    2    0    0 -0.79920376443E+02 -0.59041406952E+01 -0.18746197200E+03  0.23656736122E+03  0.12000000000E+03 0.  0.
         25    1    1    2    0    0  0.79920376443E+02  0.59041406952E+01 -0.19449650028E+03  0.24217971440E+03  0.12000000000E+03 0.  0.
<mgrwt>
<rscale>  0 0.28862863E+03</rscale>
<asrwt>0</asrwt>
<pdfrwt beam="1">  1        1 0.66208121E-01 0.28862863E+03</pdfrwt>
<pdfrwt beam="2">  1       -1 0.74452770E-02 0.28862863E+03</pdfrwt>
<totfact> 0.52788672E+03</totfact>
</mgrwt>
</event>
<event>
 4    1  0.1762274E-004  0.2578439E+03  0.7818608E-02  0.1108446E+00
         -1   -1    0    0    0  501 -0.00000000000E+00  0.00000000000E+00  0.61190765777E+01  0.61190765777E+01  0.00000000000E+00 0.  1.
          1   -1    0    0  501    0  0.00000000000E+00 -0.00000000000E+00 -0.27162389501E+04  0.27162389501E+04  0.00000000000E+00 0.  1.
         25    1    1    2    0    0 -0.22516818472E+01  0.13897107902E+02 -0.88021554893E+03  0.88846925228E+03  0.12000000000E+03 0.  0.
         25    1    1    2    0    0  0.22516818472E+01 -0.13897107902E+02 -0.18299043246E+04  0.18338887744E+04  0.12000000000E+03 0.  0.
<mgrwt>
<rscale>  0 0.25784394E+03</rscale>
<asrwt>0</asrwt>
<pdfrwt beam="1">  1        1 0.41788218E+00 0.25784394E+03</pdfrwt>
<pdfrwt beam="2">  1       -1 0.94139805E-03 0.25784394E+03</pdfrwt>
<totfact> 0.23326113E+03</totfact>
</mgrwt>
</event>
<event>
 4    1  0.1762274E-004  0.2789161E+03  0.7818608E-02  0.1096282E+00
          2   -1    0    0  501    0  0.00000000000E+00  0.00000000000E+00  0.16236368666E+04  0.16236368666E+04  0.00000000000E+00 0.  1.
         -2   -1    0    0    0  501 -0.00000000000E+00 -0.00000000000E+00 -0.11978384977E+02  0.11978384977E+02  0.00000000000E+00 0.  1.
         25    1    1    2    0    0 -0.30142303508E+02 -0.63434539141E+02  0.86900156284E+03  0.88005466616E+03  0.12000000000E+03 0.  0.
         25    1    1    2    0    0  0.30142303508E+02  0.63434539141E+02  0.74265691880E+03  0.75556058544E+03  0.12000000000E+03 0.  0.
<mgrwt>
<rscale>  0 0.27891610E+03</rscale>
<asrwt>0</asrwt>
<pdfrwt beam="1">  1        2 0.24979011E+00 0.27891610E+03</pdfrwt>
<pdfrwt beam="2">  1       -2 0.18428297E-02 0.27891610E+03</pdfrwt>
<totfact> 0.10227663E+04</totfact>
</mgrwt>
</event>
<event>
 4    1  0.1762274E-004  0.2835648E+03  0.7818608E-02  0.1093758E+00
         -2   -1    0    0    0  501 -0.00000000000E+00  0.00000000000E+00  0.10814677569E+02  0.10814677569E+02  0.00000000000E+00 0.  1.
          2   -1    0    0  501    0  0.00000000000E+00 -0.00000000000E+00 -0.18587929448E+04  0.18587929448E+04  0.00000000000E+00 0.  1.
         25    1    1    2    0    0  0.41622041344E+02 -0.11370182847E+02 -0.13325869833E+04  0.13386746220E+04  0.12000000000E+03 0.  0.
         25    1    1    2    0    0 -0.41622041344E+02  0.11370182847E+02 -0.51539128390E+03  0.53093300039E+03  0.12000000000E+03 0.  0.
<mgrwt>
<rscale>  0 0.28356478E+03</rscale>
<asrwt>0</asrwt>
<pdfrwt beam="1">  1        2 0.28596810E+00 0.28356478E+03</pdfrwt>
<pdfrwt beam="2">  1       -2 0.16637968E-02 0.28356478E+03</pdfrwt>
<totfact> 0.89370099E+03</totfact>
</mgrwt>
</event>
<event>
 4    1  0.1762274E-004  0.5019649E+03  0.7818608E-02  0.1013267E+00
          1   -1    0    0  501    0  0.00000000000E+00  0.00000000000E+00  0.32893147372E+03  0.32893147372E+03  0.00000000000E+00 0.  1.
         -1   -1    0    0    0  501 -0.00000000000E+00 -0.00000000000E+00 -0.19150551326E+03  0.19150551326E+03  0.00000000000E+00 0.  1.
         25    1    1    2    0    0 -0.20246796214E+03  0.20367608952E+02 -0.19165036415E+02  0.23701353085E+03  0.12000000000E+03 0.  0.
         25    1    1    2    0    0  0.20246796214E+03 -0.20367608952E+02  0.15659099687E+03  0.28342345613E+03  0.12000000000E+03 0.  0.
<mgrwt>
<rscale>  0 0.50196490E+03</rscale>
<asrwt>0</asrwt>
<pdfrwt beam="1">  1        1 0.50604842E-01 0.50196490E+03</pdfrwt>
<pdfrwt beam="2">  1       -1 0.29462387E-01 0.50196490E+03</pdfrwt>
<totfact> 0.82279641E+02</totfact>
</mgrwt>
</event>
<event>
 4    1  0.1762274E-004  0.4935778E+03  0.7818608E-02  0.1015469E+00
          1   -1    0    0  501    0  0.00000000000E+00  0.00000000000E+00  0.53982725320E+03  0.53982725320E+03  0.00000000000E+00 0. -1.
         -1   -1    0    0    0  501 -0.00000000000E+00 -0.00000000000E+00 -0.11282268189E+03  0.11282268189E+03  0.00000000000E+00 0. -1.
         25    1    1    2    0    0 -0.17308982174E+03  0.10382760820E+03  0.11310880604E+03  0.26064124888E+03  0.12000000000E+03 0.  0.
         25    1    1    2    0    0  0.17308982174E+03 -0.10382760820E+03  0.31389576527E+03  0.39200868621E+03  0.12000000000E+03 0.  0.
<mgrwt>
<rscale>  0 0.49357779E+03</rscale>
<asrwt>0</asrwt>
<pdfrwt beam="1">  1        1 0.83050345E-01 0.49357779E+03</pdfrwt>
<pdfrwt beam="2">  1       -1 0.17357336E-01 0.49357779E+03</pdfrwt>
<totfact> 0.10352568E+03</totfact>
</mgrwt>
</event>
<event>
 4    1  0.1762274E-004  0.2846001E+03  0.7818608E-02  0.1093203E+00
         -2   -1    0    0    0  501 -0.00000000000E+00  0.00000000000E+00  0.17596979637E+03  0.17596979637E+03  0.00000000000E+00 0. -1.
          2   -1    0    0  501    0  0.00000000000E+00 -0.00000000000E+00 -0.11507259488E+03  0.11507259488E+03  0.00000000000E+00 0. -1.
         25    1    1    2    0    0  0.74652958121E+01  0.27519288470E+02  0.10302163356E+03  0.16070625022E+03  0.12000000000E+03 0.  0.
         25    1    1    2    0    0 -0.74652958121E+01 -0.27519288470E+02 -0.42124432072E+02  0.13033614102E+03  0.12000000000E+03 0.  0.
<mgrwt>
<rscale>  0 0.28460008E+03</rscale>
<asrwt>0</asrwt>
<pdfrwt beam="1">  1        2 0.17703476E-01 0.28460008E+03</pdfrwt>
<pdfrwt beam="2">  1       -2 0.27072276E-01 0.28460008E+03</pdfrwt>
<totfact> 0.39298264E+03</totfact>
</mgrwt>
</event>
<event>
 4    1  0.1762274E-004  0.2959193E+03  0.7818608E-02  0.1087298E+00
          1   -1    0    0  501    0  0.00000000000E+00  0.00000000000E+00  0.12684063331E+04  0.12684063331E+04  0.00000000000E+00 0. -1.
         -1   -1    0    0    0  501 -0.00000000000E+00 -0.00000000000E+00 -0.17259504234E+02  0.17259504234E+02  0.00000000000E+00 0. -1.
         25    1    1    2    0    0 -0.62300019487E+02 -0.55085436821E+02  0.52126863982E+03  0.54132863645E+03  0.12000000000E+03 0.  0.
         25    1    1    2    0    0  0.62300019487E+02  0.55085436821E+02  0.72987818903E+03  0.74433720087E+03  0.12000000000E+03 0.  0.
<mgrwt>
<rscale>  0 0.29591934E+03</rscale>
<asrwt>0</asrwt>
<pdfrwt beam="1">  1        1 0.19513936E+00 0.29591934E+03</pdfrwt>
<pdfrwt beam="2">  1       -1 0.26553093E-02 0.29591934E+03</pdfrwt>
<totfact> 0.46423406E+03</totfact>
</mgrwt>
</event>
<event>
 4    1  0.1762274E-004  0.3011880E+03  0.7818608E-02  0.1084648E+00
         -2   -1    0    0    0  501 -0.00000000000E+00  0.00000000000E+00  0.15886754561E+03  0.15886754561E+03  0.00000000000E+00 0. -1.
          2   -1    0    0  501    0  0.00000000000E+00 -0.00000000000E+00 -0.14275130197E+03  0.14275130197E+03  0.00000000000E+00 0. -1.
         25    1    1    2    0    0  0.22079841096E+02  0.81064326361E+02  0.43030919291E+02  0.15267810716E+03  0.12000000000E+03 0.  0.
         25    1    1    2    0    0 -0.22079841096E+02 -0.81064326361E+02 -0.26914675651E+02  0.14894074042E+03  0.12000000000E+03 0.  0.
<mgrwt>
<rscale>  0 0.30118797E+03</rscale>
<asrwt>0</asrwt>
<pdfrwt beam="1">  1        2 0.21961739E-01 0.30118797E+03</pdfrwt>
<pdfrwt beam="2">  1       -2 0.24441161E-01 0.30118797E+03</pdfrwt>
<totfact> 0.36834286E+03</totfact>
</mgrwt>
</event>
<event>
 4    1  0.1762274E-004  0.2426215E+03  0.7818608E-02  0.1118059E+00
          2   -1    0    0  501    0  0.00000000000E+00  0.00000000000E+00  0.15252051060E+03  0.15252051060E+03  0.00000000000E+00 0. -1.
         -2   -1    0    0    0  501 -0.00000000000E+00 -0.00000000000E+00 -0.96487302366E+02  0.96487302366E+02  0.00000000000E+00 0. -1.
         25    1    1    2    0    0  0.40818644393E+01 -0.70610121893E+01  0.44236819401E+02  0.12815387509E+03  0.12000000000E+03 0.  0.
         25    1    1    2    0    0 -0.40818644393E+01  0.70610121893E+01  0.11796388833E+02  0.12085393788E+03  0.12000000000E+03 0.  0.
<mgrwt>
<rscale>  0 0.24262146E+03</rscale>
<asrwt>0</asrwt>
<pdfrwt beam="1">  1        2 0.23464694E-01 0.24262146E+03</pdfrwt>
<pdfrwt beam="2">  1       -2 0.14844200E-01 0.24262146E+03</pdfrwt>
<totfact> 0.79209719E+03</totfact>
</mgrwt>
</event>
<event>
 4    1  0.1762274E-004  0.3375119E+03  0.7818608E-02  0.1067861E+00
          2   -1    0    0  501    0  0.00000000000E+00  0.00000000000E+00  0.18904121267E+03  0.18904121267E+03  0.00000000000E+00 0. -1.
         -2   -1    0    0    0  501 -0.00000000000E+00 -0.00000000000E+00 -0.15064737821E+03  0.15064737821E+03  0.00000000000E+00 0. -1.
         25    1    1    2    0    0 -0.10147494502E+03 -0.71152428061E+00 -0.42688608321E+02  0.16284958709E+03  0.12000000000E+03 0.  0.
         25    1    1    2    0    0  0.10147494502E+03  0.71152428061E+00  0.81082442785E+02  0.17683900379E+03  0.12000000000E+03 0.  0.
<mgrwt>
<rscale>  0 0.33751185E+03</rscale>
<asrwt>0</asrwt>
<pdfrwt beam="1">  1        2 0.29083263E-01 0.33751185E+03</pdfrwt>
<pdfrwt beam="2">  1       -2 0.23176520E-01 0.33751185E+03</pdfrwt>
<totfact> 0.29594514E+03</totfact>
</mgrwt>
</event>
<event>
 4    1  0.1762274E-004  0.3152546E+03  0.7818608E-02  0.1077854E+00
         -2   -1    0    0    0  501 -0.00000000000E+00  0.00000000000E+00  0.49315666977E+02  0.49315666977E+02  0.00000000000E+00 0. -1.
          2   -1    0    0  501    0  0.00000000000E+00 -0.00000000000E+00 -0.50382285441E+03  0.50382285441E+03  0.00000000000E+00 0. -1.
         25    1    1    2    0    0  0.96346960199E+02  0.31654782334E+02 -0.20494918717E+03  0.25824200144E+03  0.12000000000E+03 0.  0.
         25    1    1    2    0    0 -0.96346960199E+02 -0.31654782334E+02 -0.24955800025E+03  0.29489651994E+03  0.12000000000E+03 0.  0.
<mgrwt>
<rscale>  0 0.31525456E+03</rscale>
<asrwt>0</asrwt>
<pdfrwt beam="1">  1        2 0.77511214E-01 0.31525456E+03</pdfrwt>
<pdfrwt beam="2">  1       -2 0.75870252E-02 0.31525456E+03</pdfrwt>
<totfact> 0.63449718E+03</totfact>
</mgrwt>
</event>
<event>
 4    1  0.1762274E-004  0.2777353E+03  0.7818608E-02  0.1096932E+00
          2   -1    0    0  501    0  0.00000000000E+00  0.00000000000E+00  0.11044899796E+04  0.11044899796E+04  0.00000000000E+00 0. -1.
         -2   -1    0    0    0  501 -0.00000000000E+00 -0.00000000000E+00 -0.17459843978E+02  0.17459843978E+02  0.00000000000E+00 0. -1.
         25    1    1    2    0    0  0.68266300005E+02 -0.13124615145E+02  0.57255539042E+03  0.58911138025E+03  0.12000000000E+03 0.  0.
         25    1    1    2    0    0 -0.68266300005E+02  0.13124615145E+02  0.51447474517E+03  0.53283844330E+03  0.12000000000E+03 0.  0.
<mgrwt>
<rscale>  0 0.27773529E+03</rscale>
<asrwt>0</asrwt>
<pdfrwt beam="1">  1        2 0.16992148E+00 0.27773529E+03</pdfrwt>
<pdfrwt beam="2">  1       -2 0.26861307E-02 0.27773529E+03</pdfrwt>
<totfact> 0.11324033E+04</totfact>
</mgrwt>
</event>
<event>
 4    1  0.1762274E-004  0.2570233E+03  0.7818608E-02  0.1108945E+00
         -3   -1    0    0    0  501 -0.00000000000E+00  0.00000000000E+00  0.14718901942E+04  0.14718901942E+04  0.00000000000E+00 0.  1.
          3   -1    0    0  501    0  0.00000000000E+00 -0.00000000000E+00 -0.11220431199E+02  0.11220431199E+02  0.00000000000E+00 0.  1.
         25    1    1    2    0    0  0.60139731521E+01  0.20024147645E+02  0.96671506371E+03  0.97435883984E+03  0.12000000000E+03 0.  0.
         25    1    1    2    0    0 -0.60139731521E+01 -0.20024147645E+02  0.49395469931E+03  0.50875178558E+03  0.12000000000E+03 0.  0.
<mgrwt>
<rscale>  0 0.25702329E+03</rscale>
<asrwt>0</asrwt>
<pdfrwt beam="1">  1        3 0.17262214E-02 0.25702329E+03</pdfrwt>
<pdfrwt beam="2">  1       -3 0.22644449E+00 0.25702329E+03</pdfrwt>
<totfact> 0.33472052E+02</totfact>
</mgrwt>
</event>
<event>
 4    1  0.1762274E-004  0.3195444E+03  0.7818608E-02  0.1075859E+00
          1   -1    0    0  501    0  0.00000000000E+00  0.00000000000E+00  0.12595735313E+04  0.12595735313E+04  0.00000000000E+00 0.  1.
         -1   -1    0    0    0  501 -0.00000000000E+00 -0.00000000000E+00 -0.20266509656E+02  0.20266509656E+02  0.00000000000E+00 0.  1.
         25    1    1    2    0    0 -0.93388351438E+02  0.20525597160E+02  0.79807503711E+03  0.81269086939E+03  0.12000000000E+03 0.  0.
         25    1    1    2    0    0  0.93388351438E+02 -0.20525597160E+02  0.44123198451E+03  0.46714917155E+03  0.12000000000E+03 0.  0.
<mgrwt>
<rscale>  0 0.31954442E+03</rscale>
<asrwt>0</asrwt>
<pdfrwt beam="1">  1        1 0.19378048E+00 0.31954442E+03</pdfrwt>
<pdfrwt beam="2">  1       -1 0.31179256E-02 0.31954442E+03</pdfrwt>
<totfact> 0.37147087E+03</totfact>
</mgrwt>
</event>
<event>
 4    1  0.1762274E-004  0.2663286E+03  0.7818608E-02  0.1103399E+00
         -2   -1    0    0    0  501 -0.00000000000E+00  0.00000000000E+00  0.29441252410E+02  0.29441252410E+02  0.00000000000E+00 0.  1.
          2   -1    0    0  501    0  0.00000000000E+00 -0.00000000000E+00 -0.60230891219E+03  0.60230891219E+03  0.00000000000E+00 0.  1.
         25    1    1    2    0    0  0.39526958621E+02 -0.10184767956E+02 -0.18959585123E+03  0.22806292281E+03  0.12000000000E+03 0.  0.
         25    1    1    2    0    0 -0.39526958621E+02  0.10184767956E+02 -0.38327180855E+03  0.40368724179E+03  0.12000000000E+03 0.  0.
<mgrwt>
<rscale>  0 0.26632858E+03</rscale>
<asrwt>0</asrwt>
<pdfrwt beam="1">  1        2 0.92662908E-01 0.26632858E+03</pdfrwt>
<pdfrwt beam="2">  1       -2 0.45294235E-02 0.26632858E+03</pdfrwt>
<totfact> 0.11359372E+04</totfact>
</mgrwt>
</event>
<event>
 4    1  0.1762274E-004  0.4232301E+03  0.7818608E-02  0.1036020E+00
         -2   -1    0    0    0  501 -0.00000000000E+00  0.00000000000E+00  0.17969337145E+02  0.17969337145E+02  0.00000000000E+00 0. -1.
          2   -1    0    0  501    0  0.00000000000E+00 -0.00000000000E+00 -0.24920748918E+04  0.24920748918E+04  0.00000000000E+00 0. -1.
         25    1    1    2    0    0 -0.73701030787E+02 -0.49760157563E+02 -0.21261218678E+04  0.21313615629E+04  0.12000000000E+03 0.  0.
         25    1    1    2    0    0  0.73701030787E+02  0.49760157563E+02 -0.34798368686E+03  0.37868266601E+03  0.12000000000E+03 0.  0.
<mgrwt>
<rscale>  0 0.42323012E+03</rscale>
<asrwt>0</asrwt>
<pdfrwt beam="1">  1        2 0.38339624E+00 0.42323012E+03</pdfrwt>
<pdfrwt beam="2">  1       -2 0.27645127E-02 0.42323012E+03</pdfrwt>
<totfact> 0.19121756E+03</totfact>
</mgrwt>
</event>
<event>
 4    1  0.1762274E-004  0.2652042E+03  0.7818608E-02  0.1104056E+00
         -2   -1    0    0    0  501 -0.00000000000E+00  0.00000000000E+00  0.18775820090E+02  0.18775820090E+02  0.00000000000E+00 0. -1.
          2   -1    0    0  501    0  0.00000000000E+00 -0.00000000000E+00 -0.93648717041E+03  0.93648717041E+03  0.00000000000E+00 0. -1.
         25    1    1    2    0    0  0.32555835517E+02  0.42247741868E+02 -0.52513235320E+03  0.54130281959E+03  0.12000000000E+03 0.  0.
         25    1    1    2    0    0 -0.32555835517E+02 -0.42247741868E+02 -0.39257899712E+03  0.41396017091E+03  0.12000000000E+03 0.  0.
<mgrwt>
<rscale>  0 0.26520418E+03</rscale>
<asrwt>0</asrwt>
<pdfrwt beam="1">  1        2 0.14407495E+00 0.26520418E+03</pdfrwt>
<pdfrwt beam="2">  1       -2 0.28885876E-02 0.26520418E+03</pdfrwt>
<totfact> 0.12840026E+04</totfact>
</mgrwt>
</event>
<event>
 4    1  0.1762274E-004  0.2985825E+03  0.7818608E-02  0.1085951E+00
          2   -1    0    0  501    0  0.00000000000E+00  0.00000000000E+00  0.93619748216E+03  0.93619748216E+03  0.00000000000E+00 0.  1.
         -2   -1    0    0    0  501 -0.00000000000E+00 -0.00000000000E+00 -0.23806809215E+02  0.23806809215E+02  0.00000000000E+00 0.  1.
         25    1    1    2    0    0 -0.37904123307E+01  0.55121815123E+02  0.23262649837E+03  0.26752171776E+03  0.12000000000E+03 0.  0.
         25    1    1    2    0    0  0.37904123307E+01 -0.55121815123E+02  0.67976417458E+03  0.69248257362E+03  0.12000000000E+03 0.  0.
<mgrwt>
<rscale>  0 0.29858248E+03</rscale>
<asrwt>0</asrwt>
<pdfrwt beam="1">  1        2 0.14403035E+00 0.29858248E+03</pdfrwt>
<pdfrwt beam="2">  1       -2 0.36625868E-02 0.29858248E+03</pdfrwt>
<totfact> 0.90434199E+03</totfact>
</mgrwt>
</event>
<event>
 4    1  0.1762274E-004  0.2537205E+03  0.7818608E-02  0.1110976E+00
         -4   -1    0    0    0  501 -0.00000000000E+00  0.00000000000E+00  0.16974247073E+02  0.16974247073E+02  0.00000000000E+00 0.  1.
          4   -1    0    0  501    0  0.00000000000E+00 -0.00000000000E+00 -0.94811396053E+03  0.94811396053E+03  0.00000000000E+00 0.  1.
         25    1    1    2    0    0 -0.95345920961E+01  0.27830632648E+02 -0.35611261511E+03  0.37693719264E+03  0.12000000000E+03 0.  0.
         25    1    1    2    0    0  0.95345920961E+01 -0.27830632648E+02 -0.57502709835E+03  0.58815101496E+03  0.12000000000E+03 0.  0.
<mgrwt>
<rscale>  0 0.25372048E+03</rscale>
<asrwt>0</asrwt>
<pdfrwt beam="1">  1        4 0.14586371E+00 0.25372048E+03</pdfrwt>
<pdfrwt beam="2">  1       -4 0.26114223E-02 0.25372048E+03</pdfrwt>
<totfact> 0.42277276E+02</totfact>
</mgrwt>
</event>
<event>
 4    1  0.1762274E-004  0.2811568E+03  0.7818608E-02  0.1095059E+00
          1   -1    0    0  501    0  0.00000000000E+00  0.00000000000E+00  0.17705996541E+03  0.17705996541E+03  0.00000000000E+00 0. -1.
         -1   -1    0    0    0  501 -0.00000000000E+00 -0.00000000000E+00 -0.11161351613E+03  0.11161351613E+03  0.00000000000E+00 0. -1.
         25    1    1    2    0    0 -0.41945994853E+02 -0.10838308975E+02 -0.27891969818E+02  0.13059440036E+03  0.12000000000E+03 0.  0.
         25    1    1    2    0    0  0.41945994853E+02  0.10838308975E+02  0.93338419104E+02  0.15807908118E+03  0.12000000000E+03 0.  0.
<mgrwt>
<rscale>  0 0.28115679E+03</rscale>
<asrwt>0</asrwt>
<pdfrwt beam="1">  1        1 0.27239995E-01 0.28115679E+03</pdfrwt>
<pdfrwt beam="2">  1       -1 0.17171310E-01 0.28115679E+03</pdfrwt>
<totfact> 0.44063949E+03</totfact>
</mgrwt>
</event>
<event>
 4    1  0.1762274E-004  0.2506252E+03  0.7818608E-02  0.1112910E+00
         -2   -1    0    0    0  501 -0.00000000000E+00  0.00000000000E+00  0.25363754745E+02  0.25363754745E+02  0.00000000000E+00 0. -1.
          2   -1    0    0  501    0  0.00000000000E+00 -0.00000000000E+00 -0.61912160527E+03  0.61912160527E+03  0.00000000000E+00 0. -1.
         25    1    1    2    0    0  0.17523835914E+02 -0.27097445024E+02 -0.25526395475E+03  0.28390322813E+03  0.12000000000E+03 0.  0.
         25    1    1    2    0    0 -0.17523835914E+02  0.27097445024E+02 -0.33849389578E+03  0.36058213188E+03  0.12000000000E+03 0.  0.
<mgrwt>
<rscale>  0 0.25062521E+03</rscale>
<asrwt>0</asrwt>
<pdfrwt beam="1">  1        2 0.95249484E-01 0.25062521E+03</pdfrwt>
<pdfrwt beam="2">  1       -2 0.39021158E-02 0.25062521E+03</pdfrwt>
<totfact> 0.13733327E+04</totfact>
</mgrwt>
</event>
<event>
 4    1  0.1762274E-004  0.2871787E+03  0.7818608E-02  0.1091831E+00
         -4   -1    0    0    0  501 -0.00000000000E+00  0.00000000000E+00  0.70509273147E+02  0.70509273147E+02  0.00000000000E+00 0.  1.
          4   -1    0    0  501    0  0.00000000000E+00 -0.00000000000E+00 -0.29241408625E+03  0.29241408625E+03  0.00000000000E+00 0.  1.
         25    1    1    2    0    0  0.27048466660E+02 -0.37638229864E+02 -0.30332715750E+02  0.13216780826E+03  0.12000000000E+03 0.  0.
         25    1    1    2    0    0 -0.27048466660E+02  0.37638229864E+02 -0.19157209735E+03  0.23075555114E+03  0.12000000000E+03 0.  0.
<mgrwt>
<rscale>  0 0.28717872E+03</rscale>
<asrwt>0</asrwt>
<pdfrwt beam="1">  1        4 0.44986782E-01 0.28717872E+03</pdfrwt>
<pdfrwt beam="2">  1       -4 0.10847580E-01 0.28717872E+03</pdfrwt>
<totfact> 0.59885126E+02</totfact>
</mgrwt>
</event>
<event>
 4    1  0.1762274E-004  0.3041969E+03  0.7818608E-02  0.1083161E+00
         -2   -1    0    0    0  501 -0.00000000000E+00  0.00000000000E+00  0.23883902975E+02  0.23883902975E+02  0.00000000000E+00 0.  1.
          2   -1    0    0  501    0  0.00000000000E+00 -0.00000000000E+00 -0.96859979657E+03  0.96859979657E+03  0.00000000000E+00 0.  1.
         25    1    1    2    0    0 -0.30042994384E+02  0.43406619582E+02 -0.22074914795E+03  0.25674287226E+03  0.12000000000E+03 0.  0.
         25    1    1    2    0    0  0.30042994384E+02 -0.43406619582E+02 -0.72396674564E+03  0.73574082728E+03  0.12000000000E+03 0.  0.
<mgrwt>
<rscale>  0 0.30419693E+03</rscale>
<asrwt>0</asrwt>
<pdfrwt beam="1">  1        2 0.14901532E+00 0.30419693E+03</pdfrwt>
<pdfrwt beam="2">  1       -2 0.36744475E-02 0.30419693E+03</pdfrwt>
<totfact> 0.85904857E+03</totfact>
</mgrwt>
</event>
<event>
 4    1  0.1762274E-004  0.2877806E+03  0.7818608E-02  0.1091514E+00
         -2   -1    0    0    0  501 -0.00000000000E+00  0.00000000000E+00  0.10305719115E+04  0.10305719115E+04  0.00000000000E+00 0.  1.
          2   -1    0    0  501    0  0.00000000000E+00 -0.00000000000E+00 -0.20090223731E+02  0.20090223731E+02  0.00000000000E+00 0.  1.
         25    1    1    2    0    0  0.44015857742E+02  0.66000360718E+02  0.51733684770E+03  0.53696448424E+03  0.12000000000E+03 0.  0.
         25    1    1    2    0    0 -0.44015857742E+02 -0.66000360718E+02  0.49314484010E+03  0.51369765103E+03  0.12000000000E+03 0.  0.
<mgrwt>
<rscale>  0 0.28778061E+03</rscale>
<asrwt>0</asrwt>
<pdfrwt beam="1">  1        2 0.30908045E-02 0.28778061E+03</pdfrwt>
<pdfrwt beam="2">  1       -2 0.15854948E+00 0.28778061E+03</pdfrwt>
<totfact> 0.82631351E+02</totfact>
</mgrwt>
</event>
<event>
 4    1  0.1762274E-004  0.2815336E+03  0.7818608E-02  0.1094854E+00
         -1   -1    0    0    0  501 -0.00000000000E+00  0.00000000000E+00  0.29737125698E+03  0.29737125698E+03  0.00000000000E+00 0. -1.
          1   -1    0    0  501    0  0.00000000000E+00 -0.00000000000E+00 -0.66634857175E+02  0.66634857175E+02  0.00000000000E+00 0. -1.
         25    1    1    2    0    0  0.64993024705E+02  0.23423549343E+02  0.82594388276E+02  0.16122837498E+03  0.12000000000E+03 0.  0.
         25    1    1    2    0    0 -0.64993024705E+02 -0.23423549343E+02  0.14814201152E+03  0.20277773917E+03  0.12000000000E+03 0.  0.
<mgrwt>
<rscale>  0 0.28153359E+03</rscale>
<asrwt>0</asrwt>
<pdfrwt beam="1">  1        1 0.10251517E-01 0.28153359E+03</pdfrwt>
<pdfrwt beam="2">  1       -1 0.45749423E-01 0.28153359E+03</pdfrwt>
<totfact> 0.29943227E+03</totfact>
</mgrwt>
</event>
<event>
 4    1  0.1762274E-004  0.3939266E+03  0.7818608E-02  0.1045903E+00
          1   -1    0    0  501    0  0.00000000000E+00  0.00000000000E+00  0.23582629326E+03  0.23582629326E+03  0.00000000000E+00 0. -1.
         -1   -1    0    0    0  501 -0.00000000000E+00 -0.00000000000E+00 -0.16450476089E+03  0.16450476089E+03  0.00000000000E+00 0. -1.
         25    1    1    2    0    0  0.87015227929E+02  0.93544543102E+02  0.12696754643E+03  0.21643241273E+03  0.12000000000E+03 0.  0.
         25    1    1    2    0    0 -0.87015227929E+02 -0.93544543102E+02 -0.55646014058E+02  0.18389864142E+03  0.12000000000E+03 0.  0.
<mgrwt>
<rscale>  0 0.39392663E+03</rscale>
<asrwt>0</asrwt>
<pdfrwt beam="1">  1        1 0.36280968E-01 0.39392663E+03</pdfrwt>
<pdfrwt beam="2">  1       -1 0.25308425E-01 0.39392663E+03</pdfrwt>
<totfact> 0.16302512E+03</totfact>
</mgrwt>
</event>
<event>
 4    1  0.1762274E-004  0.2518211E+03  0.7818608E-02  0.1112159E+00
          2   -1    0    0  501    0  0.00000000000E+00  0.00000000000E+00  0.99009762331E+03  0.99009762331E+03  0.00000000000E+00 0.  1.
         -2   -1    0    0    0  501 -0.00000000000E+00 -0.00000000000E+00 -0.16012029712E+02  0.16012029712E+02  0.00000000000E+00 0.  1.
         25    1    1    2    0    0  0.36895962589E+02  0.74591261049E+01  0.46289763820E+03  0.47967819845E+03  0.12000000000E+03 0.  0.
         25    1    1    2    0    0 -0.36895962589E+02 -0.74591261049E+01  0.51118795540E+03  0.52643145457E+03  0.12000000000E+03 0.  0.
<mgrwt>
<rscale>  0 0.25182115E+03</rscale>
<asrwt>0</asrwt>
<pdfrwt beam="1">  1        2 0.15232266E+00 0.25182115E+03</pdfrwt>
<pdfrwt beam="2">  1       -2 0.24633900E-02 0.25182115E+03</pdfrwt>
<totfact> 0.15022351E+04</totfact>
</mgrwt>
</event>
<event>
 4    1  0.1762274E-004  0.2473872E+03  0.7818608E-02  0.1114967E+00
         -2   -1    0    0    0  501 -0.00000000000E+00  0.00000000000E+00  0.24951748586E+03  0.24951748586E+03  0.00000000000E+00 0. -1.
          2   -1    0    0  501    0  0.00000000000E+00 -0.00000000000E+00 -0.61318798216E+02  0.61318798216E+02  0.00000000000E+00 0. -1.
         25    1    1    2    0    0  0.28492307360E+02  0.39948770894E+01  0.83412513995E+02  0.14894770261E+03  0.12000000000E+03 0.  0.
         25    1    1    2    0    0 -0.28492307360E+02 -0.39948770894E+01  0.10478617365E+03  0.16188858147E+03  0.12000000000E+03 0.  0.
<mgrwt>
<rscale>  0 0.24738725E+03</rscale>
<asrwt>0</asrwt>
<pdfrwt beam="1">  1        2 0.94336614E-02 0.24738725E+03</pdfrwt>
<pdfrwt beam="2">  1       -2 0.38387305E-01 0.24738725E+03</pdfrwt>
<totfact> 0.43967295E+03</totfact>
</mgrwt>
</event>
<event>
 4    1  0.1762274E-004  0.3181676E+03  0.7818608E-02  0.1076496E+00
          1   -1    0    0  501    0  0.00000000000E+00  0.00000000000E+00  0.49277473652E+03  0.49277473652E+03  0.00000000000E+00 0. -1.
         -1   -1    0    0    0  501 -0.00000000000E+00 -0.00000000000E+00 -0.51357463716E+02  0.51357463716E+02  0.00000000000E+00 0. -1.
         25    1    1    2    0    0  0.57883818316E+02  0.58080298295E+02  0.11008853483E+03  0.18232757053E+03  0.12000000000E+03 0.  0.
         25    1    1    2    0    0 -0.57883818316E+02 -0.58080298295E+02  0.33132873798E+03  0.36180462971E+03  0.12000000000E+03 0.  0.
<mgrwt>
<rscale>  0 0.31816763E+03</rscale>
<asrwt>0</asrwt>
<pdfrwt beam="1">  1        1 0.75811495E-01 0.31816763E+03</pdfrwt>
<pdfrwt beam="2">  1       -1 0.79011486E-02 0.31816763E+03</pdfrwt>
<totfact> 0.40438719E+03</totfact>
</mgrwt>
</event>
<event>
 4    1  0.1762274E-004  0.2609021E+03  0.7818608E-02  0.1106602E+00
         -2   -1    0    0    0  501 -0.00000000000E+00  0.00000000000E+00  0.11015331638E+02  0.11015331638E+02  0.00000000000E+00 0.  1.
          2   -1    0    0  501    0  0.00000000000E+00 -0.00000000000E+00 -0.15448904196E+04  0.15448904196E+04  0.00000000000E+00 0.  1.
         25    1    1    2    0    0  0.45372394752E+02  0.23437666640E+02 -0.74855478282E+03  0.75983040299E+03  0.12000000000E+03 0.  0.
         25    1    1    2    0    0 -0.45372394752E+02 -0.23437666640E+02 -0.78532030518E+03  0.79607534828E+03  0.12000000000E+03 0.  0.
<mgrwt>
<rscale>  0 0.26090213E+03</rscale>
<asrwt>0</asrwt>
<pdfrwt beam="1">  1        2 0.23767528E+00 0.26090213E+03</pdfrwt>
<pdfrwt beam="2">  1       -2 0.16946676E-02 0.26090213E+03</pdfrwt>
<totfact> 0.12714998E+04</totfact>
</mgrwt>
</event>
<event>
 4    1  0.1762274E-004  0.3897672E+03  0.7818608E-02  0.1047382E+00
          1   -1    0    0  501    0  0.00000000000E+00  0.00000000000E+00  0.20444065630E+03  0.20444065630E+03  0.00000000000E+00 0. -1.
         -1   -1    0    0    0  501 -0.00000000000E+00 -0.00000000000E+00 -0.18577326771E+03  0.18577326771E+03  0.00000000000E+00 0. -1.
         25    1    1    2    0    0 -0.14786749526E+03 -0.49969617713E+00 -0.32121049661E+02  0.19312381438E+03  0.12000000000E+03 0.  0.
         25    1    1    2    0    0  0.14786749526E+03  0.49969617713E+00  0.50788438247E+02  0.19709010962E+03  0.12000000000E+03 0.  0.
<mgrwt>
<rscale>  0 0.38976715E+03</rscale>
<asrwt>0</asrwt>
<pdfrwt beam="1">  1        1 0.31452409E-01 0.38976715E+03</pdfrwt>
<pdfrwt beam="2">  1       -1 0.28580503E-01 0.38976715E+03</pdfrwt>
<totfact> 0.15910577E+03</totfact>
</mgrwt>
</event>
<event>
 4    1  0.1762274E-004  0.2567934E+03  0.7818608E-02  0.1109085E+00
         -2   -1    0    0    0  501 -0.00000000000E+00  0.00000000000E+00  0.40668914648E+02  0.40668914648E+02  0.00000000000E+00 0. -1.
          2   -1    0    0  501    0  0.00000000000E+00 -0.00000000000E+00 -0.40536392265E+03  0.40536392265E+03  0.00000000000E+00 0. -1.
         25    1    1    2    0    0  0.16048306904E+02  0.39977922612E+02 -0.15600971991E+03  0.20148155041E+03  0.12000000000E+03 0.  0.
         25    1    1    2    0    0 -0.16048306904E+02 -0.39977922612E+02 -0.20868528809E+03  0.24455128688E+03  0.12000000000E+03 0.  0.
<mgrwt>
<rscale>  0 0.25679339E+03</rscale>
<asrwt>0</asrwt>
<pdfrwt beam="1">  1        2 0.62363682E-01 0.25679339E+03</pdfrwt>
<pdfrwt beam="2">  1       -2 0.62567560E-02 0.25679339E+03</pdfrwt>
<totfact> 0.10794597E+04</totfact>
</mgrwt>
</event>
<event>
 4    1  0.1762274E-004  0.2525054E+03  0.7818608E-02  0.1111732E+00
         -2   -1    0    0    0  501 -0.00000000000E+00  0.00000000000E+00  0.47015216537E+02  0.47015216537E+02  0.00000000000E+00 0.  1.
          2   -1    0    0  501    0  0.00000000000E+00 -0.00000000000E+00 -0.33903365242E+03  0.33903365242E+03  0.00000000000E+00 0.  1.
         25    1    1    2    0    0  0.13104086462E+02  0.31391341557E+02 -0.17591452180E+03  0.21564566396E+03  0.12000000000E+03 0.  0.
         25    1    1    2    0    0 -0.13104086462E+02 -0.31391341557E+02 -0.11610391409E+03  0.17040320500E+03  0.12000000000E+03 0.  0.
<mgrwt>
<rscale>  0 0.25250537E+03</rscale>
<asrwt>0</asrwt>
<pdfrwt beam="1">  1        2 0.52159022E-01 0.25250537E+03</pdfrwt>
<pdfrwt beam="2">  1       -2 0.72331104E-02 0.25250537E+03</pdfrwt>
<totfact> 0.10460423E+04</totfact>
</mgrwt>
</event>
<event>
 4    1  0.1762274E-004  0.3527773E+03  0.7818608E-02  0.1061481E+00
          2   -1    0    0  501    0  0.00000000000E+00  0.00000000000E+00  0.11365657024E+03  0.11365657024E+03  0.00000000000E+00 0.  1.
         -2   -1    0    0    0  501 -0.00000000000E+00 -0.00000000000E+00 -0.27374529989E+03  0.27374529989E+03  0.00000000000E+00 0.  1.
         25    1    1    2    0    0  0.51835638205E+02  0.58264753974E+01 -0.20994225698E+03  0.24737953123E+03  0.12000000000E+03 0.  0.
         25    1    1    2    0    0 -0.51835638205E+02 -0.58264753974E+01  0.49853527337E+02  0.14002233890E+03  0.12000000000E+03 0.  0.
<mgrwt>
<rscale>  0 0.35277728E+03</rscale>
<asrwt>0</asrwt>
<pdfrwt beam="1">  1        2 0.17485626E-01 0.35277728E+03</pdfrwt>
<pdfrwt beam="2">  1       -2 0.42114662E-01 0.35277728E+03</pdfrwt>
<totfact> 0.17607775E+03</totfact>
</mgrwt>
</event>
<event>
 4    1  0.1762274E-004  0.2416533E+03  0.7818608E-02  0.1118696E+00
          2   -1    0    0  501    0  0.00000000000E+00  0.00000000000E+00  0.12430919205E+04  0.12430919205E+04  0.00000000000E+00 0.  1.
         -2   -1    0    0    0  501 -0.00000000000E+00 -0.00000000000E+00 -0.11744168684E+02  0.11744168684E+02  0.00000000000E+00 0.  1.
         25    1    1    2    0    0 -0.11337345276E+02 -0.73102987906E+01  0.63715020586E+03  0.64849237520E+03  0.12000000000E+03 0.  0.
         25    1    1    2    0    0  0.11337345276E+02  0.73102987906E+01  0.59419754599E+03  0.60634371402E+03  0.12000000000E+03 0.  0.
<mgrwt>
<rscale>  0 0.24165332E+03</rscale>
<asrwt>0</asrwt>
<pdfrwt beam="1">  1        2 0.19124481E+00 0.24165332E+03</pdfrwt>
<pdfrwt beam="2">  1       -2 0.18067962E-02 0.24165332E+03</pdfrwt>
<totfact> 0.16841702E+04</totfact>
</mgrwt>
</event>
<event>
 4    1  0.1762274E-004  0.3163867E+03  0.7818608E-02  0.1077324E+00
          1   -1    0    0  501    0  0.00000000000E+00  0.00000000000E+00  0.28238747470E+04  0.28238747470E+04  0.00000000000E+00 0.  1.
         -1   -1    0    0    0  501 -0.00000000000E+00 -0.00000000000E+00 -0.88619875479E+01  0.88619875479E+01  0.00000000000E+00 0.  1.
         25    1    1    2    0    0  0.57345684292E+02 -0.51241459981E+02  0.79297908816E+03  0.80568607347E+03  0.12000000000E+03 0.  0.
         25    1    1    2    0    0 -0.57345684292E+02  0.51241459981E+02  0.20220336713E+04  0.20270506610E+04  0.12000000000E+03 0.  0.
<mgrwt>
<rscale>  0 0.31638674E+03</rscale>
<asrwt>0</asrwt>
<pdfrwt beam="1">  1        1 0.43444155E+00 0.31638674E+03</pdfrwt>
<pdfrwt beam="2">  1       -1 0.13633849E-02 0.31638674E+03</pdfrwt>
<totfact> 0.11445751E+03</totfact>
</mgrwt>
</event>
<event>
 4    1  0.1762274E-004  0.2534635E+03  0.7818608E-02  0.1111135E+00
         -2   -1    0    0    0  501 -0.00000000000E+00  0.00000000000E+00  0.42620283516E+03  0.42620283516E+03  0.00000000000E+00 0.  1.
          2   -1    0    0  501    0  0.00000000000E+00 -0.00000000000E+00 -0.37683771674E+02  0.37683771674E+02  0.00000000000E+00 0.  1.
         25    1    1    2    0    0 -0.42300247697E+01 -0.34578611223E+02  0.15554949875E+03  0.19952248000E+03  0.12000000000E+03 0.  0.
         25    1    1    2    0    0  0.42300247697E+01  0.34578611223E+02  0.23296956474E+03  0.26436412684E+03  0.12000000000E+03 0.  0.
<mgrwt>
<rscale>  0 0.25346345E+03</rscale>
<asrwt>0</asrwt>
<pdfrwt beam="1">  1        2 0.57975036E-02 0.25346345E+03</pdfrwt>
<pdfrwt beam="2">  1       -2 0.65569663E-01 0.25346345E+03</pdfrwt>
<totfact> 0.28158485E+03</totfact>
</mgrwt>
</event>
<event>
 4    1  0.1762274E-004  0.2602615E+03  0.7818608E-02  0.1106986E+00
         -2   -1    0    0    0  501 -0.00000000000E+00  0.00000000000E+00  0.35862512634E+03  0.35862512634E+03  0.00000000000E+00 0. -1.
          2   -1    0    0  501    0  0.00000000000E+00 -0.00000000000E+00 -0.47219250142E+02  0.47219250142E+02  0.00000000000E+00 0. -1.
         25    1    1    2    0    0  0.14700363677E+02  0.32480458812E+02  0.10028644427E+03  0.16040090960E+03  0.12000000000E+03 0.  0.
         25    1    1    2    0    0 -0.14700363677E+02 -0.32480458812E+02  0.21111943192E+03  0.24544346687E+03  0.12000000000E+03 0.  0.
<mgrwt>
<rscale>  0 0.26026148E+03</rscale>
<asrwt>0</asrwt>
<pdfrwt beam="1">  1        2 0.72645003E-02 0.26026148E+03</pdfrwt>
<pdfrwt beam="2">  1       -2 0.55173094E-01 0.26026148E+03</pdfrwt>
<totfact> 0.30096062E+03</totfact>
</mgrwt>
</event>
<event>
 4    1  0.1762274E-004  0.3209431E+03  0.7818608E-02  0.1075216E+00
         -1   -1    0    0    0  501 -0.00000000000E+00  0.00000000000E+00  0.14780538663E+02  0.14780538663E+02  0.00000000000E+00 0. -1.
          1   -1    0    0  501    0  0.00000000000E+00 -0.00000000000E+00 -0.17422313665E+04  0.17422313665E+04  0.00000000000E+00 0. -1.
         25    1    1    2    0    0  0.33788257732E+02  0.30072527166E+02 -0.33563591486E+03  0.35930136459E+03  0.12000000000E+03 0.  0.
         25    1    1    2    0    0 -0.33788257732E+02 -0.30072527166E+02 -0.13918149130E+04  0.13977105406E+04  0.12000000000E+03 0.  0.
<mgrwt>
<rscale>  0 0.32094310E+03</rscale>
<asrwt>0</asrwt>
<pdfrwt beam="1">  1        1 0.26803544E+00 0.32094310E+03</pdfrwt>
<pdfrwt beam="2">  1       -1 0.22739303E-02 0.32094310E+03</pdfrwt>
<totfact> 0.28161905E+03</totfact>
</mgrwt>
</event>
<event>
 4    1  0.1762274E-004  0.2878057E+03  0.7818608E-02  0.1091500E+00
         -2   -1    0    0    0  501 -0.00000000000E+00  0.00000000000E+00  0.75017349188E+01  0.75017349188E+01  0.00000000000E+00 0. -1.
          2   -1    0    0  501    0  0.00000000000E+00 -0.00000000000E+00 -0.27604320909E+04  0.27604320909E+04  0.00000000000E+00 0. -1.
         25    1    1    2    0    0 -0.18850079866E+02  0.63584629851E+02 -0.17967452454E+04  0.18019688698E+04  0.12000000000E+03 0.  0.
         25    1    1    2    0    0  0.18850079866E+02 -0.63584629851E+02 -0.95618511056E+03  0.96596495605E+03  0.12000000000E+03 0.  0.
<mgrwt>
<rscale>  0 0.28780570E+03</rscale>
<asrwt>0</asrwt>
<pdfrwt beam="1">  1        2 0.42468162E+00 0.28780570E+03</pdfrwt>
<pdfrwt beam="2">  1       -2 0.11541137E-02 0.28780570E+03</pdfrwt>
<totfact> 0.49637277E+03</totfact>
</mgrwt>
</event>
<event>
 4    1  0.1762274E-004  0.5167926E+03  0.7818608E-02  0.1009486E+00
          2   -1    0    0  501    0  0.00000000000E+00  0.00000000000E+00  0.13491153903E+03  0.13491153903E+03  0.00000000000E+00 0. -1.
         -2   -1    0    0    0  501 -0.00000000000E+00 -0.00000000000E+00 -0.49490688925E+03  0.49490688925E+03  0.00000000000E+00 0. -1.
         25    1    1    2    0    0 -0.14645586180E+03 -0.13572589648E+02  0.33659014231E+02  0.19278605729E+03  0.12000000000E+03 0.  0.
         25    1    1    2    0    0  0.14645586180E+03  0.13572589648E+02 -0.39365436445E+03  0.43703237100E+03  0.12000000000E+03 0.  0.
<mgrwt>
<rscale>  0 0.51679261E+03</rscale>
<asrwt>0</asrwt>
<pdfrwt beam="1">  1        2 0.20755621E-01 0.51679261E+03</pdfrwt>
<pdfrwt beam="2">  1       -2 0.76139521E-01 0.51679261E+03</pdfrwt>
<totfact> 0.42413670E+02</totfact>
</mgrwt>
</event>
<event>
 4    1  0.1762274E-004  0.2729955E+03  0.7818608E-02  0.1099577E+00
         -2   -1    0    0    0  501 -0.00000000000E+00  0.00000000000E+00  0.83211629462E+01  0.83211629462E+01  0.00000000000E+00 0. -1.
          2   -1    0    0  501    0  0.00000000000E+00 -0.00000000000E+00 -0.22390668626E+04  0.22390668626E+04  0.00000000000E+00 0. -1.
         25    1    1    2    0    0 -0.35963446779E+02 -0.25340138629E+02 -0.72089513952E+03  0.73213748320E+03  0.12000000000E+03 0.  0.
         25    1    1    2    0    0  0.35963446779E+02  0.25340138629E+02 -0.15098505602E+04  0.15152505424E+04  0.12000000000E+03 0.  0.
<mgrwt>
<rscale>  0 0.27299553E+03</rscale>
<asrwt>0</asrwt>
<pdfrwt beam="1">  1        2 0.34447225E+00 0.27299553E+03</pdfrwt>
<pdfrwt beam="2">  1       -2 0.12801773E-02 0.27299553E+03</pdfrwt>
<totfact> 0.82556290E+03</totfact>
</mgrwt>
</event>
<event>
 4    1  0.1762274E-004  0.3220492E+03  0.7818608E-02  0.1074710E+00
         -2   -1    0    0    0  501 -0.00000000000E+00  0.00000000000E+00  0.42721993653E+02  0.42721993653E+02  0.00000000000E+00 0.  1.
          2   -1    0    0  501    0  0.00000000000E+00 -0.00000000000E+00 -0.60692223083E+03  0.60692223083E+03  0.00000000000E+00 0.  1.
         25    1    1    2    0    0 -0.71722213591E+02 -0.66807561462E+02 -0.37052713516E+03  0.40161882934E+03  0.12000000000E+03 0.  0.
         25    1    1    2    0    0  0.71722213591E+02  0.66807561462E+02 -0.19367310202E+03  0.24802539514E+03  0.12000000000E+03 0.  0.
<mgrwt>
<rscale>  0 0.32204924E+03</rscale>
<asrwt>0</asrwt>
<pdfrwt beam="1">  1        2 0.93372654E-01 0.32204924E+03</pdfrwt>
<pdfrwt beam="2">  1       -2 0.65726142E-02 0.32204924E+03</pdfrwt>
<totfact> 0.64100368E+03</totfact>
</mgrwt>
</event>
<event>
 4    1  0.1762274E-004  0.2931632E+03  0.7818608E-02  0.1088709E+00
         -3   -1    0    0    0  501 -0.00000000000E+00  0.00000000000E+00  0.20689584116E+03  0.20689584116E+03  0.00000000000E+00 0.  1.
          3   -1    0    0  501    0  0.00000000000E+00 -0.00000000000E+00 -0.10385017680E+03  0.10385017680E+03  0.00000000000E+00 0.  1.
         25    1    1    2    0    0  0.17171266255E+02  0.39770174978E+02  0.12802969068E+03  0.18074324579E+03  0.12000000000E+03 0.  0.
         25    1    1    2    0    0 -0.17171266255E+02 -0.39770174978E+02 -0.24984026315E+02  0.13000277218E+03  0.12000000000E+03 0.  0.
<mgrwt>
<rscale>  0 0.29316323E+03</rscale>
<asrwt>0</asrwt>
<pdfrwt beam="1">  1        3 0.15976950E-01 0.29316323E+03</pdfrwt>
<pdfrwt beam="2">  1       -3 0.31830129E-01 0.29316323E+03</pdfrwt>
<totfact> 0.81812169E+02</totfact>
</mgrwt>
</event>
<event>
 4    1  0.1762274E-004  0.4725844E+03  0.7818608E-02  0.1021193E+00
          2   -1    0    0  501    0  0.00000000000E+00  0.00000000000E+00  0.81515210421E+03  0.81515210421E+03  0.00000000000E+00 0.  1.
         -2   -1    0    0    0  501 -0.00000000000E+00 -0.00000000000E+00 -0.68495195941E+02  0.68495195941E+02  0.00000000000E+00 0.  1.
         25    1    1    2    0    0 -0.10336411825E+03 -0.62489296441E+02  0.67968761806E+03  0.70068845521E+03  0.12000000000E+03 0.  0.
         25    1    1    2    0    0  0.10336411825E+03  0.62489296441E+02  0.66969290203E+02  0.18295884494E+03  0.12000000000E+03 0.  0.
<mgrwt>
<rscale>  0 0.47258440E+03</rscale>
<asrwt>0</asrwt>
<pdfrwt beam="1">  1        2 0.12540801E+00 0.47258440E+03</pdfrwt>
<pdfrwt beam="2">  1       -2 0.10537723E-01 0.47258440E+03</pdfrwt>
<totfact> 0.21191093E+03</totfact>
</mgrwt>
</event>
<event>
 4    1  0.1762274E-004  0.3016683E+03  0.7818608E-02  0.1084410E+00
          1   -1    0    0  501    0  0.00000000000E+00  0.00000000000E+00  0.57918337451E+03  0.57918337451E+03  0.00000000000E+00 0. -1.
         -1   -1    0    0    0  501 -0.00000000000E+00 -0.00000000000E+00 -0.39281072344E+02  0.39281072344E+02  0.00000000000E+00 0. -1.
         25    1    1    2    0    0 -0.30469456225E+02 -0.29280982764E+02  0.10383633812E+03  0.16421860074E+03  0.12000000000E+03 0.  0.
         25    1    1    2    0    0  0.30469456225E+02  0.29280982764E+02  0.43606596405E+03  0.45424584612E+03  0.12000000000E+03 0.  0.
<mgrwt>
<rscale>  0 0.30166832E+03</rscale>
<asrwt>0</asrwt>
<pdfrwt beam="1">  1        1 0.89105128E-01 0.30166832E+03</pdfrwt>
<pdfrwt beam="2">  1       -1 0.60432423E-02 0.30166832E+03</pdfrwt>
<totfact> 0.48810042E+03</totfact>
</mgrwt>
</event>
<event>
 4    1  0.1762274E-004  0.3072255E+03  0.7818608E-02  0.1081683E+00
          1   -1    0    0  501    0  0.00000000000E+00  0.00000000000E+00  0.15352382955E+03  0.15352382955E+03  0.00000000000E+00 0.  1.
         -1   -1    0    0    0  501 -0.00000000000E+00 -0.00000000000E+00 -0.15370177170E+03  0.15370177170E+03  0.00000000000E+00 0.  1.
         25    1    1    2    0    0  0.31968508263E+02  0.83584316785E+02 -0.34564490881E+02  0.15363276852E+03  0.12000000000E+03 0.  0.
         25    1    1    2    0    0 -0.31968508263E+02 -0.83584316785E+02  0.34386548737E+02  0.15359283273E+03  0.12000000000E+03 0.  0.
<mgrwt>
<rscale>  0 0.30722555E+03</rscale>
<asrwt>0</asrwt>
<pdfrwt beam="1">  1        1 0.23619051E-01 0.30722555E+03</pdfrwt>
<pdfrwt beam="2">  1       -1 0.23646426E-01 0.30722555E+03</pdfrwt>
<totfact> 0.31436249E+03</totfact>
</mgrwt>
</event>
<event>
 4    1  0.1762274E-004  0.2501507E+03  0.7818608E-02  0.1113210E+00
         -2   -1    0    0    0  501 -0.00000000000E+00  0.00000000000E+00  0.10849569628E+04  0.10849569628E+04  0.00000000000E+00 0. -1.
          2   -1    0    0  501    0  0.00000000000E+00 -0.00000000000E+00 -0.14418865204E+02  0.14418865204E+02  0.00000000000E+00 0. -1.
         25    1    1    2    0    0  0.34775657205E+02 -0.47528520908E+01  0.55043750941E+03  0.56445849068E+03  0.12000000000E+03 0.  0.
         25    1    1    2    0    0 -0.34775657205E+02  0.47528520908E+01  0.52010058817E+03  0.53491733731E+03  0.12000000000E+03 0.  0.
<mgrwt>
<rscale>  0 0.25015074E+03</rscale>
<asrwt>0</asrwt>
<pdfrwt beam="1">  1        2 0.22182878E-02 0.25015074E+03</pdfrwt>
<pdfrwt beam="2">  1       -2 0.16691639E+00 0.25015074E+03</pdfrwt>
<totfact> 0.11310150E+03</totfact>
</mgrwt>
</event>
<event>
 4    1  0.1762274E-004  0.3014012E+03  0.7818608E-02  0.1084542E+00
         -4   -1    0    0    0  501 -0.00000000000E+00  0.00000000000E+00  0.35414034839E+03  0.35414034839E+03  0.00000000000E+00 0.  1.
          4   -1    0    0  501    0  0.00000000000E+00 -0.00000000000E+00 -0.64129001052E+02  0.64129001052E+02  0.00000000000E+00 0.  1.
         25    1    1    2    0    0 -0.49088840083E+02  0.21806175248E+02  0.42787358998E+02  0.13826055688E+03  0.12000000000E+03 0.  0.
         25    1    1    2    0    0  0.49088840083E+02 -0.21806175248E+02  0.24722398834E+03  0.28000879256E+03  0.12000000000E+03 0.  0.
<mgrwt>
<rscale>  0 0.30140117E+03</rscale>
<asrwt>0</asrwt>
<pdfrwt beam="1">  1        4 0.98660004E-02 0.30140117E+03</pdfrwt>
<pdfrwt beam="2">  1       -4 0.54483129E-01 0.30140117E+03</pdfrwt>
<totfact> 0.47771844E+02</totfact>
</mgrwt>
</event>
<event>
 4    1  0.1762274E-004  0.2667786E+03  0.7818608E-02  0.1103138E+00
          2   -1    0    0  501    0  0.00000000000E+00  0.00000000000E+00  0.18005285904E+04  0.18005285904E+04  0.00000000000E+00 0. -1.
         -2   -1    0    0    0  501 -0.00000000000E+00 -0.00000000000E+00 -0.98819325967E+01  0.98819325967E+01  0.00000000000E+00 0. -1.
         25    1    1    2    0    0  0.38214615092E+01  0.57208135625E+02  0.96496956667E+03  0.97409118615E+03  0.12000000000E+03 0.  0.
         25    1    1    2    0    0 -0.38214615092E+01 -0.57208135625E+02  0.82567709115E+03  0.83631933686E+03  0.12000000000E+03 0.  0.
<mgrwt>
<rscale>  0 0.26677858E+03</rscale>
<asrwt>0</asrwt>
<pdfrwt beam="1">  1        2 0.27700414E+00 0.26677858E+03</pdfrwt>
<pdfrwt beam="2">  1       -2 0.15202988E-02 0.26677858E+03</pdfrwt>
<totfact> 0.10933987E+04</totfact>
</mgrwt>
</event>
<event>
 4    1  0.1762274E-004  0.2941820E+03  0.7818608E-02  0.1088186E+00
          2   -1    0    0  501    0  0.00000000000E+00  0.00000000000E+00  0.92300255998E+03  0.92300255998E+03  0.00000000000E+00 0. -1.
         -2   -1    0    0    0  501 -0.00000000000E+00 -0.00000000000E+00 -0.23440627622E+02  0.23440627622E+02  0.00000000000E+00 0. -1.
         25    1    1    2    0    0  0.17425840730E+02  0.11278149375E+02  0.18438797828E+03  0.22097462097E+03  0.12000000000E+03 0.  0.
         25    1    1    2    0    0 -0.17425840730E+02 -0.11278149375E+02  0.71517395408E+03  0.72546856663E+03  0.12000000000E+03 0.  0.
<mgrwt>
<rscale>  0 0.29418198E+03</rscale>
<asrwt>0</asrwt>
<pdfrwt beam="1">  1        2 0.14200037E+00 0.29418198E+03</pdfrwt>
<pdfrwt beam="2">  1       -2 0.36062511E-02 0.29418198E+03</pdfrwt>
<totfact> 0.94336171E+03</totfact>
</mgrwt>
</event>
<event>
 4    1  0.1762274E-004  0.2941606E+03  0.7818608E-02  0.1088197E+00
          2   -1    0    0  501    0  0.00000000000E+00  0.00000000000E+00  0.12038450204E+04  0.12038450204E+04  0.00000000000E+00 0.  1.
         -2   -1    0    0    0  501 -0.00000000000E+00 -0.00000000000E+00 -0.17969596852E+02  0.17969596852E+02  0.00000000000E+00 0.  1.
         25    1    1    2    0    0 -0.39715605493E+02 -0.50684562849E+02  0.36218658256E+03  0.38694363261E+03  0.12000000000E+03 0.  0.
         25    1    1    2    0    0  0.39715605493E+02  0.50684562849E+02  0.82368884099E+03  0.83487098464E+03  0.12000000000E+03 0.  0.
<mgrwt>
<rscale>  0 0.29416057E+03</rscale>
<asrwt>0</asrwt>
<pdfrwt beam="1">  1        2 0.18520686E+00 0.29416057E+03</pdfrwt>
<pdfrwt beam="2">  1       -2 0.27645543E-02 0.29416057E+03</pdfrwt>
<totfact> 0.95209910E+03</totfact>
</mgrwt>
</event>
<event>
 4    1  0.1762274E-004  0.2448682E+03  0.7818608E-02  0.1116592E+00
          1   -1    0    0  501    0  0.00000000000E+00  0.00000000000E+00  0.83929212010E+03  0.83929212010E+03  0.00000000000E+00 0. -1.
         -1   -1    0    0    0  501 -0.00000000000E+00 -0.00000000000E+00 -0.17860417789E+02  0.17860417789E+02  0.00000000000E+00 0. -1.
         25    1    1    2    0    0 -0.22830221460E+02 -0.78395455200E+01  0.42025770151E+03  0.43772047378E+03  0.12000000000E+03 0.  0.
         25    1    1    2    0    0  0.22830221460E+02  0.78395455200E+01  0.40117400080E+03  0.41943206411E+03  0.12000000000E+03 0.  0.
<mgrwt>
<rscale>  0 0.24486819E+03</rscale>
<asrwt>0</asrwt>
<pdfrwt beam="1">  1        1 0.12912183E+00 0.24486819E+03</pdfrwt>
<pdfrwt beam="2">  1       -1 0.27477572E-02 0.24486819E+03</pdfrwt>
<totfact> 0.91184623E+03</totfact>
</mgrwt>
</event>
<event>
 4    1  0.1762274E-004  0.2664625E+03  0.7818608E-02  0.1103321E+00
         -2   -1    0    0    0  501 -0.00000000000E+00  0.00000000000E+00  0.44668123251E+03  0.44668123251E+03  0.00000000000E+00 0.  1.
          2   -1    0    0  501    0  0.00000000000E+00 -0.00000000000E+00 -0.39738785689E+02  0.39738785689E+02  0.00000000000E+00 0.  1.
         25    1    1    2    0    0  0.21314961934E+01  0.37686412101E+02  0.12336311622E+03  0.17619099686E+03  0.12000000000E+03 0.  0.
         25    1    1    2    0    0 -0.21314961934E+01 -0.37686412101E+02  0.28357933060E+03  0.31022902133E+03  0.12000000000E+03 0.  0.
<mgrwt>
<rscale>  0 0.26646253E+03</rscale>
<asrwt>0</asrwt>
<pdfrwt beam="1">  1        2 0.61136596E-02 0.26646253E+03</pdfrwt>
<pdfrwt beam="2">  1       -2 0.68720186E-01 0.26646253E+03</pdfrwt>
<totfact> 0.23826605E+03</totfact>
</mgrwt>
</event>
<event>
 4    1  0.1762274E-004  0.3115980E+03  0.7818608E-02  0.1079582E+00
          1   -1    0    0  501    0  0.00000000000E+00  0.00000000000E+00  0.60141133395E+02  0.60141133395E+02  0.00000000000E+00 0.  1.
         -1   -1    0    0    0  501 -0.00000000000E+00 -0.00000000000E+00 -0.40360599510E+03  0.40360599510E+03  0.00000000000E+00 0.  1.
         25    1    1    2    0    0  0.81272091157E+02  0.45939556702E+02 -0.22237195111E+03  0.26937869313E+03  0.12000000000E+03 0.  0.
         25    1    1    2    0    0 -0.81272091157E+02 -0.45939556702E+02 -0.12109291060E+03  0.19436843537E+03  0.12000000000E+03 0.  0.
<mgrwt>
<rscale>  0 0.31159796E+03</rscale>
<asrwt>0</asrwt>
<pdfrwt beam="1">  1        1 0.92524820E-02 0.31159796E+03</pdfrwt>
<pdfrwt beam="2">  1       -1 0.62093231E-01 0.31159796E+03</pdfrwt>
<totfact> 0.19407719E+03</totfact>
</mgrwt>
</event>
<event>
 4    1  0.1762274E-004  0.2675544E+03  0.7818608E-02  0.1102688E+00
         -2   -1    0    0    0  501 -0.00000000000E+00  0.00000000000E+00  0.21704026958E+02  0.21704026958E+02  0.00000000000E+00 0.  1.
          2   -1    0    0  501    0  0.00000000000E+00 -0.00000000000E+00 -0.82456286222E+03  0.82456286222E+03  0.00000000000E+00 0.  1.
         25    1    1    2    0    0  0.36979135872E+00 -0.12410378296E+02 -0.58428585293E+03  0.59661051966E+03  0.12000000000E+03 0.  0.
         25    1    1    2    0    0 -0.36979135872E+00  0.12410378296E+02 -0.21857298233E+03  0.24965636952E+03  0.12000000000E+03 0.  0.
<mgrwt>
<rscale>  0 0.26755437E+03</rscale>
<asrwt>0</asrwt>
<pdfrwt beam="1">  1        2 0.12685580E+00 0.26755437E+03</pdfrwt>
<pdfrwt beam="2">  1       -2 0.33390818E-02 0.26755437E+03</pdfrwt>
<totfact> 0.12250097E+04</totfact>
</mgrwt>
</event>
<event>
 4    1  0.1762274E-004  0.2546428E+03  0.7818608E-02  0.1110405E+00
          1   -1    0    0  501    0  0.00000000000E+00  0.00000000000E+00  0.50382276999E+02  0.50382276999E+02  0.00000000000E+00 0. -1.
         -1   -1    0    0    0  501 -0.00000000000E+00 -0.00000000000E+00 -0.32175466907E+03  0.32175466907E+03  0.00000000000E+00 0. -1.
         25    1    1    2    0    0 -0.40774204153E+02 -0.34581287269E+00 -0.15346964864E+03  0.19903665080E+03  0.12000000000E+03 0.  0.
         25    1    1    2    0    0  0.40774204153E+02  0.34581287269E+00 -0.11790274343E+03  0.17310029526E+03  0.12000000000E+03 0.  0.
<mgrwt>
<rscale>  0 0.25464275E+03</rscale>
<asrwt>0</asrwt>
<pdfrwt beam="1">  1        1 0.77511193E-02 0.25464275E+03</pdfrwt>
<pdfrwt beam="2">  1       -1 0.49500720E-01 0.25464275E+03</pdfrwt>
<totfact> 0.37712259E+03</totfact>
</mgrwt>
</event>
<event>
 4    1  0.1762274E-004  0.2483371E+03  0.7818608E-02  0.1114360E+00
          1   -1    0    0  501    0  0.00000000000E+00  0.00000000000E+00  0.28624289797E+03  0.28624289797E+03  0.00000000000E+00 0.  1.
         -1   -1    0    0    0  501 -0.00000000000E+00 -0.00000000000E+00 -0.53862731645E+02  0.53862731645E+02  0.00000000000E+00 0.  1.
         25    1    1    2    0    0 -0.50756948546E+01 -0.11046427860E+02  0.75793798290E+02  0.14245169745E+03  0.12000000000E+03 0.  0.
         25    1    1    2    0    0  0.50756948546E+01  0.11046427860E+02  0.15658636804E+03  0.19765393217E+03  0.12000000000E+03 0.  0.
<mgrwt>
<rscale>  0 0.24833706E+03</rscale>
<asrwt>0</asrwt>
<pdfrwt beam="1">  1        1 0.44037368E-01 0.24833706E+03</pdfrwt>
<pdfrwt beam="2">  1       -1 0.82865743E-02 0.24833706E+03</pdfrwt>
<totfact> 0.74858751E+03</totfact>
</mgrwt>
</event>
<event>
 4    1  0.1762274E-004  0.2603401E+03  0.7818608E-02  0.1106939E+00
          2   -1    0    0  501    0  0.00000000000E+00  0.00000000000E+00  0.78419009986E+03  0.78419009986E+03  0.00000000000E+00 0.  1.
         -2   -1    0    0    0  501 -0.00000000000E+00 -0.00000000000E+00 -0.21607319172E+02  0.21607319172E+02  0.00000000000E+00 0.  1.
         25    1    1    2    0    0  0.41868428476E+02 -0.39887635926E+01  0.46747790523E+03  0.48446307126E+03  0.12000000000E+03 0.  0.
         25    1    1    2    0    0 -0.41868428476E+02  0.39887635926E+01  0.29510487546E+03  0.32133434777E+03  0.12000000000E+03 0.  0.
<mgrwt>
<rscale>  0 0.26034013E+03</rscale>
<asrwt>0</asrwt>
<pdfrwt beam="1">  1        2 0.12064461E+00 0.26034013E+03</pdfrwt>
<pdfrwt beam="2">  1       -2 0.33242036E-02 0.26034013E+03</pdfrwt>
<totfact> 0.13132556E+04</totfact>
</mgrwt>
</event>
<event>
 4    1  0.1762274E-004  0.4077038E+03  0.7818608E-02  0.1041144E+00
         -2   -1    0    0    0  501 -0.00000000000E+00  0.00000000000E+00  0.40859471070E+03  0.40859471070E+03  0.00000000000E+00 0. -1.
          2   -1    0    0  501    0  0.00000000000E+00 -0.00000000000E+00 -0.10170371370E+03  0.10170371370E+03  0.00000000000E+00 0. -1.
         25    1    1    2    0    0 -0.55440499143E+00 -0.14264265230E+03  0.50169144266E+02  0.19303931376E+03  0.12000000000E+03 0.  0.
         25    1    1    2    0    0  0.55440499143E+00  0.14264265230E+03  0.25672185273E+03  0.31725911065E+03  0.12000000000E+03 0.  0.
<mgrwt>
<rscale>  0 0.40770381E+03</rscale>
<asrwt>0</asrwt>
<pdfrwt beam="1">  1        2 0.15646725E-01 0.40770381E+03</pdfrwt>
<pdfrwt beam="2">  1       -2 0.62860724E-01 0.40770381E+03</pdfrwt>
<totfact> 0.89500191E+02</totfact>
</mgrwt>
</event>
<event>
 4    1  0.1762274E-004  0.2789475E+03  0.7818608E-02  0.1096265E+00
          1   -1    0    0  501    0  0.00000000000E+00  0.00000000000E+00  0.54148618504E+03  0.54148618504E+03  0.00000000000E+00 0.  1.
         -1   -1    0    0    0  501 -0.00000000000E+00 -0.00000000000E+00 -0.35925063029E+02  0.35925063029E+02  0.00000000000E+00 0.  1.
         25    1    1    2    0    0 -0.57758670819E+02 -0.15699333117E+02  0.17340635735E+03  0.21920834356E+03  0.12000000000E+03 0.  0.
         25    1    1    2    0    0  0.57758670819E+02  0.15699333117E+02  0.33215476466E+03  0.35820290451E+03  0.12000000000E+03 0.  0.
<mgrwt>
<rscale>  0 0.27894749E+03</rscale>
<asrwt>0</asrwt>
<pdfrwt beam="1">  1        1 0.83305561E-01 0.27894749E+03</pdfrwt>
<pdfrwt beam="2">  1       -1 0.55269332E-02 0.27894749E+03</pdfrwt>
<totfact> 0.61110185E+03</totfact>
</mgrwt>
</event>
<event>
 4    1  0.1762274E-004  0.2835041E+03  0.7818608E-02  0.1093790E+00
         -2   -1    0    0    0  501 -0.00000000000E+00  0.00000000000E+00  0.11647764015E+02  0.11647764015E+02  0.00000000000E+00 0. -1.
          2   -1    0    0  501    0  0.00000000000E+00 -0.00000000000E+00 -0.17251075070E+04  0.17251075070E+04  0.00000000000E+00 0. -1.
         25    1    1    2    0    0 -0.73287483233E+02 -0.13410295852E+02 -0.92992349870E+03  0.94058949849E+03  0.12000000000E+03 0.  0.
         25    1    1    2    0    0  0.73287483233E+02  0.13410295852E+02 -0.78353624431E+03  0.79616577255E+03  0.12000000000E+03 0.  0.
<mgrwt>
<rscale>  0 0.28350411E+03</rscale>
<asrwt>0</asrwt>
<pdfrwt beam="1">  1        2 0.26540105E+00 0.28350411E+03</pdfrwt>
<pdfrwt beam="2">  1       -2 0.17919644E-02 0.28350411E+03</pdfrwt>
<totfact> 0.94227888E+03</totfact>
</mgrwt>
</event>
<event>
 4    1  0.1762274E-004  0.2792272E+03  0.7818608E-02  0.1096112E+00
         -3   -1    0    0    0  501 -0.00000000000E+00  0.00000000000E+00  0.24758163618E+03  0.24758163618E+03  0.00000000000E+00 0.  1.
          3   -1    0    0  501    0  0.00000000000E+00 -0.00000000000E+00 -0.78729393636E+02  0.78729393636E+02  0.00000000000E+00 0.  1.
         25    1    1    2    0    0  0.40463401273E+02 -0.55217420976E+02  0.60887691482E+02  0.15097536685E+03  0.12000000000E+03 0.  0.
         25    1    1    2    0    0 -0.40463401273E+02  0.55217420976E+02  0.10796455106E+03  0.17533566297E+03  0.12000000000E+03 0.  0.
<mgrwt>
<rscale>  0 0.27922716E+03</rscale>
<asrwt>0</asrwt>
<pdfrwt beam="1">  1        3 0.12112214E-01 0.27922716E+03</pdfrwt>
<pdfrwt beam="2">  1       -3 0.38089482E-01 0.27922716E+03</pdfrwt>
<totfact> 0.92991569E+02</totfact>
</mgrwt>
</event>
<event>
 4    1  0.1762274E-004  0.6465197E+03  0.7818608E-02  0.9813332E-01
         -2   -1    0    0    0  501 -0.00000000000E+00  0.00000000000E+00  0.19549066894E+03  0.19549066894E+03  0.00000000000E+00 0. -1.
          2   -1    0    0  501    0  0.00000000000E+00 -0.00000000000E+00 -0.53453665791E+03  0.53453665791E+03  0.00000000000E+00 0. -1.
         25    1    1    2    0    0  0.20186132501E+02 -0.17707060987E+03  0.10320117441E+03  0.23835260272E+03  0.12000000000E+03 0.  0.
         25    1    1    2    0    0 -0.20186132501E+02  0.17707060987E+03 -0.44224716338E+03  0.49167472412E+03  0.12000000000E+03 0.  0.
<mgrwt>
<rscale>  0 0.64651969E+03</rscale>
<asrwt>0</asrwt>
<pdfrwt beam="1">  1        2 0.82236408E-01 0.64651969E+03</pdfrwt>
<pdfrwt beam="2">  1       -2 0.30075488E-01 0.64651969E+03</pdfrwt>
<totfact> 0.58464751E+02</totfact>
</mgrwt>
</event>
<event>
 4    1  0.1762274E-004  0.3064053E+03  0.7818608E-02  0.1082082E+00
          2   -1    0    0  501    0  0.00000000000E+00  0.00000000000E+00  0.67568523249E+03  0.67568523249E+03  0.00000000000E+00 0. -1.
         -2   -1    0    0    0  501 -0.00000000000E+00 -0.00000000000E+00 -0.34736665377E+02  0.34736665377E+02  0.00000000000E+00 0. -1.
         25    1    1    2    0    0 -0.34280281806E+02  0.16056791543E+02  0.52310839402E+03  0.53802913505E+03  0.12000000000E+03 0.  0.
         25    1    1    2    0    0  0.34280281806E+02 -0.16056791543E+02  0.11784017310E+03  0.17239276282E+03  0.12000000000E+03 0.  0.
<mgrwt>
<rscale>  0 0.30640530E+03</rscale>
<asrwt>0</asrwt>
<pdfrwt beam="1">  1        2 0.10395156E+00 0.30640530E+03</pdfrwt>
<pdfrwt beam="2">  1       -2 0.53441028E-02 0.30640530E+03</pdfrwt>
<totfact> 0.77476262E+03</totfact>
</mgrwt>
</event>
<event>
 4    1  0.1762274E-004  0.2467090E+03  0.7818608E-02  0.1115402E+00
         -2   -1    0    0    0  501 -0.00000000000E+00  0.00000000000E+00  0.54615524665E+02  0.54615524665E+02  0.00000000000E+00 0. -1.
          2   -1    0    0  501    0  0.00000000000E+00 -0.00000000000E+00 -0.27860821549E+03  0.27860821549E+03  0.00000000000E+00 0. -1.
         25    1    1    2    0    0 -0.12305122748E+02 -0.25332870184E+02 -0.10549575083E+03  0.16224217639E+03  0.12000000000E+03 0.  0.
         25    1    1    2    0    0  0.12305122748E+02  0.25332870184E+02 -0.11849693999E+03  0.17098156376E+03  0.12000000000E+03 0.  0.
<mgrwt>
<rscale>  0 0.24670901E+03</rscale>
<asrwt>0</asrwt>
<pdfrwt beam="1">  1        2 0.42862801E-01 0.24670901E+03</pdfrwt>
<pdfrwt beam="2">  1       -2 0.84023886E-02 0.24670901E+03</pdfrwt>
<totfact> 0.10215955E+04</totfact>
</mgrwt>
</event>
<event>
 4    1  0.1762274E-004  0.2623386E+03  0.7818608E-02  0.1105746E+00
         -2   -1    0    0    0  501 -0.00000000000E+00  0.00000000000E+00  0.15293949843E+02  0.15293949843E+02  0.00000000000E+00 0.  1.
          2   -1    0    0  501    0  0.00000000000E+00 -0.00000000000E+00 -0.11249798029E+04  0.11249798029E+04  0.00000000000E+00 0.  1.
         25    1    1    2    0    0 -0.14191147793E+02 -0.20157302615E+02 -0.75860768915E+03  0.76843563918E+03  0.12000000000E+03 0.  0.
         25    1    1    2    0    0  0.14191147793E+02  0.20157302615E+02 -0.35107816387E+03  0.37183811353E+03  0.12000000000E+03 0.  0.
<mgrwt>
<rscale>  0 0.26233860E+03</rscale>
<asrwt>0</asrwt>
<pdfrwt beam="1">  1        2 0.17307386E+00 0.26233860E+03</pdfrwt>
<pdfrwt beam="2">  1       -2 0.23529147E-02 0.26233860E+03</pdfrwt>
<totfact> 0.13377463E+04</totfact>
</mgrwt>
</event>
<event>
 4    1  0.1762274E-004  0.2477361E+03  0.7818608E-02  0.1114744E+00
          2   -1    0    0  501    0  0.00000000000E+00  0.00000000000E+00  0.18635891303E+04  0.18635891303E+04  0.00000000000E+00 0.  1.
         -2   -1    0    0    0  501 -0.00000000000E+00 -0.00000000000E+00 -0.82331985667E+01  0.82331985667E+01  0.00000000000E+00 0.  1.
         25    1    1    2    0    0 -0.26590189293E+02  0.18946322654E+01  0.10429295486E+04  0.10501488805E+04  0.12000000000E+03 0.  0.
         25    1    1    2    0    0  0.26590189293E+02 -0.18946322654E+01  0.81242638311E+03  0.82167344838E+03  0.12000000000E+03 0.  0.
<mgrwt>
<rscale>  0 0.24773614E+03</rscale>
<asrwt>0</asrwt>
<pdfrwt beam="1">  1        2 0.28670569E+00 0.24773614E+03</pdfrwt>
<pdfrwt beam="2">  1       -2 0.12666474E-02 0.24773614E+03</pdfrwt>
<totfact> 0.13204275E+04</totfact>
</mgrwt>
</event>
<event>
 4    1  0.1762274E-004  0.3342083E+03  0.7818608E-02  0.1069290E+00
         -2   -1    0    0    0  501 -0.00000000000E+00  0.00000000000E+00  0.37858258697E+02  0.37858258697E+02  0.00000000000E+00 0.  1.
          2   -1    0    0  501    0  0.00000000000E+00 -0.00000000000E+00 -0.73758782738E+03  0.73758782738E+03  0.00000000000E+00 0.  1.
         25    1    1    2    0    0  0.65939316520E+02  0.78427012874E+02 -0.47747845006E+03  0.50287618763E+03  0.12000000000E+03 0.  0.
         25    1    1    2    0    0 -0.65939316520E+02 -0.78427012874E+02 -0.22225111862E+03  0.27256989845E+03  0.12000000000E+03 0.  0.
<mgrwt>
<rscale>  0 0.33420826E+03</rscale>
<asrwt>0</asrwt>
<pdfrwt beam="1">  1        2 0.11347504E+00 0.33420826E+03</pdfrwt>
<pdfrwt beam="2">  1       -2 0.58243479E-02 0.33420826E+03</pdfrwt>
<totfact> 0.61115204E+03</totfact>
</mgrwt>
</event>
<event>
 4    1  0.1762274E-004  0.2803381E+03  0.7818608E-02  0.1095504E+00
          1   -1    0    0  501    0  0.00000000000E+00  0.00000000000E+00  0.52426447402E+03  0.52426447402E+03  0.00000000000E+00 0.  1.
         -1   -1    0    0    0  501 -0.00000000000E+00 -0.00000000000E+00 -0.37476039749E+02  0.37476039749E+02  0.00000000000E+00 0.  1.
         25    1    1    2    0    0  0.35480197702E+01  0.87110487133E+01  0.38731769128E+03  0.40559026713E+03  0.12000000000E+03 0.  0.
         25    1    1    2    0    0 -0.35480197702E+01 -0.87110487133E+01  0.99470742996E+02  0.15615024664E+03  0.12000000000E+03 0.  0.
<mgrwt>
<rscale>  0 0.28033805E+03</rscale>
<asrwt>0</asrwt>
<pdfrwt beam="1">  1        1 0.80656068E-01 0.28033805E+03</pdfrwt>
<pdfrwt beam="2">  1       -1 0.57655450E-02 0.28033805E+03</pdfrwt>
<totfact> 0.59904968E+03</totfact>
</mgrwt>
</event>
<event>
 4    1  0.1762274E-004  0.2963708E+03  0.7818608E-02  0.1087069E+00
         -2   -1    0    0    0  501 -0.00000000000E+00  0.00000000000E+00  0.30196408897E+02  0.30196408897E+02  0.00000000000E+00 0.  1.
          2   -1    0    0  501    0  0.00000000000E+00 -0.00000000000E+00 -0.72720260113E+03  0.72720260113E+03  0.00000000000E+00 0.  1.
         25    1    1    2    0    0 -0.39250540831E+02 -0.74625917757E+02 -0.40267140532E+03  0.42854858910E+03  0.12000000000E+03 0.  0.
         25    1    1    2    0    0  0.39250540831E+02  0.74625917757E+02 -0.29433478691E+03  0.32885042093E+03  0.12000000000E+03 0.  0.
<mgrwt>
<rscale>  0 0.29637076E+03</rscale>
<asrwt>0</asrwt>
<pdfrwt beam="1">  1        2 0.11187733E+00 0.29637076E+03</pdfrwt>
<pdfrwt beam="2">  1       -2 0.46456013E-02 0.29637076E+03</pdfrwt>
<totfact> 0.87603066E+03</totfact>
</mgrwt>
</event>
<event>
 4    1  0.1762274E-004  0.2909090E+03  0.7818608E-02  0.1089876E+00
          4   -1    0    0  501    0  0.00000000000E+00  0.00000000000E+00  0.13973972141E+03  0.13973972141E+03  0.00000000000E+00 0.  1.
         -4   -1    0    0    0  501 -0.00000000000E+00 -0.00000000000E+00 -0.15140294980E+03  0.15140294980E+03  0.00000000000E+00 0.  1.
         25    1    1    2    0    0  0.67111471886E+02  0.47049742905E+02  0.44862111286E+00  0.14531974823E+03  0.12000000000E+03 0.  0.
         25    1    1    2    0    0 -0.67111471886E+02 -0.47049742905E+02 -0.12111849505E+02  0.14582292297E+03  0.12000000000E+03 0.  0.
<mgrwt>
<rscale>  0 0.29090896E+03</rscale>
<asrwt>0</asrwt>
<pdfrwt beam="1">  1        4 0.21498419E-01 0.29090896E+03</pdfrwt>
<pdfrwt beam="2">  1       -4 0.23292761E-01 0.29090896E+03</pdfrwt>
<totfact> 0.63807272E+02</totfact>
</mgrwt>
</event>
<event>
 4    1  0.1762274E-004  0.2814004E+03  0.7818608E-02  0.1094926E+00
         -1   -1    0    0    0  501 -0.00000000000E+00  0.00000000000E+00  0.16795864234E+03  0.16795864234E+03  0.00000000000E+00 0.  1.
          1   -1    0    0  501    0  0.00000000000E+00 -0.00000000000E+00 -0.11786564035E+03  0.11786564035E+03  0.00000000000E+00 0.  1.
         25    1    1    2    0    0  0.41580649606E+02 -0.56741956895E+02  0.35488759138E+01  0.13914450982E+03  0.12000000000E+03 0.  0.
         25    1    1    2    0    0 -0.41580649606E+02  0.56741956895E+02  0.46544126081E+02  0.14667977286E+03  0.12000000000E+03 0.  0.
<mgrwt>
<rscale>  0 0.28140045E+03</rscale>
<asrwt>0</asrwt>
<pdfrwt beam="1">  1        1 0.18133175E-01 0.28140045E+03</pdfrwt>
<pdfrwt beam="2">  1       -1 0.25839791E-01 0.28140045E+03</pdfrwt>
<totfact> 0.38050753E+03</totfact>
</mgrwt>
</event>
<event>
 4    1  0.1762274E-004  0.3004725E+03  0.7818608E-02  0.1085005E+00
         -3   -1    0    0    0  501 -0.00000000000E+00  0.00000000000E+00  0.49533399916E+03  0.49533399916E+03  0.00000000000E+00 0. -1.
          3   -1    0    0  501    0  0.00000000000E+00 -0.00000000000E+00 -0.45567090833E+02  0.45567090833E+02  0.00000000000E+00 0. -1.
         25    1    1    2    0    0 -0.76828085912E+02  0.43245102853E+02  0.26080733071E+03  0.30032175655E+03  0.12000000000E+03 0.  0.
         25    1    1    2    0    0  0.76828085912E+02 -0.43245102853E+02  0.18895957762E+03  0.24057933344E+03  0.12000000000E+03 0.  0.
<mgrwt>
<rscale>  0 0.30047249E+03</rscale>
<asrwt>0</asrwt>
<pdfrwt beam="1">  1        3 0.70103220E-02 0.30047249E+03</pdfrwt>
<pdfrwt beam="2">  1       -3 0.76205227E-01 0.30047249E+03</pdfrwt>
<totfact> 0.56135500E+02</totfact>
</mgrwt>
</event>
<event>
 4    1  0.1762274E-004  0.2657990E+03  0.7818608E-02  0.1103708E+00
          2   -1    0    0  501    0  0.00000000000E+00  0.00000000000E+00  0.18467321187E+04  0.18467321187E+04  0.00000000000E+00 0. -1.
         -2   -1    0    0    0  501 -0.00000000000E+00 -0.00000000000E+00 -0.95640703508E+01  0.95640703508E+01  0.00000000000E+00 0. -1.
         25    1    1    2    0    0  0.95597771441E+01 -0.37168843200E+02  0.12140063082E+04  0.12205262097E+04  0.12000000000E+03 0.  0.
         25    1    1    2    0    0 -0.95597771441E+01  0.37168843200E+02  0.62316174019E+03  0.63576997938E+03  0.12000000000E+03 0.  0.
<mgrwt>
<rscale>  0 0.26579899E+03</rscale>
<asrwt>0</asrwt>
<pdfrwt beam="1">  1        2 0.28411235E+00 0.26579899E+03</pdfrwt>
<pdfrwt beam="2">  1       -2 0.14713969E-02 0.26579899E+03</pdfrwt>
<totfact> 0.10846254E+04</totfact>
</mgrwt>
</event>
<event>
 4    1  0.1762274E-004  0.3234055E+03  0.7818608E-02  0.1074093E+00
          1   -1    0    0  501    0  0.00000000000E+00  0.00000000000E+00  0.20952835881E+03  0.20952835881E+03  0.00000000000E+00 0.  1.
         -1   -1    0    0    0  501 -0.00000000000E+00 -0.00000000000E+00 -0.12479353104E+03  0.12479353104E+03  0.00000000000E+00 0.  1.
         25    1    1    2    0    0  0.98829628717E+02  0.43694122956E+02  0.33637735488E+02  0.16494838327E+03  0.12000000000E+03 0.  0.
         25    1    1    2    0    0 -0.98829628717E+02 -0.43694122956E+02  0.51097092282E+02  0.16937350658E+03  0.12000000000E+03 0.  0.
<mgrwt>
<rscale>  0 0.32340553E+03</rscale>
<asrwt>0</asrwt>
<pdfrwt beam="1">  1        1 0.32235132E-01 0.32340553E+03</pdfrwt>
<pdfrwt beam="2">  1       -1 0.19199005E-01 0.32340553E+03</pdfrwt>
<totfact> 0.29828272E+03</totfact>
</mgrwt>
</event>
<event>
 4    1  0.1762274E-004  0.2524136E+03  0.7818608E-02  0.1111789E+00
          2   -1    0    0  501    0  0.00000000000E+00  0.00000000000E+00  0.97854551755E+03  0.97854551755E+03  0.00000000000E+00 0. -1.
         -2   -1    0    0    0  501 -0.00000000000E+00 -0.00000000000E+00 -0.16277374859E+02  0.16277374859E+02  0.00000000000E+00 0. -1.
         25    1    1    2    0    0 -0.16633785622E+00  0.39089847904E+02  0.48243126185E+03  0.49866618724E+03  0.12000000000E+03 0.  0.
         25    1    1    2    0    0  0.16633785622E+00 -0.39089847904E+02  0.47983688084E+03  0.49615670518E+03  0.12000000000E+03 0.  0.
<mgrwt>
<rscale>  0 0.25241357E+03</rscale>
<asrwt>0</asrwt>
<pdfrwt beam="1">  1        2 0.15054542E+00 0.25241357E+03</pdfrwt>
<pdfrwt beam="2">  1       -2 0.25042123E-02 0.25241357E+03</pdfrwt>
<totfact> 0.14905449E+04</totfact>
</mgrwt>
</event>
<event>
 4    1  0.1762274E-004  0.2722678E+03  0.7818608E-02  0.1099989E+00
         -2   -1    0    0    0  501 -0.00000000000E+00  0.00000000000E+00  0.16371261086E+02  0.16371261086E+02  0.00000000000E+00 0. -1.
          2   -1    0    0  501    0  0.00000000000E+00 -0.00000000000E+00 -0.11320103021E+04  0.11320103021E+04  0.00000000000E+00 0. -1.
         25    1    1    2    0    0 -0.55326408877E+02 -0.32721362284E+02 -0.56144082264E+03  0.57770883358E+03  0.12000000000E+03 0.  0.
         25    1    1    2    0    0  0.55326408877E+02  0.32721362284E+02 -0.55419821839E+03  0.57067272963E+03  0.12000000000E+03 0.  0.
<mgrwt>
<rscale>  0 0.27226778E+03</rscale>
<asrwt>0</asrwt>
<pdfrwt beam="1">  1        2 0.17415541E+00 0.27226778E+03</pdfrwt>
<pdfrwt beam="2">  1       -2 0.25186558E-02 0.27226778E+03</pdfrwt>
<totfact> 0.11998085E+04</totfact>
</mgrwt>
</event>
<event>
 4    1  0.1762274E-004  0.2655620E+03  0.7818608E-02  0.1103847E+00
          1   -1    0    0  501    0  0.00000000000E+00  0.00000000000E+00  0.10314951761E+03  0.10314951761E+03  0.00000000000E+00 0.  1.
         -1   -1    0    0    0  501 -0.00000000000E+00 -0.00000000000E+00 -0.17092461748E+03  0.17092461748E+03  0.00000000000E+00 0.  1.
         25    1    1    2    0    0  0.89076306633E+01 -0.53991411608E+02 -0.18020306859E+02  0.13311329712E+03  0.12000000000E+03 0.  0.
         25    1    1    2    0    0 -0.89076306633E+01  0.53991411608E+02 -0.49754793014E+02  0.14096083796E+03  0.12000000000E+03 0.  0.
<mgrwt>
<rscale>  0 0.26556198E+03</rscale>
<asrwt>0</asrwt>
<pdfrwt beam="1">  1        1 0.15869157E-01 0.26556198E+03</pdfrwt>
<pdfrwt beam="2">  1       -1 0.26296094E-01 0.26556198E+03</pdfrwt>
<totfact> 0.43884187E+03</totfact>
</mgrwt>
</event>
<event>
 4    1  0.1762274E-004  0.2623890E+03  0.7818608E-02  0.1105716E+00
         -2   -1    0    0    0  501 -0.00000000000E+00  0.00000000000E+00  0.46667525206E+02  0.46667525206E+02  0.00000000000E+00 0.  1.
          2   -1    0    0  501    0  0.00000000000E+00 -0.00000000000E+00 -0.36882172130E+03  0.36882172130E+03  0.00000000000E+00 0.  1.
         25    1    1    2    0    0  0.42351986704E+02 -0.71870528396E+01 -0.21030930950E+03  0.24591736451E+03  0.12000000000E+03 0.  0.
         25    1    1    2    0    0 -0.42351986704E+02  0.71870528396E+01 -0.11184488660E+03  0.16957188200E+03  0.12000000000E+03 0.  0.
<mgrwt>
<rscale>  0 0.26238900E+03</rscale>
<asrwt>0</asrwt>
<pdfrwt beam="1">  1        2 0.56741802E-01 0.26238900E+03</pdfrwt>
<pdfrwt beam="2">  1       -2 0.71796194E-02 0.26238900E+03</pdfrwt>
<totfact> 0.96793505E+03</totfact>
</mgrwt>
</event>
<event>
 4    1  0.1762274E-004  0.3104861E+03  0.7818608E-02  0.1080113E+00
         -1   -1    0    0    0  501 -0.00000000000E+00  0.00000000000E+00  0.32978880538E+03  0.32978880538E+03  0.00000000000E+00 0. -1.
          1   -1    0    0  501    0  0.00000000000E+00 -0.00000000000E+00 -0.73078305953E+02  0.73078305953E+02  0.00000000000E+00 0. -1.
         25    1    1    2    0    0  0.82374807432E+02 -0.53141511802E+02  0.11599264348E+03  0.19355599323E+03  0.12000000000E+03 0.  0.
         25    1    1    2    0    0 -0.82374807432E+02  0.53141511802E+02  0.14071785595E+03  0.20931111809E+03  0.12000000000E+03 0.  0.
<mgrwt>
<rscale>  0 0.31048612E+03</rscale>
<asrwt>0</asrwt>
<pdfrwt beam="1">  1        1 0.11242816E-01 0.31048612E+03</pdfrwt>
<pdfrwt beam="2">  1       -1 0.50736738E-01 0.31048612E+03</pdfrwt>
<totfact> 0.21913394E+03</totfact>
</mgrwt>
</event>
<event>
 4    1  0.1762274E-004  0.2507094E+03  0.7818608E-02  0.1112857E+00
          3   -1    0    0  501    0  0.00000000000E+00  0.00000000000E+00  0.79850192723E+03  0.79850192723E+03  0.00000000000E+00 0. -1.
         -3   -1    0    0    0  501 -0.00000000000E+00 -0.00000000000E+00 -0.19679095009E+02  0.19679095009E+02  0.00000000000E+00 0. -1.
         25    1    1    2    0    0 -0.32616470249E+02 -0.10383391397E+02  0.35050271742E+03  0.37205349598E+03  0.12000000000E+03 0.  0.
         25    1    1    2    0    0  0.32616470249E+02  0.10383391397E+02  0.42832011480E+03  0.44612752626E+03  0.12000000000E+03 0.  0.
<mgrwt>
<rscale>  0 0.25070936E+03</rscale>
<asrwt>0</asrwt>
<pdfrwt beam="1">  1        3 0.12284643E+00 0.25070936E+03</pdfrwt>
<pdfrwt beam="2">  1       -3 0.30275537E-02 0.25070936E+03</pdfrwt>
<totfact> 0.70780263E+02</totfact>
</mgrwt>
</event>
<event>
 4    1  0.1762274E-004  0.2596684E+03  0.7818608E-02  0.1107343E+00
          2   -1    0    0  501    0  0.00000000000E+00  0.00000000000E+00  0.20076349591E+03  0.20076349591E+03  0.00000000000E+00 0.  1.
         -2   -1    0    0    0  501 -0.00000000000E+00 -0.00000000000E+00 -0.83964051378E+02  0.83964051378E+02  0.00000000000E+00 0.  1.
         25    1    1    2    0    0  0.81086133234E+01 -0.47270941857E+02  0.72122463373E+02  0.14799304469E+03  0.12000000000E+03 0.  0.
         25    1    1    2    0    0 -0.81086133234E+01  0.47270941857E+02  0.44676981154E+02  0.13673450259E+03  0.12000000000E+03 0.  0.
<mgrwt>
<rscale>  0 0.25966838E+03</rscale>
<asrwt>0</asrwt>
<pdfrwt beam="1">  1        2 0.30886692E-01 0.25966838E+03</pdfrwt>
<pdfrwt beam="2">  1       -2 0.12917546E-01 0.25966838E+03</pdfrwt>
<totfact> 0.73568170E+03</totfact>
</mgrwt>
</event>
<event>
 4    1  0.1762274E-004  0.3046130E+03  0.7818608E-02  0.1082957E+00
         -1   -1    0    0    0  501 -0.00000000000E+00  0.00000000000E+00  0.58539929749E+02  0.58539929749E+02  0.00000000000E+00 0. -1.
          1   -1    0    0  501    0  0.00000000000E+00 -0.00000000000E+00 -0.39626413368E+03  0.39626413368E+03  0.00000000000E+00 0. -1.
         25    1    1    2    0    0  0.10827284042E+00  0.93775567293E+02 -0.16610669564E+03  0.22535594752E+03  0.12000000000E+03 0.  0.
         25    1    1    2    0    0 -0.10827284042E+00 -0.93775567293E+02 -0.17161750829E+03  0.22944811591E+03  0.12000000000E+03 0.  0.
<mgrwt>
<rscale>  0 0.30461303E+03</rscale>
<asrwt>0</asrwt>
<pdfrwt beam="1">  1        1 0.60963710E-01 0.30461303E+03</pdfrwt>
<pdfrwt beam="2">  1       -1 0.90061435E-02 0.30461303E+03</pdfrwt>
<totfact> 0.43928166E+03</totfact>
</mgrwt>
</event>
<event>
 4    1  0.1762274E-004  0.2474761E+03  0.7818608E-02  0.1114910E+00
         -4   -1    0    0    0  501 -0.00000000000E+00  0.00000000000E+00  0.19280325885E+03  0.19280325885E+03  0.00000000000E+00 0. -1.
          4   -1    0    0  501    0  0.00000000000E+00 -0.00000000000E+00 -0.79413097212E+02  0.79413097212E+02  0.00000000000E+00 0. -1.
         25    1    1    2    0    0 -0.82354995881E+00  0.21887588479E+02  0.33849590293E+02  0.12659202000E+03  0.12000000000E+03 0.  0.
         25    1    1    2    0    0  0.82354995881E+00 -0.21887588479E+02  0.79540571344E+02  0.14562433606E+03  0.12000000000E+03 0.  0.
<mgrwt>
<rscale>  0 0.24747609E+03</rscale>
<asrwt>0</asrwt>
<pdfrwt beam="1">  1        4 0.12217400E-01 0.24747609E+03</pdfrwt>
<pdfrwt beam="2">  1       -4 0.29662040E-01 0.24747609E+03</pdfrwt>
<totfact> 0.10815507E+03</totfact>
</mgrwt>
</event>
<event>
 4    1  0.1762274E-004  0.2496030E+03  0.7818608E-02  0.1113556E+00
          2   -1    0    0  501    0  0.00000000000E+00  0.00000000000E+00  0.18195940561E+04  0.18195940561E+04  0.00000000000E+00 0. -1.
         -2   -1    0    0    0  501 -0.00000000000E+00 -0.00000000000E+00 -0.85598319738E+01  0.85598319738E+01  0.00000000000E+00 0. -1.
         25    1    1    2    0    0  0.31957106935E+02  0.11791914886E+02  0.93399085380E+03  0.94228404472E+03  0.12000000000E+03 0.  0.
         25    1    1    2    0    0 -0.31957106935E+02 -0.11791914886E+02  0.87704337028E+03  0.88586984331E+03  0.12000000000E+03 0.  0.
<mgrwt>
<rscale>  0 0.24960304E+03</rscale>
<asrwt>0</asrwt>
<pdfrwt beam="1">  1        2 0.27993724E+00 0.24960304E+03</pdfrwt>
<pdfrwt beam="2">  1       -2 0.13168987E-02 0.24960304E+03</pdfrwt>
<totfact> 0.13158570E+04</totfact>
</mgrwt>
</event>
<event>
 4    1  0.1762274E-004  0.2724428E+03  0.7818608E-02  0.1099890E+00
          1   -1    0    0  501    0  0.00000000000E+00  0.00000000000E+00  0.89973596224E+02  0.89973596224E+02  0.00000000000E+00 0. -1.
         -1   -1    0    0    0  501 -0.00000000000E+00 -0.00000000000E+00 -0.20624126096E+03  0.20624126096E+03  0.00000000000E+00 0. -1.
         25    1    1    2    0    0 -0.62694828027E+02  0.78141111857E+01 -0.44186158929E+02  0.14263280982E+03  0.12000000000E+03 0.  0.
         25    1    1    2    0    0  0.62694828027E+02 -0.78141111857E+01 -0.72081505810E+02  0.15358204737E+03  0.12000000000E+03 0.  0.
<mgrwt>
<rscale>  0 0.27244279E+03</rscale>
<asrwt>0</asrwt>
<pdfrwt beam="1">  1        1 0.13842092E-01 0.27244279E+03</pdfrwt>
<pdfrwt beam="2">  1       -1 0.31729424E-01 0.27244279E+03</pdfrwt>
<totfact> 0.38238934E+03</totfact>
</mgrwt>
</event>
<event>
 4    1  0.1762274E-004  0.2502288E+03  0.7818608E-02  0.1113160E+00
          1   -1    0    0  501    0  0.00000000000E+00  0.00000000000E+00  0.42894277980E+03  0.42894277980E+03  0.00000000000E+00 0.  1.
         -1   -1    0    0    0  501 -0.00000000000E+00 -0.00000000000E+00 -0.36493467527E+02  0.36493467527E+02  0.00000000000E+00 0.  1.
         25    1    1    2    0    0  0.58284917435E+00 -0.20995863369E+02  0.24924218987E+03  0.27742176411E+03  0.12000000000E+03 0.  0.
         25    1    1    2    0    0 -0.58284917435E+00  0.20995863369E+02  0.14320712240E+03  0.18801448321E+03  0.12000000000E+03 0.  0.
<mgrwt>
<rscale>  0 0.25022877E+03</rscale>
<asrwt>0</asrwt>
<pdfrwt beam="1">  1        1 0.65991193E-01 0.25022877E+03</pdfrwt>
<pdfrwt beam="2">  1       -1 0.56143799E-02 0.25022877E+03</pdfrwt>
<totfact> 0.80859404E+03</totfact>
</mgrwt>
</event>
<event>
 4    1  0.1762274E-004  0.4185138E+03  0.7818608E-02  0.1037551E+00
          2   -1    0    0  501    0  0.00000000000E+00  0.00000000000E+00  0.32102168718E+03  0.32102168718E+03  0.00000000000E+00 0.  1.
         -2   -1    0    0    0  501 -0.00000000000E+00 -0.00000000000E+00 -0.13640338572E+03  0.13640338572E+03  0.00000000000E+00 0.  1.
         25    1    1    2    0    0  0.11756120070E+03 -0.93731835772E+02  0.22984856710E+01  0.19238392860E+03  0.12000000000E+03 0.  0.
         25    1    1    2    0    0 -0.11756120070E+03  0.93731835772E+02  0.18231981579E+03  0.26504114431E+03  0.12000000000E+03 0.  0.
<mgrwt>
<rscale>  0 0.41851378E+03</rscale>
<asrwt>0</asrwt>
<pdfrwt beam="1">  1        2 0.49387951E-01 0.41851378E+03</pdfrwt>
<pdfrwt beam="2">  1       -2 0.20985136E-01 0.41851378E+03</pdfrwt>
<totfact> 0.19775389E+03</totfact>
</mgrwt>
</event>
<event>
 4    1  0.1762274E-004  0.2910324E+03  0.7818608E-02  0.1089811E+00
          1   -1    0    0  501    0  0.00000000000E+00  0.00000000000E+00  0.62188528474E+03  0.62188528474E+03  0.00000000000E+00 0. -1.
         -1   -1    0    0    0  501 -0.00000000000E+00 -0.00000000000E+00 -0.34049628210E+02  0.34049628210E+02  0.00000000000E+00 0. -1.
         25    1    1    2    0    0  0.72279716933E+02  0.28275605799E+02  0.35568631578E+03  0.38332313078E+03  0.12000000000E+03 0.  0.
         25    1    1    2    0    0 -0.72279716933E+02 -0.28275605799E+02  0.23214934076E+03  0.27261178217E+03  0.12000000000E+03 0.  0.
<mgrwt>
<rscale>  0 0.29103239E+03</rscale>
<asrwt>0</asrwt>
<pdfrwt beam="1">  1        1 0.95674651E-01 0.29103239E+03</pdfrwt>
<pdfrwt beam="2">  1       -1 0.52384048E-02 0.29103239E+03</pdfrwt>
<totfact> 0.54791062E+03</totfact>
</mgrwt>
</event>
<event>
 4    1  0.1762274E-004  0.2490460E+03  0.7818608E-02  0.1113909E+00
          2   -1    0    0  501    0  0.00000000000E+00  0.00000000000E+00  0.18020540063E+03  0.18020540063E+03  0.00000000000E+00 0.  1.
         -2   -1    0    0    0  501 -0.00000000000E+00 -0.00000000000E+00 -0.86046128862E+02  0.86046128862E+02  0.00000000000E+00 0.  1.
         25    1    1    2    0    0 -0.29936207738E+02 -0.85158423860E+01  0.59605791245E+02  0.13755561223E+03  0.12000000000E+03 0.  0.
         25    1    1    2    0    0  0.29936207738E+02  0.85158423860E+01  0.34553480528E+02  0.12869591727E+03  0.12000000000E+03 0.  0.
<mgrwt>
<rscale>  0 0.24904600E+03</rscale>
<asrwt>0</asrwt>
<pdfrwt beam="1">  1        2 0.27723908E-01 0.24904600E+03</pdfrwt>
<pdfrwt beam="2">  1       -2 0.13237866E-01 0.24904600E+03</pdfrwt>
<totfact> 0.79455850E+03</totfact>
</mgrwt>
</event>
<event>
 4    1  0.1762274E-004  0.2511845E+03  0.7818608E-02  0.1112559E+00
         -4   -1    0    0    0  501 -0.00000000000E+00  0.00000000000E+00  0.18869577633E+02  0.18869577633E+02  0.00000000000E+00 0. -1.
          4   -1    0    0  501    0  0.00000000000E+00 -0.00000000000E+00 -0.83591794232E+03  0.83591794232E+03  0.00000000000E+00 0. -1.
         25    1    1    2    0    0 -0.35063084867E+02  0.55140048460E+01 -0.37225451217E+03  0.39272540789E+03  0.12000000000E+03 0.  0.
         25    1    1    2    0    0  0.35063084867E+02 -0.55140048460E+01 -0.44479385252E+03  0.46206211206E+03  0.12000000000E+03 0.  0.
<mgrwt>
<rscale>  0 0.25118454E+03</rscale>
<asrwt>0</asrwt>
<pdfrwt beam="1">  1        4 0.12860278E+00 0.25118454E+03</pdfrwt>
<pdfrwt beam="2">  1       -4 0.29030114E-02 0.25118454E+03</pdfrwt>
<totfact> 0.49096414E+02</totfact>
</mgrwt>
</event>
<event>
 4    1  0.1762274E-004  0.2474478E+03  0.7818608E-02  0.1114928E+00
          2   -1    0    0  501    0  0.00000000000E+00  0.00000000000E+00  0.12208662781E+04  0.12208662781E+04  0.00000000000E+00 0.  1.
         -2   -1    0    0    0  501 -0.00000000000E+00 -0.00000000000E+00 -0.12538313998E+02  0.12538313998E+02  0.00000000000E+00 0.  1.
         25    1    1    2    0    0 -0.25624518818E+02 -0.35961256764E+01  0.52725764734E+03  0.54135956145E+03  0.12000000000E+03 0.  0.
         25    1    1    2    0    0  0.25624518818E+02  0.35961256764E+01  0.68107031679E+03  0.69204503069E+03  0.12000000000E+03 0.  0.
<mgrwt>
<rscale>  0 0.24744781E+03</rscale>
<asrwt>0</asrwt>
<pdfrwt beam="1">  1        2 0.18782549E+00 0.24744781E+03</pdfrwt>
<pdfrwt beam="2">  1       -2 0.19289724E-02 0.24744781E+03</pdfrwt>
<totfact> 0.15761997E+04</totfact>
</mgrwt>
</event>
<event>
 4    1  0.1762274E-004  0.2786543E+03  0.7818608E-02  0.1096426E+00
         -2   -1    0    0    0  501 -0.00000000000E+00  0.00000000000E+00  0.69184299388E+01  0.69184299388E+01  0.00000000000E+00 0. -1.
          2   -1    0    0  501    0  0.00000000000E+00 -0.00000000000E+00 -0.28058473817E+04  0.28058473817E+04  0.00000000000E+00 0. -1.
         25    1    1    2    0    0 -0.51928725490E+02 -0.42694620278E+02 -0.16235070688E+04  0.16293233643E+04  0.12000000000E+03 0.  0.
         25    1    1    2    0    0  0.51928725490E+02  0.42694620278E+02 -0.11754218830E+04  0.11834424474E+04  0.12000000000E+03 0.  0.
<mgrwt>
<rscale>  0 0.27865433E+03</rscale>
<asrwt>0</asrwt>
<pdfrwt beam="1">  1        2 0.43166837E+00 0.27865433E+03</pdfrwt>
<pdfrwt beam="2">  1       -2 0.10643750E-02 0.27865433E+03</pdfrwt>
<totfact> 0.52633031E+03</totfact>
</mgrwt>
</event>
<event>
 4    1  0.1762274E-004  0.2644729E+03  0.7818608E-02  0.1104485E+00
          1   -1    0    0  501    0  0.00000000000E+00  0.00000000000E+00  0.84734488839E+02  0.84734488839E+02  0.00000000000E+00 0.  1.
         -1   -1    0    0    0  501 -0.00000000000E+00 -0.00000000000E+00 -0.20636795407E+03  0.20636795407E+03  0.00000000000E+00 0.  1.
         25    1    1    2    0    0  0.36913354352E+02 -0.41477274761E+02 -0.58750762670E+02  0.14468798210E+03  0.12000000000E+03 0.  0.
         25    1    1    2    0    0 -0.36913354352E+02  0.41477274761E+02 -0.62882702561E+02  0.14641446080E+03  0.12000000000E+03 0.  0.
<mgrwt>
<rscale>  0 0.26447293E+03</rscale>
<asrwt>0</asrwt>
<pdfrwt beam="1">  1        1 0.13036075E-01 0.26447293E+03</pdfrwt>
<pdfrwt beam="2">  1       -1 0.31748916E-01 0.26447293E+03</pdfrwt>
<totfact> 0.41309740E+03</totfact>
</mgrwt>
</event>
<event>
 4    1  0.1762274E-004  0.3723442E+03  0.7818608E-02  0.1053800E+00
          1   -1    0    0  501    0  0.00000000000E+00  0.00000000000E+00  0.91327647941E+03  0.91327647941E+03  0.00000000000E+00 0.  1.
         -1   -1    0    0    0  501 -0.00000000000E+00 -0.00000000000E+00 -0.37951318895E+02  0.37951318895E+02  0.00000000000E+00 0.  1.
         25    1    1    2    0    0  0.66629202679E+02  0.20543230505E+01  0.75894980366E+03  0.77126420594E+03  0.12000000000E+03 0.  0.
         25    1    1    2    0    0 -0.66629202679E+02 -0.20543230505E+01  0.11637535686E+03  0.17996359236E+03  0.12000000000E+03 0.  0.
<mgrwt>
<rscale>  0 0.37234418E+03</rscale>
<asrwt>0</asrwt>
<pdfrwt beam="1">  1        1 0.14050406E+00 0.37234418E+03</pdfrwt>
<pdfrwt beam="2">  1       -1 0.58386651E-02 0.37234418E+03</pdfrwt>
<totfact> 0.26028069E+03</totfact>
</mgrwt>
</event>
<event>
 4    1  0.1762274E-004  0.3184571E+03  0.7818608E-02  0.1076362E+00
          3   -1    0    0  501    0  0.00000000000E+00  0.00000000000E+00  0.19173860543E+04  0.19173860543E+04  0.00000000000E+00 0.  1.
         -3   -1    0    0    0  501 -0.00000000000E+00 -0.00000000000E+00 -0.13223070529E+02  0.13223070529E+02  0.00000000000E+00 0.  1.
         25    1    1    2    0    0  0.28312067209E+02 -0.29205907765E+02  0.15366906025E+04  0.15419054984E+04  0.12000000000E+03 0.  0.
         25    1    1    2    0    0 -0.28312067209E+02  0.29205907765E+02  0.36747238127E+03  0.38870362642E+03  0.12000000000E+03 0.  0.
<mgrwt>
<rscale>  0 0.31845710E+03</rscale>
<asrwt>0</asrwt>
<pdfrwt beam="1">  1        3 0.29498225E+00 0.31845710E+03</pdfrwt>
<pdfrwt beam="2">  1       -3 0.20343201E-02 0.31845710E+03</pdfrwt>
<totfact> 0.11184495E+02</totfact>
</mgrwt>
</event>
<event>
 4    1  0.1762274E-004  0.2916447E+03  0.7818608E-02  0.1089494E+00
          1   -1    0    0  501    0  0.00000000000E+00  0.00000000000E+00  0.26547809226E+03  0.26547809226E+03  0.00000000000E+00 0.  1.
         -1   -1    0    0    0  501 -0.00000000000E+00 -0.00000000000E+00 -0.80097571713E+02  0.80097571713E+02  0.00000000000E+00 0.  1.
         25    1    1    2    0    0 -0.35594082983E+02  0.70563766161E+02  0.63234402702E+02  0.15698653931E+03  0.12000000000E+03 0.  0.
         25    1    1    2    0    0  0.35594082983E+02 -0.70563766161E+02  0.12214611784E+03  0.18858912467E+03  0.12000000000E+03 0.  0.
<mgrwt>
<rscale>  0 0.29164465E+03</rscale>
<asrwt>0</asrwt>
<pdfrwt beam="1">  1        1 0.40842783E-01 0.29164465E+03</pdfrwt>
<pdfrwt beam="2">  1       -1 0.12322703E-01 0.29164465E+03</pdfrwt>
<totfact> 0.44791872E+03</totfact>
</mgrwt>
</event>
<event>
 4    1  0.1762274E-004  0.3280940E+03  0.7818608E-02  0.1071983E+00
         -2   -1    0    0    0  501 -0.00000000000E+00  0.00000000000E+00  0.26156509609E+02  0.26156509609E+02  0.00000000000E+00 0.  1.
          2   -1    0    0  501    0  0.00000000000E+00 -0.00000000000E+00 -0.10288614856E+04  0.10288614856E+04  0.00000000000E+00 0.  1.
         25    1    1    2    0    0 -0.80801727390E+02 -0.52122336776E+02 -0.68511384913E+03  0.70215856002E+03  0.12000000000E+03 0.  0.
         25    1    1    2    0    0  0.80801727390E+02  0.52122336776E+02 -0.31759112685E+03  0.35285943518E+03  0.12000000000E+03 0.  0.
<mgrwt>
<rscale>  0 0.32809404E+03</rscale>
<asrwt>0</asrwt>
<pdfrwt beam="1">  1        2 0.15828634E+00 0.32809404E+03</pdfrwt>
<pdfrwt beam="2">  1       -2 0.40240795E-02 0.32809404E+03</pdfrwt>
<totfact> 0.68871181E+03</totfact>
</mgrwt>
</event>
<event>
 4    1  0.1762274E-004  0.2974896E+03  0.7818608E-02  0.1086502E+00
         -2   -1    0    0    0  501 -0.00000000000E+00  0.00000000000E+00  0.19033486338E+02  0.19033486338E+02  0.00000000000E+00 0. -1.
          2   -1    0    0  501    0  0.00000000000E+00 -0.00000000000E+00 -0.11624255864E+04  0.11624255864E+04  0.00000000000E+00 0. -1.
         25    1    1    2    0    0  0.70631157718E+02  0.16341192014E+02 -0.76904122852E+03  0.78171619285E+03  0.12000000000E+03 0.  0.
         25    1    1    2    0    0 -0.70631157718E+02 -0.16341192014E+02 -0.37435087152E+03  0.39974287987E+03  0.12000000000E+03 0.  0.
<mgrwt>
<rscale>  0 0.29748957E+03</rscale>
<asrwt>0</asrwt>
<pdfrwt beam="1">  1        2 0.17883467E+00 0.29748957E+03</pdfrwt>
<pdfrwt beam="2">  1       -2 0.29282293E-02 0.29748957E+03</pdfrwt>
<totfact> 0.92327626E+03</totfact>
</mgrwt>
</event>
<event>
 4    1  0.1762274E-004  0.2777339E+03  0.7818608E-02  0.1096933E+00
          2   -1    0    0  501    0  0.00000000000E+00  0.00000000000E+00  0.25897022552E+03  0.25897022552E+03  0.00000000000E+00 0.  1.
         -2   -1    0    0    0  501 -0.00000000000E+00 -0.00000000000E+00 -0.74464296836E+02  0.74464296836E+02  0.00000000000E+00 0.  1.
         25    1    1    2    0    0  0.43104577285E+02  0.54444639648E+02  0.10169181949E+03  0.17194024985E+03  0.12000000000E+03 0.  0.
         25    1    1    2    0    0 -0.43104577285E+02 -0.54444639648E+02  0.82814109199E+02  0.16149427250E+03  0.12000000000E+03 0.  0.
<mgrwt>
<rscale>  0 0.27773394E+03</rscale>
<asrwt>0</asrwt>
<pdfrwt beam="1">  1        2 0.39841573E-01 0.27773394E+03</pdfrwt>
<pdfrwt beam="2">  1       -2 0.11456046E-01 0.27773394E+03</pdfrwt>
<totfact> 0.67932930E+03</totfact>
</mgrwt>
</event>
<event>
 4    1  0.1762274E-004  0.3184682E+03  0.7818608E-02  0.1076356E+00
         -1   -1    0    0    0  501 -0.00000000000E+00  0.00000000000E+00  0.45499479863E+02  0.45499479863E+02  0.00000000000E+00 0.  1.
          1   -1    0    0  501    0  0.00000000000E+00 -0.00000000000E+00 -0.55727000865E+03  0.55727000865E+03  0.00000000000E+00 0.  1.
         25    1    1    2    0    0  0.67388490087E+02  0.77653173986E+02 -0.21878266753E+03  0.26988345566E+03  0.12000000000E+03 0.  0.
         25    1    1    2    0    0 -0.67388490087E+02 -0.77653173986E+02 -0.29298786126E+03  0.33288603286E+03  0.12000000000E+03 0.  0.
<mgrwt>
<rscale>  0 0.31846818E+03</rscale>
<asrwt>0</asrwt>
<pdfrwt beam="1">  1        1 0.85733850E-01 0.31846818E+03</pdfrwt>
<pdfrwt beam="2">  1       -1 0.69999198E-02 0.31846818E+03</pdfrwt>
<totfact> 0.41219310E+03</totfact>
</mgrwt>
</event>
<event>
 4    1  0.1762274E-004  0.2517561E+03  0.7818608E-02  0.1112200E+00
         -2   -1    0    0    0  501 -0.00000000000E+00  0.00000000000E+00  0.17227065365E+03  0.17227065365E+03  0.00000000000E+00 0.  1.
          2   -1    0    0  501    0  0.00000000000E+00 -0.00000000000E+00 -0.91978970323E+02  0.91978970323E+02  0.00000000000E+00 0.  1.
         25    1    1    2    0    0 -0.10908995228E+02  0.36214932999E+02  0.44176977132E+02  0.13334966388E+03  0.12000000000E+03 0.  0.
         25    1    1    2    0    0  0.10908995228E+02 -0.36214932999E+02  0.36114706200E+02  0.13089996010E+03  0.12000000000E+03 0.  0.
<mgrwt>
<rscale>  0 0.25175605E+03</rscale>
<asrwt>0</asrwt>
<pdfrwt beam="1">  1        2 0.14150611E-01 0.25175605E+03</pdfrwt>
<pdfrwt beam="2">  1       -2 0.26503177E-01 0.25175605E+03</pdfrwt>
<totfact> 0.52904677E+03</totfact>
</mgrwt>
</event>
<event>
 4    1  0.1762274E-004  0.2888967E+03  0.7818608E-02  0.1090927E+00
          1   -1    0    0  501    0  0.00000000000E+00  0.00000000000E+00  0.24973268041E+03  0.24973268041E+03  0.00000000000E+00 0. -1.
         -1   -1    0    0    0  501 -0.00000000000E+00 -0.00000000000E+00 -0.83550638895E+02  0.83550638895E+02  0.00000000000E+00 0. -1.
         25    1    1    2    0    0  0.68508769687E+02  0.36313558529E+00  0.13165018436E+03  0.19085427539E+03  0.12000000000E+03 0.  0.
         25    1    1    2    0    0 -0.68508769687E+02 -0.36313558529E+00  0.34531857148E+02  0.14242904391E+03  0.12000000000E+03 0.  0.
<mgrwt>
<rscale>  0 0.28889669E+03</rscale>
<asrwt>0</asrwt>
<pdfrwt beam="1">  1        1 0.38420412E-01 0.28889669E+03</pdfrwt>
<pdfrwt beam="2">  1       -1 0.12853945E-01 0.28889669E+03</pdfrwt>
<totfact> 0.45258871E+03</totfact>
</mgrwt>
</event>
<event>
 4    1  0.1762274E-004  0.2906718E+03  0.7818608E-02  0.1089999E+00
         -2   -1    0    0    0  501 -0.00000000000E+00  0.00000000000E+00  0.15757659339E+02  0.15757659339E+02  0.00000000000E+00 0. -1.
          2   -1    0    0  501    0  0.00000000000E+00 -0.00000000000E+00 -0.13404604228E+04  0.13404604228E+04  0.00000000000E+00 0. -1.
         25    1    1    2    0    0  0.25333832679E+02 -0.76734488761E+02 -0.59761025727E+03  0.61487234808E+03  0.12000000000E+03 0.  0.
         25    1    1    2    0    0 -0.25333832679E+02  0.76734488761E+02 -0.72709250620E+03  0.74134573406E+03  0.12000000000E+03 0.  0.
<mgrwt>
<rscale>  0 0.29067176E+03</rscale>
<asrwt>0</asrwt>
<pdfrwt beam="1">  1        2 0.20622474E+00 0.29067176E+03</pdfrwt>
<pdfrwt beam="2">  1       -2 0.24242546E-02 0.29067176E+03</pdfrwt>
<totfact> 0.97014609E+03</totfact>
</mgrwt>
</event>
<event>
 4    1  0.1762274E-004  0.2702308E+03  0.7818608E-02  0.1101148E+00
          3   -1    0    0  501    0  0.00000000000E+00  0.00000000000E+00  0.39000033447E+03  0.39000033447E+03  0.00000000000E+00 0.  1.
         -3   -1    0    0    0  501 -0.00000000000E+00 -0.00000000000E+00 -0.46810645828E+02  0.46810645828E+02  0.00000000000E+00 0.  1.
         25    1    1    2    0    0  0.35306864843E+02  0.20200588487E+01  0.25410459967E+03  0.28323100628E+03  0.12000000000E+03 0.  0.
         25    1    1    2    0    0 -0.35306864843E+02 -0.20200588487E+01  0.89085088967E+02  0.15357997402E+03  0.12000000000E+03 0.  0.
<mgrwt>
<rscale>  0 0.27023077E+03</rscale>
<asrwt>0</asrwt>
<pdfrwt beam="1">  1        3 0.60000049E-01 0.27023077E+03</pdfrwt>
<pdfrwt beam="2">  1       -3 0.72016381E-02 0.27023077E+03</pdfrwt>
<totfact> 0.88523990E+02</totfact>
</mgrwt>
</event>
<event>
 4    1  0.1762274E-004  0.2449228E+03  0.7818608E-02  0.1116556E+00
          3   -1    0    0  501    0  0.00000000000E+00  0.00000000000E+00  0.37132847934E+02  0.37132847934E+02  0.00000000000E+00 0. -1.
         -3   -1    0    0    0  501 -0.00000000000E+00 -0.00000000000E+00 -0.40386871801E+03  0.40386871801E+03  0.00000000000E+00 0. -1.
         25    1    1    2    0    0 -0.92786445419E+01 -0.12855462861E+02 -0.14990246648E+03  0.19267097765E+03  0.12000000000E+03 0.  0.
         25    1    1    2    0    0  0.92786445419E+01  0.12855462861E+02 -0.21683340359E+03  0.24833058830E+03  0.12000000000E+03 0.  0.
<mgrwt>
<rscale>  0 0.24492281E+03</rscale>
<asrwt>0</asrwt>
<pdfrwt beam="1">  1        3 0.57127453E-02 0.24492281E+03</pdfrwt>
<pdfrwt beam="2">  1       -3 0.62133655E-01 0.24492281E+03</pdfrwt>
<totfact> 0.11834540E+03</totfact>
</mgrwt>
</event>
<event>
 4    1  0.1762274E-004  0.2739138E+03  0.7818608E-02  0.1099060E+00
         -2   -1    0    0    0  501 -0.00000000000E+00  0.00000000000E+00  0.75947577720E+02  0.75947577720E+02  0.00000000000E+00 0. -1.
          2   -1    0    0  501    0  0.00000000000E+00 -0.00000000000E+00 -0.24697559914E+03  0.24697559914E+03  0.00000000000E+00 0. -1.
         25    1    1    2    0    0  0.74628608799E+01  0.41788767629E+02 -0.25920640390E+02  0.12989948033E+03  0.12000000000E+03 0.  0.
         25    1    1    2    0    0 -0.74628608799E+01 -0.41788767629E+02 -0.14510738103E+03  0.19302369653E+03  0.12000000000E+03 0.  0.
<mgrwt>
<rscale>  0 0.27391384E+03</rscale>
<asrwt>0</asrwt>
<pdfrwt beam="1">  1        2 0.37996246E-01 0.27391384E+03</pdfrwt>
<pdfrwt beam="2">  1       -2 0.11684243E-01 0.27391384E+03</pdfrwt>
<totfact> 0.69233358E+03</totfact>
</mgrwt>
</event>
<event>
 4    1  0.1762274E-004  0.3462627E+03  0.7818608E-02  0.1064160E+00
          2   -1    0    0  501    0  0.00000000000E+00  0.00000000000E+00  0.48840744233E+03  0.48840744233E+03  0.00000000000E+00 0. -1.
         -2   -1    0    0    0  501 -0.00000000000E+00 -0.00000000000E+00 -0.61371845366E+02  0.61371845366E+02  0.00000000000E+00 0. -1.
         25    1    1    2    0    0  0.71978330587E+02 -0.24581933117E+02  0.37061150692E+03  0.39691062038E+03  0.12000000000E+03 0.  0.
         25    1    1    2    0    0 -0.71978330587E+02  0.24581933117E+02  0.56424090046E+02  0.15286866732E+03  0.12000000000E+03 0.  0.
<mgrwt>
<rscale>  0 0.34626271E+03</rscale>
<asrwt>0</asrwt>
<pdfrwt beam="1">  1        2 0.75139604E-01 0.34626271E+03</pdfrwt>
<pdfrwt beam="2">  1       -2 0.94418227E-02 0.34626271E+03</pdfrwt>
<totfact> 0.46654617E+03</totfact>
</mgrwt>
</event>
<event>
 4    1  0.1762274E-004  0.2814461E+03  0.7818608E-02  0.1094902E+00
         -1   -1    0    0    0  501 -0.00000000000E+00  0.00000000000E+00  0.14060866091E+03  0.14060866091E+03  0.00000000000E+00 0. -1.
          1   -1    0    0  501    0  0.00000000000E+00 -0.00000000000E+00 -0.14083757980E+03  0.14083757980E+03  0.00000000000E+00 0. -1.
         25    1    1    2    0    0  0.12770353833E+01  0.52522979721E+02  0.51292651270E+02  0.14068130754E+03  0.12000000000E+03 0.  0.
         25    1    1    2    0    0 -0.12770353833E+01 -0.52522979721E+02 -0.51521570164E+02  0.14076493317E+03  0.12000000000E+03 0.  0.
<mgrwt>
<rscale>  0 0.28144615E+03</rscale>
<asrwt>0</asrwt>
<pdfrwt beam="1">  1        1 0.21667320E-01 0.28144615E+03</pdfrwt>
<pdfrwt beam="2">  1       -1 0.21632102E-01 0.28144615E+03</pdfrwt>
<totfact> 0.40577769E+03</totfact>
</mgrwt>
</event>
<event>
 4    1  0.1762274E-004  0.3171284E+03  0.7818608E-02  0.1076979E+00
         -2   -1    0    0    0  501 -0.00000000000E+00  0.00000000000E+00  0.28156850335E+02  0.28156850335E+02  0.00000000000E+00 0.  1.
          2   -1    0    0  501    0  0.00000000000E+00 -0.00000000000E+00 -0.89294820459E+03  0.89294820459E+03  0.00000000000E+00 0.  1.
         25    1    1    2    0    0 -0.53709959841E+02 -0.80964212571E+02 -0.53722604577E+03  0.55897387037E+03  0.12000000000E+03 0.  0.
         25    1    1    2    0    0  0.53709959841E+02  0.80964212571E+02 -0.32756530849E+03  0.36213118456E+03  0.12000000000E+03 0.  0.
<mgrwt>
<rscale>  0 0.31712842E+03</rscale>
<asrwt>0</asrwt>
<pdfrwt beam="1">  1        2 0.13737664E+00 0.31712842E+03</pdfrwt>
<pdfrwt beam="2">  1       -2 0.43318232E-02 0.31712842E+03</pdfrwt>
<totfact> 0.74963184E+03</totfact>
</mgrwt>
</event>
<event>
 4    1  0.1762274E-004  0.3107498E+03  0.7818608E-02  0.1079987E+00
          2   -1    0    0  501    0  0.00000000000E+00  0.00000000000E+00  0.51633141654E+03  0.51633141654E+03  0.00000000000E+00 0. -1.
         -2   -1    0    0    0  501 -0.00000000000E+00 -0.00000000000E+00 -0.46755556589E+02  0.46755556589E+02  0.00000000000E+00 0. -1.
         25    1    1    2    0    0 -0.30717210849E+02  0.87895821416E+02  0.29412012339E+03  0.33102246064E+03  0.12000000000E+03 0.  0.
         25    1    1    2    0    0  0.30717210849E+02 -0.87895821416E+02  0.17545573656E+03  0.23206451249E+03  0.12000000000E+03 0.  0.
<mgrwt>
<rscale>  0 0.31074982E+03</rscale>
<asrwt>0</asrwt>
<pdfrwt beam="1">  1        2 0.79435598E-01 0.31074982E+03</pdfrwt>
<pdfrwt beam="2">  1       -2 0.71931629E-02 0.31074982E+03</pdfrwt>
<totfact> 0.67040211E+03</totfact>
</mgrwt>
</event>
<event>
 4    1  0.1762274E-004  0.2721092E+03  0.7818608E-02  0.1100078E+00
         -2   -1    0    0    0  501 -0.00000000000E+00  0.00000000000E+00  0.28933366408E+03  0.28933366408E+03  0.00000000000E+00 0.  1.
          2   -1    0    0  501    0  0.00000000000E+00 -0.00000000000E+00 -0.63977553151E+02  0.63977553151E+02  0.00000000000E+00 0.  1.
         25    1    1    2    0    0  0.37943740291E+02  0.85892557432E+01  0.46505185931E+02  0.13444788976E+03  0.12000000000E+03 0.  0.
         25    1    1    2    0    0 -0.37943740291E+02 -0.85892557432E+01  0.17885092500E+03  0.21886332748E+03  0.12000000000E+03 0.  0.
<mgrwt>
<rscale>  0 0.27210924E+03</rscale>
<asrwt>0</asrwt>
<pdfrwt beam="1">  1        2 0.98427006E-02 0.27210924E+03</pdfrwt>
<pdfrwt beam="2">  1       -2 0.44512871E-01 0.27210924E+03</pdfrwt>
<totfact> 0.31487454E+03</totfact>
</mgrwt>
</event>
<event>
 4    1  0.1762274E-004  0.2607290E+03  0.7818608E-02  0.1106706E+00
         -2   -1    0    0    0  501 -0.00000000000E+00  0.00000000000E+00  0.64886314329E+01  0.64886314329E+01  0.00000000000E+00 0.  1.
          2   -1    0    0  501    0  0.00000000000E+00 -0.00000000000E+00 -0.26191815653E+04  0.26191815653E+04  0.00000000000E+00 0.  1.
         25    1    1    2    0    0 -0.81020004482E+01  0.39685909391E+02 -0.16174400219E+04  0.16223910868E+04  0.12000000000E+03 0.  0.
         25    1    1    2    0    0  0.81020004482E+01 -0.39685909391E+02 -0.99525291197E+03  0.10032791100E+04  0.12000000000E+03 0.  0.
<mgrwt>
<rscale>  0 0.26072901E+03</rscale>
<asrwt>0</asrwt>
<pdfrwt beam="1">  1        2 0.40295117E+00 0.26072901E+03</pdfrwt>
<pdfrwt beam="2">  1       -2 0.99825060E-03 0.26072901E+03</pdfrwt>
<totfact> 0.73672649E+03</totfact>
</mgrwt>
</event>
<event>
 4    1  0.1762274E-004  0.3082084E+03  0.7818608E-02  0.1081208E+00
          1   -1    0    0  501    0  0.00000000000E+00  0.00000000000E+00  0.64282266278E+02  0.64282266278E+02  0.00000000000E+00 0. -1.
         -1   -1    0    0    0  501 -0.00000000000E+00 -0.00000000000E+00 -0.36943466854E+03  0.36943466854E+03  0.00000000000E+00 0. -1.
         25    1    1    2    0    0 -0.52746568565E+02  0.70173440173E+02 -0.95560597238E+02  0.17674371261E+03  0.12000000000E+03 0.  0.
         25    1    1    2    0    0  0.52746568565E+02 -0.70173440173E+02 -0.20959180502E+03  0.25697322221E+03  0.12000000000E+03 0.  0.
<mgrwt>
<rscale>  0 0.30820836E+03</rscale>
<asrwt>0</asrwt>
<pdfrwt beam="1">  1        1 0.98895795E-02 0.30820836E+03</pdfrwt>
<pdfrwt beam="2">  1       -1 0.56836102E-01 0.30820836E+03</pdfrwt>
<totfact> 0.21027321E+03</totfact>
</mgrwt>
</event>
<event>
 4    1  0.1762274E-004  0.3213425E+03  0.7818608E-02  0.1075033E+00
         -1   -1    0    0    0  501 -0.00000000000E+00  0.00000000000E+00  0.26831508495E+03  0.26831508495E+03  0.00000000000E+00 0. -1.
          1   -1    0    0  501    0  0.00000000000E+00 -0.00000000000E+00 -0.96212468667E+02  0.96212468667E+02  0.00000000000E+00 0. -1.
         25    1    1    2    0    0  0.30925827676E+02 -0.61567717300E+02 -0.65823045039E+01  0.13852912099E+03  0.12000000000E+03 0.  0.
         25    1    1    2    0    0 -0.30925827676E+02  0.61567717300E+02  0.17868492079E+03  0.22599843262E+03  0.12000000000E+03 0.  0.
<mgrwt>
<rscale>  0 0.32134254E+03</rscale>
<asrwt>0</asrwt>
<pdfrwt beam="1">  1        1 0.14801918E-01 0.32134254E+03</pdfrwt>
<pdfrwt beam="2">  1       -1 0.41279244E-01 0.32134254E+03</pdfrwt>
<totfact> 0.22162253E+03</totfact>
</mgrwt>
</event>
<event>
 4    1  0.1762274E-004  0.2486273E+03  0.7818608E-02  0.1114175E+00
          1   -1    0    0  501    0  0.00000000000E+00  0.00000000000E+00  0.97482215662E+02  0.97482215662E+02  0.00000000000E+00 0.  1.
         -1   -1    0    0    0  501 -0.00000000000E+00 -0.00000000000E+00 -0.15853030917E+03  0.15853030917E+03  0.00000000000E+00 0.  1.
         25    1    1    2    0    0  0.29515898746E+02 -0.70413584007E+01 -0.18643709462E+02  0.12517330750E+03  0.12000000000E+03 0.  0.
         25    1    1    2    0    0 -0.29515898746E+02  0.70413584007E+01 -0.42404384046E+02  0.13083921734E+03  0.12000000000E+03 0.  0.
<mgrwt>
<rscale>  0 0.24862732E+03</rscale>
<asrwt>0</asrwt>
<pdfrwt beam="1">  1        1 0.14997264E-01 0.24862732E+03</pdfrwt>
<pdfrwt beam="2">  1       -1 0.24389278E-01 0.24862732E+03</pdfrwt>
<totfact> 0.53429670E+03</totfact>
</mgrwt>
</event>
<event>
 4    1  0.1762274E-004  0.3157652E+03  0.7818608E-02  0.1077615E+00
         -4   -1    0    0    0  501 -0.00000000000E+00  0.00000000000E+00  0.97849753621E+03  0.97849753621E+03  0.00000000000E+00 0. -1.
          4   -1    0    0  501    0  0.00000000000E+00 -0.00000000000E+00 -0.25474690455E+02  0.25474690455E+02  0.00000000000E+00 0. -1.
         25    1    1    2    0    0 -0.18852873665E+02  0.17069636944E+02  0.16047404210E+03  0.20198693408E+03  0.12000000000E+03 0.  0.
         25    1    1    2    0    0  0.18852873665E+02 -0.17069636944E+02  0.79254880365E+03  0.80198529258E+03  0.12000000000E+03 0.  0.
<mgrwt>
<rscale>  0 0.31576524E+03</rscale>
<asrwt>0</asrwt>
<pdfrwt beam="1">  1        4 0.39191839E-02 0.31576524E+03</pdfrwt>
<pdfrwt beam="2">  1       -4 0.15053805E+00 0.31576524E+03</pdfrwt>
<totfact> 0.20976152E+02</totfact>
</mgrwt>
</event>
<event>
 4    1  0.1762274E-004  0.2884015E+03  0.7818608E-02  0.1091187E+00
          2   -1    0    0  501    0  0.00000000000E+00  0.00000000000E+00  0.13793476611E+03  0.13793476611E+03  0.00000000000E+00 0.  1.
         -2   -1    0    0    0  501 -0.00000000000E+00 -0.00000000000E+00 -0.15075142578E+03  0.15075142578E+03  0.00000000000E+00 0.  1.
         25    1    1    2    0    0  0.42255375978E+02  0.50770624797E+02  0.38699319296E+02  0.14234047371E+03  0.12000000000E+03 0.  0.
         25    1    1    2    0    0 -0.42255375978E+02 -0.50770624797E+02 -0.51515978965E+02  0.14634571818E+03  0.12000000000E+03 0.  0.
<mgrwt>
<rscale>  0 0.28840154E+03</rscale>
<asrwt>0</asrwt>
<pdfrwt beam="1">  1        2 0.21220733E-01 0.28840154E+03</pdfrwt>
<pdfrwt beam="2">  1       -2 0.23192527E-01 0.28840154E+03</pdfrwt>
<totfact> 0.41942125E+03</totfact>
</mgrwt>
</event>
<event>
 4    1  0.1762274E-004  0.2620834E+03  0.7818608E-02  0.1105898E+00
         -1   -1    0    0    0  501 -0.00000000000E+00  0.00000000000E+00  0.14770943211E+02  0.14770943211E+02  0.00000000000E+00 0.  1.
          1   -1    0    0  501    0  0.00000000000E+00 -0.00000000000E+00 -0.11625481948E+04  0.11625481948E+04  0.00000000000E+00 0.  1.
         25    1    1    2    0    0 -0.77164689895E+01 -0.14810138556E+02 -0.34959339387E+03  0.36999246632E+03  0.12000000000E+03 0.  0.
         25    1    1    2    0    0  0.77164689895E+01  0.14810138556E+02 -0.79818385769E+03  0.80732667166E+03  0.12000000000E+03 0.  0.
<mgrwt>
<rscale>  0 0.26208345E+03</rscale>
<asrwt>0</asrwt>
<pdfrwt beam="1">  1        1 0.17885352E+00 0.26208345E+03</pdfrwt>
<pdfrwt beam="2">  1       -1 0.22724534E-02 0.26208345E+03</pdfrwt>
<totfact> 0.69046364E+03</totfact>
</mgrwt>
</event>
<event>
 4    1  0.1762274E-004  0.2510172E+03  0.7818608E-02  0.1112664E+00
          2   -1    0    0  501    0  0.00000000000E+00  0.00000000000E+00  0.25452822020E+03  0.25452822020E+03  0.00000000000E+00 0.  1.
         -2   -1    0    0    0  501 -0.00000000000E+00 -0.00000000000E+00 -0.61888670013E+02  0.61888670013E+02  0.00000000000E+00 0.  1.
         25    1    1    2    0    0 -0.29234300273E+02  0.95626314048E+01  0.70910470428E+02  0.14273886313E+03  0.12000000000E+03 0.  0.
         25    1    1    2    0    0  0.29234300273E+02 -0.95626314048E+01  0.12172907976E+03  0.17367802708E+03  0.12000000000E+03 0.  0.
<mgrwt>
<rscale>  0 0.25101723E+03</rscale>
<asrwt>0</asrwt>
<pdfrwt beam="1">  1        2 0.39158187E-01 0.25101723E+03</pdfrwt>
<pdfrwt beam="2">  1       -2 0.95213339E-02 0.25101723E+03</pdfrwt>
<totfact> 0.92562802E+03</totfact>
</mgrwt>
</event>
<event>
 4    1  0.1762274E-004  0.3177931E+03  0.7818608E-02  0.1076669E+00
         -3   -1    0    0    0  501 -0.00000000000E+00  0.00000000000E+00  0.42016855025E+03  0.42016855025E+03  0.00000000000E+00 0. -1.
          3   -1    0    0  501    0  0.00000000000E+00 -0.00000000000E+00 -0.60090439547E+02  0.60090439547E+02  0.00000000000E+00 0. -1.
         25    1    1    2    0    0  0.57408986056E+02  0.74158080434E+02  0.11156674617E+03  0.18879182033E+03  0.12000000000E+03 0.  0.
         25    1    1    2    0    0 -0.57408986056E+02 -0.74158080434E+02  0.24851136453E+03  0.29146716946E+03  0.12000000000E+03 0.  0.
<mgrwt>
<rscale>  0 0.31779310E+03</rscale>
<asrwt>0</asrwt>
<pdfrwt beam="1">  1        3 0.92446833E-02 0.31779310E+03</pdfrwt>
<pdfrwt beam="2">  1       -3 0.64641314E-01 0.31779310E+03</pdfrwt>
<totfact> 0.50917695E+02</totfact>
</mgrwt>
</event>
<event>
 4    1  0.1762274E-004  0.2445330E+03  0.7818608E-02  0.1116809E+00
          1   -1    0    0  501    0  0.00000000000E+00  0.00000000000E+00  0.79637104677E+03  0.79637104677E+03  0.00000000000E+00 0. -1.
         -1   -1    0    0    0  501 -0.00000000000E+00 -0.00000000000E+00 -0.18771527512E+02  0.18771527512E+02  0.00000000000E+00 0. -1.
         25    1    1    2    0    0 -0.15263308146E+01  0.18746638653E+02  0.43538903215E+03  0.45201479562E+03  0.12000000000E+03 0.  0.
         25    1    1    2    0    0  0.15263308146E+01 -0.18746638653E+02  0.34221048711E+03  0.36312777866E+03  0.12000000000E+03 0.  0.
<mgrwt>
<rscale>  0 0.24453303E+03</rscale>
<asrwt>0</asrwt>
<pdfrwt beam="1">  1        1 0.12251860E+00 0.24453303E+03</pdfrwt>
<pdfrwt beam="2">  1       -1 0.28879279E-02 0.24453303E+03</pdfrwt>
<totfact> 0.91933380E+03</totfact>
</mgrwt>
</event>
<event>
 4    1  0.1762274E-004  0.4324429E+03  0.7818608E-02  0.1033091E+00
          1   -1    0    0  501    0  0.00000000000E+00  0.00000000000E+00  0.14754744486E+03  0.14754744486E+03  0.00000000000E+00 0.  1.
         -1   -1    0    0    0  501 -0.00000000000E+00 -0.00000000000E+00 -0.31685890168E+03  0.31685890168E+03  0.00000000000E+00 0.  1.
         25    1    1    2    0    0  0.16396063204E+03 -0.53584250119E+02 -0.29924465143E+02  0.21224946250E+03  0.12000000000E+03 0.  0.
         25    1    1    2    0    0 -0.16396063204E+03  0.53584250119E+02 -0.13938699168E+03  0.25215688404E+03  0.12000000000E+03 0.  0.
<mgrwt>
<rscale>  0 0.43244293E+03</rscale>
<asrwt>0</asrwt>
<pdfrwt beam="1">  1        1 0.22699607E-01 0.43244293E+03</pdfrwt>
<pdfrwt beam="2">  1       -1 0.48747523E-01 0.43244293E+03</pdfrwt>
<totfact> 0.93686265E+02</totfact>
</mgrwt>
</event>
<event>
 4    1  0.1762274E-004  0.3531155E+03  0.7818608E-02  0.1061344E+00
         -1   -1    0    0    0  501 -0.00000000000E+00  0.00000000000E+00  0.11277015011E+03  0.11277015011E+03  0.00000000000E+00 0. -1.
          1   -1    0    0  501    0  0.00000000000E+00 -0.00000000000E+00 -0.27642636526E+03  0.27642636526E+03  0.00000000000E+00 0. -1.
         25    1    1    2    0    0  0.43654906718E+01  0.51424894239E+02 -0.21274667991E+03  0.24964920803E+03  0.12000000000E+03 0.  0.
         25    1    1    2    0    0 -0.43654906718E+01 -0.51424894239E+02  0.49090464758E+02  0.13954730734E+03  0.12000000000E+03 0.  0.
<mgrwt>
<rscale>  0 0.35311552E+03</rscale>
<asrwt>0</asrwt>
<pdfrwt beam="1">  1        1 0.42527133E-01 0.35311552E+03</pdfrwt>
<pdfrwt beam="2">  1       -1 0.17349254E-01 0.35311552E+03</pdfrwt>
<totfact> 0.24798466E+03</totfact>
</mgrwt>
</event>
<event>
 4    1  0.1762274E-004  0.2890802E+03  0.7818608E-02  0.1090830E+00
         -1   -1    0    0    0  501 -0.00000000000E+00  0.00000000000E+00  0.89690666491E+02  0.89690666491E+02  0.00000000000E+00 0. -1.
          1   -1    0    0  501    0  0.00000000000E+00 -0.00000000000E+00 -0.23293212672E+03  0.23293212672E+03  0.00000000000E+00 0. -1.
         25    1    1    2    0    0 -0.19736708607E+02  0.75781397965E+02 -0.50460813883E+02  0.15191659449E+03  0.12000000000E+03 0.  0.
         25    1    1    2    0    0  0.19736708607E+02 -0.75781397965E+02 -0.92780646342E+02  0.17070619872E+03  0.12000000000E+03 0.  0.
<mgrwt>
<rscale>  0 0.28908018E+03</rscale>
<asrwt>0</asrwt>
<pdfrwt beam="1">  1        1 0.35835711E-01 0.28908018E+03</pdfrwt>
<pdfrwt beam="2">  1       -1 0.13798564E-01 0.28908018E+03</pdfrwt>
<totfact> 0.44181424E+03</totfact>
</mgrwt>
</event>
<event>
 4    1  0.1762274E-004  0.3415516E+03  0.7818608E-02  0.1066137E+00
         -1   -1    0    0    0  501 -0.00000000000E+00  0.00000000000E+00  0.63960397103E+03  0.63960397103E+03  0.00000000000E+00 0. -1.
          1   -1    0    0  501    0  0.00000000000E+00 -0.00000000000E+00 -0.45597549932E+02  0.45597549932E+02  0.00000000000E+00 0. -1.
         25    1    1    2    0    0  0.80124561653E+00 -0.11932326412E+03  0.34299995770E+03  0.38247569117E+03  0.12000000000E+03 0.  0.
         25    1    1    2    0    0 -0.80124561653E+00  0.11932326412E+03  0.25100646340E+03  0.30272582979E+03  0.12000000000E+03 0.  0.
<mgrwt>
<rscale>  0 0.34155160E+03</rscale>
<asrwt>0</asrwt>
<pdfrwt beam="1">  1        1 0.70150082E-02 0.34155160E+03</pdfrwt>
<pdfrwt beam="2">  1       -1 0.98400604E-01 0.34155160E+03</pdfrwt>
<totfact> 0.10911797E+03</totfact>
</mgrwt>
</event>
<event>
 4    1  0.1762274E-004  0.3586081E+03  0.7818608E-02  0.1059136E+00
         -2   -1    0    0    0  501 -0.00000000000E+00  0.00000000000E+00  0.33803112921E+02  0.33803112921E+02  0.00000000000E+00 0.  1.
          2   -1    0    0  501    0  0.00000000000E+00 -0.00000000000E+00 -0.95109400984E+03  0.95109400984E+03  0.00000000000E+00 0.  1.
         25    1    1    2    0    0 -0.53109793634E+02  0.52271504746E+02 -0.15532833184E+03  0.20995202086E+03  0.12000000000E+03 0.  0.
         25    1    1    2    0    0  0.53109793634E+02 -0.52271504746E+02 -0.76196256507E+03  0.77494510190E+03  0.12000000000E+03 0.  0.
<mgrwt>
<rscale>  0 0.35860808E+03</rscale>
<asrwt>0</asrwt>
<pdfrwt beam="1">  1        2 0.14632213E+00 0.35860808E+03</pdfrwt>
<pdfrwt beam="2">  1       -2 0.52004797E-02 0.35860808E+03</pdfrwt>
<totfact> 0.52166525E+03</totfact>
</mgrwt>
</event>
<event>
 4    1  0.1762274E-004  0.2461228E+03  0.7818608E-02  0.1115780E+00
          2   -1    0    0  501    0  0.00000000000E+00  0.00000000000E+00  0.13975690780E+03  0.13975690780E+03  0.00000000000E+00 0. -1.
         -2   -1    0    0    0  501 -0.00000000000E+00 -0.00000000000E+00 -0.10836036871E+03  0.10836036871E+03  0.00000000000E+00 0. -1.
         25    1    1    2    0    0  0.10851450412E+02 -0.19374877808E+02  0.31668684626E+02  0.12607952035E+03  0.12000000000E+03 0.  0.
         25    1    1    2    0    0 -0.10851450412E+02  0.19374877808E+02 -0.27214553725E+00  0.12203775616E+03  0.12000000000E+03 0.  0.
<mgrwt>
<rscale>  0 0.24612282E+03</rscale>
<asrwt>0</asrwt>
<pdfrwt beam="1">  1        2 0.21501063E-01 0.24612282E+03</pdfrwt>
<pdfrwt beam="2">  1       -2 0.16670826E-01 0.24612282E+03</pdfrwt>
<totfact> 0.72162576E+03</totfact>
</mgrwt>
</event>
<event>
 4    1  0.1762274E-004  0.2525181E+03  0.7818608E-02  0.1111724E+00
          3   -1    0    0  501    0  0.00000000000E+00  0.00000000000E+00  0.55731726366E+02  0.55731726366E+02  0.00000000000E+00 0.  1.
         -3   -1    0    0    0  501 -0.00000000000E+00 -0.00000000000E+00 -0.28603724282E+03  0.28603724282E+03  0.00000000000E+00 0.  1.
         25    1    1    2    0    0 -0.25712349839E+02 -0.28661811071E+02 -0.10478101865E+03  0.16389535142E+03  0.12000000000E+03 0.  0.
         25    1    1    2    0    0  0.25712349839E+02  0.28661811071E+02 -0.12552449781E+03  0.17787361777E+03  0.12000000000E+03 0.  0.
<mgrwt>
<rscale>  0 0.25251811E+03</rscale>
<asrwt>0</asrwt>
<pdfrwt beam="1">  1        3 0.85741118E-02 0.25251811E+03</pdfrwt>
<pdfrwt beam="2">  1       -3 0.44005729E-01 0.25251811E+03</pdfrwt>
<totfact> 0.12357824E+03</totfact>
</mgrwt>
</event>
<event>
 4    1  0.1762274E-004  0.3829486E+03  0.7818608E-02  0.1049849E+00
          2   -1    0    0  501    0  0.00000000000E+00  0.00000000000E+00  0.24566655199E+04  0.24566655199E+04  0.00000000000E+00 0.  1.
         -2   -1    0    0    0  501 -0.00000000000E+00 -0.00000000000E+00 -0.14923645205E+02  0.14923645205E+02  0.00000000000E+00 0.  1.
         25    1    1    2    0    0 -0.14836132962E+03  0.17431603914E+01  0.13225679787E+04  0.13362635148E+04  0.12000000000E+03 0.  0.
         25    1    1    2    0    0  0.14836132962E+03 -0.17431603914E+01  0.11191738960E+04  0.11353256503E+04  0.12000000000E+03 0.  0.
<mgrwt>
<rscale>  0 0.38294858E+03</rscale>
<asrwt>0</asrwt>
<pdfrwt beam="1">  1        2 0.37794822E+00 0.38294858E+03</pdfrwt>
<pdfrwt beam="2">  1       -2 0.22959474E-02 0.38294858E+03</pdfrwt>
<totfact> 0.26495174E+03</totfact>
</mgrwt>
</event>
<event>
 4    1  0.1762274E-004  0.3106964E+03  0.7818608E-02  0.1080013E+00
          2   -1    0    0  501    0  0.00000000000E+00  0.00000000000E+00  0.26750058296E+03  0.26750058296E+03  0.00000000000E+00 0.  1.
         -2   -1    0    0    0  501 -0.00000000000E+00 -0.00000000000E+00 -0.90216860611E+02  0.90216860611E+02  0.00000000000E+00 0.  1.
         25    1    1    2    0    0  0.63951295264E+01  0.67087691248E+02  0.56861229826E+01  0.13774609974E+03  0.12000000000E+03 0.  0.
         25    1    1    2    0    0 -0.63951295264E+01 -0.67087691248E+02  0.17159759936E+03  0.21997134383E+03  0.12000000000E+03 0.  0.
<mgrwt>
<rscale>  0 0.31069640E+03</rscale>
<asrwt>0</asrwt>
<pdfrwt beam="1">  1        2 0.41153936E-01 0.31069640E+03</pdfrwt>
<pdfrwt beam="2">  1       -2 0.13879517E-01 0.31069640E+03</pdfrwt>
<totfact> 0.48188689E+03</totfact>
</mgrwt>
</event>
<event>
 4    1  0.1762274E-004  0.2595437E+03  0.7818608E-02  0.1107418E+00
          2   -1    0    0  501    0  0.00000000000E+00  0.00000000000E+00  0.29472650311E+04  0.29472650311E+04  0.00000000000E+00 0.  1.
         -2   -1    0    0    0  501 -0.00000000000E+00 -0.00000000000E+00 -0.57140187917E+01  0.57140187917E+01  0.00000000000E+00 0.  1.
         25    1    1    2    0    0  0.14816638333E+02 -0.47082577124E+02  0.14468394660E+04  0.14526461174E+04  0.12000000000E+03 0.  0.
         25    1    1    2    0    0 -0.14816638333E+02  0.47082577124E+02  0.14947115463E+04  0.15003329325E+04  0.12000000000E+03 0.  0.
<mgrwt>
<rscale>  0 0.25954366E+03</rscale>
<asrwt>0</asrwt>
<pdfrwt beam="1">  1        2 0.45342418E+00 0.25954366E+03</pdfrwt>
<pdfrwt beam="2">  1       -2 0.87908217E-03 0.25954366E+03</pdfrwt>
<totfact> 0.57589194E+03</totfact>
</mgrwt>
</event>
<event>
 4    1  0.1762274E-004  0.2891141E+03  0.7818608E-02  0.1090813E+00
          1   -1    0    0  501    0  0.00000000000E+00  0.00000000000E+00  0.19029035927E+04  0.19029035927E+04  0.00000000000E+00 0.  1.
         -1   -1    0    0    0  501 -0.00000000000E+00 -0.00000000000E+00 -0.10981499653E+02  0.10981499653E+02  0.00000000000E+00 0.  1.
         25    1    1    2    0    0  0.48590561141E+02 -0.57518842395E+02  0.11363631179E+04  0.11451596376E+04  0.12000000000E+03 0.  0.
         25    1    1    2    0    0 -0.48590561141E+02  0.57518842395E+02  0.75555897521E+03  0.76872545482E+03  0.12000000000E+03 0.  0.
<mgrwt>
<rscale>  0 0.28911406E+03</rscale>
<asrwt>0</asrwt>
<pdfrwt beam="1">  1        1 0.29275414E+00 0.28911406E+03</pdfrwt>
<pdfrwt beam="2">  1       -1 0.16894630E-02 0.28911406E+03</pdfrwt>
<totfact> 0.34228392E+03</totfact>
</mgrwt>
</event>
<event>
 4    1  0.1762274E-004  0.2562865E+03  0.7818608E-02  0.1109395E+00
          2   -1    0    0  501    0  0.00000000000E+00  0.00000000000E+00  0.78742431930E+03  0.78742431930E+03  0.00000000000E+00 0.  1.
         -2   -1    0    0    0  501 -0.00000000000E+00 -0.00000000000E+00 -0.20853680950E+02  0.20853680950E+02  0.00000000000E+00 0.  1.
         25    1    1    2    0    0  0.29685299911E+02 -0.20464101984E+02  0.46795188721E+03  0.48443675051E+03  0.12000000000E+03 0.  0.
         25    1    1    2    0    0 -0.29685299911E+02  0.20464101984E+02  0.29861875114E+03  0.32384124974E+03  0.12000000000E+03 0.  0.
<mgrwt>
<rscale>  0 0.25628652E+03</rscale>
<asrwt>0</asrwt>
<pdfrwt beam="1">  1        2 0.12114218E+00 0.25628652E+03</pdfrwt>
<pdfrwt beam="2">  1       -2 0.32082592E-02 0.25628652E+03</pdfrwt>
<totfact> 0.13765784E+04</totfact>
</mgrwt>
</event>
<event>
 4    1  0.1762274E-004  0.2755389E+03  0.7818608E-02  0.1098151E+00
          2   -1    0    0  501    0  0.00000000000E+00  0.00000000000E+00  0.53000449946E+02  0.53000449946E+02  0.00000000000E+00 0.  1.
         -2   -1    0    0    0  501 -0.00000000000E+00 -0.00000000000E+00 -0.35811805411E+03  0.35811805411E+03  0.00000000000E+00 0.  1.
         25    1    1    2    0    0 -0.28814240116E+02  0.10072758292E+02 -0.62432189427E+02  0.13867046971E+03  0.12000000000E+03 0.  0.
         25    1    1    2    0    0  0.28814240116E+02 -0.10072758292E+02 -0.24268541473E+03  0.27244803434E+03  0.12000000000E+03 0.  0.
<mgrwt>
<rscale>  0 0.27553888E+03</rscale>
<asrwt>0</asrwt>
<pdfrwt beam="1">  1        2 0.81539156E-02 0.27553888E+03</pdfrwt>
<pdfrwt beam="2">  1       -2 0.55095084E-01 0.27553888E+03</pdfrwt>
<totfact> 0.26095966E+03</totfact>
</mgrwt>
</event>
<event>
 4    1  0.1762274E-004  0.2979228E+03  0.7818608E-02  0.1086284E+00
         -1   -1    0    0    0  501 -0.00000000000E+00  0.00000000000E+00  0.10320188474E+03  0.10320188474E+03  0.00000000000E+00 0. -1.
          1   -1    0    0  501    0  0.00000000000E+00 -0.00000000000E+00 -0.21501061771E+03  0.21501061771E+03  0.00000000000E+00 0. -1.
         25    1    1    2    0    0  0.29969792573E+02  0.39249666300E+02  0.22226361225E+02  0.13165384880E+03  0.12000000000E+03 0.  0.
         25    1    1    2    0    0 -0.29969792573E+02 -0.39249666300E+02 -0.13403509420E+03  0.18655865364E+03  0.12000000000E+03 0.  0.
<mgrwt>
<rscale>  0 0.29792282E+03</rscale>
<asrwt>0</asrwt>
<pdfrwt beam="1">  1        1 0.33078556E-01 0.29792282E+03</pdfrwt>
<pdfrwt beam="2">  1       -1 0.15877213E-01 0.29792282E+03</pdfrwt>
<totfact> 0.39138443E+03</totfact>
</mgrwt>
</event>
<event>
 4    1  0.1762274E-004  0.2880142E+03  0.7818608E-02  0.1091391E+00
          3   -1    0    0  501    0  0.00000000000E+00  0.00000000000E+00  0.12343154315E+02  0.12343154315E+02  0.00000000000E+00 0.  1.
         -3   -1    0    0    0  501 -0.00000000000E+00 -0.00000000000E+00 -0.16801256309E+04  0.16801256309E+04  0.00000000000E+00 0.  1.
         25    1    1    2    0    0  0.78933020560E+02 -0.60399099570E+01 -0.88345760648E+03  0.89507778696E+03  0.12000000000E+03 0.  0.
         25    1    1    2    0    0 -0.78933020560E+02  0.60399099570E+01 -0.78432487013E+03  0.79739099829E+03  0.12000000000E+03 0.  0.
<mgrwt>
<rscale>  0 0.28801424E+03</rscale>
<asrwt>0</asrwt>
<pdfrwt beam="1">  1        3 0.18989484E-02 0.28801424E+03</pdfrwt>
<pdfrwt beam="2">  1       -3 0.25848065E+00 0.28801424E+03</pdfrwt>
<totfact> 0.19252484E+02</totfact>
</mgrwt>
</event>
<event>
 4    1  0.1762274E-004  0.2917920E+03  0.7818608E-02  0.1089417E+00
          1   -1    0    0  501    0  0.00000000000E+00  0.00000000000E+00  0.11079679220E+03  0.11079679220E+03  0.00000000000E+00 0. -1.
         -1   -1    0    0    0  501 -0.00000000000E+00 -0.00000000000E+00 -0.19211421390E+03  0.19211421390E+03  0.00000000000E+00 0. -1.
         25    1    1    2    0    0 -0.74756803560E+02 -0.23214883627E+02 -0.69242053967E+02  0.15912879230E+03  0.12000000000E+03 0.  0.
         25    1    1    2    0    0  0.74756803560E+02  0.23214883627E+02 -0.12075367737E+02  0.14378221380E+03  0.12000000000E+03 0.  0.
<mgrwt>
<rscale>  0 0.29179197E+03</rscale>
<asrwt>0</asrwt>
<pdfrwt beam="1">  1        1 0.17045660E-01 0.29179197E+03</pdfrwt>
<pdfrwt beam="2">  1       -1 0.29556033E-01 0.29179197E+03</pdfrwt>
<totfact> 0.32910804E+03</totfact>
</mgrwt>
</event>
<event>
 4    1  0.1762274E-004  0.2772368E+03  0.7818608E-02  0.1097208E+00
          1   -1    0    0  501    0  0.00000000000E+00  0.00000000000E+00  0.32727498466E+03  0.32727498466E+03  0.00000000000E+00 0. -1.
         -1   -1    0    0    0  501 -0.00000000000E+00 -0.00000000000E+00 -0.58712267323E+02  0.58712267323E+02  0.00000000000E+00 0. -1.
         25    1    1    2    0    0 -0.58965752279E+02 -0.35803383895E+02  0.14472002338E+03  0.20025665384E+03  0.12000000000E+03 0.  0.
         25    1    1    2    0    0  0.58965752279E+02  0.35803383895E+02  0.12384269395E+03  0.18573059814E+03  0.12000000000E+03 0.  0.
<mgrwt>
<rscale>  0 0.27723677E+03</rscale>
<asrwt>0</asrwt>
<pdfrwt beam="1">  1        1 0.50349997E-01 0.27723677E+03</pdfrwt>
<pdfrwt beam="2">  1       -1 0.90326567E-02 0.27723677E+03</pdfrwt>
<totfact> 0.55651811E+03</totfact>
</mgrwt>
</event>
<event>
 4    1  0.1762274E-004  0.2422419E+03  0.7818608E-02  0.1118308E+00
         -1   -1    0    0    0  501 -0.00000000000E+00  0.00000000000E+00  0.11424076257E+03  0.11424076257E+03  0.00000000000E+00 0.  1.
          1   -1    0    0  501    0  0.00000000000E+00 -0.00000000000E+00 -0.12841545435E+03  0.12841545435E+03  0.00000000000E+00 0.  1.
         25    1    1    2    0    0 -0.15849721346E+02  0.42754143259E+01 -0.61989256118E+01  0.12127621165E+03  0.12000000000E+03 0.  0.
         25    1    1    2    0    0  0.15849721346E+02 -0.42754143259E+01 -0.79757661695E+01  0.12138000527E+03  0.12000000000E+03 0.  0.
<mgrwt>
<rscale>  0 0.24224186E+03</rscale>
<asrwt>0</asrwt>
<pdfrwt beam="1">  1        1 0.19756224E-01 0.24224186E+03</pdfrwt>
<pdfrwt beam="2">  1       -1 0.17575502E-01 0.24224186E+03</pdfrwt>
<totfact> 0.63630301E+03</totfact>
</mgrwt>
</event>
<event>
 4    1  0.1762274E-004  0.2971062E+03  0.7818608E-02  0.1086696E+00
          1   -1    0    0  501    0  0.00000000000E+00  0.00000000000E+00  0.32538057707E+03  0.32538057707E+03  0.00000000000E+00 0. -1.
         -1   -1    0    0    0  501 -0.00000000000E+00 -0.00000000000E+00 -0.67822199788E+02  0.67822199788E+02  0.00000000000E+00 0. -1.
         25    1    1    2    0    0  0.54839057181E+02 -0.66187712712E+02  0.15092029396E+03  0.21110440695E+03  0.12000000000E+03 0.  0.
         25    1    1    2    0    0 -0.54839057181E+02  0.66187712712E+02  0.10663808332E+03  0.18209836990E+03  0.12000000000E+03 0.  0.
<mgrwt>
<rscale>  0 0.29710622E+03</rscale>
<asrwt>0</asrwt>
<pdfrwt beam="1">  1        1 0.50058549E-01 0.29710622E+03</pdfrwt>
<pdfrwt beam="2">  1       -1 0.10434185E-01 0.29710622E+03</pdfrwt>
<totfact> 0.44950819E+03</totfact>
</mgrwt>
</event>
<event>
 4    1  0.1762274E-004  0.3017287E+03  0.7818608E-02  0.1084380E+00
         -4   -1    0    0    0  501 -0.00000000000E+00  0.00000000000E+00  0.15576256541E+04  0.15576256541E+04  0.00000000000E+00 0. -1.
          4   -1    0    0  501    0  0.00000000000E+00 -0.00000000000E+00 -0.14612019958E+02  0.14612019958E+02  0.00000000000E+00 0. -1.
         25    1    1    2    0    0  0.36768955234E+02  0.30867869366E+02  0.36602770171E+03  0.38817658334E+03  0.12000000000E+03 0.  0.
         25    1    1    2    0    0 -0.36768955234E+02 -0.30867869366E+02  0.11769859325E+04  0.11840610908E+04  0.12000000000E+03 0.  0.
<mgrwt>
<rscale>  0 0.30172873E+03</rscale>
<asrwt>0</asrwt>
<pdfrwt beam="1">  1        4 0.22480043E-02 0.30172873E+03</pdfrwt>
<pdfrwt beam="2">  1       -4 0.23963458E+00 0.30172873E+03</pdfrwt>
<totfact> 0.13136332E+02</totfact>
</mgrwt>
</event>
<event>
 4    1  0.1762274E-004  0.2642016E+03  0.7818608E-02  0.1104645E+00
         -4   -1    0    0    0  501 -0.00000000000E+00  0.00000000000E+00  0.72559474969E+02  0.72559474969E+02  0.00000000000E+00 0.  1.
          4   -1    0    0  501    0  0.00000000000E+00 -0.00000000000E+00 -0.24050094381E+03  0.24050094381E+03  0.00000000000E+00 0.  1.
         25    1    1    2    0    0 -0.16039308488E+02 -0.39617981066E+02 -0.42518867549E+02  0.13429332797E+03  0.12000000000E+03 0.  0.
         25    1    1    2    0    0  0.16039308488E+02  0.39617981066E+02 -0.12542260130E+03  0.17876709081E+03  0.12000000000E+03 0.  0.
<mgrwt>
<rscale>  0 0.26420161E+03</rscale>
<asrwt>0</asrwt>
<pdfrwt beam="1">  1        4 0.37000145E-01 0.26420161E+03</pdfrwt>
<pdfrwt beam="2">  1       -4 0.11162996E-01 0.26420161E+03</pdfrwt>
<totfact> 0.83213137E+02</totfact>
</mgrwt>
</event>
<event>
 4    1  0.1762274E-004  0.2731851E+03  0.7818608E-02  0.1099470E+00
          2   -1    0    0  501    0  0.00000000000E+00  0.00000000000E+00  0.42875749449E+03  0.42875749449E+03  0.00000000000E+00 0.  1.
         -2   -1    0    0    0  501 -0.00000000000E+00 -0.00000000000E+00 -0.43515338934E+02  0.43515338934E+02  0.00000000000E+00 0.  1.
         25    1    1    2    0    0 -0.52272743145E+02  0.26705530700E+02  0.24188033966E+03  0.27631815677E+03  0.12000000000E+03 0.  0.
         25    1    1    2    0    0  0.52272743145E+02 -0.26705530700E+02  0.14336181589E+03  0.19595467665E+03  0.12000000000E+03 0.  0.
<mgrwt>
<rscale>  0 0.27318512E+03</rscale>
<asrwt>0</asrwt>
<pdfrwt beam="1">  1        2 0.65962689E-01 0.27318512E+03</pdfrwt>
<pdfrwt beam="2">  1       -2 0.66946678E-02 0.27318512E+03</pdfrwt>
<totfact> 0.91731206E+03</totfact>
</mgrwt>
</event>
<event>
 4    1  0.1762274E-004  0.4016206E+03  0.7818608E-02  0.1043220E+00
         -2   -1    0    0    0  501 -0.00000000000E+00  0.00000000000E+00  0.15531234440E+02  0.15531234440E+02  0.00000000000E+00 0.  1.
          2   -1    0    0  501    0  0.00000000000E+00 -0.00000000000E+00 -0.25963667148E+04  0.25963667148E+04  0.00000000000E+00 0.  1.
         25    1    1    2    0    0  0.10992210297E+03 -0.86636656289E+02 -0.77275389931E+03  0.79444154463E+03  0.12000000000E+03 0.  0.
         25    1    1    2    0    0 -0.10992210297E+03  0.86636656289E+02 -0.18080815811E+04  0.18174564047E+04  0.12000000000E+03 0.  0.
<mgrwt>
<rscale>  0 0.40162062E+03</rscale>
<asrwt>0</asrwt>
<pdfrwt beam="1">  1        2 0.39944138E+00 0.40162062E+03</pdfrwt>
<pdfrwt beam="2">  1       -2 0.23894186E-02 0.40162062E+03</pdfrwt>
<totfact> 0.20838737E+03</totfact>
</mgrwt>
</event>
<event>
 4    1  0.1762274E-004  0.3774352E+03  0.7818608E-02  0.1051886E+00
          1   -1    0    0  501    0  0.00000000000E+00  0.00000000000E+00  0.11411043316E+04  0.11411043316E+04  0.00000000000E+00 0.  1.
         -1   -1    0    0    0  501 -0.00000000000E+00 -0.00000000000E+00 -0.31210405665E+02  0.31210405665E+02  0.00000000000E+00 0.  1.
         25    1    1    2    0    0 -0.10570048646E+03 -0.38182448131E+02  0.84271501299E+03  0.85860298468E+03  0.12000000000E+03 0.  0.
         25    1    1    2    0    0  0.10570048646E+03  0.38182448131E+02  0.26717891289E+03  0.31371175253E+03  0.12000000000E+03 0.  0.
<mgrwt>
<rscale>  0 0.37743518E+03</rscale>
<asrwt>0</asrwt>
<pdfrwt beam="1">  1        1 0.17555448E+00 0.37743518E+03</pdfrwt>
<pdfrwt beam="2">  1       -1 0.48016017E-02 0.37743518E+03</pdfrwt>
<totfact> 0.23606624E+03</totfact>
</mgrwt>
</event>
<event>
 4    1  0.1762274E-004  0.2556150E+03  0.7818608E-02  0.1109807E+00
          2   -1    0    0  501    0  0.00000000000E+00  0.00000000000E+00  0.52773984193E+02  0.52773984193E+02  0.00000000000E+00 0. -1.
         -2   -1    0    0    0  501 -0.00000000000E+00 -0.00000000000E+00 -0.30952285905E+03  0.30952285905E+03  0.00000000000E+00 0. -1.
         25    1    1    2    0    0 -0.15680610581E+02 -0.28859159779E+02 -0.86905714002E+02  0.15176078472E+03  0.12000000000E+03 0.  0.
         25    1    1    2    0    0  0.15680610581E+02  0.28859159779E+02 -0.16984316086E+03  0.21053605853E+03  0.12000000000E+03 0.  0.
<mgrwt>
<rscale>  0 0.25561498E+03</rscale>
<asrwt>0</asrwt>
<pdfrwt beam="1">  1        2 0.81190745E-02 0.25561498E+03</pdfrwt>
<pdfrwt beam="2">  1       -2 0.47618901E-01 0.25561498E+03</pdfrwt>
<totfact> 0.35058605E+03</totfact>
</mgrwt>
</event>
<event>
 4    1  0.1762274E-004  0.4023801E+03  0.7818608E-02  0.1042959E+00
          2   -1    0    0  501    0  0.00000000000E+00  0.00000000000E+00  0.17295858475E+04  0.17295858475E+04  0.00000000000E+00 0. -1.
         -2   -1    0    0    0  501 -0.00000000000E+00 -0.00000000000E+00 -0.23402963695E+02  0.23402963695E+02  0.00000000000E+00 0. -1.
         25    1    1    2    0    0  0.14497964780E+03 -0.67752120756E+02  0.94733667444E+03  0.96822322988E+03  0.12000000000E+03 0.  0.
         25    1    1    2    0    0 -0.14497964780E+03  0.67752120756E+02  0.75884620934E+03  0.78476558129E+03  0.12000000000E+03 0.  0.
<mgrwt>
<rscale>  0 0.40238009E+03</rscale>
<asrwt>0</asrwt>
<pdfrwt beam="1">  1        2 0.26609003E+00 0.40238009E+03</pdfrwt>
<pdfrwt beam="2">  1       -2 0.36004573E-02 0.40238009E+03</pdfrwt>
<totfact> 0.33142175E+03</totfact>
</mgrwt>
</event>
<event>
 4    1  0.1762274E-004  0.2561944E+03  0.7818608E-02  0.1109452E+00
         -2   -1    0    0    0  501 -0.00000000000E+00  0.00000000000E+00  0.39076991410E+02  0.39076991410E+02  0.00000000000E+00 0.  1.
          2   -1    0    0  501    0  0.00000000000E+00 -0.00000000000E+00 -0.41991184274E+03  0.41991184274E+03  0.00000000000E+00 0.  1.
         25    1    1    2    0    0 -0.16555992996E+02  0.41269051369E+02 -0.20049742010E+03  0.23785804794E+03  0.12000000000E+03 0.  0.
         25    1    1    2    0    0  0.16555992996E+02 -0.41269051369E+02 -0.18033743122E+03  0.22113078620E+03  0.12000000000E+03 0.  0.
<mgrwt>
<rscale>  0 0.25619439E+03</rscale>
<asrwt>0</asrwt>
<pdfrwt beam="1">  1        2 0.64601820E-01 0.25619439E+03</pdfrwt>
<pdfrwt beam="2">  1       -2 0.60118450E-02 0.25619439E+03</pdfrwt>
<totfact> 0.11043398E+04</totfact>
</mgrwt>
</event>
