<event>
 4    1  0.1710914E-004  0.2431773E+03  0.7818608E-02  0.1117694E+00
         -1   -1    0    0    0  501 -0.00000000000E+00  0.00000000000E+00  0.24302483710E+02  0.24302483710E+02  0.00000000000E+00 0.  1.
          1   -1    0    0  501    0  0.00000000000E+00 -0.00000000000E+00 -0.60832479511E+03  0.60832479511E+03  0.00000000000E+00 0.  1.
         25    1    1    2    0    0 -0.79115412596E+01  0.17357622828E+02 -0.28039903183E+03  0.30559367894E+03  0.12000000000E+03 0.  0.
         25    1    1    2    0    0  0.79115412596E+01 -0.17357622828E+02 -0.30362327957E+03  0.32703359988E+03  0.12000000000E+03 0.  0.
<mgrwt>
<rscale>  0 0.24317733E+03</rscale>
<asrwt>0</asrwt>
<pdfrwt beam="1">  1        1 0.93588421E-01 0.24317733E+03</pdfrwt>
<pdfrwt beam="2">  1       -1 0.37388440E-02 0.24317733E+03</pdfrwt>
<totfact> 0.92904842E+03</totfact>
</mgrwt>
</event>
<event>
 4    1  0.1710914E-004  0.3552836E+03  0.7818608E-02  0.1060467E+00
          2   -1    0    0  501    0  0.00000000000E+00  0.00000000000E+00  0.10013536509E+04  0.10013536509E+04  0.00000000000E+00 0.  1.
         -2   -1    0    0    0  501 -0.00000000000E+00 -0.00000000000E+00 -0.31513949784E+02  0.31513949784E+02  0.00000000000E+00 0.  1.
         25    1    1    2    0    0 -0.61288525109E+02 -0.10580794582E+03  0.34840679619E+03  0.38825107900E+03  0.12000000000E+03 0.  0.
         25    1    1    2    0    0  0.61288525109E+02  0.10580794582E+03  0.62143290487E+03  0.64461652164E+03  0.12000000000E+03 0.  0.
<mgrwt>
<rscale>  0 0.35528360E+03</rscale>
<asrwt>0</asrwt>
<pdfrwt beam="1">  1        2 0.15405438E+00 0.35528360E+03</pdfrwt>
<pdfrwt beam="2">  1       -2 0.48483007E-02 0.35528360E+03</pdfrwt>
<totfact> 0.54008374E+03</totfact>
</mgrwt>
</event>
<event>
 4    1  0.1710914E-004  0.3278759E+03  0.7818608E-02  0.1072081E+00
          3   -1    0    0  501    0  0.00000000000E+00  0.00000000000E+00  0.30641236416E+03  0.30641236416E+03  0.00000000000E+00 0. -1.
         -3   -1    0    0    0  501 -0.00000000000E+00 -0.00000000000E+00 -0.87710701192E+02  0.87710701192E+02  0.00000000000E+00 0. -1.
         25    1    1    2    0    0  0.63965516619E+02  0.85447415578E+02  0.14890530212E+03  0.21901058683E+03  0.12000000000E+03 0.  0.
         25    1    1    2    0    0 -0.63965516619E+02 -0.85447415578E+02  0.69796360847E+02  0.17511247852E+03  0.12000000000E+03 0.  0.
<mgrwt>
<rscale>  0 0.32787585E+03</rscale>
<asrwt>0</asrwt>
<pdfrwt beam="1">  1        3 0.47140363E-01 0.32787585E+03</pdfrwt>
<pdfrwt beam="2">  1       -3 0.13493954E-01 0.32787585E+03</pdfrwt>
<totfact> 0.51634386E+02</totfact>
</mgrwt>
</event>
<event>
 4    1  0.1710914E-004  0.2436082E+03  0.7818608E-02  0.1117412E+00
         -2   -1    0    0    0  501 -0.00000000000E+00  0.00000000000E+00  0.20935506550E+02  0.20935506550E+02  0.00000000000E+00 0.  1.
          2   -1    0    0  501    0  0.00000000000E+00 -0.00000000000E+00 -0.70866419225E+03  0.70866419225E+03  0.00000000000E+00 0.  1.
         25    1    1    2    0    0 -0.23469508487E+01 -0.19034436458E+02 -0.36863872843E+03  0.38815245722E+03  0.12000000000E+03 0.  0.
         25    1    1    2    0    0  0.23469508487E+01  0.19034436458E+02 -0.31908995727E+03  0.34144724158E+03  0.12000000000E+03 0.  0.
<mgrwt>
<rscale>  0 0.24360824E+03</rscale>
<asrwt>0</asrwt>
<pdfrwt beam="1">  1        2 0.10902524E+00 0.24360824E+03</pdfrwt>
<pdfrwt beam="2">  1       -2 0.32208477E-02 0.24360824E+03</pdfrwt>
<totfact> 0.15556331E+04</totfact>
</mgrwt>
</event>
<event>
 4    1  0.1710914E-004  0.2554459E+03  0.7818608E-02  0.1109911E+00
          4   -1    0    0  501    0  0.00000000000E+00  0.00000000000E+00  0.11416450469E+03  0.11416450469E+03  0.00000000000E+00 0. -1.
         -4   -1    0    0    0  501 -0.00000000000E+00 -0.00000000000E+00 -0.14289161141E+03  0.14289161141E+03  0.00000000000E+00 0. -1.
         25    1    1    2    0    0  0.29934610444E+02  0.21414004154E+02 -0.38145332282E+02  0.13118577229E+03  0.12000000000E+03 0.  0.
         25    1    1    2    0    0 -0.29934610444E+02 -0.21414004154E+02  0.94182255604E+01  0.12587034380E+03  0.12000000000E+03 0.  0.
<mgrwt>
<rscale>  0 0.25544588E+03</rscale>
<asrwt>0</asrwt>
<pdfrwt beam="1">  1        4 0.17563770E-01 0.25544588E+03</pdfrwt>
<pdfrwt beam="2">  1       -4 0.21983325E-01 0.25544588E+03</pdfrwt>
<totfact> 0.10048679E+03</totfact>
</mgrwt>
</event>
<event>
 4    1  0.1710914E-004  0.3815388E+03  0.7818608E-02  0.1050366E+00
         -2   -1    0    0    0  501 -0.00000000000E+00  0.00000000000E+00  0.78747883129E+02  0.78747883129E+02  0.00000000000E+00 0.  1.
          2   -1    0    0  501    0  0.00000000000E+00 -0.00000000000E+00 -0.46214533842E+03  0.46214533842E+03  0.00000000000E+00 0.  1.
         25    1    1    2    0    0 -0.71650194169E+02 -0.10735439270E+03 -0.29523905656E+03  0.34383835807E+03  0.12000000000E+03 0.  0.
         25    1    1    2    0    0  0.71650194169E+02  0.10735439270E+03 -0.88158398726E+02  0.19705486348E+03  0.12000000000E+03 0.  0.
<mgrwt>
<rscale>  0 0.38153882E+03</rscale>
<asrwt>0</asrwt>
<pdfrwt beam="1">  1        2 0.71099283E-01 0.38153882E+03</pdfrwt>
<pdfrwt beam="2">  1       -2 0.12115059E-01 0.38153882E+03</pdfrwt>
<totfact> 0.33285758E+03</totfact>
</mgrwt>
</event>
<event>
 4    1  0.1710914E-004  0.4360197E+03  0.7818608E-02  0.1031975E+00
         -2   -1    0    0    0  501 -0.00000000000E+00  0.00000000000E+00  0.23382097887E+03  0.23382097887E+03  0.00000000000E+00 0. -1.
          2   -1    0    0  501    0  0.00000000000E+00 -0.00000000000E+00 -0.20326785022E+03  0.20326785022E+03  0.00000000000E+00 0. -1.
         25    1    1    2    0    0 -0.29332593127E+02 -0.11097397128E+03  0.15687683259E+03  0.22844247399E+03  0.12000000000E+03 0.  0.
         25    1    1    2    0    0  0.29332593127E+02  0.11097397128E+03 -0.12632370394E+03  0.20864635510E+03  0.12000000000E+03 0.  0.
<mgrwt>
<rscale>  0 0.43601967E+03</rscale>
<asrwt>0</asrwt>
<pdfrwt beam="1">  1        2 0.31271977E-01 0.43601967E+03</pdfrwt>
<pdfrwt beam="2">  1       -2 0.35972458E-01 0.43601967E+03</pdfrwt>
<totfact> 0.12307682E+03</totfact>
</mgrwt>
</event>
<event>
 4    1  0.1710914E-004  0.3160249E+03  0.7818608E-02  0.1077493E+00
         -1   -1    0    0    0  501 -0.00000000000E+00  0.00000000000E+00  0.12875023466E+02  0.12875023466E+02  0.00000000000E+00 0.  1.
          1   -1    0    0  501    0  0.00000000000E+00 -0.00000000000E+00 -0.19392531681E+04  0.19392531681E+04  0.00000000000E+00 0.  1.
         25    1    1    2    0    0 -0.97518565981E+02  0.25776290976E+02 -0.84063214316E+03  0.85512378520E+03  0.12000000000E+03 0.  0.
         25    1    1    2    0    0  0.97518565981E+02 -0.25776290976E+02 -0.10857460014E+04  0.10970044063E+04  0.12000000000E+03 0.  0.
<mgrwt>
<rscale>  0 0.31602487E+03</rscale>
<asrwt>0</asrwt>
<pdfrwt beam="1">  1        1 0.29834681E+00 0.31602487E+03</pdfrwt>
<pdfrwt beam="2">  1       -1 0.19807717E-02 0.31602487E+03</pdfrwt>
<totfact> 0.25660571E+03</totfact>
</mgrwt>
</event>
<event>
 4    1  0.1710914E-004  0.2455434E+03  0.7818608E-02  0.1116154E+00
          2   -1    0    0  501    0  0.00000000000E+00  0.00000000000E+00  0.72430758251E+03  0.72430758251E+03  0.00000000000E+00 0. -1.
         -2   -1    0    0    0  501 -0.00000000000E+00 -0.00000000000E+00 -0.20810072533E+02  0.20810072533E+02  0.00000000000E+00 0. -1.
         25    1    1    2    0    0 -0.18954519016E+02  0.13435265441E+02  0.31673754873E+03  0.33950324729E+03  0.12000000000E+03 0.  0.
         25    1    1    2    0    0  0.18954519016E+02 -0.13435265441E+02  0.38675996125E+03  0.40561440775E+03  0.12000000000E+03 0.  0.
<mgrwt>
<rscale>  0 0.24554342E+03</rscale>
<asrwt>0</asrwt>
<pdfrwt beam="1">  1        2 0.11143192E+00 0.24554342E+03</pdfrwt>
<pdfrwt beam="2">  1       -2 0.32015502E-02 0.24554342E+03</pdfrwt>
<totfact> 0.15289758E+04</totfact>
</mgrwt>
</event>
<event>
 4    1  0.1710914E-004  0.2683392E+03  0.7818608E-02  0.1102234E+00
          1   -1    0    0  501    0  0.00000000000E+00  0.00000000000E+00  0.22368256727E+03  0.22368256727E+03  0.00000000000E+00 0.  1.
         -1   -1    0    0    0  501 -0.00000000000E+00 -0.00000000000E+00 -0.80477801048E+02  0.80477801048E+02  0.00000000000E+00 0.  1.
         25    1    1    2    0    0  0.54128014601E+02  0.20796085393E+02  0.54073081595E+02  0.14382703948E+03  0.12000000000E+03 0.  0.
         25    1    1    2    0    0 -0.54128014601E+02 -0.20796085393E+02  0.89131684631E+02  0.16033332884E+03  0.12000000000E+03 0.  0.
<mgrwt>
<rscale>  0 0.26833920E+03</rscale>
<asrwt>0</asrwt>
<pdfrwt beam="1">  1        1 0.34412702E-01 0.26833920E+03</pdfrwt>
<pdfrwt beam="2">  1       -1 0.12381200E-01 0.26833920E+03</pdfrwt>
<totfact> 0.54999132E+03</totfact>
</mgrwt>
</event>
<event>
 4    1  0.1710914E-004  0.3124900E+03  0.7818608E-02  0.1079158E+00
         -2   -1    0    0    0  501 -0.00000000000E+00  0.00000000000E+00  0.12741772043E+02  0.12741772043E+02  0.00000000000E+00 0. -1.
          2   -1    0    0  501    0  0.00000000000E+00 -0.00000000000E+00 -0.19159428892E+04  0.19159428892E+04  0.00000000000E+00 0. -1.
         25    1    1    2    0    0 -0.93135657018E+02  0.36563612790E+02 -0.95879602888E+03  0.97144272779E+03  0.12000000000E+03 0.  0.
         25    1    1    2    0    0  0.93135657018E+02 -0.36563612790E+02 -0.94440508830E+03  0.95724193347E+03  0.12000000000E+03 0.  0.
<mgrwt>
<rscale>  0 0.31249005E+03</rscale>
<asrwt>0</asrwt>
<pdfrwt beam="1">  1        2 0.29476050E+00 0.31249005E+03</pdfrwt>
<pdfrwt beam="2">  1       -2 0.19602723E-02 0.31249005E+03</pdfrwt>
<totfact> 0.65550201E+03</totfact>
</mgrwt>
</event>
<event>
 4    1  0.1710914E-004  0.2545075E+03  0.7818608E-02  0.1110489E+00
          1   -1    0    0  501    0  0.00000000000E+00  0.00000000000E+00  0.56625583717E+03  0.56625583717E+03  0.00000000000E+00 0.  1.
         -1   -1    0    0    0  501 -0.00000000000E+00 -0.00000000000E+00 -0.28597530669E+02  0.28597530669E+02  0.00000000000E+00 0.  1.
         25    1    1    2    0    0 -0.34466487448E+02  0.23974066958E+02  0.28180554656E+03  0.30915539897E+03  0.12000000000E+03 0.  0.
         25    1    1    2    0    0  0.34466487448E+02 -0.23974066958E+02  0.25585275994E+03  0.28569796886E+03  0.12000000000E+03 0.  0.
<mgrwt>
<rscale>  0 0.25450751E+03</rscale>
<asrwt>0</asrwt>
<pdfrwt beam="1">  1        1 0.87116275E-01 0.25450751E+03</pdfrwt>
<pdfrwt beam="2">  1       -1 0.43996205E-02 0.25450751E+03</pdfrwt>
<totfact> 0.80665845E+03</totfact>
</mgrwt>
</event>
<event>
 4    1  0.1710914E-004  0.4525429E+03  0.7818608E-02  0.1026966E+00
          2   -1    0    0  501    0  0.00000000000E+00  0.00000000000E+00  0.21152867106E+04  0.21152867106E+04  0.00000000000E+00 0. -1.
         -2   -1    0    0    0  501 -0.00000000000E+00 -0.00000000000E+00 -0.24204170945E+02  0.24204170945E+02  0.00000000000E+00 0. -1.
         25    1    1    2    0    0 -0.15809217618E+03  0.96795730849E+02  0.12788914867E+04  0.12978158516E+04  0.12000000000E+03 0.  0.
         25    1    1    2    0    0  0.15809217618E+03 -0.96795730849E+02  0.81219105291E+03  0.84167502999E+03  0.12000000000E+03 0.  0.
<mgrwt>
<rscale>  0 0.45254286E+03</rscale>
<asrwt>0</asrwt>
<pdfrwt beam="1">  1        2 0.32542858E+00 0.45254286E+03</pdfrwt>
<pdfrwt beam="2">  1       -2 0.37237203E-02 0.45254286E+03</pdfrwt>
<totfact> 0.19540073E+03</totfact>
</mgrwt>
</event>
<event>
 4    1  0.1710914E-004  0.2659920E+03  0.7818608E-02  0.1103596E+00
         -1   -1    0    0    0  501 -0.00000000000E+00  0.00000000000E+00  0.52918762650E+02  0.52918762650E+02  0.00000000000E+00 0. -1.
          1   -1    0    0  501    0  0.00000000000E+00 -0.00000000000E+00 -0.33424694134E+03  0.33424694134E+03  0.00000000000E+00 0. -1.
         25    1    1    2    0    0 -0.41619810929E+02 -0.16089496884E+01 -0.83300907907E+02  0.15190075259E+03  0.12000000000E+03 0.  0.
         25    1    1    2    0    0  0.41619810929E+02  0.16089496884E+01 -0.19802727079E+03  0.23526495140E+03  0.12000000000E+03 0.  0.
<mgrwt>
<rscale>  0 0.26599199E+03</rscale>
<asrwt>0</asrwt>
<pdfrwt beam="1">  1        1 0.51422606E-01 0.26599199E+03</pdfrwt>
<pdfrwt beam="2">  1       -1 0.81413481E-02 0.26599199E+03</pdfrwt>
<totfact> 0.63452798E+03</totfact>
</mgrwt>
</event>
<event>
 4    1  0.1710914E-004  0.3185097E+03  0.7818608E-02  0.1076337E+00
          1   -1    0    0  501    0  0.00000000000E+00  0.00000000000E+00  0.88149605642E+03  0.88149605642E+03  0.00000000000E+00 0. -1.
         -1   -1    0    0    0  501 -0.00000000000E+00 -0.00000000000E+00 -0.28771660555E+02  0.28771660555E+02  0.00000000000E+00 0. -1.
         25    1    1    2    0    0 -0.83208537229E+02  0.82900493198E+01  0.60642600040E+03  0.62381477984E+03  0.12000000000E+03 0.  0.
         25    1    1    2    0    0  0.83208537229E+02 -0.82900493198E+01  0.24629839547E+03  0.28645293714E+03  0.12000000000E+03 0.  0.
<mgrwt>
<rscale>  0 0.31850969E+03</rscale>
<asrwt>0</asrwt>
<pdfrwt beam="1">  1        1 0.13561476E+00 0.31850969E+03</pdfrwt>
<pdfrwt beam="2">  1       -1 0.44264100E-02 0.31850969E+03</pdfrwt>
<totfact> 0.41841563E+03</totfact>
</mgrwt>
</event>
<event>
 4    1  0.1710914E-004  0.3324136E+03  0.7818608E-02  0.1070074E+00
          2   -1    0    0  501    0  0.00000000000E+00  0.00000000000E+00  0.67055988772E+02  0.67055988772E+02  0.00000000000E+00 0. -1.
         -2   -1    0    0    0  501 -0.00000000000E+00 -0.00000000000E+00 -0.41196465174E+03  0.41196465174E+03  0.00000000000E+00 0. -1.
         25    1    1    2    0    0 -0.87324253011E+02  0.20116050310E+02 -0.68594400181E+02  0.16472817725E+03  0.12000000000E+03 0.  0.
         25    1    1    2    0    0  0.87324253011E+02 -0.20116050310E+02 -0.27631426279E+03  0.31429246326E+03  0.12000000000E+03 0.  0.
<mgrwt>
<rscale>  0 0.33241358E+03</rscale>
<asrwt>0</asrwt>
<pdfrwt beam="1">  1        2 0.10316306E-01 0.33241358E+03</pdfrwt>
<pdfrwt beam="2">  1       -2 0.63379179E-01 0.33241358E+03</pdfrwt>
<totfact> 0.14589834E+03</totfact>
</mgrwt>
</event>
<event>
 4    1  0.1710914E-004  0.3499349E+03  0.7818608E-02  0.1062642E+00
         -2   -1    0    0    0  501 -0.00000000000E+00  0.00000000000E+00  0.28978568030E+03  0.28978568030E+03  0.00000000000E+00 0.  1.
          2   -1    0    0  501    0  0.00000000000E+00 -0.00000000000E+00 -0.10564223195E+03  0.10564223195E+03  0.00000000000E+00 0.  1.
         25    1    1    2    0    0 -0.50623429378E+02 -0.10508438945E+03  0.14978104899E+03  0.22458811888E+03  0.12000000000E+03 0.  0.
         25    1    1    2    0    0  0.50623429378E+02  0.10508438945E+03  0.34362399362E+02  0.17083979337E+03  0.12000000000E+03 0.  0.
<mgrwt>
<rscale>  0 0.34993489E+03</rscale>
<asrwt>0</asrwt>
<pdfrwt beam="1">  1        2 0.16252651E-01 0.34993489E+03</pdfrwt>
<pdfrwt beam="2">  1       -2 0.44582412E-01 0.34993489E+03</pdfrwt>
<totfact> 0.17172931E+03</totfact>
</mgrwt>
</event>
<event>
 4    1  0.1710914E-004  0.3322268E+03  0.7818608E-02  0.1070156E+00
          2   -1    0    0  501    0  0.00000000000E+00  0.00000000000E+00  0.22033593987E+04  0.22033593987E+04  0.00000000000E+00 0. -1.
         -2   -1    0    0    0  501 -0.00000000000E+00 -0.00000000000E+00 -0.12523449304E+02  0.12523449304E+02  0.00000000000E+00 0. -1.
         25    1    1    2    0    0 -0.76307076372E+02  0.17822201509E+02  0.53526446364E+03  0.55411952393E+03  0.12000000000E+03 0.  0.
         25    1    1    2    0    0  0.76307076372E+02 -0.17822201509E+02  0.16555714857E+04  0.16617633240E+04  0.12000000000E+03 0.  0.
<mgrwt>
<rscale>  0 0.33222679E+03</rscale>
<asrwt>0</asrwt>
<pdfrwt beam="1">  1        2 0.33897806E+00 0.33222679E+03</pdfrwt>
<pdfrwt beam="2">  1       -2 0.19266863E-02 0.33222679E+03</pdfrwt>
<totfact> 0.47308624E+03</totfact>
</mgrwt>
</event>
<event>
 4    1  0.1710914E-004  0.2744460E+03  0.7818608E-02  0.1098762E+00
         -2   -1    0    0    0  501 -0.00000000000E+00  0.00000000000E+00  0.17982491623E+02  0.17982491623E+02  0.00000000000E+00 0. -1.
          2   -1    0    0  501    0  0.00000000000E+00 -0.00000000000E+00 -0.10471379125E+04  0.10471379125E+04  0.00000000000E+00 0. -1.
         25    1    1    2    0    0 -0.12714165412E+02  0.48841737239E+02 -0.34616879313E+03  0.36983780044E+03  0.12000000000E+03 0.  0.
         25    1    1    2    0    0  0.12714165412E+02 -0.48841737239E+02 -0.68298662771E+03  0.69528260364E+03  0.12000000000E+03 0.  0.
<mgrwt>
<rscale>  0 0.27444598E+03</rscale>
<asrwt>0</asrwt>
<pdfrwt beam="1">  1        2 0.16109821E+00 0.27444598E+03</pdfrwt>
<pdfrwt beam="2">  1       -2 0.27665360E-02 0.27444598E+03</pdfrwt>
<totfact> 0.11717958E+04</totfact>
</mgrwt>
</event>
<event>
 4    1  0.1710914E-004  0.2862280E+03  0.7818608E-02  0.1092335E+00
         -1   -1    0    0    0  501 -0.00000000000E+00  0.00000000000E+00  0.18310893794E+03  0.18310893794E+03  0.00000000000E+00 0. -1.
          1   -1    0    0  501    0  0.00000000000E+00 -0.00000000000E+00 -0.11185481871E+03  0.11185481871E+03  0.00000000000E+00 0. -1.
         25    1    1    2    0    0 -0.27037524306E+02 -0.45267515251E+02  0.94838869455E+02  0.16178561993E+03  0.12000000000E+03 0.  0.
         25    1    1    2    0    0  0.27037524306E+02  0.45267515251E+02 -0.23584750226E+02  0.13317813672E+03  0.12000000000E+03 0.  0.
<mgrwt>
<rscale>  0 0.28622800E+03</rscale>
<asrwt>0</asrwt>
<pdfrwt beam="1">  1        1 0.17208434E-01 0.28622800E+03</pdfrwt>
<pdfrwt beam="2">  1       -1 0.28170606E-01 0.28622800E+03</pdfrwt>
<totfact> 0.35245122E+03</totfact>
</mgrwt>
</event>
<event>
 4    1  0.1710914E-004  0.2907349E+03  0.7818608E-02  0.1089966E+00
         -2   -1    0    0    0  501 -0.00000000000E+00  0.00000000000E+00  0.15357379042E+02  0.15357379042E+02  0.00000000000E+00 0. -1.
          2   -1    0    0  501    0  0.00000000000E+00 -0.00000000000E+00 -0.13759957843E+04  0.13759957843E+04  0.00000000000E+00 0. -1.
         25    1    1    2    0    0 -0.14119987837E+01  0.64016352323E+02 -0.92581856079E+03  0.93575642911E+03  0.12000000000E+03 0.  0.
         25    1    1    2    0    0  0.14119987837E+01 -0.64016352323E+02 -0.43481984445E+03  0.45559673422E+03  0.12000000000E+03 0.  0.
<mgrwt>
<rscale>  0 0.29073485E+03</rscale>
<asrwt>0</asrwt>
<pdfrwt beam="1">  1        2 0.21169169E+00 0.29073485E+03</pdfrwt>
<pdfrwt beam="2">  1       -2 0.23626734E-02 0.29073485E+03</pdfrwt>
<totfact> 0.96359118E+03</totfact>
</mgrwt>
</event>
<event>
 4    1  0.1710914E-004  0.4044791E+03  0.7818608E-02  0.1042240E+00
         -2   -1    0    0    0  501 -0.00000000000E+00  0.00000000000E+00  0.40353482799E+02  0.40353482799E+02  0.00000000000E+00 0.  1.
          2   -1    0    0  501    0  0.00000000000E+00 -0.00000000000E+00 -0.10135639650E+04  0.10135639650E+04  0.00000000000E+00 0.  1.
         25    1    1    2    0    0  0.13334444627E+03 -0.49848541753E+02 -0.28085691437E+03  0.33696620723E+03  0.12000000000E+03 0.  0.
         25    1    1    2    0    0 -0.13334444627E+03  0.49848541753E+02 -0.69235356786E+03  0.71695124060E+03  0.12000000000E+03 0.  0.
<mgrwt>
<rscale>  0 0.40447910E+03</rscale>
<asrwt>0</asrwt>
<pdfrwt beam="1">  1        2 0.15593292E+00 0.40447910E+03</pdfrwt>
<pdfrwt beam="2">  1       -2 0.62082279E-02 0.40447910E+03</pdfrwt>
<totfact> 0.36309077E+03</totfact>
</mgrwt>
</event>
<event>
 4    1  0.1710914E-004  0.2881938E+03  0.7818608E-02  0.1091296E+00
         -2   -1    0    0    0  501 -0.00000000000E+00  0.00000000000E+00  0.38788262191E+02  0.38788262191E+02  0.00000000000E+00 0.  1.
          2   -1    0    0  501    0  0.00000000000E+00 -0.00000000000E+00 -0.53531459368E+03  0.53531459368E+03  0.00000000000E+00 0.  1.
         25    1    1    2    0    0 -0.61099027831E+02 -0.10458679728E+02 -0.34829310036E+03  0.37356466501E+03  0.12000000000E+03 0.  0.
         25    1    1    2    0    0  0.61099027831E+02  0.10458679728E+02 -0.14823323113E+03  0.20053819086E+03  0.12000000000E+03 0.  0.
<mgrwt>
<rscale>  0 0.28819384E+03</rscale>
<asrwt>0</asrwt>
<pdfrwt beam="1">  1        2 0.82356091E-01 0.28819384E+03</pdfrwt>
<pdfrwt beam="2">  1       -2 0.59674250E-02 0.28819384E+03</pdfrwt>
<totfact> 0.85701214E+03</totfact>
</mgrwt>
</event>
<event>
 4    1  0.1710914E-004  0.5185095E+03  0.7818608E-02  0.1009057E+00
          1   -1    0    0  501    0  0.00000000000E+00  0.00000000000E+00  0.91495982266E+03  0.91495982266E+03  0.00000000000E+00 0. -1.
         -1   -1    0    0    0  501 -0.00000000000E+00 -0.00000000000E+00 -0.73460084878E+02  0.73460084878E+02  0.00000000000E+00 0. -1.
         25    1    1    2    0    0  0.35105869922E+02  0.64515949664E+02  0.56450867020E+01  0.14080694893E+03  0.12000000000E+03 0.  0.
         25    1    1    2    0    0 -0.35105869922E+02 -0.64515949664E+02  0.83585465108E+03  0.84761295861E+03  0.12000000000E+03 0.  0.
<mgrwt>
<rscale>  0 0.51850950E+03</rscale>
<asrwt>0</asrwt>
<pdfrwt beam="1">  1        1 0.14076304E+00 0.51850950E+03</pdfrwt>
<pdfrwt beam="2">  1       -1 0.11301552E-01 0.51850950E+03</pdfrwt>
<totfact> 0.93022764E+02</totfact>
</mgrwt>
</event>
<event>
 4    1  0.1710914E-004  0.3364654E+03  0.7818608E-02  0.1068311E+00
         -2   -1    0    0    0  501 -0.00000000000E+00  0.00000000000E+00  0.31600889103E+02  0.31600889103E+02  0.00000000000E+00 0. -1.
          2   -1    0    0  501    0  0.00000000000E+00 -0.00000000000E+00 -0.89561557677E+03  0.89561557677E+03  0.00000000000E+00 0. -1.
         25    1    1    2    0    0 -0.11437088992E+03 -0.46279493948E+01 -0.50995821722E+03  0.53624574747E+03  0.12000000000E+03 0.  0.
         25    1    1    2    0    0  0.11437088992E+03  0.46279493948E+01 -0.35405647045E+03  0.39097071840E+03  0.12000000000E+03 0.  0.
<mgrwt>
<rscale>  0 0.33646544E+03</rscale>
<asrwt>0</asrwt>
<pdfrwt beam="1">  1        2 0.13778701E+00 0.33646544E+03</pdfrwt>
<pdfrwt beam="2">  1       -2 0.48616754E-02 0.33646544E+03</pdfrwt>
<totfact> 0.62724423E+03</totfact>
</mgrwt>
</event>
<event>
 4    1  0.1710914E-004  0.2601278E+03  0.7818608E-02  0.1107066E+00
         -2   -1    0    0    0  501 -0.00000000000E+00  0.00000000000E+00  0.13659374971E+03  0.13659374971E+03  0.00000000000E+00 0.  1.
          2   -1    0    0  501    0  0.00000000000E+00 -0.00000000000E+00 -0.12384622965E+03  0.12384622965E+03  0.00000000000E+00 0.  1.
         25    1    1    2    0    0 -0.21233947588E+02  0.24095847972E+01 -0.39067203253E+02  0.12799583196E+03  0.12000000000E+03 0.  0.
         25    1    1    2    0    0  0.21233947588E+02 -0.24095847972E+01  0.51814723311E+02  0.13244414740E+03  0.12000000000E+03 0.  0.
<mgrwt>
<rscale>  0 0.26012782E+03</rscale>
<asrwt>0</asrwt>
<pdfrwt beam="1">  1        2 0.19053266E-01 0.26012782E+03</pdfrwt>
<pdfrwt beam="2">  1       -2 0.21014423E-01 0.26012782E+03</pdfrwt>
<totfact> 0.56093345E+03</totfact>
</mgrwt>
</event>
<event>
 4    1  0.1710914E-004  0.2556813E+03  0.7818608E-02  0.1109766E+00
          3   -1    0    0  501    0  0.00000000000E+00  0.00000000000E+00  0.17982354644E+02  0.17982354644E+02  0.00000000000E+00 0. -1.
         -3   -1    0    0    0  501 -0.00000000000E+00 -0.00000000000E+00 -0.90884791954E+03  0.90884791954E+03  0.00000000000E+00 0. -1.
         25    1    1    2    0    0 -0.15117484189E+01 -0.56085382361E+01 -0.28703124269E+03  0.31116020852E+03  0.12000000000E+03 0.  0.
         25    1    1    2    0    0  0.15117484189E+01  0.56085382361E+01 -0.60383432220E+03  0.61567006566E+03  0.12000000000E+03 0.  0.
<mgrwt>
<rscale>  0 0.25568125E+03</rscale>
<asrwt>0</asrwt>
<pdfrwt beam="1">  1        3 0.27665172E-02 0.25568125E+03</pdfrwt>
<pdfrwt beam="2">  1       -3 0.13982270E+00 0.25568125E+03</pdfrwt>
<totfact> 0.59352482E+02</totfact>
</mgrwt>
</event>
<event>
 4    1  0.1710914E-004  0.5106629E+03  0.7818608E-02  0.1011033E+00
         -2   -1    0    0    0  501 -0.00000000000E+00  0.00000000000E+00  0.26828626479E+02  0.26828626479E+02  0.00000000000E+00 0. -1.
          2   -1    0    0  501    0  0.00000000000E+00 -0.00000000000E+00 -0.24300220935E+04  0.24300220935E+04  0.00000000000E+00 0. -1.
         25    1    1    2    0    0 -0.17712314271E+03  0.13182529953E+03 -0.14190902958E+04  0.14411688953E+04  0.12000000000E+03 0.  0.
         25    1    1    2    0    0  0.17712314271E+03 -0.13182529953E+03 -0.98410317126E+03  0.10156818247E+04  0.12000000000E+03 0.  0.
<mgrwt>
<rscale>  0 0.51066292E+03</rscale>
<asrwt>0</asrwt>
<pdfrwt beam="1">  1        2 0.37384951E+00 0.51066292E+03</pdfrwt>
<pdfrwt beam="2">  1       -2 0.41274814E-02 0.51066292E+03</pdfrwt>
<totfact> 0.11190266E+03</totfact>
</mgrwt>
</event>
<event>
 4    1  0.1710914E-004  0.2855256E+03  0.7818608E-02  0.1092709E+00
         -2   -1    0    0    0  501 -0.00000000000E+00  0.00000000000E+00  0.54483625234E+03  0.54483625234E+03  0.00000000000E+00 0.  1.
          2   -1    0    0  501    0  0.00000000000E+00 -0.00000000000E+00 -0.37407977554E+02  0.37407977554E+02  0.00000000000E+00 0.  1.
         25    1    1    2    0    0 -0.27121033288E+02 -0.26062264120E+02  0.39151390923E+03  0.41121519084E+03  0.12000000000E+03 0.  0.
         25    1    1    2    0    0  0.27121033288E+02  0.26062264120E+02  0.11591436556E+03  0.17102903906E+03  0.12000000000E+03 0.  0.
<mgrwt>
<rscale>  0 0.28552564E+03</rscale>
<asrwt>0</asrwt>
<pdfrwt beam="1">  1        2 0.57550739E-02 0.28552564E+03</pdfrwt>
<pdfrwt beam="2">  1       -2 0.83820956E-01 0.28552564E+03</pdfrwt>
<totfact> 0.16750642E+03</totfact>
</mgrwt>
</event>
<event>
 4    1  0.1710914E-004  0.2771245E+03  0.7818608E-02  0.1097270E+00
          2   -1    0    0  501    0  0.00000000000E+00  0.00000000000E+00  0.12357836795E+04  0.12357836795E+04  0.00000000000E+00 0.  1.
         -2   -1    0    0    0  501 -0.00000000000E+00 -0.00000000000E+00 -0.15536296769E+02  0.15536296769E+02  0.00000000000E+00 0.  1.
         25    1    1    2    0    0 -0.47077966803E+02 -0.49678252712E+02  0.65859577621E+03  0.67292842130E+03  0.12000000000E+03 0.  0.
         25    1    1    2    0    0  0.47077966803E+02  0.49678252712E+02  0.56165160648E+03  0.57839155493E+03  0.12000000000E+03 0.  0.
<mgrwt>
<rscale>  0 0.27712454E+03</rscale>
<asrwt>0</asrwt>
<pdfrwt beam="1">  1        2 0.19012049E+00 0.27712454E+03</pdfrwt>
<pdfrwt beam="2">  1       -2 0.23902005E-02 0.27712454E+03</pdfrwt>
<totfact> 0.11315657E+04</totfact>
</mgrwt>
</event>
<event>
 4    1  0.1710914E-004  0.3027242E+03  0.7818608E-02  0.1083887E+00
          2   -1    0    0  501    0  0.00000000000E+00  0.00000000000E+00  0.20858032221E+03  0.20858032221E+03  0.00000000000E+00 0. -1.
         -2   -1    0    0    0  501 -0.00000000000E+00 -0.00000000000E+00 -0.10984007970E+03  0.10984007970E+03  0.00000000000E+00 0. -1.
         25    1    1    2    0    0  0.61346253659E+02  0.97753097875E+01  0.12110875532E+03  0.18145591788E+03  0.12000000000E+03 0.  0.
         25    1    1    2    0    0 -0.61346253659E+02 -0.97753097875E+01 -0.22368512806E+02  0.13696448403E+03  0.12000000000E+03 0.  0.
<mgrwt>
<rscale>  0 0.30272416E+03</rscale>
<asrwt>0</asrwt>
<pdfrwt beam="1">  1        2 0.32089280E-01 0.30272416E+03</pdfrwt>
<pdfrwt beam="2">  1       -2 0.16898474E-01 0.30272416E+03</pdfrwt>
<totfact> 0.45524030E+03</totfact>
</mgrwt>
</event>
<event>
 4    1  0.1710914E-004  0.3044199E+03  0.7818608E-02  0.1083052E+00
          2   -1    0    0  501    0  0.00000000000E+00  0.00000000000E+00  0.86773700825E+02  0.86773700825E+02  0.00000000000E+00 0. -1.
         -2   -1    0    0    0  501 -0.00000000000E+00 -0.00000000000E+00 -0.26699187520E+03  0.26699187520E+03  0.00000000000E+00 0. -1.
         25    1    1    2    0    0  0.85600234923E+02 -0.16872417172E+02 -0.50601292423E+02  0.15675640170E+03  0.12000000000E+03 0.  0.
         25    1    1    2    0    0 -0.85600234923E+02  0.16872417172E+02 -0.12961688195E+03  0.19700917432E+03  0.12000000000E+03 0.  0.
<mgrwt>
<rscale>  0 0.30441993E+03</rscale>
<asrwt>0</asrwt>
<pdfrwt beam="1">  1        2 0.13349800E-01 0.30441993E+03</pdfrwt>
<pdfrwt beam="2">  1       -2 0.41075673E-01 0.30441993E+03</pdfrwt>
<totfact> 0.25399288E+03</totfact>
</mgrwt>
</event>
<event>
 4    1  0.1710914E-004  0.5347137E+03  0.7818608E-02  0.1005095E+00
         -2   -1    0    0    0  501 -0.00000000000E+00  0.00000000000E+00  0.58634744498E+02  0.58634744498E+02  0.00000000000E+00 0. -1.
          2   -1    0    0  501    0  0.00000000000E+00 -0.00000000000E+00 -0.12190671942E+04  0.12190671942E+04  0.00000000000E+00 0. -1.
         25    1    1    2    0    0  0.98260087740E+02  0.17404986861E+03 -0.89297051396E+03  0.92290017900E+03  0.12000000000E+03 0.  0.
         25    1    1    2    0    0 -0.98260087740E+02 -0.17404986861E+03 -0.26746193572E+03  0.35480175967E+03  0.12000000000E+03 0.  0.
<mgrwt>
<rscale>  0 0.53471373E+03</rscale>
<asrwt>0</asrwt>
<pdfrwt beam="1">  1        2 0.18754879E+00 0.53471373E+03</pdfrwt>
<pdfrwt beam="2">  1       -2 0.90207304E-02 0.53471373E+03</pdfrwt>
<totfact> 0.15150762E+03</totfact>
</mgrwt>
</event>
<event>
 4    1  0.1710914E-004  0.2769975E+03  0.7818608E-02  0.1097340E+00
          1   -1    0    0  501    0  0.00000000000E+00  0.00000000000E+00  0.36698908430E+03  0.36698908430E+03  0.00000000000E+00 0.  1.
         -1   -1    0    0    0  501 -0.00000000000E+00 -0.00000000000E+00 -0.52268309467E+02  0.52268309467E+02  0.00000000000E+00 0.  1.
         25    1    1    2    0    0  0.10640405092E+02  0.37986915543E+02  0.24332411561E+03  0.27415843815E+03  0.12000000000E+03 0.  0.
         25    1    1    2    0    0 -0.10640405092E+02 -0.37986915543E+02  0.71396659228E+02  0.14509895562E+03  0.12000000000E+03 0.  0.
<mgrwt>
<rscale>  0 0.27699747E+03</rscale>
<asrwt>0</asrwt>
<pdfrwt beam="1">  1        1 0.56459858E-01 0.27699747E+03</pdfrwt>
<pdfrwt beam="2">  1       -1 0.80412786E-02 0.27699747E+03</pdfrwt>
<totfact> 0.57515659E+03</totfact>
</mgrwt>
</event>
<event>
 4    1  0.1710914E-004  0.4407450E+03  0.7818608E-02  0.1030518E+00
         -2   -1    0    0    0  501 -0.00000000000E+00  0.00000000000E+00  0.58547125692E+03  0.58547125692E+03  0.00000000000E+00 0.  1.
          2   -1    0    0  501    0  0.00000000000E+00 -0.00000000000E+00 -0.82948612690E+02  0.82948612690E+02  0.00000000000E+00 0.  1.
         25    1    1    2    0    0  0.11445038297E+03  0.14085438642E+03  0.30434511999E+03  0.37411869827E+03  0.12000000000E+03 0.  0.
         25    1    1    2    0    0 -0.11445038297E+03 -0.14085438642E+03  0.19817752424E+03  0.29430117134E+03  0.12000000000E+03 0.  0.
<mgrwt>
<rscale>  0 0.44074495E+03</rscale>
<asrwt>0</asrwt>
<pdfrwt beam="1">  1        2 0.12761325E-01 0.44074495E+03</pdfrwt>
<pdfrwt beam="2">  1       -2 0.90072498E-01 0.44074495E+03</pdfrwt>
<totfact> 0.52001971E+02</totfact>
</mgrwt>
</event>
<event>
 4    1  0.1710914E-004  0.3475390E+03  0.7818608E-02  0.1063630E+00
          2   -1    0    0  501    0  0.00000000000E+00  0.00000000000E+00  0.63880299910E+03  0.63880299910E+03  0.00000000000E+00 0. -1.
         -2   -1    0    0    0  501 -0.00000000000E+00 -0.00000000000E+00 -0.47269408417E+02  0.47269408417E+02  0.00000000000E+00 0. -1.
         25    1    1    2    0    0  0.20894533134E+02 -0.10027144201E+03  0.15198468661E+03  0.21906685865E+03  0.12000000000E+03 0.  0.
         25    1    1    2    0    0 -0.20894533134E+02  0.10027144201E+03  0.43954890407E+03  0.46700554886E+03  0.12000000000E+03 0.  0.
<mgrwt>
<rscale>  0 0.34753900E+03</rscale>
<asrwt>0</asrwt>
<pdfrwt beam="1">  1        2 0.98277378E-01 0.34753900E+03</pdfrwt>
<pdfrwt beam="2">  1       -2 0.72722171E-02 0.34753900E+03</pdfrwt>
<totfact> 0.51642110E+03</totfact>
</mgrwt>
</event>
<event>
 4    1  0.1710914E-004  0.2967202E+03  0.7818608E-02  0.1086892E+00
          2   -1    0    0  501    0  0.00000000000E+00  0.00000000000E+00  0.90481548397E+03  0.90481548397E+03  0.00000000000E+00 0.  1.
         -2   -1    0    0    0  501 -0.00000000000E+00 -0.00000000000E+00 -0.24326195517E+02  0.24326195517E+02  0.00000000000E+00 0.  1.
         25    1    1    2    0    0  0.35266152824E+02  0.22814554870E+02  0.20081203689E+03  0.23767557638E+03  0.12000000000E+03 0.  0.
         25    1    1    2    0    0 -0.35266152824E+02 -0.22814554870E+02  0.67967725157E+03  0.69146610311E+03  0.12000000000E+03 0.  0.
<mgrwt>
<rscale>  0 0.29672019E+03</rscale>
<asrwt>0</asrwt>
<pdfrwt beam="1">  1        2 0.13920236E+00 0.29672019E+03</pdfrwt>
<pdfrwt beam="2">  1       -2 0.37424923E-02 0.29672019E+03</pdfrwt>
<totfact> 0.91680414E+03</totfact>
</mgrwt>
</event>
<event>
 4    1  0.1710914E-004  0.3219279E+03  0.7818608E-02  0.1074765E+00
         -1   -1    0    0    0  501 -0.00000000000E+00  0.00000000000E+00  0.45339183772E+02  0.45339183772E+02  0.00000000000E+00 0. -1.
          1   -1    0    0  501    0  0.00000000000E+00 -0.00000000000E+00 -0.57145685762E+03  0.57145685762E+03  0.00000000000E+00 0. -1.
         25    1    1    2    0    0  0.67207992876E+02  0.82958333957E+02 -0.24292882862E+03  0.29122742875E+03  0.12000000000E+03 0.  0.
         25    1    1    2    0    0 -0.67207992876E+02 -0.82958333957E+02 -0.28318884523E+03  0.32556861265E+03  0.12000000000E+03 0.  0.
<mgrwt>
<rscale>  0 0.32192786E+03</rscale>
<asrwt>0</asrwt>
<pdfrwt beam="1">  1        1 0.87916437E-01 0.32192786E+03</pdfrwt>
<pdfrwt beam="2">  1       -1 0.69752592E-02 0.32192786E+03</pdfrwt>
<totfact> 0.40042728E+03</totfact>
</mgrwt>
</event>
<event>
 4    1  0.1710914E-004  0.3800791E+03  0.7818608E-02  0.1050905E+00
         -2   -1    0    0    0  501 -0.00000000000E+00  0.00000000000E+00  0.84012888837E+02  0.84012888837E+02  0.00000000000E+00 0.  1.
          2   -1    0    0  501    0  0.00000000000E+00 -0.00000000000E+00 -0.42987487782E+03  0.42987487782E+03  0.00000000000E+00 0.  1.
         25    1    1    2    0    0 -0.69447244963E+02 -0.12059380077E+03 -0.23846376255E+03  0.30104941566E+03  0.12000000000E+03 0.  0.
         25    1    1    2    0    0  0.69447244963E+02  0.12059380077E+03 -0.10739822643E+03  0.21283835100E+03  0.12000000000E+03 0.  0.
<mgrwt>
<rscale>  0 0.38007910E+03</rscale>
<asrwt>0</asrwt>
<pdfrwt beam="1">  1        2 0.66134597E-01 0.38007910E+03</pdfrwt>
<pdfrwt beam="2">  1       -2 0.12925060E-01 0.38007910E+03</pdfrwt>
<totfact> 0.32456096E+03</totfact>
</mgrwt>
</event>
<event>
 4    1  0.1710914E-004  0.2728887E+03  0.7818608E-02  0.1099638E+00
         -1   -1    0    0    0  501 -0.00000000000E+00  0.00000000000E+00  0.53336446762E+03  0.53336446762E+03  0.00000000000E+00 0. -1.
          1   -1    0    0  501    0  0.00000000000E+00 -0.00000000000E+00 -0.34904945885E+02  0.34904945885E+02  0.00000000000E+00 0. -1.
         25    1    1    2    0    0  0.21274992239E+02  0.22038242129E+02  0.12998952911E+03  0.17954271662E+03  0.12000000000E+03 0.  0.
         25    1    1    2    0    0 -0.21274992239E+02 -0.22038242129E+02  0.36846999262E+03  0.38872669689E+03  0.12000000000E+03 0.  0.
<mgrwt>
<rscale>  0 0.27288868E+03</rscale>
<asrwt>0</asrwt>
<pdfrwt beam="1">  1        1 0.53699921E-02 0.27288868E+03</pdfrwt>
<pdfrwt beam="2">  1       -1 0.82056066E-01 0.27288868E+03</pdfrwt>
<totfact> 0.23266321E+03</totfact>
</mgrwt>
</event>
<event>
 4    1  0.1710914E-004  0.2402516E+03  0.7818608E-02  0.1119625E+00
          2   -1    0    0  501    0  0.00000000000E+00  0.00000000000E+00  0.40413389958E+03  0.40413389958E+03  0.00000000000E+00 0.  1.
         -2   -1    0    0    0  501 -0.00000000000E+00 -0.00000000000E+00 -0.35706496435E+02  0.35706496435E+02  0.00000000000E+00 0.  1.
         25    1    1    2    0    0  0.27486595544E+01  0.26554473448E+01  0.17698302672E+03  0.21386350385E+03  0.12000000000E+03 0.  0.
         25    1    1    2    0    0 -0.27486595544E+01 -0.26554473448E+01  0.19144437642E+03  0.22597689217E+03  0.12000000000E+03 0.  0.
<mgrwt>
<rscale>  0 0.24025158E+03</rscale>
<asrwt>0</asrwt>
<pdfrwt beam="1">  1        2 0.62174443E-01 0.24025158E+03</pdfrwt>
<pdfrwt beam="2">  1       -2 0.54933074E-02 0.24025158E+03</pdfrwt>
<totfact> 0.13173319E+04</totfact>
</mgrwt>
</event>
<event>
 4    1  0.1710914E-004  0.2602969E+03  0.7818608E-02  0.1106965E+00
          2   -1    0    0  501    0  0.00000000000E+00  0.00000000000E+00  0.19255834874E+04  0.19255834874E+04  0.00000000000E+00 0. -1.
         -2   -1    0    0    0  501 -0.00000000000E+00 -0.00000000000E+00 -0.87966135659E+01  0.87966135659E+01  0.00000000000E+00 0. -1.
         25    1    1    2    0    0  0.16145434033E+02 -0.30312666832E+02  0.12323587373E+04  0.12386636308E+04  0.12000000000E+03 0.  0.
         25    1    1    2    0    0 -0.16145434033E+02  0.30312666832E+02  0.68442813644E+03  0.69571647010E+03  0.12000000000E+03 0.  0.
<mgrwt>
<rscale>  0 0.26029686E+03</rscale>
<asrwt>0</asrwt>
<pdfrwt beam="1">  1        2 0.29624328E+00 0.26029686E+03</pdfrwt>
<pdfrwt beam="2">  1       -2 0.13533267E-02 0.26029686E+03</pdfrwt>
<totfact> 0.11138582E+04</totfact>
</mgrwt>
</event>
<event>
 4    1  0.1710914E-004  0.2760336E+03  0.7818608E-02  0.1097875E+00
         -2   -1    0    0    0  501 -0.00000000000E+00  0.00000000000E+00  0.10037162772E+02  0.10037162772E+02  0.00000000000E+00 0. -1.
          2   -1    0    0  501    0  0.00000000000E+00 -0.00000000000E+00 -0.18978110994E+04  0.18978110994E+04  0.00000000000E+00 0. -1.
         25    1    1    2    0    0 -0.41819222361E+02 -0.51586438220E+02 -0.83711795139E+03  0.84827853474E+03  0.12000000000E+03 0.  0.
         25    1    1    2    0    0  0.41819222361E+02  0.51586438220E+02 -0.10506559853E+04  0.10595697275E+04  0.12000000000E+03 0.  0.
<mgrwt>
<rscale>  0 0.27603361E+03</rscale>
<asrwt>0</asrwt>
<pdfrwt beam="1">  1        2 0.29197088E+00 0.27603361E+03</pdfrwt>
<pdfrwt beam="2">  1       -2 0.15441792E-02 0.27603361E+03</pdfrwt>
<totfact> 0.95071761E+03</totfact>
</mgrwt>
</event>
<event>
 4    1  0.1710914E-004  0.4248455E+03  0.7818608E-02  0.1035501E+00
         -1   -1    0    0    0  501 -0.00000000000E+00  0.00000000000E+00  0.24208111880E+03  0.24208111880E+03  0.00000000000E+00 0. -1.
          1   -1    0    0  501    0  0.00000000000E+00 -0.00000000000E+00 -0.18639795763E+03  0.18639795763E+03  0.00000000000E+00 0. -1.
         25    1    1    2    0    0 -0.16227864359E+03  0.53647352074E+02 -0.11362842965E+02  0.20914471246E+03  0.12000000000E+03 0.  0.
         25    1    1    2    0    0  0.16227864359E+03 -0.53647352074E+02  0.67046004134E+02  0.21933436397E+03  0.12000000000E+03 0.  0.
<mgrwt>
<rscale>  0 0.42484551E+03</rscale>
<asrwt>0</asrwt>
<pdfrwt beam="1">  1        1 0.28676609E-01 0.42484551E+03</pdfrwt>
<pdfrwt beam="2">  1       -1 0.37243249E-01 0.42484551E+03</pdfrwt>
<totfact> 0.11301731E+03</totfact>
</mgrwt>
</event>
<event>
 4    1  0.1710914E-004  0.2579161E+03  0.7818608E-02  0.1108402E+00
         -1   -1    0    0    0  501 -0.00000000000E+00  0.00000000000E+00  0.12055115500E+03  0.12055115500E+03  0.00000000000E+00 0. -1.
          1   -1    0    0  501    0  0.00000000000E+00 -0.00000000000E+00 -0.13795120259E+03  0.13795120259E+03  0.00000000000E+00 0. -1.
         25    1    1    2    0    0  0.48030280177E+01  0.11079170622E+02  0.37058543051E+02  0.12617112472E+03  0.12000000000E+03 0.  0.
         25    1    1    2    0    0 -0.48030280177E+01 -0.11079170622E+02 -0.54458590633E+02  0.13233123287E+03  0.12000000000E+03 0.  0.
<mgrwt>
<rscale>  0 0.25791609E+03</rscale>
<asrwt>0</asrwt>
<pdfrwt beam="1">  1        1 0.21223262E-01 0.25791609E+03</pdfrwt>
<pdfrwt beam="2">  1       -1 0.18546331E-01 0.25791609E+03</pdfrwt>
<totfact> 0.53362875E+03</totfact>
</mgrwt>
</event>
<event>
 4    1  0.1710914E-004  0.3264291E+03  0.7818608E-02  0.1072728E+00
          2   -1    0    0  501    0  0.00000000000E+00  0.00000000000E+00  0.12013866716E+03  0.12013866716E+03  0.00000000000E+00 0. -1.
         -2   -1    0    0    0  501 -0.00000000000E+00 -0.00000000000E+00 -0.22173538894E+03  0.22173538894E+03  0.00000000000E+00 0. -1.
         25    1    1    2    0    0  0.84836135731E+02  0.39421504073E+02  0.11053262959E+02  0.15255621761E+03  0.12000000000E+03 0.  0.
         25    1    1    2    0    0 -0.84836135731E+02 -0.39421504073E+02 -0.11264998474E+03  0.18931783849E+03  0.12000000000E+03 0.  0.
<mgrwt>
<rscale>  0 0.32642913E+03</rscale>
<asrwt>0</asrwt>
<pdfrwt beam="1">  1        2 0.18482872E-01 0.32642913E+03</pdfrwt>
<pdfrwt beam="2">  1       -2 0.34113136E-01 0.32642913E+03</pdfrwt>
<totfact> 0.24597302E+03</totfact>
</mgrwt>
</event>
<event>
 4    1  0.1710914E-004  0.2755368E+03  0.7818608E-02  0.1098152E+00
         -2   -1    0    0    0  501 -0.00000000000E+00  0.00000000000E+00  0.66012179206E+02  0.66012179206E+02  0.00000000000E+00 0. -1.
          2   -1    0    0  501    0  0.00000000000E+00 -0.00000000000E+00 -0.28752479785E+03  0.28752479785E+03  0.00000000000E+00 0. -1.
         25    1    1    2    0    0  0.31592523935E+01  0.23192306424E+02 -0.19223240440E+03  0.22781826366E+03  0.12000000000E+03 0.  0.
         25    1    1    2    0    0 -0.31592523935E+01 -0.23192306424E+02 -0.29280214242E+02  0.12571871340E+03  0.12000000000E+03 0.  0.
<mgrwt>
<rscale>  0 0.27553685E+03</rscale>
<asrwt>0</asrwt>
<pdfrwt beam="1">  1        2 0.44234584E-01 0.27553685E+03</pdfrwt>
<pdfrwt beam="2">  1       -2 0.10155720E-01 0.27553685E+03</pdfrwt>
<totfact> 0.73579173E+03</totfact>
</mgrwt>
</event>
<event>
 4    1  0.1710914E-004  0.2581647E+03  0.7818608E-02  0.1108251E+00
         -1   -1    0    0    0  501 -0.00000000000E+00  0.00000000000E+00  0.56272544869E+03  0.56272544869E+03  0.00000000000E+00 0.  1.
          1   -1    0    0  501    0  0.00000000000E+00 -0.00000000000E+00 -0.29609920256E+02  0.29609920256E+02  0.00000000000E+00 0.  1.
         25    1    1    2    0    0 -0.46650416255E+02  0.22275115593E+01  0.28721158665E+03  0.31475660224E+03  0.12000000000E+03 0.  0.
         25    1    1    2    0    0  0.46650416255E+02 -0.22275115593E+01  0.24590394179E+03  0.27757876671E+03  0.12000000000E+03 0.  0.
<mgrwt>
<rscale>  0 0.25816472E+03</rscale>
<asrwt>0</asrwt>
<pdfrwt beam="1">  1        1 0.45553727E-02 0.25816472E+03</pdfrwt>
<pdfrwt beam="2">  1       -1 0.86573138E-01 0.25816472E+03</pdfrwt>
<totfact> 0.26069167E+03</totfact>
</mgrwt>
</event>
<event>
 4    1  0.1710914E-004  0.3379430E+03  0.7818608E-02  0.1067675E+00
          2   -1    0    0  501    0  0.00000000000E+00  0.00000000000E+00  0.13090647572E+04  0.13090647572E+04  0.00000000000E+00 0.  1.
         -2   -1    0    0    0  501 -0.00000000000E+00 -0.00000000000E+00 -0.21810514403E+02  0.21810514403E+02  0.00000000000E+00 0.  1.
         25    1    1    2    0    0  0.31328742969E+02  0.29331549198E+02  0.10805601298E+04  0.10880496423E+04  0.12000000000E+03 0.  0.
         25    1    1    2    0    0 -0.31328742969E+02 -0.29331549198E+02  0.20669411296E+03  0.24282562931E+03  0.12000000000E+03 0.  0.
<mgrwt>
<rscale>  0 0.33794305E+03</rscale>
<asrwt>0</asrwt>
<pdfrwt beam="1">  1        2 0.20139452E+00 0.33794305E+03</pdfrwt>
<pdfrwt beam="2">  1       -2 0.33554648E-02 0.33794305E+03</pdfrwt>
<totfact> 0.62322872E+03</totfact>
</mgrwt>
</event>
<event>
 4    1  0.1710914E-004  0.2698530E+03  0.7818608E-02  0.1101364E+00
          2   -1    0    0  501    0  0.00000000000E+00  0.00000000000E+00  0.39176196926E+03  0.39176196926E+03  0.00000000000E+00 0. -1.
         -2   -1    0    0    0  501 -0.00000000000E+00 -0.00000000000E+00 -0.46469952088E+02  0.46469952088E+02  0.00000000000E+00 0. -1.
         25    1    1    2    0    0  0.38814943129E+02  0.46619864148E+02  0.15447874944E+03  0.20480160051E+03  0.12000000000E+03 0.  0.
         25    1    1    2    0    0 -0.38814943129E+02 -0.46619864148E+02  0.19081326774E+03  0.23343032084E+03  0.12000000000E+03 0.  0.
<mgrwt>
<rscale>  0 0.26985300E+03</rscale>
<asrwt>0</asrwt>
<pdfrwt beam="1">  1        2 0.60271070E-01 0.26985300E+03</pdfrwt>
<pdfrwt beam="2">  1       -2 0.71492236E-02 0.26985300E+03</pdfrwt>
<totfact> 0.91380160E+03</totfact>
</mgrwt>
</event>
<event>
 4    1  0.1710914E-004  0.3798568E+03  0.7818608E-02  0.1050987E+00
          2   -1    0    0  501    0  0.00000000000E+00  0.00000000000E+00  0.68800734037E+02  0.68800734037E+02  0.00000000000E+00 0.  1.
         -2   -1    0    0    0  501 -0.00000000000E+00 -0.00000000000E+00 -0.52430840192E+03  0.52430840192E+03  0.00000000000E+00 0.  1.
         25    1    1    2    0    0 -0.23826364699E+02 -0.14113293302E+03 -0.28153959258E+03  0.33786201715E+03  0.12000000000E+03 0.  0.
         25    1    1    2    0    0  0.23826364699E+02  0.14113293302E+03 -0.17396807530E+03  0.25524711881E+03  0.12000000000E+03 0.  0.
<mgrwt>
<rscale>  0 0.37985683E+03</rscale>
<asrwt>0</asrwt>
<pdfrwt beam="1">  1        2 0.10584728E-01 0.37985683E+03</pdfrwt>
<pdfrwt beam="2">  1       -2 0.80662834E-01 0.37985683E+03</pdfrwt>
<totfact> 0.83996917E+02</totfact>
</mgrwt>
</event>
<event>
 4    1  0.1710914E-004  0.2861636E+03  0.7818608E-02  0.1092369E+00
         -2   -1    0    0    0  501 -0.00000000000E+00  0.00000000000E+00  0.12369506872E+02  0.12369506872E+02  0.00000000000E+00 0.  1.
          2   -1    0    0  501    0  0.00000000000E+00 -0.00000000000E+00 -0.16550706028E+04  0.16550706028E+04  0.00000000000E+00 0.  1.
         25    1    1    2    0    0 -0.63286305052E+02 -0.10420709163E+02 -0.10792291318E+04  0.10877726171E+04  0.12000000000E+03 0.  0.
         25    1    1    2    0    0  0.63286305052E+02  0.10420709163E+02 -0.56347196413E+03  0.57966749257E+03  0.12000000000E+03 0.  0.
<mgrwt>
<rscale>  0 0.28616364E+03</rscale>
<asrwt>0</asrwt>
<pdfrwt beam="1">  1        2 0.25462628E+00 0.28616364E+03</pdfrwt>
<pdfrwt beam="2">  1       -2 0.19030008E-02 0.28616364E+03</pdfrwt>
<totfact> 0.93930728E+03</totfact>
</mgrwt>
</event>
<event>
 4    1  0.1710914E-004  0.2723367E+03  0.7818608E-02  0.1099950E+00
         -2   -1    0    0    0  501 -0.00000000000E+00  0.00000000000E+00  0.18508660353E+02  0.18508660353E+02  0.00000000000E+00 0.  1.
          2   -1    0    0  501    0  0.00000000000E+00 -0.00000000000E+00 -0.10017916286E+04  0.10017916286E+04  0.00000000000E+00 0.  1.
         25    1    1    2    0    0 -0.26007404898E+02  0.52157104391E+02 -0.59390507661E+03  0.60870353102E+03  0.12000000000E+03 0.  0.
         25    1    1    2    0    0  0.26007404898E+02 -0.52157104391E+02 -0.38937789162E+03  0.41159675792E+03  0.12000000000E+03 0.  0.
<mgrwt>
<rscale>  0 0.27233671E+03</rscale>
<asrwt>0</asrwt>
<pdfrwt beam="1">  1        2 0.15412182E+00 0.27233671E+03</pdfrwt>
<pdfrwt beam="2">  1       -2 0.28474857E-02 0.27233671E+03</pdfrwt>
<totfact> 0.11956779E+04</totfact>
</mgrwt>
</event>
<event>
 4    1  0.1710914E-004  0.2980574E+03  0.7818608E-02  0.1086216E+00
         -2   -1    0    0    0  501 -0.00000000000E+00  0.00000000000E+00  0.40918157993E+03  0.40918157993E+03  0.00000000000E+00 0.  1.
          2   -1    0    0  501    0  0.00000000000E+00 -0.00000000000E+00 -0.54277978251E+02  0.54277978251E+02  0.00000000000E+00 0.  1.
         25    1    1    2    0    0  0.15103674996E+01 -0.87650370865E+02  0.19481423764E+03  0.24502541891E+03  0.12000000000E+03 0.  0.
         25    1    1    2    0    0 -0.15103674996E+01  0.87650370865E+02  0.16008936404E+03  0.21843413927E+03  0.12000000000E+03 0.  0.
<mgrwt>
<rscale>  0 0.29805737E+03</rscale>
<asrwt>0</asrwt>
<pdfrwt beam="1">  1        2 0.83504585E-02 0.29805737E+03</pdfrwt>
<pdfrwt beam="2">  1       -2 0.62951010E-01 0.29805737E+03</pdfrwt>
<totfact> 0.19264236E+03</totfact>
</mgrwt>
</event>
<event>
 4    1  0.1710914E-004  0.3162206E+03  0.7818608E-02  0.1077402E+00
         -2   -1    0    0    0  501 -0.00000000000E+00  0.00000000000E+00  0.92590994027E+02  0.92590994027E+02  0.00000000000E+00 0. -1.
          2   -1    0    0  501    0  0.00000000000E+00 -0.00000000000E+00 -0.26999237169E+03  0.26999237169E+03  0.00000000000E+00 0. -1.
         25    1    1    2    0    0  0.91753415845E+02 -0.20328595171E+02 -0.40502987836E+02  0.15770996520E+03  0.12000000000E+03 0.  0.
         25    1    1    2    0    0 -0.91753415845E+02  0.20328595171E+02 -0.13689838983E+03  0.20487340051E+03  0.12000000000E+03 0.  0.
<mgrwt>
<rscale>  0 0.31622057E+03</rscale>
<asrwt>0</asrwt>
<pdfrwt beam="1">  1        2 0.41537288E-01 0.31622057E+03</pdfrwt>
<pdfrwt beam="2">  1       -2 0.14244768E-01 0.31622057E+03</pdfrwt>
<totfact> 0.45733083E+03</totfact>
</mgrwt>
</event>
<event>
 4    1  0.1710914E-004  0.4520973E+03  0.7818608E-02  0.1027098E+00
          2   -1    0    0  501    0  0.00000000000E+00  0.00000000000E+00  0.22314905288E+04  0.22314905288E+04  0.00000000000E+00 0.  1.
         -2   -1    0    0    0  501 -0.00000000000E+00 -0.00000000000E+00 -0.22898593102E+02  0.22898593102E+02  0.00000000000E+00 0.  1.
         25    1    1    2    0    0  0.15884578422E+03 -0.57536359662E+02  0.65397276178E+03  0.68601952523E+03  0.12000000000E+03 0.  0.
         25    1    1    2    0    0 -0.15884578422E+03  0.57536359662E+02  0.15546191739E+04  0.15683695967E+04  0.12000000000E+03 0.  0.
<mgrwt>
<rscale>  0 0.45209731E+03</rscale>
<asrwt>0</asrwt>
<pdfrwt beam="1">  1        2 0.34330606E+00 0.45209731E+03</pdfrwt>
<pdfrwt beam="2">  1       -2 0.35228622E-02 0.45209731E+03</pdfrwt>
<totfact> 0.18394174E+03</totfact>
</mgrwt>
</event>
<event>
 4    1  0.1710914E-004  0.2642717E+03  0.7818608E-02  0.1104604E+00
          2   -1    0    0  501    0  0.00000000000E+00  0.00000000000E+00  0.17922519848E+04  0.17922519848E+04  0.00000000000E+00 0.  1.
         -2   -1    0    0    0  501 -0.00000000000E+00 -0.00000000000E+00 -0.97418704032E+01  0.97418704032E+01  0.00000000000E+00 0.  1.
         25    1    1    2    0    0  0.32391468126E+02 -0.17478850107E+02  0.60968508663E+03  0.62247138269E+03  0.12000000000E+03 0.  0.
         25    1    1    2    0    0 -0.32391468126E+02  0.17478850107E+02  0.11728250278E+04  0.11795224725E+04  0.12000000000E+03 0.  0.
<mgrwt>
<rscale>  0 0.26427173E+03</rscale>
<asrwt>0</asrwt>
<pdfrwt beam="1">  1        2 0.27573081E+00 0.26427173E+03</pdfrwt>
<pdfrwt beam="2">  1       -2 0.14987507E-02 0.26427173E+03</pdfrwt>
<totfact> 0.11274776E+04</totfact>
</mgrwt>
</event>
<event>
 4    1  0.1710914E-004  0.3147175E+03  0.7818608E-02  0.1078106E+00
         -4   -1    0    0    0  501 -0.00000000000E+00  0.00000000000E+00  0.70226082525E+03  0.70226082525E+03  0.00000000000E+00 0. -1.
          4   -1    0    0  501    0  0.00000000000E+00 -0.00000000000E+00 -0.35260076358E+02  0.35260076358E+02  0.00000000000E+00 0. -1.
         25    1    1    2    0    0  0.88740272281E+02 -0.41976104017E+02  0.39659681345E+03  0.42582374484E+03  0.12000000000E+03 0.  0.
         25    1    1    2    0    0 -0.88740272281E+02  0.41976104017E+02  0.27040393545E+03  0.31169715677E+03  0.12000000000E+03 0.  0.
<mgrwt>
<rscale>  0 0.31471746E+03</rscale>
<asrwt>0</asrwt>
<pdfrwt beam="1">  1        4 0.54246277E-02 0.31471746E+03</pdfrwt>
<pdfrwt beam="2">  1       -4 0.10804012E+00 0.31471746E+03</pdfrwt>
<totfact> 0.28273244E+02</totfact>
</mgrwt>
</event>
<event>
 4    1  0.1710914E-004  0.2653770E+03  0.7818608E-02  0.1103955E+00
         -2   -1    0    0    0  501 -0.00000000000E+00  0.00000000000E+00  0.22628886862E+02  0.22628886862E+02  0.00000000000E+00 0.  1.
          2   -1    0    0  501    0  0.00000000000E+00 -0.00000000000E+00 -0.77804283452E+03  0.77804283452E+03  0.00000000000E+00 0.  1.
         25    1    1    2    0    0  0.39494284270E+02  0.21401106930E+02 -0.27369596662E+03  0.30220405029E+03  0.12000000000E+03 0.  0.
         25    1    1    2    0    0 -0.39494284270E+02 -0.21401106930E+02 -0.48171798104E+03  0.49846767109E+03  0.12000000000E+03 0.  0.
<mgrwt>
<rscale>  0 0.26537704E+03</rscale>
<asrwt>0</asrwt>
<pdfrwt beam="1">  1        2 0.11969890E+00 0.26537704E+03</pdfrwt>
<pdfrwt beam="2">  1       -2 0.34813672E-02 0.26537704E+03</pdfrwt>
<totfact> 0.12388496E+04</totfact>
</mgrwt>
</event>
<event>
 4    1  0.1710914E-004  0.2970138E+03  0.7818608E-02  0.1086743E+00
         -2   -1    0    0    0  501 -0.00000000000E+00  0.00000000000E+00  0.20588545353E+02  0.20588545353E+02  0.00000000000E+00 0.  1.
          2   -1    0    0  501    0  0.00000000000E+00 -0.00000000000E+00 -0.10711928692E+04  0.10711928692E+04  0.00000000000E+00 0.  1.
         25    1    1    2    0    0  0.82008366723E+02 -0.31010163768E+01 -0.41384933784E+03  0.43864138307E+03  0.12000000000E+03 0.  0.
         25    1    1    2    0    0 -0.82008366723E+02  0.31010163768E+01 -0.63675498605E+03  0.65314003152E+03  0.12000000000E+03 0.  0.
<mgrwt>
<rscale>  0 0.29701382E+03</rscale>
<asrwt>0</asrwt>
<pdfrwt beam="1">  1        2 0.16479897E+00 0.29701382E+03</pdfrwt>
<pdfrwt beam="2">  1       -2 0.31674672E-02 0.29701382E+03</pdfrwt>
<totfact> 0.92868245E+03</totfact>
</mgrwt>
</event>
<event>
 4    1  0.1710914E-004  0.2565832E+03  0.7818608E-02  0.1109214E+00
         -1   -1    0    0    0  501 -0.00000000000E+00  0.00000000000E+00  0.12450763439E+03  0.12450763439E+03  0.00000000000E+00 0. -1.
          1   -1    0    0  501    0  0.00000000000E+00 -0.00000000000E+00 -0.13219052630E+03  0.13219052630E+03  0.00000000000E+00 0. -1.
         25    1    1    2    0    0 -0.15392197117E+02  0.37327007403E+02 -0.24551074097E+02  0.12896891274E+03  0.12000000000E+03 0.  0.
         25    1    1    2    0    0  0.15392197117E+02 -0.37327007403E+02  0.16868182187E+02  0.12772924796E+03  0.12000000000E+03 0.  0.
<mgrwt>
<rscale>  0 0.25658316E+03</rscale>
<asrwt>0</asrwt>
<pdfrwt beam="1">  1        1 0.20337004E-01 0.25658316E+03</pdfrwt>
<pdfrwt beam="2">  1       -1 0.19155021E-01 0.25658316E+03</pdfrwt>
<totfact> 0.53492731E+03</totfact>
</mgrwt>
</event>
<event>
 4    1  0.1710914E-004  0.2650281E+03  0.7818608E-02  0.1104159E+00
          2   -1    0    0  501    0  0.00000000000E+00  0.00000000000E+00  0.37499537573E+03  0.37499537573E+03  0.00000000000E+00 0. -1.
         -2   -1    0    0    0  501 -0.00000000000E+00 -0.00000000000E+00 -0.46827160140E+02  0.46827160140E+02  0.00000000000E+00 0. -1.
         25    1    1    2    0    0  0.44915880956E+02 -0.33479083784E+02  0.17149547928E+03  0.21667714422E+03  0.12000000000E+03 0.  0.
         25    1    1    2    0    0 -0.44915880956E+02  0.33479083784E+02  0.15667273631E+03  0.20514539165E+03  0.12000000000E+03 0.  0.
<mgrwt>
<rscale>  0 0.26502806E+03</rscale>
<asrwt>0</asrwt>
<pdfrwt beam="1">  1        2 0.57691594E-01 0.26502806E+03</pdfrwt>
<pdfrwt beam="2">  1       -2 0.72041787E-02 0.26502806E+03</pdfrwt>
<totfact> 0.94610312E+03</totfact>
</mgrwt>
</event>
<event>
 4    1  0.1710914E-004  0.2978009E+03  0.7818608E-02  0.1086345E+00
         -2   -1    0    0    0  501 -0.00000000000E+00  0.00000000000E+00  0.71795741413E+01  0.71795741413E+01  0.00000000000E+00 0.  1.
          2   -1    0    0  501    0  0.00000000000E+00 -0.00000000000E+00 -0.30881142594E+04  0.30881142594E+04  0.00000000000E+00 0.  1.
         25    1    1    2    0    0 -0.58258036179E+02  0.51173908554E+02 -0.19763369938E+04  0.19814945573E+04  0.12000000000E+03 0.  0.
         25    1    1    2    0    0  0.58258036179E+02 -0.51173908554E+02 -0.11045976915E+04  0.11137992762E+04  0.12000000000E+03 0.  0.
<mgrwt>
<rscale>  0 0.29780091E+03</rscale>
<asrwt>0</asrwt>
<pdfrwt beam="1">  1        2 0.47509367E+00 0.29780091E+03</pdfrwt>
<pdfrwt beam="2">  1       -2 0.11045518E-02 0.29780091E+03</pdfrwt>
<totfact> 0.33977321E+03</totfact>
</mgrwt>
</event>
<event>
 4    1  0.1710914E-004  0.3126443E+03  0.7818608E-02  0.1079085E+00
         -4   -1    0    0    0  501 -0.00000000000E+00  0.00000000000E+00  0.71309454622E+03  0.71309454622E+03  0.00000000000E+00 0.  1.
          4   -1    0    0  501    0  0.00000000000E+00 -0.00000000000E+00 -0.34268412321E+02  0.34268412321E+02  0.00000000000E+00 0.  1.
         25    1    1    2    0    0 -0.34858796158E+01 -0.60222851541E+02  0.14821121164E+03  0.20001376567E+03  0.12000000000E+03 0.  0.
         25    1    1    2    0    0  0.34858796158E+01  0.60222851541E+02  0.53061492226E+03  0.54734919286E+03  0.12000000000E+03 0.  0.
<mgrwt>
<rscale>  0 0.31264432E+03</rscale>
<asrwt>0</asrwt>
<pdfrwt beam="1">  1        4 0.52720640E-02 0.31264432E+03</pdfrwt>
<pdfrwt beam="2">  1       -4 0.10970684E+00 0.31264432E+03</pdfrwt>
<totfact> 0.28534957E+02</totfact>
</mgrwt>
</event>
<event>
 4    1  0.1710914E-004  0.3371106E+03  0.7818608E-02  0.1068033E+00
          2   -1    0    0  501    0  0.00000000000E+00  0.00000000000E+00  0.11432217382E+04  0.11432217382E+04  0.00000000000E+00 0. -1.
         -2   -1    0    0    0  501 -0.00000000000E+00 -0.00000000000E+00 -0.24851592727E+02  0.24851592727E+02  0.00000000000E+00 0. -1.
         25    1    1    2    0    0 -0.90353267131E+02 -0.73677924751E+02  0.48828190995E+03  0.51615053334E+03  0.12000000000E+03 0.  0.
         25    1    1    2    0    0  0.90353267131E+02  0.73677924751E+02  0.63008823552E+03  0.65192279759E+03  0.12000000000E+03 0.  0.
<mgrwt>
<rscale>  0 0.33711055E+03</rscale>
<asrwt>0</asrwt>
<pdfrwt beam="1">  1        2 0.17588023E+00 0.33711055E+03</pdfrwt>
<pdfrwt beam="2">  1       -2 0.38233228E-02 0.33711055E+03</pdfrwt>
<totfact> 0.63634528E+03</totfact>
</mgrwt>
</event>
<event>
 4    1  0.1710914E-004  0.2636647E+03  0.7818608E-02  0.1104961E+00
          2   -1    0    0  501    0  0.00000000000E+00  0.00000000000E+00  0.71530308363E+03  0.71530308363E+03  0.00000000000E+00 0. -1.
         -2   -1    0    0    0  501 -0.00000000000E+00 -0.00000000000E+00 -0.24297070571E+02  0.24297070571E+02  0.00000000000E+00 0. -1.
         25    1    1    2    0    0  0.13597545051E+02 -0.46778167259E+02  0.41459450211E+03  0.43435203619E+03  0.12000000000E+03 0.  0.
         25    1    1    2    0    0 -0.13597545051E+02  0.46778167259E+02  0.27641151096E+03  0.30524811802E+03  0.12000000000E+03 0.  0.
<mgrwt>
<rscale>  0 0.26366471E+03</rscale>
<asrwt>0</asrwt>
<pdfrwt beam="1">  1        2 0.11004661E+00 0.26366471E+03</pdfrwt>
<pdfrwt beam="2">  1       -2 0.37380114E-02 0.26366471E+03</pdfrwt>
<totfact> 0.12356368E+04</totfact>
</mgrwt>
</event>
<event>
 4    1  0.1710914E-004  0.2895047E+03  0.7818608E-02  0.1090608E+00
          1   -1    0    0  501    0  0.00000000000E+00  0.00000000000E+00  0.13622584593E+04  0.13622584593E+04  0.00000000000E+00 0.  1.
         -1   -1    0    0    0  501 -0.00000000000E+00 -0.00000000000E+00 -0.15381249936E+02  0.15381249936E+02  0.00000000000E+00 0.  1.
         25    1    1    2    0    0 -0.14166349480E+02 -0.73716625906E+02  0.81764971801E+03  0.82981075418E+03  0.12000000000E+03 0.  0.
         25    1    1    2    0    0  0.14166349480E+02  0.73716625906E+02  0.52922749140E+03  0.54782895510E+03  0.12000000000E+03 0.  0.
<mgrwt>
<rscale>  0 0.28950467E+03</rscale>
<asrwt>0</asrwt>
<pdfrwt beam="1">  1        1 0.20957813E+00 0.28950467E+03</pdfrwt>
<pdfrwt beam="2">  1       -1 0.23663472E-02 0.28950467E+03</pdfrwt>
<totfact> 0.47442285E+03</totfact>
</mgrwt>
</event>
<event>
 4    1  0.1710914E-004  0.3190055E+03  0.7818608E-02  0.1076108E+00
          2   -1    0    0  501    0  0.00000000000E+00  0.00000000000E+00  0.13987567576E+04  0.13987567576E+04  0.00000000000E+00 0.  1.
         -2   -1    0    0    0  501 -0.00000000000E+00 -0.00000000000E+00 -0.18188381778E+02  0.18188381778E+02  0.00000000000E+00 0.  1.
         25    1    1    2    0    0  0.78143902526E+02  0.69548311785E+02  0.73418456904E+03  0.75124591087E+03  0.12000000000E+03 0.  0.
         25    1    1    2    0    0 -0.78143902526E+02 -0.69548311785E+02  0.64638380677E+03  0.66569922850E+03  0.12000000000E+03 0.  0.
<mgrwt>
<rscale>  0 0.31900547E+03</rscale>
<asrwt>0</asrwt>
<pdfrwt beam="1">  1        2 0.21519326E+00 0.31900547E+03</pdfrwt>
<pdfrwt beam="2">  1       -2 0.27982137E-02 0.31900547E+03</pdfrwt>
<totfact> 0.72935072E+03</totfact>
</mgrwt>
</event>
<event>
 4    1  0.1710914E-004  0.2949175E+03  0.7818608E-02  0.1087809E+00
          2   -1    0    0  501    0  0.00000000000E+00  0.00000000000E+00  0.20060752739E+04  0.20060752739E+04  0.00000000000E+00 0. -1.
         -2   -1    0    0    0  501 -0.00000000000E+00 -0.00000000000E+00 -0.10839115629E+02  0.10839115629E+02  0.00000000000E+00 0. -1.
         25    1    1    2    0    0 -0.30314440070E+02  0.59393058194E+02  0.62948508722E+03  0.64428097571E+03  0.12000000000E+03 0.  0.
         25    1    1    2    0    0  0.30314440070E+02 -0.59393058194E+02  0.13657510711E+04  0.13726334138E+04  0.12000000000E+03 0.  0.
<mgrwt>
<rscale>  0 0.29491749E+03</rscale>
<asrwt>0</asrwt>
<pdfrwt beam="1">  1        2 0.30862667E+00 0.29491749E+03</pdfrwt>
<pdfrwt beam="2">  1       -2 0.16675578E-02 0.29491749E+03</pdfrwt>
<totfact> 0.74536130E+03</totfact>
</mgrwt>
</event>
<event>
 4    1  0.1710914E-004  0.2495291E+03  0.7818608E-02  0.1113603E+00
         -1   -1    0    0    0  501 -0.00000000000E+00  0.00000000000E+00  0.14170505994E+02  0.14170505994E+02  0.00000000000E+00 0.  1.
          1   -1    0    0  501    0  0.00000000000E+00 -0.00000000000E+00 -0.10984927542E+04  0.10984927542E+04  0.00000000000E+00 0.  1.
         25    1    1    2    0    0 -0.24866154813E+02  0.15169143517E+02 -0.62164858805E+03  0.63379444270E+03  0.12000000000E+03 0.  0.
         25    1    1    2    0    0  0.24866154813E+02 -0.15169143517E+02 -0.46267366020E+03  0.47886881754E+03  0.12000000000E+03 0.  0.
<mgrwt>
<rscale>  0 0.24952914E+03</rscale>
<asrwt>0</asrwt>
<pdfrwt beam="1">  1        1 0.16899887E+00 0.24952914E+03</pdfrwt>
<pdfrwt beam="2">  1       -1 0.21800780E-02 0.24952914E+03</pdfrwt>
<totfact> 0.81397630E+03</totfact>
</mgrwt>
</event>
<event>
 4    1  0.1710914E-004  0.3367070E+03  0.7818608E-02  0.1068207E+00
          2   -1    0    0  501    0  0.00000000000E+00  0.00000000000E+00  0.82961099237E+03  0.82961099237E+03  0.00000000000E+00 0. -1.
         -2   -1    0    0    0  501 -0.00000000000E+00 -0.00000000000E+00 -0.34164083130E+02  0.34164083130E+02  0.00000000000E+00 0. -1.
         25    1    1    2    0    0 -0.13881366780E+02  0.11315125435E+03  0.31877864622E+03  0.35918758886E+03  0.12000000000E+03 0.  0.
         25    1    1    2    0    0  0.13881366780E+02 -0.11315125435E+03  0.47666826302E+03  0.50458748664E+03  0.12000000000E+03 0.  0.
<mgrwt>
<rscale>  0 0.33670699E+03</rscale>
<asrwt>0</asrwt>
<pdfrwt beam="1">  1        2 0.12763245E+00 0.33670699E+03</pdfrwt>
<pdfrwt beam="2">  1       -2 0.52560134E-02 0.33670699E+03</pdfrwt>
<totfact> 0.61616634E+03</totfact>
</mgrwt>
</event>
<event>
 4    1  0.1710914E-004  0.4628555E+03  0.7818608E-02  0.1023956E+00
         -2   -1    0    0    0  501 -0.00000000000E+00  0.00000000000E+00  0.20674078137E+02  0.20674078137E+02  0.00000000000E+00 0. -1.
          2   -1    0    0  501    0  0.00000000000E+00 -0.00000000000E+00 -0.25906263114E+04  0.25906263114E+04  0.00000000000E+00 0. -1.
         25    1    1    2    0    0  0.70076531793E+02 -0.11701608153E+03 -0.47611572070E+03  0.50959755017E+03  0.12000000000E+03 0.  0.
         25    1    1    2    0    0 -0.70076531793E+02  0.11701608153E+03 -0.20938365126E+04  0.21017028394E+04  0.12000000000E+03 0.  0.
<mgrwt>
<rscale>  0 0.46285553E+03</rscale>
<asrwt>0</asrwt>
<pdfrwt beam="1">  1        2 0.39855776E+00 0.46285553E+03</pdfrwt>
<pdfrwt beam="2">  1       -2 0.31806284E-02 0.46285553E+03</pdfrwt>
<totfact> 0.13584175E+03</totfact>
</mgrwt>
</event>
<event>
 4    1  0.1710914E-004  0.3125154E+03  0.7818608E-02  0.1079146E+00
          1   -1    0    0  501    0  0.00000000000E+00  0.00000000000E+00  0.23586025382E+03  0.23586025382E+03  0.00000000000E+00 0. -1.
         -1   -1    0    0    0  501 -0.00000000000E+00 -0.00000000000E+00 -0.10352091490E+03  0.10352091490E+03  0.00000000000E+00 0. -1.
         25    1    1    2    0    0  0.92140578774E+02 -0.24820807086E+02  0.98938338569E+02  0.18246850019E+03  0.12000000000E+03 0.  0.
         25    1    1    2    0    0 -0.92140578774E+02  0.24820807086E+02  0.33401000347E+02  0.15691266853E+03  0.12000000000E+03 0.  0.
<mgrwt>
<rscale>  0 0.31251540E+03</rscale>
<asrwt>0</asrwt>
<pdfrwt beam="1">  1        1 0.36286193E-01 0.31251540E+03</pdfrwt>
<pdfrwt beam="2">  1       -1 0.15926295E-01 0.31251540E+03</pdfrwt>
<totfact> 0.34694005E+03</totfact>
</mgrwt>
</event>
<event>
 4    1  0.1710914E-004  0.3959076E+03  0.7818608E-02  0.1045206E+00
          1   -1    0    0  501    0  0.00000000000E+00  0.00000000000E+00  0.13107217333E+04  0.13107217333E+04  0.00000000000E+00 0.  1.
         -1   -1    0    0    0  501 -0.00000000000E+00 -0.00000000000E+00 -0.29896276084E+02  0.29896276084E+02  0.00000000000E+00 0.  1.
         25    1    1    2    0    0 -0.13575928319E+03 -0.91250990538E+01  0.90858201214E+03  0.92651774035E+03  0.12000000000E+03 0.  0.
         25    1    1    2    0    0  0.13575928319E+03  0.91250990538E+01  0.37224344503E+03  0.41410026898E+03  0.12000000000E+03 0.  0.
<mgrwt>
<rscale>  0 0.39590756E+03</rscale>
<asrwt>0</asrwt>
<pdfrwt beam="1">  1        1 0.20164945E+00 0.39590756E+03</pdfrwt>
<pdfrwt beam="2">  1       -1 0.45994281E-02 0.39590756E+03</pdfrwt>
<totfact> 0.19125890E+03</totfact>
</mgrwt>
</event>
<event>
 4    1  0.1710914E-004  0.2812456E+03  0.7818608E-02  0.1095011E+00
          2   -1    0    0  501    0  0.00000000000E+00  0.00000000000E+00  0.67510190261E+03  0.67510190261E+03  0.00000000000E+00 0. -1.
         -2   -1    0    0    0  501 -0.00000000000E+00 -0.00000000000E+00 -0.29291536854E+02  0.29291536854E+02  0.00000000000E+00 0. -1.
         25    1    1    2    0    0 -0.42739805306E+02  0.15362003755E+02  0.17876647133E+03  0.22004575294E+03  0.12000000000E+03 0.  0.
         25    1    1    2    0    0  0.42739805306E+02 -0.15362003755E+02  0.46704389443E+03  0.48434768653E+03  0.12000000000E+03 0.  0.
<mgrwt>
<rscale>  0 0.28124560E+03</rscale>
<asrwt>0</asrwt>
<pdfrwt beam="1">  1        2 0.10386182E+00 0.28124560E+03</pdfrwt>
<pdfrwt beam="2">  1       -2 0.45063908E-02 0.28124560E+03</pdfrwt>
<totfact> 0.10025466E+04</totfact>
</mgrwt>
</event>
<event>
 4    1  0.1710914E-004  0.2581818E+03  0.7818608E-02  0.1108241E+00
          1   -1    0    0  501    0  0.00000000000E+00  0.00000000000E+00  0.99482166298E+03  0.99482166298E+03  0.00000000000E+00 0.  1.
         -1   -1    0    0    0  501 -0.00000000000E+00 -0.00000000000E+00 -0.16751203941E+02  0.16751203941E+02  0.00000000000E+00 0.  1.
         25    1    1    2    0    0 -0.96463193347E+01 -0.31790386005E+02  0.35554588901E+03  0.37671814306E+03  0.12000000000E+03 0.  0.
         25    1    1    2    0    0  0.96463193347E+01  0.31790386005E+02  0.62252457003E+03  0.63485472386E+03  0.12000000000E+03 0.  0.
<mgrwt>
<rscale>  0 0.25818180E+03</rscale>
<asrwt>0</asrwt>
<pdfrwt beam="1">  1        1 0.15304944E+00 0.25818180E+03</pdfrwt>
<pdfrwt beam="2">  1       -1 0.25771091E-02 0.25818180E+03</pdfrwt>
<totfact> 0.75958760E+03</totfact>
</mgrwt>
</event>
<event>
 4    1  0.1710914E-004  0.2451988E+03  0.7818608E-02  0.1116377E+00
          1   -1    0    0  501    0  0.00000000000E+00  0.00000000000E+00  0.69241947976E+03  0.69241947976E+03  0.00000000000E+00 0. -1.
         -1   -1    0    0    0  501 -0.00000000000E+00 -0.00000000000E+00 -0.21707374956E+02  0.21707374956E+02  0.00000000000E+00 0. -1.
         25    1    1    2    0    0 -0.19974527531E+02 -0.10296724358E+02  0.30271527259E+03  0.32640701669E+03  0.12000000000E+03 0.  0.
         25    1    1    2    0    0  0.19974527531E+02  0.10296724358E+02  0.36799683222E+03  0.38771983803E+03  0.12000000000E+03 0.  0.
<mgrwt>
<rscale>  0 0.24519877E+03</rscale>
<asrwt>0</asrwt>
<pdfrwt beam="1">  1        1 0.10652606E+00 0.24519877E+03</pdfrwt>
<pdfrwt beam="2">  1       -1 0.33395967E-02 0.24519877E+03</pdfrwt>
<totfact> 0.91397360E+03</totfact>
</mgrwt>
</event>
<event>
 4    1  0.1710914E-004  0.2786215E+03  0.7818608E-02  0.1096444E+00
         -2   -1    0    0    0  501 -0.00000000000E+00  0.00000000000E+00  0.11027017019E+02  0.11027017019E+02  0.00000000000E+00 0.  1.
          2   -1    0    0  501    0  0.00000000000E+00 -0.00000000000E+00 -0.17599940229E+04  0.17599940229E+04  0.00000000000E+00 0.  1.
         25    1    1    2    0    0  0.36354918266E+02 -0.37246756879E+02 -0.11792237114E+04  0.11864558830E+04  0.12000000000E+03 0.  0.
         25    1    1    2    0    0 -0.36354918266E+02  0.37246756879E+02 -0.56974329455E+03  0.58456515690E+03  0.12000000000E+03 0.  0.
<mgrwt>
<rscale>  0 0.27862149E+03</rscale>
<asrwt>0</asrwt>
<pdfrwt beam="1">  1        2 0.27076830E+00 0.27862149E+03</pdfrwt>
<pdfrwt beam="2">  1       -2 0.16964642E-02 0.27862149E+03</pdfrwt>
<totfact> 0.97865447E+03</totfact>
</mgrwt>
</event>
<event>
 4    1  0.1710914E-004  0.2550336E+03  0.7818608E-02  0.1110164E+00
          4   -1    0    0  501    0  0.00000000000E+00  0.00000000000E+00  0.51793358395E+02  0.51793358395E+02  0.00000000000E+00 0.  1.
         -4   -1    0    0    0  501 -0.00000000000E+00 -0.00000000000E+00 -0.31395027748E+03  0.31395027748E+03  0.00000000000E+00 0.  1.
         25    1    1    2    0    0 -0.90860424797E+01 -0.40453187173E+02 -0.11401793448E+03  0.17064321230E+03  0.12000000000E+03 0.  0.
         25    1    1    2    0    0  0.90860424797E+01  0.40453187173E+02 -0.14813898460E+03  0.19510042358E+03  0.12000000000E+03 0.  0.
<mgrwt>
<rscale>  0 0.25503364E+03</rscale>
<asrwt>0</asrwt>
<pdfrwt beam="1">  1        4 0.79682093E-02 0.25503364E+03</pdfrwt>
<pdfrwt beam="2">  1       -4 0.48300041E-01 0.25503364E+03</pdfrwt>
<totfact> 0.85867815E+02</totfact>
</mgrwt>
</event>
<event>
 4    1  0.1710914E-004  0.2538089E+03  0.7818608E-02  0.1110921E+00
          2   -1    0    0  501    0  0.00000000000E+00  0.00000000000E+00  0.34526017167E+03  0.34526017167E+03  0.00000000000E+00 0. -1.
         -2   -1    0    0    0  501 -0.00000000000E+00 -0.00000000000E+00 -0.46645237408E+02  0.46645237408E+02  0.00000000000E+00 0. -1.
         25    1    1    2    0    0  0.13429743688E+02 -0.39004906566E+02  0.14663215674E+03  0.19391423399E+03  0.12000000000E+03 0.  0.
         25    1    1    2    0    0 -0.13429743688E+02  0.39004906566E+02  0.15198277752E+03  0.19799117509E+03  0.12000000000E+03 0.  0.
<mgrwt>
<rscale>  0 0.25380893E+03</rscale>
<asrwt>0</asrwt>
<pdfrwt beam="1">  1        2 0.53116948E-01 0.25380893E+03</pdfrwt>
<pdfrwt beam="2">  1       -2 0.71761906E-02 0.25380893E+03</pdfrwt>
<totfact> 0.10386289E+04</totfact>
</mgrwt>
</event>
<event>
 4    1  0.1710914E-004  0.3226524E+03  0.7818608E-02  0.1074435E+00
          1   -1    0    0  501    0  0.00000000000E+00  0.00000000000E+00  0.55575773343E+02  0.55575773343E+02  0.00000000000E+00 0. -1.
         -1   -1    0    0    0  501 -0.00000000000E+00 -0.00000000000E+00 -0.46830020579E+03  0.46830020579E+03  0.00000000000E+00 0. -1.
         25    1    1    2    0    0 -0.62954935003E+02  0.87218106338E+02 -0.21849344324E+03  0.27149531608E+03  0.12000000000E+03 0.  0.
         25    1    1    2    0    0  0.62954935003E+02 -0.87218106338E+02 -0.19423098921E+03  0.25238066305E+03  0.12000000000E+03 0.  0.
<mgrwt>
<rscale>  0 0.32265242E+03</rscale>
<asrwt>0</asrwt>
<pdfrwt beam="1">  1        1 0.85501190E-02 0.32265242E+03</pdfrwt>
<pdfrwt beam="2">  1       -1 0.72046185E-01 0.32265242E+03</pdfrwt>
<totfact> 0.16095848E+03</totfact>
</mgrwt>
</event>
<event>
 4    1  0.1710914E-004  0.2564113E+03  0.7818608E-02  0.1109319E+00
         -3   -1    0    0    0  501 -0.00000000000E+00  0.00000000000E+00  0.18776067018E+04  0.18776067018E+04  0.00000000000E+00 0.  1.
          3   -1    0    0  501    0  0.00000000000E+00 -0.00000000000E+00 -0.87540661053E+01  0.87540661053E+01  0.00000000000E+00 0.  1.
         25    1    1    2    0    0  0.40596360551E+02 -0.57602618099E+01  0.10731260500E+04  0.10805927838E+04  0.12000000000E+03 0.  0.
         25    1    1    2    0    0 -0.40596360551E+02  0.57602618099E+01  0.79572658567E+03  0.80576798413E+03  0.12000000000E+03 0.  0.
<mgrwt>
<rscale>  0 0.25641134E+03</rscale>
<asrwt>0</asrwt>
<pdfrwt beam="1">  1        3 0.13467809E-02 0.25641134E+03</pdfrwt>
<pdfrwt beam="2">  1       -3 0.28886225E+00 0.25641134E+03</pdfrwt>
<totfact> 0.22104917E+02</totfact>
</mgrwt>
</event>
<event>
 4    1  0.1710914E-004  0.2447108E+03  0.7818608E-02  0.1116694E+00
          1   -1    0    0  501    0  0.00000000000E+00  0.00000000000E+00  0.30461613359E+03  0.30461613359E+03  0.00000000000E+00 0.  1.
         -1   -1    0    0    0  501 -0.00000000000E+00 -0.00000000000E+00 -0.49146594568E+02  0.49146594568E+02  0.00000000000E+00 0.  1.
         25    1    1    2    0    0  0.34976526104E+01  0.48306136681E+01  0.94288453306E+02  0.15272812717E+03  0.12000000000E+03 0.  0.
         25    1    1    2    0    0 -0.34976526104E+01 -0.48306136681E+01  0.16118108572E+03  0.20103460099E+03  0.12000000000E+03 0.  0.
<mgrwt>
<rscale>  0 0.24471081E+03</rscale>
<asrwt>0</asrwt>
<pdfrwt beam="1">  1        1 0.46864019E-01 0.24471081E+03</pdfrwt>
<pdfrwt beam="2">  1       -1 0.75610147E-02 0.24471081E+03</pdfrwt>
<totfact> 0.79566297E+03</totfact>
</mgrwt>
</event>
<event>
 4    1  0.1710914E-004  0.2462558E+03  0.7818608E-02  0.1115694E+00
         -2   -1    0    0    0  501 -0.00000000000E+00  0.00000000000E+00  0.85312483625E+01  0.85312483625E+01  0.00000000000E+00 0. -1.
          2   -1    0    0  501    0  0.00000000000E+00 -0.00000000000E+00 -0.17770527780E+04  0.17770527780E+04  0.00000000000E+00 0. -1.
         25    1    1    2    0    0  0.10903933143E+02 -0.88711461544E+01 -0.10562906557E+04  0.10631780388E+04  0.12000000000E+03 0.  0.
         25    1    1    2    0    0 -0.10903933143E+02  0.88711461544E+01 -0.71223087397E+03  0.72240598754E+03  0.12000000000E+03 0.  0.
<mgrwt>
<rscale>  0 0.24625579E+03</rscale>
<asrwt>0</asrwt>
<pdfrwt beam="1">  1        2 0.27339306E+00 0.24625579E+03</pdfrwt>
<pdfrwt beam="2">  1       -2 0.13124982E-02 0.24625579E+03</pdfrwt>
<totfact> 0.13913341E+04</totfact>
</mgrwt>
</event>
<event>
 4    1  0.1710914E-004  0.2564334E+03  0.7818608E-02  0.1109305E+00
         -2   -1    0    0    0  501 -0.00000000000E+00  0.00000000000E+00  0.14305449286E+02  0.14305449286E+02  0.00000000000E+00 0. -1.
          2   -1    0    0  501    0  0.00000000000E+00 -0.00000000000E+00 -0.11491786807E+04  0.11491786807E+04  0.00000000000E+00 0. -1.
         25    1    1    2    0    0 -0.43902670876E+01 -0.13396934753E+02 -0.76210037885E+03  0.77161890837E+03  0.12000000000E+03 0.  0.
         25    1    1    2    0    0  0.43902670876E+01  0.13396934753E+02 -0.37277285257E+03  0.39186522163E+03  0.12000000000E+03 0.  0.
<mgrwt>
<rscale>  0 0.25643336E+03</rscale>
<asrwt>0</asrwt>
<pdfrwt beam="1">  1        2 0.17679671E+00 0.25643336E+03</pdfrwt>
<pdfrwt beam="2">  1       -2 0.22008385E-02 0.25643336E+03</pdfrwt>
<totfact> 0.14282931E+04</totfact>
</mgrwt>
</event>
<event>
 4    1  0.1710914E-004  0.2745518E+03  0.7818608E-02  0.1098702E+00
          1   -1    0    0  501    0  0.00000000000E+00  0.00000000000E+00  0.54559111942E+03  0.54559111942E+03  0.00000000000E+00 0.  1.
         -1   -1    0    0    0  501 -0.00000000000E+00 -0.00000000000E+00 -0.34539909248E+02  0.34539909248E+02  0.00000000000E+00 0.  1.
         25    1    1    2    0    0  0.32004103280E+01  0.65111853071E+02  0.28502249722E+03  0.31605002762E+03  0.12000000000E+03 0.  0.
         25    1    1    2    0    0 -0.32004103280E+01 -0.65111853071E+02  0.22602871295E+03  0.26408100105E+03  0.12000000000E+03 0.  0.
<mgrwt>
<rscale>  0 0.27455176E+03</rscale>
<asrwt>0</asrwt>
<pdfrwt beam="1">  1        1 0.83937089E-01 0.27455176E+03</pdfrwt>
<pdfrwt beam="2">  1       -1 0.53138326E-02 0.27455176E+03</pdfrwt>
<totfact> 0.64140047E+03</totfact>
</mgrwt>
</event>
<event>
 4    1  0.1710914E-004  0.2784931E+03  0.7818608E-02  0.1096515E+00
          1   -1    0    0  501    0  0.00000000000E+00  0.00000000000E+00  0.13553868668E+04  0.13553868668E+04  0.00000000000E+00 0.  1.
         -1   -1    0    0    0  501 -0.00000000000E+00 -0.00000000000E+00 -0.14305580287E+02  0.14305580287E+02  0.00000000000E+00 0.  1.
         25    1    1    2    0    0  0.18577672921E+02 -0.23511811599E+02  0.35594081513E+03  0.37681799199E+03  0.12000000000E+03 0.  0.
         25    1    1    2    0    0 -0.18577672921E+02  0.23511811599E+02  0.98514047137E+03  0.99287445508E+03  0.12000000000E+03 0.  0.
<mgrwt>
<rscale>  0 0.27849306E+03</rscale>
<asrwt>0</asrwt>
<pdfrwt beam="1">  1        1 0.20852096E+00 0.27849306E+03</pdfrwt>
<pdfrwt beam="2">  1       -1 0.22008596E-02 0.27849306E+03</pdfrwt>
<totfact> 0.53316778E+03</totfact>
</mgrwt>
</event>
<event>
 4    1  0.1710914E-004  0.6602817E+03  0.7818608E-02  0.9787675E-01
          1   -1    0    0  501    0  0.00000000000E+00  0.00000000000E+00  0.92063524334E+03  0.92063524334E+03  0.00000000000E+00 0.  1.
         -1   -1    0    0    0  501 -0.00000000000E+00 -0.00000000000E+00 -0.11838890293E+03  0.11838890293E+03  0.00000000000E+00 0.  1.
         25    1    1    2    0    0  0.29834709920E+03 -0.51223557400E+02  0.48670993161E+03  0.58559491285E+03  0.12000000000E+03 0.  0.
         25    1    1    2    0    0 -0.29834709920E+03  0.51223557400E+02  0.31553640880E+03  0.45342923342E+03  0.12000000000E+03 0.  0.
<mgrwt>
<rscale>  0 0.66028175E+03</rscale>
<asrwt>0</asrwt>
<pdfrwt beam="1">  1        1 0.14163619E+00 0.66028175E+03</pdfrwt>
<pdfrwt beam="2">  1       -1 0.18213678E-01 0.66028175E+03</pdfrwt>
<totfact> 0.42363665E+02</totfact>
</mgrwt>
</event>
<event>
 4    1  0.1710914E-004  0.2752854E+03  0.7818608E-02  0.1098292E+00
         -1   -1    0    0    0  501 -0.00000000000E+00  0.00000000000E+00  0.16084818651E+02  0.16084818651E+02  0.00000000000E+00 0.  1.
          1   -1    0    0  501    0  0.00000000000E+00 -0.00000000000E+00 -0.11778503766E+04  0.11778503766E+04  0.00000000000E+00 0.  1.
         25    1    1    2    0    0  0.38682707035E+02  0.41306272865E+02 -0.42194487333E+03  0.44231214784E+03  0.12000000000E+03 0.  0.
         25    1    1    2    0    0 -0.38682707035E+02 -0.41306272865E+02 -0.73982068464E+03  0.75162304743E+03  0.12000000000E+03 0.  0.
<mgrwt>
<rscale>  0 0.27528538E+03</rscale>
<asrwt>0</asrwt>
<pdfrwt beam="1">  1        1 0.18120775E+00 0.27528538E+03</pdfrwt>
<pdfrwt beam="2">  1       -1 0.24745875E-02 0.27528538E+03</pdfrwt>
<totfact> 0.59494742E+03</totfact>
</mgrwt>
</event>
<event>
 4    1  0.1710914E-004  0.2969998E+03  0.7818608E-02  0.1086750E+00
          2   -1    0    0  501    0  0.00000000000E+00  0.00000000000E+00  0.43852881232E+03  0.43852881232E+03  0.00000000000E+00 0. -1.
         -2   -1    0    0    0  501 -0.00000000000E+00 -0.00000000000E+00 -0.50286837700E+02  0.50286837700E+02  0.00000000000E+00 0. -1.
         25    1    1    2    0    0 -0.85356707477E+02 -0.13995538901E+02  0.21561704292E+03  0.26148107354E+03  0.12000000000E+03 0.  0.
         25    1    1    2    0    0  0.85356707477E+02  0.13995538901E+02  0.17262493169E+03  0.22733457648E+03  0.12000000000E+03 0.  0.
<mgrwt>
<rscale>  0 0.29699985E+03</rscale>
<asrwt>0</asrwt>
<pdfrwt beam="1">  1        2 0.67465969E-01 0.29699985E+03</pdfrwt>
<pdfrwt beam="2">  1       -2 0.77364368E-02 0.29699985E+03</pdfrwt>
<totfact> 0.71697671E+03</totfact>
</mgrwt>
</event>
<event>
 4    1  0.1710914E-004  0.2799241E+03  0.7818608E-02  0.1095730E+00
         -1   -1    0    0    0  501 -0.00000000000E+00  0.00000000000E+00  0.56007653844E+03  0.56007653844E+03  0.00000000000E+00 0. -1.
          1   -1    0    0  501    0  0.00000000000E+00 -0.00000000000E+00 -0.34976242206E+02  0.34976242206E+02  0.00000000000E+00 0. -1.
         25    1    1    2    0    0  0.37898300688E+02  0.60868848492E+02  0.27728934256E+03  0.31053289264E+03  0.12000000000E+03 0.  0.
         25    1    1    2    0    0 -0.37898300688E+02 -0.60868848492E+02  0.24781095367E+03  0.28451988801E+03  0.12000000000E+03 0.  0.
<mgrwt>
<rscale>  0 0.27992408E+03</rscale>
<asrwt>0</asrwt>
<pdfrwt beam="1">  1        1 0.53809608E-02 0.27992408E+03</pdfrwt>
<pdfrwt beam="2">  1       -1 0.86165615E-01 0.27992408E+03</pdfrwt>
<totfact> 0.20944575E+03</totfact>
</mgrwt>
</event>
<event>
 4    1  0.1710914E-004  0.2681506E+03  0.7818608E-02  0.1102343E+00
         -2   -1    0    0    0  501 -0.00000000000E+00  0.00000000000E+00  0.15401891421E+02  0.15401891421E+02  0.00000000000E+00 0.  1.
          2   -1    0    0  501    0  0.00000000000E+00 -0.00000000000E+00 -0.11671410696E+04  0.11671410696E+04  0.00000000000E+00 0.  1.
         25    1    1    2    0    0  0.93361913474E+01  0.50722020066E+02 -0.70936158638E+03  0.72128617623E+03  0.12000000000E+03 0.  0.
         25    1    1    2    0    0 -0.93361913474E+01 -0.50722020066E+02 -0.44237759177E+03  0.46125678476E+03  0.12000000000E+03 0.  0.
<mgrwt>
<rscale>  0 0.26815055E+03</rscale>
<asrwt>0</asrwt>
<pdfrwt beam="1">  1        2 0.17956022E+00 0.26815055E+03</pdfrwt>
<pdfrwt beam="2">  1       -2 0.23695210E-02 0.26815055E+03</pdfrwt>
<totfact> 0.12526641E+04</totfact>
</mgrwt>
</event>
<event>
 4    1  0.1710914E-004  0.5226284E+03  0.7818608E-02  0.1008036E+00
          1   -1    0    0  501    0  0.00000000000E+00  0.00000000000E+00  0.21498143382E+03  0.21498143382E+03  0.00000000000E+00 0. -1.
         -1   -1    0    0    0  501 -0.00000000000E+00 -0.00000000000E+00 -0.31763264694E+03  0.31763264694E+03  0.00000000000E+00 0. -1.
         25    1    1    2    0    0  0.20707025299E+03 -0.85116204260E+02  0.11183635806E+02  0.25425957526E+03  0.12000000000E+03 0.  0.
         25    1    1    2    0    0 -0.20707025299E+03  0.85116204260E+02 -0.11383484892E+03  0.27835450550E+03  0.12000000000E+03 0.  0.
<mgrwt>
<rscale>  0 0.52262844E+03</rscale>
<asrwt>0</asrwt>
<pdfrwt beam="1">  1        1 0.33074067E-01 0.52262844E+03</pdfrwt>
<pdfrwt beam="2">  1       -1 0.48866561E-01 0.52262844E+03</pdfrwt>
<totfact> 0.57324145E+02</totfact>
</mgrwt>
</event>
<event>
 4    1  0.1710914E-004  0.2965943E+03  0.7818608E-02  0.1086956E+00
          2   -1    0    0  501    0  0.00000000000E+00  0.00000000000E+00  0.28478488748E+03  0.28478488748E+03  0.00000000000E+00 0. -1.
         -2   -1    0    0    0  501 -0.00000000000E+00 -0.00000000000E+00 -0.77223346179E+02  0.77223346179E+02  0.00000000000E+00 0. -1.
         25    1    1    2    0    0  0.66691583197E+01  0.26458576790E+02  0.27806368631E+01  0.12309454050E+03  0.12000000000E+03 0.  0.
         25    1    1    2    0    0 -0.66691583197E+01 -0.26458576790E+02  0.20478090444E+03  0.23891369317E+03  0.12000000000E+03 0.  0.
<mgrwt>
<rscale>  0 0.29659428E+03</rscale>
<asrwt>0</asrwt>
<pdfrwt beam="1">  1        2 0.43813059E-01 0.29659428E+03</pdfrwt>
<pdfrwt beam="2">  1       -2 0.11880515E-01 0.29659428E+03</pdfrwt>
<totfact> 0.57951076E+03</totfact>
</mgrwt>
</event>
<event>
 4    1  0.1710914E-004  0.3205872E+03  0.7818608E-02  0.1075379E+00
         -2   -1    0    0    0  501 -0.00000000000E+00  0.00000000000E+00  0.17933698292E+02  0.17933698292E+02  0.00000000000E+00 0.  1.
          2   -1    0    0  501    0  0.00000000000E+00 -0.00000000000E+00 -0.14327234739E+04  0.14327234739E+04  0.00000000000E+00 0.  1.
         25    1    1    2    0    0 -0.42748927451E+02  0.96283140164E+02 -0.64402602756E+03  0.66352651646E+03  0.12000000000E+03 0.  0.
         25    1    1    2    0    0  0.42748927451E+02 -0.96283140164E+02 -0.77076374800E+03  0.78713065568E+03  0.12000000000E+03 0.  0.
<mgrwt>
<rscale>  0 0.32058715E+03</rscale>
<asrwt>0</asrwt>
<pdfrwt beam="1">  1        2 0.22041889E+00 0.32058715E+03</pdfrwt>
<pdfrwt beam="2">  1       -2 0.27590319E-02 0.32058715E+03</pdfrwt>
<totfact> 0.71380098E+03</totfact>
</mgrwt>
</event>
<event>
 4    1  0.1710914E-004  0.4097489E+03  0.7818608E-02  0.1040455E+00
         -1   -1    0    0    0  501 -0.00000000000E+00  0.00000000000E+00  0.72156790701E+02  0.72156790701E+02  0.00000000000E+00 0. -1.
          1   -1    0    0  501    0  0.00000000000E+00 -0.00000000000E+00 -0.58169922838E+03  0.58169922838E+03  0.00000000000E+00 0. -1.
         25    1    1    2    0    0  0.30703988662E+02 -0.26941939648E+02  0.20646237457E+01  0.12677880621E+03  0.12000000000E+03 0.  0.
         25    1    1    2    0    0 -0.30703988662E+02  0.26941939648E+02 -0.51160706142E+03  0.52707721287E+03  0.12000000000E+03 0.  0.
<mgrwt>
<rscale>  0 0.40974894E+03</rscale>
<asrwt>0</asrwt>
<pdfrwt beam="1">  1        1 0.89492187E-01 0.40974894E+03</pdfrwt>
<pdfrwt beam="2">  1       -1 0.11101045E-01 0.40974894E+03</pdfrwt>
<totfact> 0.19084565E+03</totfact>
</mgrwt>
</event>
<event>
 4    1  0.1710914E-004  0.3678104E+03  0.7818608E-02  0.1055533E+00
         -2   -1    0    0    0  501 -0.00000000000E+00  0.00000000000E+00  0.13167652121E+02  0.13167652121E+02  0.00000000000E+00 0. -1.
          2   -1    0    0  501    0  0.00000000000E+00 -0.00000000000E+00 -0.25685012240E+04  0.25685012240E+04  0.00000000000E+00 0. -1.
         25    1    1    2    0    0  0.83914299019E+02 -0.55512246854E+01 -0.49768010068E+03  0.51880430636E+03  0.12000000000E+03 0.  0.
         25    1    1    2    0    0 -0.83914299019E+02  0.55512246854E+01 -0.20576534712E+04  0.20628645698E+04  0.12000000000E+03 0.  0.
<mgrwt>
<rscale>  0 0.36781044E+03</rscale>
<asrwt>0</asrwt>
<pdfrwt beam="1">  1        2 0.39515384E+00 0.36781044E+03</pdfrwt>
<pdfrwt beam="2">  1       -2 0.20257936E-02 0.36781044E+03</pdfrwt>
<totfact> 0.27697495E+03</totfact>
</mgrwt>
</event>
<event>
 4    1  0.1710914E-004  0.3406256E+03  0.7818608E-02  0.1066530E+00
          2   -1    0    0  501    0  0.00000000000E+00  0.00000000000E+00  0.36678053774E+03  0.36678053774E+03  0.00000000000E+00 0.  1.
         -2   -1    0    0    0  501 -0.00000000000E+00 -0.00000000000E+00 -0.79083934213E+02  0.79083934213E+02  0.00000000000E+00 0.  1.
         25    1    1    2    0    0 -0.32326079648E+02  0.83157934085E+02  0.25056031088E+03  0.29178877089E+03  0.12000000000E+03 0.  0.
         25    1    1    2    0    0  0.32326079648E+02 -0.83157934085E+02  0.37136292644E+02  0.15407570106E+03  0.12000000000E+03 0.  0.
<mgrwt>
<rscale>  0 0.34062559E+03</rscale>
<asrwt>0</asrwt>
<pdfrwt beam="1">  1        2 0.56427774E-01 0.34062559E+03</pdfrwt>
<pdfrwt beam="2">  1       -2 0.12166759E-01 0.34062559E+03</pdfrwt>
<totfact> 0.42555481E+03</totfact>
</mgrwt>
</event>
<event>
 4    1  0.1710914E-004  0.5511323E+03  0.7818608E-02  0.1001232E+00
         -3   -1    0    0    0  501 -0.00000000000E+00  0.00000000000E+00  0.22017038358E+03  0.22017038358E+03  0.00000000000E+00 0.  1.
          3   -1    0    0  501    0  0.00000000000E+00 -0.00000000000E+00 -0.34489970317E+03  0.34489970317E+03  0.00000000000E+00 0.  1.
         25    1    1    2    0    0 -0.58120135479E+02  0.20064199097E+03 -0.19954493631E+03  0.31281518552E+03  0.12000000000E+03 0.  0.
         25    1    1    2    0    0  0.58120135479E+02 -0.20064199097E+03  0.74815616726E+02  0.25225490123E+03  0.12000000000E+03 0.  0.
<mgrwt>
<rscale>  0 0.55113229E+03</rscale>
<asrwt>0</asrwt>
<pdfrwt beam="1">  1        3 0.53061493E-01 0.55113229E+03</pdfrwt>
<pdfrwt beam="2">  1       -3 0.33872367E-01 0.55113229E+03</pdfrwt>
<totfact> 0.79045397E+01</totfact>
</mgrwt>
</event>
<event>
 4    1  0.1710914E-004  0.2807845E+03  0.7818608E-02  0.1095261E+00
         -2   -1    0    0    0  501 -0.00000000000E+00  0.00000000000E+00  0.10640547346E+02  0.10640547346E+02  0.00000000000E+00 0. -1.
          2   -1    0    0  501    0  0.00000000000E+00 -0.00000000000E+00 -0.18523473145E+04  0.18523473145E+04  0.00000000000E+00 0. -1.
         25    1    1    2    0    0 -0.16449403085E+02  0.16398197919E+02 -0.13791208618E+04  0.13845265744E+04  0.12000000000E+03 0.  0.
         25    1    1    2    0    0  0.16449403085E+02 -0.16398197919E+02 -0.46258590539E+03  0.47846128749E+03  0.12000000000E+03 0.  0.
<mgrwt>
<rscale>  0 0.28078454E+03</rscale>
<asrwt>0</asrwt>
<pdfrwt beam="1">  1        2 0.28497644E+00 0.28078454E+03</pdfrwt>
<pdfrwt beam="2">  1       -2 0.16370077E-02 0.28078454E+03</pdfrwt>
<totfact> 0.92229158E+03</totfact>
</mgrwt>
</event>
<event>
 4    1  0.1710914E-004  0.3034943E+03  0.7818608E-02  0.1083507E+00
          2   -1    0    0  501    0  0.00000000000E+00  0.00000000000E+00  0.45302690594E+03  0.45302690594E+03  0.00000000000E+00 0. -1.
         -2   -1    0    0    0  501 -0.00000000000E+00 -0.00000000000E+00 -0.50829637660E+02  0.50829637660E+02  0.00000000000E+00 0. -1.
         25    1    1    2    0    0  0.50410295837E+02 -0.61838359628E+02  0.28005805140E+03  0.31495665226E+03  0.12000000000E+03 0.  0.
         25    1    1    2    0    0 -0.50410295837E+02  0.61838359628E+02  0.12213921687E+03  0.18889989134E+03  0.12000000000E+03 0.  0.
<mgrwt>
<rscale>  0 0.30349427E+03</rscale>
<asrwt>0</asrwt>
<pdfrwt beam="1">  1        2 0.69696444E-01 0.30349427E+03</pdfrwt>
<pdfrwt beam="2">  1       -2 0.78199446E-02 0.30349427E+03</pdfrwt>
<totfact> 0.68064508E+03</totfact>
</mgrwt>
</event>
<event>
 4    1  0.1710914E-004  0.3914935E+03  0.7818608E-02  0.1046766E+00
          2   -1    0    0  501    0  0.00000000000E+00  0.00000000000E+00  0.11620185175E+04  0.11620185175E+04  0.00000000000E+00 0.  1.
         -2   -1    0    0    0  501 -0.00000000000E+00 -0.00000000000E+00 -0.32974337961E+02  0.32974337961E+02  0.00000000000E+00 0.  1.
         25    1    1    2    0    0 -0.13515364216E+02  0.11637102059E+02  0.95617133034E+02  0.15446916632E+03  0.12000000000E+03 0.  0.
         25    1    1    2    0    0  0.13515364216E+02 -0.11637102059E+02  0.10334270465E+04  0.10405236891E+04  0.12000000000E+03 0.  0.
<mgrwt>
<rscale>  0 0.39149351E+03</rscale>
<asrwt>0</asrwt>
<pdfrwt beam="1">  1        2 0.17877205E+00 0.39149351E+03</pdfrwt>
<pdfrwt beam="2">  1       -2 0.50729760E-02 0.39149351E+03</pdfrwt>
<totfact> 0.40392148E+03</totfact>
</mgrwt>
</event>
<event>
 4    1  0.1710914E-004  0.3372986E+03  0.7818608E-02  0.1067952E+00
          2   -1    0    0  501    0  0.00000000000E+00  0.00000000000E+00  0.25631404635E+04  0.25631404635E+04  0.00000000000E+00 0. -1.
         -2   -1    0    0    0  501 -0.00000000000E+00 -0.00000000000E+00 -0.11096774467E+02  0.11096774467E+02  0.00000000000E+00 0. -1.
         25    1    1    2    0    0 -0.51355660805E+02 -0.10248351076E+03  0.10467695209E+04  0.10598427731E+04  0.12000000000E+03 0.  0.
         25    1    1    2    0    0  0.51355660805E+02  0.10248351076E+03  0.15052741681E+04  0.15143944648E+04  0.12000000000E+03 0.  0.
<mgrwt>
<rscale>  0 0.33729863E+03</rscale>
<asrwt>0</asrwt>
<pdfrwt beam="1">  1        2 0.39432883E+00 0.33729863E+03</pdfrwt>
<pdfrwt beam="2">  1       -2 0.17071981E-02 0.33729863E+03</pdfrwt>
<totfact> 0.35996133E+03</totfact>
</mgrwt>
</event>
<event>
 4    1  0.1710914E-004  0.2689690E+03  0.7818608E-02  0.1101871E+00
         -2   -1    0    0    0  501 -0.00000000000E+00  0.00000000000E+00  0.71507330404E+03  0.71507330404E+03  0.00000000000E+00 0.  1.
          2   -1    0    0  501    0  0.00000000000E+00 -0.00000000000E+00 -0.25292616455E+02  0.25292616455E+02  0.00000000000E+00 0.  1.
         25    1    1    2    0    0  0.50655025836E+02  0.81897941822E+01  0.25556535412E+03  0.28696106809E+03  0.12000000000E+03 0.  0.
         25    1    1    2    0    0 -0.50655025836E+02 -0.81897941822E+01  0.43421533347E+03  0.45340485241E+03  0.12000000000E+03 0.  0.
<mgrwt>
<rscale>  0 0.26896896E+03</rscale>
<asrwt>0</asrwt>
<pdfrwt beam="1">  1        2 0.38911723E-02 0.26896896E+03</pdfrwt>
<pdfrwt beam="2">  1       -2 0.11001126E+00 0.26896896E+03</pdfrwt>
<totfact> 0.15038331E+03</totfact>
</mgrwt>
</event>
<event>
 4    1  0.1710914E-004  0.4779299E+03  0.7818608E-02  0.1019706E+00
          1   -1    0    0  501    0  0.00000000000E+00  0.00000000000E+00  0.11657623561E+04  0.11657623561E+04  0.00000000000E+00 0. -1.
         -1   -1    0    0    0  501 -0.00000000000E+00 -0.00000000000E+00 -0.48984462387E+02  0.48984462387E+02  0.00000000000E+00 0. -1.
         25    1    1    2    0    0 -0.12105711917E+03  0.45987235736E+02  0.14907053154E+03  0.23106638727E+03  0.12000000000E+03 0.  0.
         25    1    1    2    0    0  0.12105711917E+03 -0.45987235736E+02  0.96770736214E+03  0.98368043118E+03  0.12000000000E+03 0.  0.
<mgrwt>
<rscale>  0 0.47792988E+03</rscale>
<asrwt>0</asrwt>
<pdfrwt beam="1">  1        1 0.17934803E+00 0.47792988E+03</pdfrwt>
<pdfrwt beam="2">  1       -1 0.75360720E-02 0.47792988E+03</pdfrwt>
<totfact> 0.11354249E+03</totfact>
</mgrwt>
</event>
<event>
 4    1  0.1710914E-004  0.3137804E+03  0.7818608E-02  0.1078548E+00
         -2   -1    0    0    0  501 -0.00000000000E+00  0.00000000000E+00  0.13595786099E+03  0.13595786099E+03  0.00000000000E+00 0.  1.
          2   -1    0    0  501    0  0.00000000000E+00 -0.00000000000E+00 -0.18104529130E+03  0.18104529130E+03  0.00000000000E+00 0.  1.
         25    1    1    2    0    0 -0.53657553847E+02 -0.36481389360E+02 -0.10082833322E+03  0.16963601514E+03  0.12000000000E+03 0.  0.
         25    1    1    2    0    0  0.53657553847E+02  0.36481389360E+02  0.55740902902E+02  0.14736713715E+03  0.12000000000E+03 0.  0.
<mgrwt>
<rscale>  0 0.31378037E+03</rscale>
<asrwt>0</asrwt>
<pdfrwt beam="1">  1        2 0.27853122E-01 0.31378037E+03</pdfrwt>
<pdfrwt beam="2">  1       -2 0.20916594E-01 0.31378037E+03</pdfrwt>
<totfact> 0.37049331E+03</totfact>
</mgrwt>
</event>
<event>
 4    1  0.1710914E-004  0.3037708E+03  0.7818608E-02  0.1083371E+00
          1   -1    0    0  501    0  0.00000000000E+00  0.00000000000E+00  0.81240841802E+02  0.81240841802E+02  0.00000000000E+00 0. -1.
         -1   -1    0    0    0  501 -0.00000000000E+00 -0.00000000000E+00 -0.28396024462E+03  0.28396024462E+03  0.00000000000E+00 0. -1.
         25    1    1    2    0    0 -0.88997023903E+02 -0.24353995669E+02 -0.11635536477E+03  0.19092448319E+03  0.12000000000E+03 0.  0.
         25    1    1    2    0    0  0.88997023903E+02  0.24353995669E+02 -0.86364038051E+02  0.17427660324E+03  0.12000000000E+03 0.  0.
<mgrwt>
<rscale>  0 0.30377076E+03</rscale>
<asrwt>0</asrwt>
<pdfrwt beam="1">  1        1 0.12498591E-01 0.30377076E+03</pdfrwt>
<pdfrwt beam="2">  1       -1 0.43686191E-01 0.30377076E+03</pdfrwt>
<totfact> 0.25016715E+03</totfact>
</mgrwt>
</event>
<event>
 4    1  0.1710914E-004  0.3179075E+03  0.7818608E-02  0.1076616E+00
         -1   -1    0    0    0  501 -0.00000000000E+00  0.00000000000E+00  0.83644580152E+02  0.83644580152E+02  0.00000000000E+00 0. -1.
          1   -1    0    0  501    0  0.00000000000E+00 -0.00000000000E+00 -0.30206726978E+03  0.30206726978E+03  0.00000000000E+00 0. -1.
         25    1    1    2    0    0  0.66670245753E+02 -0.76987004638E+02 -0.82234693312E+02  0.17757946203E+03  0.12000000000E+03 0.  0.
         25    1    1    2    0    0 -0.66670245753E+02  0.76987004638E+02 -0.13618799631E+03  0.20813238790E+03  0.12000000000E+03 0.  0.
<mgrwt>
<rscale>  0 0.31790747E+03</rscale>
<asrwt>0</asrwt>
<pdfrwt beam="1">  1        1 0.46471887E-01 0.31790747E+03</pdfrwt>
<pdfrwt beam="2">  1       -1 0.12868397E-01 0.31790747E+03</pdfrwt>
<totfact> 0.35634465E+03</totfact>
</mgrwt>
</event>
<event>
 4    1  0.1710914E-004  0.4500013E+03  0.7818608E-02  0.1027722E+00
         -2   -1    0    0    0  501 -0.00000000000E+00  0.00000000000E+00  0.58490785424E+02  0.58490785424E+02  0.00000000000E+00 0. -1.
          2   -1    0    0  501    0  0.00000000000E+00 -0.00000000000E+00 -0.86552575983E+03  0.86552575983E+03  0.00000000000E+00 0. -1.
         25    1    1    2    0    0  0.27271726111E+02 -0.10358095188E+03 -0.72657194935E+03  0.74416366360E+03  0.12000000000E+03 0.  0.
         25    1    1    2    0    0 -0.27271726111E+02  0.10358095188E+03 -0.80463025053E+02  0.17985288165E+03  0.12000000000E+03 0.  0.
<mgrwt>
<rscale>  0 0.45000125E+03</rscale>
<asrwt>0</asrwt>
<pdfrwt beam="1">  1        2 0.13315781E+00 0.45000125E+03</pdfrwt>
<pdfrwt beam="2">  1       -2 0.89985821E-02 0.45000125E+03</pdfrwt>
<totfact> 0.25224179E+03</totfact>
</mgrwt>
</event>
<event>
 4    1  0.1710914E-004  0.2730317E+03  0.7818608E-02  0.1099557E+00
          1   -1    0    0  501    0  0.00000000000E+00  0.00000000000E+00  0.63058692979E+03  0.63058692979E+03  0.00000000000E+00 0. -1.
         -1   -1    0    0    0  501 -0.00000000000E+00 -0.00000000000E+00 -0.29554330023E+02  0.29554330023E+02  0.00000000000E+00 0. -1.
         25    1    1    2    0    0 -0.59161002015E+01  0.64677660122E+02  0.31088033551E+03  0.33950667588E+03  0.12000000000E+03 0.  0.
         25    1    1    2    0    0  0.59161002015E+01 -0.64677660122E+02  0.29015226426E+03  0.32063458394E+03  0.12000000000E+03 0.  0.
<mgrwt>
<rscale>  0 0.27303168E+03</rscale>
<asrwt>0</asrwt>
<pdfrwt beam="1">  1        1 0.97013364E-01 0.27303168E+03</pdfrwt>
<pdfrwt beam="2">  1       -1 0.45468205E-02 0.27303168E+03</pdfrwt>
<totfact> 0.66314432E+03</totfact>
</mgrwt>
</event>
<event>
 4    1  0.1710914E-004  0.2506977E+03  0.7818608E-02  0.1112865E+00
          1   -1    0    0  501    0  0.00000000000E+00  0.00000000000E+00  0.12282114542E+03  0.12282114542E+03  0.00000000000E+00 0. -1.
         -1   -1    0    0    0  501 -0.00000000000E+00 -0.00000000000E+00 -0.12792857121E+03  0.12792857121E+03  0.00000000000E+00 0. -1.
         25    1    1    2    0    0 -0.32382376107E+02  0.19976674076E+01  0.13565607504E+02  0.12504653000E+03  0.12000000000E+03 0.  0.
         25    1    1    2    0    0  0.32382376107E+02 -0.19976674076E+01 -0.18673033297E+02  0.12570318663E+03  0.12000000000E+03 0.  0.
<mgrwt>
<rscale>  0 0.25069770E+03</rscale>
<asrwt>0</asrwt>
<pdfrwt beam="1">  1        1 0.18895561E-01 0.25069770E+03</pdfrwt>
<pdfrwt beam="2">  1       -1 0.19681319E-01 0.25069770E+03</pdfrwt>
<totfact> 0.56231690E+03</totfact>
</mgrwt>
</event>
<event>
 4    1  0.1710914E-004  0.3609288E+03  0.7818608E-02  0.1058217E+00
          1   -1    0    0  501    0  0.00000000000E+00  0.00000000000E+00  0.41370059199E+03  0.41370059199E+03  0.00000000000E+00 0.  1.
         -1   -1    0    0    0  501 -0.00000000000E+00 -0.00000000000E+00 -0.78722165229E+02  0.78722165229E+02  0.00000000000E+00 0.  1.
         25    1    1    2    0    0 -0.20375292989E+02 -0.19661079325E+02  0.34727801072E+03  0.36851557272E+03  0.12000000000E+03 0.  0.
         25    1    1    2    0    0  0.20375292989E+02  0.19661079325E+02 -0.12299583963E+02  0.12390718450E+03  0.12000000000E+03 0.  0.
<mgrwt>
<rscale>  0 0.36092884E+03</rscale>
<asrwt>0</asrwt>
<pdfrwt beam="1">  1        1 0.63646244E-01 0.36092884E+03</pdfrwt>
<pdfrwt beam="2">  1       -1 0.12111103E-01 0.36092884E+03</pdfrwt>
<totfact> 0.26274916E+03</totfact>
</mgrwt>
</event>
<event>
 4    1  0.1710914E-004  0.2483486E+03  0.7818608E-02  0.1114353E+00
          4   -1    0    0  501    0  0.00000000000E+00  0.00000000000E+00  0.42500787886E+02  0.42500787886E+02  0.00000000000E+00 0. -1.
         -4   -1    0    0    0  501 -0.00000000000E+00 -0.00000000000E+00 -0.36279929295E+03  0.36279929295E+03  0.00000000000E+00 0. -1.
         25    1    1    2    0    0  0.70176899855E+01  0.29572068477E+02 -0.14420081978E+03  0.19004639337E+03  0.12000000000E+03 0.  0.
         25    1    1    2    0    0 -0.70176899855E+01 -0.29572068477E+02 -0.17609768528E+03  0.21525368747E+03  0.12000000000E+03 0.  0.
<mgrwt>
<rscale>  0 0.24834859E+03</rscale>
<asrwt>0</asrwt>
<pdfrwt beam="1">  1        4 0.65385828E-02 0.24834859E+03</pdfrwt>
<pdfrwt beam="2">  1       -4 0.55815276E-01 0.24834859E+03</pdfrwt>
<totfact> 0.88031958E+02</totfact>
</mgrwt>
</event>
<event>
 4    1  0.1710914E-004  0.2799346E+03  0.7818608E-02  0.1095725E+00
          2   -1    0    0  501    0  0.00000000000E+00  0.00000000000E+00  0.15658211575E+04  0.15658211575E+04  0.00000000000E+00 0. -1.
         -2   -1    0    0    0  501 -0.00000000000E+00 -0.00000000000E+00 -0.12511551336E+02  0.12511551336E+02  0.00000000000E+00 0. -1.
         25    1    1    2    0    0  0.18453326024E+02 -0.68239208307E+02  0.69817675545E+03  0.71193250849E+03  0.12000000000E+03 0.  0.
         25    1    1    2    0    0 -0.18453326024E+02  0.68239208307E+02  0.85513285076E+03  0.86640020039E+03  0.12000000000E+03 0.  0.
<mgrwt>
<rscale>  0 0.27993465E+03</rscale>
<asrwt>0</asrwt>
<pdfrwt beam="1">  1        2 0.24089541E+00 0.27993465E+03</pdfrwt>
<pdfrwt beam="2">  1       -2 0.19248553E-02 0.27993465E+03</pdfrwt>
<totfact> 0.10296243E+04</totfact>
</mgrwt>
</event>
<event>
 4    1  0.1710914E-004  0.2723625E+03  0.7818608E-02  0.1099935E+00
         -2   -1    0    0    0  501 -0.00000000000E+00  0.00000000000E+00  0.79659699405E+02  0.79659699405E+02  0.00000000000E+00 0. -1.
          2   -1    0    0  501    0  0.00000000000E+00 -0.00000000000E+00 -0.23280701373E+03  0.23280701373E+03  0.00000000000E+00 0. -1.
         25    1    1    2    0    0  0.52372891359E+02  0.37319368244E+02 -0.73003946092E+02  0.15448375688E+03  0.12000000000E+03 0.  0.
         25    1    1    2    0    0 -0.52372891359E+02 -0.37319368244E+02 -0.80143368237E+02  0.15798295626E+03  0.12000000000E+03 0.  0.
<mgrwt>
<rscale>  0 0.27236253E+03</rscale>
<asrwt>0</asrwt>
<pdfrwt beam="1">  1        2 0.35816464E-01 0.27236253E+03</pdfrwt>
<pdfrwt beam="2">  1       -2 0.12255338E-01 0.27236253E+03</pdfrwt>
<totfact> 0.68320403E+03</totfact>
</mgrwt>
</event>
<event>
 4    1  0.1710914E-004  0.2989108E+03  0.7818608E-02  0.1085786E+00
         -2   -1    0    0    0  501 -0.00000000000E+00  0.00000000000E+00  0.62445038586E+02  0.62445038586E+02  0.00000000000E+00 0.  1.
          2   -1    0    0  501    0  0.00000000000E+00 -0.00000000000E+00 -0.35770529364E+03  0.35770529364E+03  0.00000000000E+00 0.  1.
         25    1    1    2    0    0  0.51628296899E+02  0.66810094225E+02 -0.18758122664E+03  0.23815076385E+03  0.12000000000E+03 0.  0.
         25    1    1    2    0    0 -0.51628296899E+02 -0.66810094225E+02 -0.10767902841E+03  0.18199956838E+03  0.12000000000E+03 0.  0.
<mgrwt>
<rscale>  0 0.29891083E+03</rscale>
<asrwt>0</asrwt>
<pdfrwt beam="1">  1        2 0.55031585E-01 0.29891083E+03</pdfrwt>
<pdfrwt beam="2">  1       -2 0.96069288E-02 0.29891083E+03</pdfrwt>
<totfact> 0.63680423E+03</totfact>
</mgrwt>
</event>
<event>
 4    1  0.1710914E-004  0.2777316E+03  0.7818608E-02  0.1096934E+00
         -1   -1    0    0    0  501 -0.00000000000E+00  0.00000000000E+00  0.11961689827E+02  0.11961689827E+02  0.00000000000E+00 0.  1.
          1   -1    0    0  501    0  0.00000000000E+00 -0.00000000000E+00 -0.16121231579E+04  0.16121231579E+04  0.00000000000E+00 0.  1.
         25    1    1    2    0    0  0.31784490019E+02  0.16852320130E+02 -0.11504274600E+04  0.11572284110E+04  0.12000000000E+03 0.  0.
         25    1    1    2    0    0 -0.31784490019E+02 -0.16852320130E+02 -0.44973400811E+03  0.46685643676E+03  0.12000000000E+03 0.  0.
<mgrwt>
<rscale>  0 0.27773165E+03</rscale>
<asrwt>0</asrwt>
<pdfrwt beam="1">  1        1 0.24801882E+00 0.27773165E+03</pdfrwt>
<pdfrwt beam="2">  1       -1 0.18402609E-02 0.27773165E+03</pdfrwt>
<totfact> 0.46749037E+03</totfact>
</mgrwt>
</event>
<event>
 4    1  0.1710914E-004  0.2862075E+03  0.7818608E-02  0.1092346E+00
          2   -1    0    0  501    0  0.00000000000E+00  0.00000000000E+00  0.14230963124E+03  0.14230963124E+03  0.00000000000E+00 0.  1.
         -2   -1    0    0    0  501 -0.00000000000E+00 -0.00000000000E+00 -0.14390225567E+03  0.14390225567E+03  0.00000000000E+00 0.  1.
         25    1    1    2    0    0  0.68334941128E+02  0.14701727816E+02 -0.35334825441E+02  0.14329813282E+03  0.12000000000E+03 0.  0.
         25    1    1    2    0    0 -0.68334941128E+02 -0.14701727816E+02  0.33742201010E+02  0.14291375409E+03  0.12000000000E+03 0.  0.
<mgrwt>
<rscale>  0 0.28620746E+03</rscale>
<asrwt>0</asrwt>
<pdfrwt beam="1">  1        2 0.21893789E-01 0.28620746E+03</pdfrwt>
<pdfrwt beam="2">  1       -2 0.22138809E-01 0.28620746E+03</pdfrwt>
<totfact> 0.43883831E+03</totfact>
</mgrwt>
</event>
<event>
 4    1  0.1710914E-004  0.4104995E+03  0.7818608E-02  0.1040204E+00
          2   -1    0    0  501    0  0.00000000000E+00  0.00000000000E+00  0.12231747987E+04  0.12231747987E+04  0.00000000000E+00 0. -1.
         -2   -1    0    0    0  501 -0.00000000000E+00 -0.00000000000E+00 -0.34441082859E+02  0.34441082859E+02  0.00000000000E+00 0. -1.
         25    1    1    2    0    0  0.11128540446E+03  0.11863892317E+03  0.70345203496E+03  0.73191830202E+03  0.12000000000E+03 0.  0.
         25    1    1    2    0    0 -0.11128540446E+03 -0.11863892317E+03  0.48528168083E+03  0.52569757949E+03  0.12000000000E+03 0.  0.
<mgrwt>
<rscale>  0 0.41049952E+03</rscale>
<asrwt>0</asrwt>
<pdfrwt beam="1">  1        2 0.18818071E+00 0.41049952E+03</pdfrwt>
<pdfrwt beam="2">  1       -2 0.52986291E-02 0.41049952E+03</pdfrwt>
<totfact> 0.34823375E+03</totfact>
</mgrwt>
</event>
<event>
 4    1  0.1710914E-004  0.2693550E+03  0.7818608E-02  0.1101649E+00
          1   -1    0    0  501    0  0.00000000000E+00  0.00000000000E+00  0.50305053614E+02  0.50305053614E+02  0.00000000000E+00 0. -1.
         -1   -1    0    0    0  501 -0.00000000000E+00 -0.00000000000E+00 -0.36056085527E+03  0.36056085527E+03  0.00000000000E+00 0. -1.
         25    1    1    2    0    0  0.30531578279E+02 -0.48185543270E+02 -0.18868634908E+03  0.23077383340E+03  0.12000000000E+03 0.  0.
         25    1    1    2    0    0 -0.30531578279E+02  0.48185543270E+02 -0.12156945258E+03  0.18009207548E+03  0.12000000000E+03 0.  0.
<mgrwt>
<rscale>  0 0.26935503E+03</rscale>
<asrwt>0</asrwt>
<pdfrwt beam="1">  1        1 0.77392388E-02 0.26935503E+03</pdfrwt>
<pdfrwt beam="2">  1       -1 0.55470903E-01 0.26935503E+03</pdfrwt>
<totfact> 0.30612112E+03</totfact>
</mgrwt>
</event>
<event>
 4    1  0.1710914E-004  0.2984620E+03  0.7818608E-02  0.1086012E+00
          2   -1    0    0  501    0  0.00000000000E+00  0.00000000000E+00  0.12821689295E+03  0.12821689295E+03  0.00000000000E+00 0.  1.
         -2   -1    0    0    0  501 -0.00000000000E+00 -0.00000000000E+00 -0.17368918351E+03  0.17368918351E+03  0.00000000000E+00 0.  1.
         25    1    1    2    0    0 -0.17962280816E+02 -0.86760853395E+02 -0.18235279189E+02  0.15027512975E+03  0.12000000000E+03 0.  0.
         25    1    1    2    0    0  0.17962280816E+02  0.86760853395E+02 -0.27237011374E+02  0.15163094672E+03  0.12000000000E+03 0.  0.
<mgrwt>
<rscale>  0 0.29846197E+03</rscale>
<asrwt>0</asrwt>
<pdfrwt beam="1">  1        2 0.19725676E-01 0.29846197E+03</pdfrwt>
<pdfrwt beam="2">  1       -2 0.26721413E-01 0.29846197E+03</pdfrwt>
<totfact> 0.35541156E+03</totfact>
</mgrwt>
</event>
<event>
 4    1  0.1710914E-004  0.4286779E+03  0.7818608E-02  0.1034278E+00
         -2   -1    0    0    0  501 -0.00000000000E+00  0.00000000000E+00  0.48091467080E+02  0.48091467080E+02  0.00000000000E+00 0.  1.
          2   -1    0    0  501    0  0.00000000000E+00 -0.00000000000E+00 -0.95528746911E+03  0.95528746911E+03  0.00000000000E+00 0.  1.
         25    1    1    2    0    0  0.68952550568E+02 -0.82448033068E+02 -0.12267272710E+03  0.20248637080E+03  0.12000000000E+03 0.  0.
         25    1    1    2    0    0 -0.68952550568E+02  0.82448033068E+02 -0.78452327493E+03  0.80089256538E+03  0.12000000000E+03 0.  0.
<mgrwt>
<rscale>  0 0.42867786E+03</rscale>
<asrwt>0</asrwt>
<pdfrwt beam="1">  1        2 0.14696731E+00 0.42867786E+03</pdfrwt>
<pdfrwt beam="2">  1       -2 0.73986871E-02 0.42867786E+03</pdfrwt>
<totfact> 0.30035839E+03</totfact>
</mgrwt>
</event>
<event>
 4    1  0.1710914E-004  0.2495249E+03  0.7818608E-02  0.1113605E+00
          2   -1    0    0  501    0  0.00000000000E+00  0.00000000000E+00  0.28628805772E+04  0.28628805772E+04  0.00000000000E+00 0. -1.
         -2   -1    0    0    0  501 -0.00000000000E+00 -0.00000000000E+00 -0.54370665264E+01  0.54370665264E+01  0.00000000000E+00 0. -1.
         25    1    1    2    0    0 -0.13534784607E+02 -0.29539832689E+02  0.15492177815E+04  0.15541980333E+04  0.12000000000E+03 0.  0.
         25    1    1    2    0    0  0.13534784607E+02  0.29539832689E+02  0.13082257292E+04  0.13141196104E+04  0.12000000000E+03 0.  0.
<mgrwt>
<rscale>  0 0.24952493E+03</rscale>
<asrwt>0</asrwt>
<pdfrwt beam="1">  1        2 0.44044196E+00 0.24952493E+03</pdfrwt>
<pdfrwt beam="2">  1       -2 0.83647406E-03 0.24952493E+03</pdfrwt>
<totfact> 0.69304783E+03</totfact>
</mgrwt>
</event>
<event>
 4    1  0.1710914E-004  0.2694412E+03  0.7818608E-02  0.1101600E+00
          1   -1    0    0  501    0  0.00000000000E+00  0.00000000000E+00  0.57579889406E+03  0.57579889406E+03  0.00000000000E+00 0. -1.
         -1   -1    0    0    0  501 -0.00000000000E+00 -0.00000000000E+00 -0.31520807409E+02  0.31520807409E+02  0.00000000000E+00 0. -1.
         25    1    1    2    0    0  0.18781525549E+01  0.12817326595E+02  0.13724087097E+03  0.18276451511E+03  0.12000000000E+03 0.  0.
         25    1    1    2    0    0 -0.18781525549E+01 -0.12817326595E+02  0.40703721568E+03  0.42455518636E+03  0.12000000000E+03 0.  0.
<mgrwt>
<rscale>  0 0.26944124E+03</rscale>
<asrwt>0</asrwt>
<pdfrwt beam="1">  1        1 0.88584437E-01 0.26944124E+03</pdfrwt>
<pdfrwt beam="2">  1       -1 0.48493554E-02 0.26944124E+03</pdfrwt>
<totfact> 0.68312370E+03</totfact>
</mgrwt>
</event>
<event>
 4    1  0.1710914E-004  0.2907412E+03  0.7818608E-02  0.1089963E+00
         -2   -1    0    0    0  501 -0.00000000000E+00  0.00000000000E+00  0.21871791594E+02  0.21871791594E+02  0.00000000000E+00 0.  1.
          2   -1    0    0  501    0  0.00000000000E+00 -0.00000000000E+00 -0.96620371297E+03  0.96620371297E+03  0.00000000000E+00 0.  1.
         25    1    1    2    0    0  0.14963819202E+02  0.77630139120E+02 -0.39753473684E+03  0.42271056455E+03  0.12000000000E+03 0.  0.
         25    1    1    2    0    0 -0.14963819202E+02 -0.77630139120E+02 -0.54679718454E+03  0.56536494002E+03  0.12000000000E+03 0.  0.
<mgrwt>
<rscale>  0 0.29074116E+03</rscale>
<asrwt>0</asrwt>
<pdfrwt beam="1">  1        2 0.14864669E+00 0.29074116E+03</pdfrwt>
<pdfrwt beam="2">  1       -2 0.33648918E-02 0.29074116E+03</pdfrwt>
<totfact> 0.98252049E+03</totfact>
</mgrwt>
</event>
<event>
 4    1  0.1710914E-004  0.2520753E+03  0.7818608E-02  0.1112000E+00
          1   -1    0    0  501    0  0.00000000000E+00  0.00000000000E+00  0.33814552951E+03  0.33814552951E+03  0.00000000000E+00 0.  1.
         -1   -1    0    0    0  501 -0.00000000000E+00 -0.00000000000E+00 -0.46978267891E+02  0.46978267891E+02  0.00000000000E+00 0.  1.
         25    1    1    2    0    0 -0.27588399581E+02  0.11949685353E+02  0.18242819799E+03  0.22041769937E+03  0.12000000000E+03 0.  0.
         25    1    1    2    0    0  0.27588399581E+02 -0.11949685353E+02  0.10873906363E+03  0.16470609804E+03  0.12000000000E+03 0.  0.
<mgrwt>
<rscale>  0 0.25207532E+03</rscale>
<asrwt>0</asrwt>
<pdfrwt beam="1">  1        1 0.52022388E-01 0.25207532E+03</pdfrwt>
<pdfrwt beam="2">  1       -1 0.72274260E-02 0.25207532E+03</pdfrwt>
<totfact> 0.74809839E+03</totfact>
</mgrwt>
</event>
<event>
 4    1  0.1710914E-004  0.2566582E+03  0.7818608E-02  0.1109168E+00
         -2   -1    0    0    0  501 -0.00000000000E+00  0.00000000000E+00  0.31380438682E+03  0.31380438682E+03  0.00000000000E+00 0. -1.
          2   -1    0    0  501    0  0.00000000000E+00 -0.00000000000E+00 -0.52479677877E+02  0.52479677877E+02  0.00000000000E+00 0. -1.
         25    1    1    2    0    0  0.42503134081E+02  0.60001644782E+01  0.15210894867E+03  0.19844306651E+03  0.12000000000E+03 0.  0.
         25    1    1    2    0    0 -0.42503134081E+02 -0.60001644782E+01  0.10921576028E+03  0.16784099819E+03  0.12000000000E+03 0.  0.
<mgrwt>
<rscale>  0 0.25665816E+03</rscale>
<asrwt>0</asrwt>
<pdfrwt beam="1">  1        2 0.80737968E-02 0.25665816E+03</pdfrwt>
<pdfrwt beam="2">  1       -2 0.48277597E-01 0.25665816E+03</pdfrwt>
<totfact> 0.34367381E+03</totfact>
</mgrwt>
</event>
<event>
 4    1  0.1710914E-004  0.2991526E+03  0.7818608E-02  0.1085665E+00
         -1   -1    0    0    0  501 -0.00000000000E+00  0.00000000000E+00  0.62283710550E+03  0.62283710550E+03  0.00000000000E+00 0.  1.
          1   -1    0    0  501    0  0.00000000000E+00 -0.00000000000E+00 -0.35921219957E+02  0.35921219957E+02  0.00000000000E+00 0.  1.
         25    1    1    2    0    0  0.36833361655E+02  0.64577051269E+02  0.18454556350E+03  0.23234447936E+03  0.12000000000E+03 0.  0.
         25    1    1    2    0    0 -0.36833361655E+02 -0.64577051269E+02  0.40237032205E+03  0.42641384610E+03  0.12000000000E+03 0.  0.
<mgrwt>
<rscale>  0 0.29915259E+03</rscale>
<asrwt>0</asrwt>
<pdfrwt beam="1">  1        1 0.55263420E-02 0.29915259E+03</pdfrwt>
<pdfrwt beam="2">  1       -1 0.95821085E-01 0.29915259E+03</pdfrwt>
<totfact> 0.16066708E+03</totfact>
</mgrwt>
</event>
<event>
 4    1  0.1710914E-004  0.4322263E+03  0.7818608E-02  0.1033159E+00
          2   -1    0    0  501    0  0.00000000000E+00  0.00000000000E+00  0.17471008969E+04  0.17471008969E+04  0.00000000000E+00 0. -1.
         -2   -1    0    0    0  501 -0.00000000000E+00 -0.00000000000E+00 -0.26732791501E+02  0.26732791501E+02  0.00000000000E+00 0. -1.
         25    1    1    2    0    0  0.33468304724E+02 -0.99807716448E+02  0.14580543051E+04  0.14667665337E+04  0.12000000000E+03 0.  0.
         25    1    1    2    0    0 -0.33468304724E+02  0.99807716448E+02  0.26231380029E+03  0.30706715471E+03  0.12000000000E+03 0.  0.
<mgrwt>
<rscale>  0 0.43222626E+03</rscale>
<asrwt>0</asrwt>
<pdfrwt beam="1">  1        2 0.26878466E+00 0.43222626E+03</pdfrwt>
<pdfrwt beam="2">  1       -2 0.41127385E-02 0.43222626E+03</pdfrwt>
<totfact> 0.26474436E+03</totfact>
</mgrwt>
</event>
<event>
 4    1  0.1710914E-004  0.2734163E+03  0.7818608E-02  0.1099340E+00
         -2   -1    0    0    0  501 -0.00000000000E+00  0.00000000000E+00  0.18892950868E+02  0.18892950868E+02  0.00000000000E+00 0.  1.
          2   -1    0    0  501    0  0.00000000000E+00 -0.00000000000E+00 -0.98921140764E+03  0.98921140764E+03  0.00000000000E+00 0.  1.
         25    1    1    2    0    0  0.49028541374E+02  0.34121647311E+02 -0.58416489886E+03  0.59934690601E+03  0.12000000000E+03 0.  0.
         25    1    1    2    0    0 -0.49028541374E+02 -0.34121647311E+02 -0.38615355791E+03  0.40875745250E+03  0.12000000000E+03 0.  0.
<mgrwt>
<rscale>  0 0.27341633E+03</rscale>
<asrwt>0</asrwt>
<pdfrwt beam="1">  1        2 0.15218641E+00 0.27341633E+03</pdfrwt>
<pdfrwt beam="2">  1       -2 0.29066072E-02 0.27341633E+03</pdfrwt>
<totfact> 0.11806732E+04</totfact>
</mgrwt>
</event>
<event>
 4    1  0.1710914E-004  0.3785022E+03  0.7818608E-02  0.1051489E+00
          4   -1    0    0  501    0  0.00000000000E+00  0.00000000000E+00  0.22087467630E+03  0.22087467630E+03  0.00000000000E+00 0.  1.
         -4   -1    0    0    0  501 -0.00000000000E+00 -0.00000000000E+00 -0.16215521636E+03  0.16215521636E+03  0.00000000000E+00 0.  1.
         25    1    1    2    0    0  0.12726601395E+03 -0.10798794343E+02 -0.42928149561E+02  0.18043302993E+03  0.12000000000E+03 0.  0.
         25    1    1    2    0    0 -0.12726601395E+03  0.10798794343E+02  0.10164760950E+03  0.20259686272E+03  0.12000000000E+03 0.  0.
<mgrwt>
<rscale>  0 0.37850221E+03</rscale>
<asrwt>0</asrwt>
<pdfrwt beam="1">  1        4 0.33980719E-01 0.37850221E+03</pdfrwt>
<pdfrwt beam="2">  1       -4 0.24946956E-01 0.37850221E+03</pdfrwt>
<totfact> 0.24373629E+02</totfact>
</mgrwt>
</event>
<event>
 4    1  0.1710914E-004  0.2847970E+03  0.7818608E-02  0.1093097E+00
          2   -1    0    0  501    0  0.00000000000E+00  0.00000000000E+00  0.57220759493E+03  0.57220759493E+03  0.00000000000E+00 0.  1.
         -2   -1    0    0    0  501 -0.00000000000E+00 -0.00000000000E+00 -0.35437020296E+02  0.35437020296E+02  0.00000000000E+00 0.  1.
         25    1    1    2    0    0 -0.45792521771E+02  0.61296941971E+02  0.27863148735E+03  0.31287341831E+03  0.12000000000E+03 0.  0.
         25    1    1    2    0    0  0.45792521771E+02 -0.61296941971E+02  0.25813908729E+03  0.29477119692E+03  0.12000000000E+03 0.  0.
<mgrwt>
<rscale>  0 0.28479700E+03</rscale>
<asrwt>0</asrwt>
<pdfrwt beam="1">  1        2 0.88031931E-01 0.28479700E+03</pdfrwt>
<pdfrwt beam="2">  1       -2 0.54518497E-02 0.28479700E+03</pdfrwt>
<totfact> 0.91172284E+03</totfact>
</mgrwt>
</event>
<event>
 4    1  0.1710914E-004  0.2735254E+03  0.7818608E-02  0.1099279E+00
          2   -1    0    0  501    0  0.00000000000E+00  0.00000000000E+00  0.80310496364E+03  0.80310496364E+03  0.00000000000E+00 0. -1.
         -2   -1    0    0    0  501 -0.00000000000E+00 -0.00000000000E+00 -0.23289646705E+02  0.23289646705E+02  0.00000000000E+00 0. -1.
         25    1    1    2    0    0 -0.22190142987E+02  0.61647795739E+02  0.37980661612E+03  0.40366560272E+03  0.12000000000E+03 0.  0.
         25    1    1    2    0    0  0.22190142987E+02 -0.61647795739E+02  0.40000870081E+03  0.42272900762E+03  0.12000000000E+03 0.  0.
<mgrwt>
<rscale>  0 0.27352536E+03</rscale>
<asrwt>0</asrwt>
<pdfrwt beam="1">  1        2 0.12355459E+00 0.27352536E+03</pdfrwt>
<pdfrwt beam="2">  1       -2 0.35830232E-02 0.27352536E+03</pdfrwt>
<totfact> 0.11412163E+04</totfact>
</mgrwt>
</event>
<event>
 4    1  0.1710914E-004  0.2974347E+03  0.7818608E-02  0.1086530E+00
          1   -1    0    0  501    0  0.00000000000E+00  0.00000000000E+00  0.24941020413E+03  0.24941020413E+03  0.00000000000E+00 0.  1.
         -1   -1    0    0    0  501 -0.00000000000E+00 -0.00000000000E+00 -0.88676598276E+02  0.88676598276E+02  0.00000000000E+00 0.  1.
         25    1    1    2    0    0 -0.21809249540E+02 -0.85095162859E+02  0.80520863975E+02  0.16911664508E+03  0.12000000000E+03 0.  0.
         25    1    1    2    0    0  0.21809249540E+02  0.85095162859E+02  0.80212741881E+02  0.16897015733E+03  0.12000000000E+03 0.  0.
<mgrwt>
<rscale>  0 0.29743469E+03</rscale>
<asrwt>0</asrwt>
<pdfrwt beam="1">  1        1 0.38370800E-01 0.29743469E+03</pdfrwt>
<pdfrwt beam="2">  1       -1 0.13642554E-01 0.29743469E+03</pdfrwt>
<totfact> 0.41304821E+03</totfact>
</mgrwt>
</event>
<event>
 4    1  0.1710914E-004  0.2432734E+03  0.7818608E-02  0.1117631E+00
         -1   -1    0    0    0  501 -0.00000000000E+00  0.00000000000E+00  0.11575612443E+02  0.11575612443E+02  0.00000000000E+00 0. -1.
          1   -1    0    0  501    0  0.00000000000E+00 -0.00000000000E+00 -0.12781604160E+04  0.12781604160E+04  0.00000000000E+00 0. -1.
         25    1    1    2    0    0  0.11574067511E+02 -0.15194367148E+02 -0.66264894196E+03  0.67369759397E+03  0.12000000000E+03 0.  0.
         25    1    1    2    0    0 -0.11574067511E+02  0.15194367148E+02 -0.60393586158E+03  0.61603843446E+03  0.12000000000E+03 0.  0.
<mgrwt>
<rscale>  0 0.24327342E+03</rscale>
<asrwt>0</asrwt>
<pdfrwt beam="1">  1        1 0.19663994E+00 0.24327342E+03</pdfrwt>
<pdfrwt beam="2">  1       -1 0.17808646E-02 0.24327342E+03</pdfrwt>
<totfact> 0.81777629E+03</totfact>
</mgrwt>
</event>
<event>
 4    1  0.1710914E-004  0.2584336E+03  0.7818608E-02  0.1108088E+00
          2   -1    0    0  501    0  0.00000000000E+00  0.00000000000E+00  0.50876153476E+03  0.50876153476E+03  0.00000000000E+00 0.  1.
         -2   -1    0    0    0  501 -0.00000000000E+00 -0.00000000000E+00 -0.32818886626E+02  0.32818886626E+02  0.00000000000E+00 0.  1.
         25    1    1    2    0    0 -0.34121831879E+02 -0.12768250042E+02  0.30322778763E+03  0.32813780460E+03  0.12000000000E+03 0.  0.
         25    1    1    2    0    0  0.34121831879E+02  0.12768250042E+02  0.17271486051E+03  0.21344261679E+03  0.12000000000E+03 0.  0.
<mgrwt>
<rscale>  0 0.25843364E+03</rscale>
<asrwt>0</asrwt>
<pdfrwt beam="1">  1        2 0.78271000E-01 0.25843364E+03</pdfrwt>
<pdfrwt beam="2">  1       -2 0.50490598E-02 0.25843364E+03</pdfrwt>
<totfact> 0.11664490E+04</totfact>
</mgrwt>
</event>
<event>
 4    1  0.1710914E-004  0.2408605E+03  0.7818608E-02  0.1119221E+00
          1   -1    0    0  501    0  0.00000000000E+00  0.00000000000E+00  0.16906231867E+04  0.16906231867E+04  0.00000000000E+00 0.  1.
         -1   -1    0    0    0  501 -0.00000000000E+00 -0.00000000000E+00 -0.85787589065E+01  0.85787589065E+01  0.00000000000E+00 0.  1.
         25    1    1    2    0    0 -0.96989557744E+01  0.15466658503E+01  0.85966962587E+03  0.86806009445E+03  0.12000000000E+03 0.  0.
         25    1    1    2    0    0  0.96989557744E+01 -0.15466658503E+01  0.82237480188E+03  0.83114185112E+03  0.12000000000E+03 0.  0.
<mgrwt>
<rscale>  0 0.24086053E+03</rscale>
<asrwt>0</asrwt>
<pdfrwt beam="1">  1        1 0.26009561E+00 0.24086053E+03</pdfrwt>
<pdfrwt beam="2">  1       -1 0.13198104E-02 0.24086053E+03</pdfrwt>
<totfact> 0.67263147E+03</totfact>
</mgrwt>
</event>
<event>
 4    1  0.1710914E-004  0.2587605E+03  0.7818608E-02  0.1107890E+00
          3   -1    0    0  501    0  0.00000000000E+00  0.00000000000E+00  0.88526988238E+02  0.88526988238E+02  0.00000000000E+00 0. -1.
         -3   -1    0    0    0  501 -0.00000000000E+00 -0.00000000000E+00 -0.18908632248E+03  0.18908632248E+03  0.00000000000E+00 0. -1.
         25    1    1    2    0    0  0.17458481993E+02 -0.42460598766E+02 -0.66604806848E+02  0.14472007924E+03  0.12000000000E+03 0.  0.
         25    1    1    2    0    0 -0.17458481993E+02  0.42460598766E+02 -0.33954527393E+02  0.13289323147E+03  0.12000000000E+03 0.  0.
<mgrwt>
<rscale>  0 0.25876045E+03</rscale>
<asrwt>0</asrwt>
<pdfrwt beam="1">  1        3 0.13619537E-01 0.25876045E+03</pdfrwt>
<pdfrwt beam="2">  1       -3 0.29090203E-01 0.25876045E+03</pdfrwt>
<totfact> 0.12586180E+03</totfact>
</mgrwt>
</event>
<event>
 4    1  0.1710914E-004  0.2413881E+03  0.7818608E-02  0.1118872E+00
         -2   -1    0    0    0  501 -0.00000000000E+00  0.00000000000E+00  0.19792490216E+03  0.19792490216E+03  0.00000000000E+00 0. -1.
          2   -1    0    0  501    0  0.00000000000E+00 -0.00000000000E+00 -0.73598870150E+02  0.73598870150E+02  0.00000000000E+00 0. -1.
         25    1    1    2    0    0 -0.82281353115E+00  0.85493527323E+01  0.73026972382E+02  0.14073630360E+03  0.12000000000E+03 0.  0.
         25    1    1    2    0    0  0.82281353115E+00 -0.85493527323E+01  0.51299059629E+02  0.13078746872E+03  0.12000000000E+03 0.  0.
<mgrwt>
<rscale>  0 0.24138806E+03</rscale>
<asrwt>0</asrwt>
<pdfrwt beam="1">  1        2 0.11322903E-01 0.24138806E+03</pdfrwt>
<pdfrwt beam="2">  1       -2 0.30449985E-01 0.24138806E+03</pdfrwt>
<totfact> 0.53860309E+03</totfact>
</mgrwt>
</event>
<event>
 4    1  0.1710914E-004  0.2657437E+03  0.7818608E-02  0.1103741E+00
          1   -1    0    0  501    0  0.00000000000E+00  0.00000000000E+00  0.94571669402E+02  0.94571669402E+02  0.00000000000E+00 0. -1.
         -1   -1    0    0    0  501 -0.00000000000E+00 -0.00000000000E+00 -0.18668302948E+03  0.18668302948E+03  0.00000000000E+00 0. -1.
         25    1    1    2    0    0  0.24383038882E+02  0.25421370945E+02 -0.93554457524E+02  0.15618327442E+03  0.12000000000E+03 0.  0.
         25    1    1    2    0    0 -0.24383038882E+02 -0.25421370945E+02  0.14430974505E+01  0.12507142446E+03  0.12000000000E+03 0.  0.
<mgrwt>
<rscale>  0 0.26574368E+03</rscale>
<asrwt>0</asrwt>
<pdfrwt beam="1">  1        1 0.14549488E-01 0.26574368E+03</pdfrwt>
<pdfrwt beam="2">  1       -1 0.28720466E-01 0.26574368E+03</pdfrwt>
<totfact> 0.42396263E+03</totfact>
</mgrwt>
</event>
<event>
 4    1  0.1710914E-004  0.2562769E+03  0.7818608E-02  0.1109401E+00
          2   -1    0    0  501    0  0.00000000000E+00  0.00000000000E+00  0.77215316607E+03  0.77215316607E+03  0.00000000000E+00 0. -1.
         -2   -1    0    0    0  501 -0.00000000000E+00 -0.00000000000E+00 -0.21264509884E+02  0.21264509884E+02  0.00000000000E+00 0. -1.
         25    1    1    2    0    0 -0.23680054827E+02  0.21769394928E+02  0.27828868294E+03  0.30476095978E+03  0.12000000000E+03 0.  0.
         25    1    1    2    0    0  0.23680054827E+02 -0.21769394928E+02  0.47259997325E+03  0.48865671618E+03  0.12000000000E+03 0.  0.
<mgrwt>
<rscale>  0 0.25627687E+03</rscale>
<asrwt>0</asrwt>
<pdfrwt beam="1">  1        2 0.11879277E+00 0.25627687E+03</pdfrwt>
<pdfrwt beam="2">  1       -2 0.32714637E-02 0.25627687E+03</pdfrwt>
<totfact> 0.13704725E+04</totfact>
</mgrwt>
</event>
<event>
 4    1  0.1710914E-004  0.3058530E+03  0.7818608E-02  0.1082351E+00
         -2   -1    0    0    0  501 -0.00000000000E+00  0.00000000000E+00  0.86602050108E+02  0.86602050108E+02  0.00000000000E+00 0. -1.
          2   -1    0    0  501    0  0.00000000000E+00 -0.00000000000E+00 -0.27004578510E+03  0.27004578510E+03  0.00000000000E+00 0. -1.
         25    1    1    2    0    0  0.79697574626E+02  0.48085048185E+02 -0.70776491088E+02  0.16755055043E+03  0.12000000000E+03 0.  0.
         25    1    1    2    0    0 -0.79697574626E+02 -0.48085048185E+02 -0.11266724391E+03  0.18909728478E+03  0.12000000000E+03 0.  0.
<mgrwt>
<rscale>  0 0.30585303E+03</rscale>
<asrwt>0</asrwt>
<pdfrwt beam="1">  1        2 0.41545505E-01 0.30585303E+03</pdfrwt>
<pdfrwt beam="2">  1       -2 0.13323393E-01 0.30585303E+03</pdfrwt>
<totfact> 0.50983521E+03</totfact>
</mgrwt>
</event>
<event>
 4    1  0.1710914E-004  0.2792816E+03  0.7818608E-02  0.1096082E+00
          1   -1    0    0  501    0  0.00000000000E+00  0.00000000000E+00  0.33340788255E+04  0.33340788255E+04  0.00000000000E+00 0.  1.
         -1   -1    0    0    0  501 -0.00000000000E+00 -0.00000000000E+00 -0.58485580003E+01  0.58485580003E+01  0.00000000000E+00 0.  1.
         25    1    1    2    0    0 -0.67629820904E+02  0.18906478618E+01  0.19373948364E+04  0.19422863124E+04  0.12000000000E+03 0.  0.
         25    1    1    2    0    0  0.67629820904E+02 -0.18906478618E+01  0.13908354310E+04  0.13976410710E+04  0.12000000000E+03 0.  0.
<mgrwt>
<rscale>  0 0.27928160E+03</rscale>
<asrwt>0</asrwt>
<pdfrwt beam="1">  1        1 0.51293369E+00 0.27928160E+03</pdfrwt>
<pdfrwt beam="2">  1       -1 0.89978082E-03 0.27928160E+03</pdfrwt>
<totfact> 0.91338535E+02</totfact>
</mgrwt>
</event>
<event>
 4    1  0.1710914E-004  0.2569442E+03  0.7818608E-02  0.1108993E+00
         -1   -1    0    0    0  501 -0.00000000000E+00  0.00000000000E+00  0.12474928049E+02  0.12474928049E+02  0.00000000000E+00 0. -1.
          1   -1    0    0  501    0  0.00000000000E+00 -0.00000000000E+00 -0.13230599245E+04  0.13230599245E+04  0.00000000000E+00 0. -1.
         25    1    1    2    0    0  0.23578319623E+02  0.33631458594E+02 -0.54901570130E+03  0.56347604425E+03  0.12000000000E+03 0.  0.
         25    1    1    2    0    0 -0.23578319623E+02 -0.33631458594E+02 -0.76156929515E+03  0.77205880830E+03  0.12000000000E+03 0.  0.
<mgrwt>
<rscale>  0 0.25694418E+03</rscale>
<asrwt>0</asrwt>
<pdfrwt beam="1">  1        1 0.20354760E+00 0.25694418E+03</pdfrwt>
<pdfrwt beam="2">  1       -1 0.19192204E-02 0.25694418E+03</pdfrwt>
<totfact> 0.68424951E+03</totfact>
</mgrwt>
</event>
<event>
 4    1  0.1710914E-004  0.3139059E+03  0.7818608E-02  0.1078489E+00
         -1   -1    0    0    0  501 -0.00000000000E+00  0.00000000000E+00  0.11772860471E+03  0.11772860471E+03  0.00000000000E+00 0. -1.
          1   -1    0    0  501    0  0.00000000000E+00 -0.00000000000E+00 -0.20924589932E+03  0.20924589932E+03  0.00000000000E+00 0. -1.
         25    1    1    2    0    0 -0.75910885698E+02  0.37422469060E+01 -0.11530475001E+03  0.18295259592E+03  0.12000000000E+03 0.  0.
         25    1    1    2    0    0  0.75910885698E+02 -0.37422469060E+01  0.23787455398E+02  0.14402190810E+03  0.12000000000E+03 0.  0.
<mgrwt>
<rscale>  0 0.31390590E+03</rscale>
<asrwt>0</asrwt>
<pdfrwt beam="1">  1        1 0.32191677E-01 0.31390590E+03</pdfrwt>
<pdfrwt beam="2">  1       -1 0.18112093E-01 0.31390590E+03</pdfrwt>
<totfact> 0.32820345E+03</totfact>
</mgrwt>
</event>
<event>
 4    1  0.1710914E-004  0.2792386E+03  0.7818608E-02  0.1096106E+00
          2   -1    0    0  501    0  0.00000000000E+00  0.00000000000E+00  0.27640858799E+04  0.27640858799E+04  0.00000000000E+00 0. -1.
         -2   -1    0    0    0  501 -0.00000000000E+00 -0.00000000000E+00 -0.70524392960E+01  0.70524392960E+01  0.00000000000E+00 0. -1.
         25    1    1    2    0    0 -0.14918672604E+02  0.49364150913E+02  0.88889860813E+03  0.89844316555E+03  0.12000000000E+03 0.  0.
         25    1    1    2    0    0  0.14918672604E+02 -0.49364150913E+02  0.18681348325E+04  0.18726951537E+04  0.12000000000E+03 0.  0.
<mgrwt>
<rscale>  0 0.27923859E+03</rscale>
<asrwt>0</asrwt>
<pdfrwt beam="1">  1        2 0.42524312E+00 0.27923859E+03</pdfrwt>
<pdfrwt beam="2">  1       -2 0.10849929E-02 0.27923859E+03</pdfrwt>
<totfact> 0.54072246E+03</totfact>
</mgrwt>
</event>
<event>
 4    1  0.1710914E-004  0.3245563E+03  0.7818608E-02  0.1073571E+00
         -4   -1    0    0    0  501 -0.00000000000E+00  0.00000000000E+00  0.32009682312E+02  0.32009682312E+02  0.00000000000E+00 0. -1.
          4   -1    0    0  501    0  0.00000000000E+00 -0.00000000000E+00 -0.82269500742E+03  0.82269500742E+03  0.00000000000E+00 0. -1.
         25    1    1    2    0    0  0.20546828342E+02 -0.43789598821E+02 -0.13739163718E+03  0.18872244988E+03  0.12000000000E+03 0.  0.
         25    1    1    2    0    0 -0.20546828342E+02  0.43789598821E+02 -0.65329368792E+03  0.66598223985E+03  0.12000000000E+03 0.  0.
<mgrwt>
<rscale>  0 0.32455635E+03</rscale>
<asrwt>0</asrwt>
<pdfrwt beam="1">  1        4 0.12656847E+00 0.32455635E+03</pdfrwt>
<pdfrwt beam="2">  1       -4 0.49245663E-02 0.32455635E+03</pdfrwt>
<totfact> 0.22600358E+02</totfact>
</mgrwt>
</event>
<event>
 4    1  0.1710914E-004  0.3663772E+03  0.7818608E-02  0.1056087E+00
          2   -1    0    0  501    0  0.00000000000E+00  0.00000000000E+00  0.56364483708E+03  0.56364483708E+03  0.00000000000E+00 0.  1.
         -2   -1    0    0    0  501 -0.00000000000E+00 -0.00000000000E+00 -0.59537618354E+02  0.59537618354E+02  0.00000000000E+00 0.  1.
         25    1    1    2    0    0 -0.22790437029E+02 -0.10376782693E+03  0.10115019383E+03  0.18952183947E+03  0.12000000000E+03 0.  0.
         25    1    1    2    0    0  0.22790437029E+02  0.10376782693E+03  0.40295702489E+03  0.43366061596E+03  0.12000000000E+03 0.  0.
<mgrwt>
<rscale>  0 0.36637724E+03</rscale>
<asrwt>0</asrwt>
<pdfrwt beam="1">  1        2 0.86714587E-01 0.36637724E+03</pdfrwt>
<pdfrwt beam="2">  1       -2 0.91596340E-02 0.36637724E+03</pdfrwt>
<totfact> 0.41626464E+03</totfact>
</mgrwt>
</event>
<event>
 4    1  0.1710914E-004  0.4687532E+03  0.7818608E-02  0.1022273E+00
         -1   -1    0    0    0  501 -0.00000000000E+00  0.00000000000E+00  0.83902892593E+02  0.83902892593E+02  0.00000000000E+00 0. -1.
          1   -1    0    0  501    0  0.00000000000E+00 -0.00000000000E+00 -0.65471378576E+03  0.65471378576E+03  0.00000000000E+00 0. -1.
         25    1    1    2    0    0 -0.16955926088E+03 -0.27858333580E+02 -0.45071147326E+03  0.49705861005E+03  0.12000000000E+03 0.  0.
         25    1    1    2    0    0  0.16955926088E+03  0.27858333580E+02 -0.12009941990E+03  0.24155806830E+03  0.12000000000E+03 0.  0.
<mgrwt>
<rscale>  0 0.46875316E+03</rscale>
<asrwt>0</asrwt>
<pdfrwt beam="1">  1        1 0.10072519E+00 0.46875316E+03</pdfrwt>
<pdfrwt beam="2">  1       -1 0.12908138E-01 0.46875316E+03</pdfrwt>
<totfact> 0.12698638E+03</totfact>
</mgrwt>
</event>
<event>
 4    1  0.1710914E-004  0.2416080E+03  0.7818608E-02  0.1118726E+00
         -1   -1    0    0    0  501 -0.00000000000E+00  0.00000000000E+00  0.32450700138E+02  0.32450700138E+02  0.00000000000E+00 0. -1.
          1   -1    0    0  501    0  0.00000000000E+00 -0.00000000000E+00 -0.44971614596E+03  0.44971614596E+03  0.00000000000E+00 0. -1.
         25    1    1    2    0    0 -0.11242018687E+02 -0.63898811576E+01 -0.19838074417E+03  0.23221139770E+03  0.12000000000E+03 0.  0.
         25    1    1    2    0    0  0.11242018687E+02  0.63898811576E+01 -0.21888470165E+03  0.24995544840E+03  0.12000000000E+03 0.  0.
<mgrwt>
<rscale>  0 0.24160798E+03</rscale>
<asrwt>0</asrwt>
<pdfrwt beam="1">  1        1 0.69187101E-01 0.24160798E+03</pdfrwt>
<pdfrwt beam="2">  1       -1 0.49924153E-02 0.24160798E+03</pdfrwt>
<totfact> 0.90549574E+03</totfact>
</mgrwt>
</event>
<event>
 4    1  0.1710914E-004  0.2456382E+03  0.7818608E-02  0.1116093E+00
         -2   -1    0    0    0  501 -0.00000000000E+00  0.00000000000E+00  0.17177961491E+02  0.17177961491E+02  0.00000000000E+00 0. -1.
          2   -1    0    0  501    0  0.00000000000E+00 -0.00000000000E+00 -0.87813270310E+03  0.87813270310E+03  0.00000000000E+00 0. -1.
         25    1    1    2    0    0 -0.18014482180E+02  0.11260579842E+02 -0.37481660721E+03  0.39413044956E+03  0.12000000000E+03 0.  0.
         25    1    1    2    0    0  0.18014482180E+02 -0.11260579842E+02 -0.48613813440E+03  0.50118021503E+03  0.12000000000E+03 0.  0.
<mgrwt>
<rscale>  0 0.24563819E+03</rscale>
<asrwt>0</asrwt>
<pdfrwt beam="1">  1        2 0.13509740E+00 0.24563819E+03</pdfrwt>
<pdfrwt beam="2">  1       -2 0.26427621E-02 0.24563819E+03</pdfrwt>
<totfact> 0.15919354E+04</totfact>
</mgrwt>
</event>
<event>
 4    1  0.1710914E-004  0.3295854E+03  0.7818608E-02  0.1071320E+00
         -1   -1    0    0    0  501 -0.00000000000E+00  0.00000000000E+00  0.31949848003E+03  0.31949848003E+03  0.00000000000E+00 0. -1.
          1   -1    0    0  501    0  0.00000000000E+00 -0.00000000000E+00 -0.84997703040E+02  0.84997703040E+02  0.00000000000E+00 0. -1.
         25    1    1    2    0    0 -0.20289170239E+02 -0.65867380018E+02  0.74340123304E+01  0.13858364521E+03  0.12000000000E+03 0.  0.
         25    1    1    2    0    0  0.20289170239E+02  0.65867380018E+02  0.22706676466E+03  0.26591253786E+03  0.12000000000E+03 0.  0.
<mgrwt>
<rscale>  0 0.32958542E+03</rscale>
<asrwt>0</asrwt>
<pdfrwt beam="1">  1        1 0.13076570E-01 0.32958542E+03</pdfrwt>
<pdfrwt beam="2">  1       -1 0.49153612E-01 0.32958542E+03</pdfrwt>
<totfact> 0.19011882E+03</totfact>
</mgrwt>
</event>
<event>
 4    1  0.1710914E-004  0.2746258E+03  0.7818608E-02  0.1098661E+00
          2   -1    0    0  501    0  0.00000000000E+00  0.00000000000E+00  0.11478734524E+03  0.11478734524E+03  0.00000000000E+00 0.  1.
         -2   -1    0    0    0  501 -0.00000000000E+00 -0.00000000000E+00 -0.16425874845E+03  0.16425874845E+03  0.00000000000E+00 0.  1.
         25    1    1    2    0    0  0.46736507153E+02 -0.44070445112E+02 -0.43146967389E+02  0.14278713537E+03  0.12000000000E+03 0.  0.
         25    1    1    2    0    0 -0.46736507153E+02  0.44070445112E+02 -0.63244358133E+01  0.13625895832E+03  0.12000000000E+03 0.  0.
<mgrwt>
<rscale>  0 0.27462575E+03</rscale>
<asrwt>0</asrwt>
<pdfrwt beam="1">  1        2 0.17659592E-01 0.27462575E+03</pdfrwt>
<pdfrwt beam="2">  1       -2 0.25270577E-01 0.27462575E+03</pdfrwt>
<totfact> 0.44493004E+03</totfact>
</mgrwt>
</event>
<event>
 4    1  0.1710914E-004  0.2661696E+03  0.7818608E-02  0.1103492E+00
          2   -1    0    0  501    0  0.00000000000E+00  0.00000000000E+00  0.30413912499E+04  0.30413912499E+04  0.00000000000E+00 0.  1.
         -2   -1    0    0    0  501 -0.00000000000E+00 -0.00000000000E+00 -0.58235068057E+01  0.58235068057E+01  0.00000000000E+00 0.  1.
         25    1    1    2    0    0 -0.37231243700E+02  0.43871941724E+02  0.15270129028E+04  0.15328011346E+04  0.12000000000E+03 0.  0.
         25    1    1    2    0    0  0.37231243700E+02 -0.43871941724E+02  0.15085548403E+04  0.15144136221E+04  0.12000000000E+03 0.  0.
<mgrwt>
<rscale>  0 0.26616959E+03</rscale>
<asrwt>0</asrwt>
<pdfrwt beam="1">  1        2 0.46790508E+00 0.26616959E+03</pdfrwt>
<pdfrwt beam="2">  1       -2 0.89592655E-03 0.26616959E+03</pdfrwt>
<totfact> 0.49267347E+03</totfact>
</mgrwt>
</event>
<event>
 4    1  0.1710914E-004  0.2571564E+03  0.7818608E-02  0.1108864E+00
         -1   -1    0    0    0  501 -0.00000000000E+00  0.00000000000E+00  0.13604136017E+03  0.13604136017E+03  0.00000000000E+00 0.  1.
          1   -1    0    0  501    0  0.00000000000E+00 -0.00000000000E+00 -0.12152449413E+03  0.12152449413E+03  0.00000000000E+00 0.  1.
         25    1    1    2    0    0  0.46153875806E+01  0.14183197248E+02 -0.36513464138E+02  0.12631586579E+03  0.12000000000E+03 0.  0.
         25    1    1    2    0    0 -0.46153875806E+01 -0.14183197248E+02  0.51030330173E+02  0.13124998851E+03  0.12000000000E+03 0.  0.
<mgrwt>
<rscale>  0 0.25715643E+03</rscale>
<asrwt>0</asrwt>
<pdfrwt beam="1">  1        1 0.18696076E-01 0.25715643E+03</pdfrwt>
<pdfrwt beam="2">  1       -1 0.20929440E-01 0.25715643E+03</pdfrwt>
<totfact> 0.51634040E+03</totfact>
</mgrwt>
</event>
<event>
 4    1  0.1710914E-004  0.2412689E+03  0.7818608E-02  0.1118950E+00
         -1   -1    0    0    0  501 -0.00000000000E+00  0.00000000000E+00  0.61472766784E+03  0.61472766784E+03  0.00000000000E+00 0.  1.
          1   -1    0    0  501    0  0.00000000000E+00 -0.00000000000E+00 -0.23673364338E+02  0.23673364338E+02  0.00000000000E+00 0.  1.
         25    1    1    2    0    0 -0.10536432506E+02  0.63219480005E+01  0.29208874473E+03  0.31601711699E+03  0.12000000000E+03 0.  0.
         25    1    1    2    0    0  0.10536432506E+02 -0.63219480005E+01  0.29896555877E+03  0.32238391518E+03  0.12000000000E+03 0.  0.
<mgrwt>
<rscale>  0 0.24126891E+03</rscale>
<asrwt>0</asrwt>
<pdfrwt beam="1">  1        1 0.36420565E-02 0.24126891E+03</pdfrwt>
<pdfrwt beam="2">  1       -1 0.94573475E-01 0.24126891E+03</pdfrwt>
<totfact> 0.29375491E+03</totfact>
</mgrwt>
</event>
<event>
 4    1  0.1710914E-004  0.2676928E+03  0.7818608E-02  0.1102607E+00
          3   -1    0    0  501    0  0.00000000000E+00  0.00000000000E+00  0.54516511309E+03  0.54516511309E+03  0.00000000000E+00 0.  1.
         -3   -1    0    0    0  501 -0.00000000000E+00 -0.00000000000E+00 -0.32861354281E+02  0.32861354281E+02  0.00000000000E+00 0.  1.
         25    1    1    2    0    0  0.39163376486E+02 -0.10636632257E+02  0.34947608118E+03  0.37172629625E+03  0.12000000000E+03 0.  0.
         25    1    1    2    0    0 -0.39163376486E+02  0.10636632257E+02  0.16282767762E+03  0.20630017112E+03  0.12000000000E+03 0.  0.
<mgrwt>
<rscale>  0 0.26769284E+03</rscale>
<asrwt>0</asrwt>
<pdfrwt beam="1">  1        3 0.83871549E-01 0.26769284E+03</pdfrwt>
<pdfrwt beam="2">  1       -3 0.50555934E-02 0.26769284E+03</pdfrwt>
<totfact> 0.76345126E+02</totfact>
</mgrwt>
</event>
<event>
 4    1  0.1710914E-004  0.3089325E+03  0.7818608E-02  0.1080859E+00
          2   -1    0    0  501    0  0.00000000000E+00  0.00000000000E+00  0.12091274469E+04  0.12091274469E+04  0.00000000000E+00 0. -1.
         -2   -1    0    0    0  501 -0.00000000000E+00 -0.00000000000E+00 -0.19733096076E+02  0.19733096076E+02  0.00000000000E+00 0. -1.
         25    1    1    2    0    0 -0.46374380810E+02  0.52838431185E+02  0.86204741804E+03  0.87319427045E+03  0.12000000000E+03 0.  0.
         25    1    1    2    0    0  0.46374380810E+02 -0.52838431185E+02  0.32734693278E+03  0.35566627252E+03  0.12000000000E+03 0.  0.
<mgrwt>
<rscale>  0 0.30893254E+03</rscale>
<asrwt>0</asrwt>
<pdfrwt beam="1">  1        2 0.18601955E+00 0.30893254E+03</pdfrwt>
<pdfrwt beam="2">  1       -2 0.30358619E-02 0.30893254E+03</pdfrwt>
<totfact> 0.82320057E+03</totfact>
</mgrwt>
</event>
<event>
 4    1  0.1710914E-004  0.3201728E+03  0.7818608E-02  0.1075570E+00
          1   -1    0    0  501    0  0.00000000000E+00  0.00000000000E+00  0.16218465409E+03  0.16218465409E+03  0.00000000000E+00 0. -1.
         -1   -1    0    0    0  501 -0.00000000000E+00 -0.00000000000E+00 -0.15801530843E+03  0.15801530843E+03  0.00000000000E+00 0. -1.
         25    1    1    2    0    0 -0.99668463153E+02  0.30062259233E+02  0.21837705905E+02  0.16035718686E+03  0.12000000000E+03 0.  0.
         25    1    1    2    0    0  0.99668463153E+02 -0.30062259233E+02 -0.17668360238E+02  0.15984277566E+03  0.12000000000E+03 0.  0.
<mgrwt>
<rscale>  0 0.32017282E+03</rscale>
<asrwt>0</asrwt>
<pdfrwt beam="1">  1        1 0.24951485E-01 0.32017282E+03</pdfrwt>
<pdfrwt beam="2">  1       -1 0.24310048E-01 0.32017282E+03</pdfrwt>
<totfact> 0.28010549E+03</totfact>
</mgrwt>
</event>
<event>
 4    1  0.1710914E-004  0.3826154E+03  0.7818608E-02  0.1049971E+00
         -2   -1    0    0    0  501 -0.00000000000E+00  0.00000000000E+00  0.14669071986E+03  0.14669071986E+03  0.00000000000E+00 0.  1.
          2   -1    0    0  501    0  0.00000000000E+00 -0.00000000000E+00 -0.24949524946E+03  0.24949524946E+03  0.00000000000E+00 0.  1.
         25    1    1    2    0    0  0.94339765864E+02  0.19393901099E+02 -0.16911143302E+03  0.22863681156E+03  0.12000000000E+03 0.  0.
         25    1    1    2    0    0 -0.94339765864E+02 -0.19393901099E+02  0.66306903417E+02  0.16754915775E+03  0.12000000000E+03 0.  0.
<mgrwt>
<rscale>  0 0.38261541E+03</rscale>
<asrwt>0</asrwt>
<pdfrwt beam="1">  1        2 0.38383884E-01 0.38261541E+03</pdfrwt>
<pdfrwt beam="2">  1       -2 0.22567803E-01 0.38261541E+03</pdfrwt>
<totfact> 0.22905126E+03</totfact>
</mgrwt>
</event>
<event>
 4    1  0.1710914E-004  0.2555080E+03  0.7818608E-02  0.1109873E+00
         -2   -1    0    0    0  501 -0.00000000000E+00  0.00000000000E+00  0.95240514673E+01  0.95240514673E+01  0.00000000000E+00 0. -1.
          2   -1    0    0  501    0  0.00000000000E+00 -0.00000000000E+00 -0.17136697459E+04  0.17136697459E+04  0.00000000000E+00 0. -1.
         25    1    1    2    0    0  0.15466264234E+02  0.13098518497E+02 -0.58997609264E+03  0.60239734926E+03  0.12000000000E+03 0.  0.
         25    1    1    2    0    0 -0.15466264234E+02 -0.13098518497E+02 -0.11141696017E+04  0.11207964481E+04  0.12000000000E+03 0.  0.
<mgrwt>
<rscale>  0 0.25550796E+03</rscale>
<asrwt>0</asrwt>
<pdfrwt beam="1">  1        2 0.26364138E+00 0.25550796E+03</pdfrwt>
<pdfrwt beam="2">  1       -2 0.14652393E-02 0.25550796E+03</pdfrwt>
<totfact> 0.12804535E+04</totfact>
</mgrwt>
</event>
<event>
 4    1  0.1710914E-004  0.2413757E+03  0.7818608E-02  0.1118880E+00
         -2   -1    0    0    0  501 -0.00000000000E+00  0.00000000000E+00  0.32203359243E+02  0.32203359243E+02  0.00000000000E+00 0.  1.
          2   -1    0    0  501    0  0.00000000000E+00 -0.00000000000E+00 -0.45229940447E+03  0.45229940447E+03  0.00000000000E+00 0.  1.
         25    1    1    2    0    0  0.26333062338E+01  0.91976357078E+01 -0.22731851781E+03  0.25722604717E+03  0.12000000000E+03 0.  0.
         25    1    1    2    0    0 -0.26333062338E+01 -0.91976357078E+01 -0.19277752741E+03  0.22727671654E+03  0.12000000000E+03 0.  0.
<mgrwt>
<rscale>  0 0.24137573E+03</rscale>
<asrwt>0</asrwt>
<pdfrwt beam="1">  1        2 0.69584524E-01 0.24137573E+03</pdfrwt>
<pdfrwt beam="2">  1       -2 0.49543629E-02 0.24137573E+03</pdfrwt>
<totfact> 0.13632710E+04</totfact>
</mgrwt>
</event>
<event>
 4    1  0.1710914E-004  0.2695691E+03  0.7818608E-02  0.1101526E+00
          1   -1    0    0  501    0  0.00000000000E+00  0.00000000000E+00  0.19423055648E+04  0.19423055648E+04  0.00000000000E+00 0. -1.
         -1   -1    0    0    0  501 -0.00000000000E+00 -0.00000000000E+00 -0.93532514612E+01  0.93532514612E+01  0.00000000000E+00 0. -1.
         25    1    1    2    0    0  0.59549377967E+02 -0.14778983934E+02  0.95543538579E+03  0.96489446221E+03  0.12000000000E+03 0.  0.
         25    1    1    2    0    0 -0.59549377967E+02  0.14778983934E+02  0.97751692751E+03  0.98676435401E+03  0.12000000000E+03 0.  0.
<mgrwt>
<rscale>  0 0.26956908E+03</rscale>
<asrwt>0</asrwt>
<pdfrwt beam="1">  1        1 0.29881592E+00 0.26956908E+03</pdfrwt>
<pdfrwt beam="2">  1       -1 0.14389633E-02 0.26956908E+03</pdfrwt>
<totfact> 0.40778683E+03</totfact>
</mgrwt>
</event>
<event>
 4    1  0.1710914E-004  0.2914141E+03  0.7818608E-02  0.1089613E+00
         -1   -1    0    0    0  501 -0.00000000000E+00  0.00000000000E+00  0.26998344090E+03  0.26998344090E+03  0.00000000000E+00 0. -1.
          1   -1    0    0  501    0  0.00000000000E+00 -0.00000000000E+00 -0.78636484062E+02  0.78636484062E+02  0.00000000000E+00 0. -1.
         25    1    1    2    0    0  0.17034503233E+02 -0.52357131251E+02  0.16940993321E+03  0.21478167744E+03  0.12000000000E+03 0.  0.
         25    1    1    2    0    0 -0.17034503233E+02  0.52357131251E+02  0.21937023621E+02  0.13383824752E+03  0.12000000000E+03 0.  0.
<mgrwt>
<rscale>  0 0.29141413E+03</rscale>
<asrwt>0</asrwt>
<pdfrwt beam="1">  1        1 0.12097921E-01 0.29141413E+03</pdfrwt>
<pdfrwt beam="2">  1       -1 0.41535913E-01 0.29141413E+03</pdfrwt>
<totfact> 0.28584333E+03</totfact>
</mgrwt>
</event>
<event>
 4    1  0.1710914E-004  0.2929263E+03  0.7818608E-02  0.1088831E+00
         -1   -1    0    0    0  501 -0.00000000000E+00  0.00000000000E+00  0.62100063267E+01  0.62100063267E+01  0.00000000000E+00 0. -1.
          1   -1    0    0  501    0  0.00000000000E+00 -0.00000000000E+00 -0.34543378528E+04  0.34543378528E+04  0.00000000000E+00 0. -1.
         25    1    1    2    0    0 -0.13494759211E+02 -0.79406483642E+02 -0.14435132845E+04  0.14507301957E+04  0.12000000000E+03 0.  0.
         25    1    1    2    0    0  0.13494759211E+02  0.79406483642E+02 -0.20046145619E+04  0.20098176634E+04  0.12000000000E+03 0.  0.
<mgrwt>
<rscale>  0 0.29292634E+03</rscale>
<asrwt>0</asrwt>
<pdfrwt beam="1">  1        1 0.53143720E+00 0.29292634E+03</pdfrwt>
<pdfrwt beam="2">  1       -1 0.95538450E-03 0.29292634E+03</pdfrwt>
<totfact> 0.68035118E+02</totfact>
</mgrwt>
</event>
<event>
 4    1  0.1710914E-004  0.2451744E+03  0.7818608E-02  0.1116393E+00
         -1   -1    0    0    0  501 -0.00000000000E+00  0.00000000000E+00  0.10781347135E+02  0.10781347135E+02  0.00000000000E+00 0. -1.
          1   -1    0    0  501    0  0.00000000000E+00 -0.00000000000E+00 -0.13938536481E+04  0.13938536481E+04  0.00000000000E+00 0. -1.
         25    1    1    2    0    0  0.20413217390E+02 -0.14438675936E+02 -0.68257738674E+03  0.69349626077E+03  0.12000000000E+03 0.  0.
         25    1    1    2    0    0 -0.20413217390E+02  0.14438675936E+02 -0.70049491425E+03  0.71113873449E+03  0.12000000000E+03 0.  0.
<mgrwt>
<rscale>  0 0.24517439E+03</rscale>
<asrwt>0</asrwt>
<pdfrwt beam="1">  1        1 0.21443909E+00 0.24517439E+03</pdfrwt>
<pdfrwt beam="2">  1       -1 0.16586682E-02 0.24517439E+03</pdfrwt>
<totfact> 0.75739866E+03</totfact>
</mgrwt>
</event>
<event>
 4    1  0.1710914E-004  0.3697846E+03  0.7818608E-02  0.1054775E+00
         -1   -1    0    0    0  501 -0.00000000000E+00  0.00000000000E+00  0.40850871818E+03  0.40850871818E+03  0.00000000000E+00 0. -1.
          1   -1    0    0  501    0  0.00000000000E+00 -0.00000000000E+00 -0.83682842550E+02  0.83682842550E+02  0.00000000000E+00 0. -1.
         25    1    1    2    0    0 -0.74973545581E+02 -0.52184466345E+02  0.20043831511E+02  0.15213811569E+03  0.12000000000E+03 0.  0.
         25    1    1    2    0    0  0.74973545581E+02  0.52184466345E+02  0.30478204412E+03  0.34005344504E+03  0.12000000000E+03 0.  0.
<mgrwt>
<rscale>  0 0.36978464E+03</rscale>
<asrwt>0</asrwt>
<pdfrwt beam="1">  1        1 0.12874284E-01 0.36978464E+03</pdfrwt>
<pdfrwt beam="2">  1       -1 0.62847494E-01 0.36978464E+03</pdfrwt>
<totfact> 0.12171512E+03</totfact>
</mgrwt>
</event>
<event>
 4    1  0.1710914E-004  0.2746425E+03  0.7818608E-02  0.1098652E+00
          1   -1    0    0  501    0  0.00000000000E+00  0.00000000000E+00  0.45756994433E+02  0.45756994433E+02  0.00000000000E+00 0. -1.
         -1   -1    0    0    0  501 -0.00000000000E+00 -0.00000000000E+00 -0.41211463401E+03  0.41211463401E+03  0.00000000000E+00 0. -1.
         25    1    1    2    0    0 -0.63009105882E+02 -0.57785047510E+01 -0.21868524745E+03  0.25734563527E+03  0.12000000000E+03 0.  0.
         25    1    1    2    0    0  0.63009105882E+02  0.57785047510E+01 -0.14767239213E+03  0.20052599317E+03  0.12000000000E+03 0.  0.
<mgrwt>
<rscale>  0 0.27464251E+03</rscale>
<asrwt>0</asrwt>
<pdfrwt beam="1">  1        1 0.70395376E-02 0.27464251E+03</pdfrwt>
<pdfrwt beam="2">  1       -1 0.63402251E-01 0.27464251E+03</pdfrwt>
<totfact> 0.26971278E+03</totfact>
</mgrwt>
</event>
<event>
 4    1  0.1710914E-004  0.4397866E+03  0.7818608E-02  0.1030812E+00
          2   -1    0    0  501    0  0.00000000000E+00  0.00000000000E+00  0.96266021181E+03  0.96266021181E+03  0.00000000000E+00 0.  1.
         -2   -1    0    0    0  501 -0.00000000000E+00 -0.00000000000E+00 -0.50228580486E+02  0.50228580486E+02  0.00000000000E+00 0.  1.
         25    1    1    2    0    0  0.99496127673E+02 -0.15043838427E+03  0.54306177291E+03  0.58467706991E+03  0.12000000000E+03 0.  0.
         25    1    1    2    0    0 -0.99496127673E+02  0.15043838427E+03  0.36936985841E+03  0.42821172239E+03  0.12000000000E+03 0.  0.
<mgrwt>
<rscale>  0 0.43978657E+03</rscale>
<asrwt>0</asrwt>
<pdfrwt beam="1">  1        2 0.14810156E+00 0.43978657E+03</pdfrwt>
<pdfrwt beam="2">  1       -2 0.77274746E-02 0.43978657E+03</pdfrwt>
<totfact> 0.27746461E+03</totfact>
</mgrwt>
</event>
<event>
 4    1  0.1710914E-004  0.3308805E+03  0.7818608E-02  0.1070748E+00
         -1   -1    0    0    0  501 -0.00000000000E+00  0.00000000000E+00  0.75734656902E+02  0.75734656902E+02  0.00000000000E+00 0.  1.
          1   -1    0    0  501    0  0.00000000000E+00 -0.00000000000E+00 -0.36139953307E+03  0.36139953307E+03  0.00000000000E+00 0.  1.
         25    1    1    2    0    0 -0.54180672538E+02  0.48415528139E+02 -0.25869180110E+03  0.29428057462E+03  0.12000000000E+03 0.  0.
         25    1    1    2    0    0  0.54180672538E+02 -0.48415528139E+02 -0.26973075071E+02  0.14285361536E+03  0.12000000000E+03 0.  0.
<mgrwt>
<rscale>  0 0.33088046E+03</rscale>
<asrwt>0</asrwt>
<pdfrwt beam="1">  1        1 0.55599927E-01 0.33088046E+03</pdfrwt>
<pdfrwt beam="2">  1       -1 0.11651486E-01 0.33088046E+03</pdfrwt>
<totfact> 0.33191740E+03</totfact>
</mgrwt>
</event>
<event>
 4    1  0.1710914E-004  0.3082363E+03  0.7818608E-02  0.1081194E+00
         -2   -1    0    0    0  501 -0.00000000000E+00  0.00000000000E+00  0.16051884058E+02  0.16051884058E+02  0.00000000000E+00 0.  1.
          2   -1    0    0  501    0  0.00000000000E+00 -0.00000000000E+00 -0.14797271121E+04  0.14797271121E+04  0.00000000000E+00 0.  1.
         25    1    1    2    0    0 -0.56392010073E+01  0.79294771398E+02 -0.99908655936E+03  0.10094025037E+04  0.12000000000E+03 0.  0.
         25    1    1    2    0    0  0.56392010073E+01 -0.79294771398E+02 -0.46458866866E+03  0.48637649245E+03  0.12000000000E+03 0.  0.
<mgrwt>
<rscale>  0 0.30823633E+03</rscale>
<asrwt>0</asrwt>
<pdfrwt beam="1">  1        2 0.22765039E+00 0.30823633E+03</pdfrwt>
<pdfrwt beam="2">  1       -2 0.24695199E-02 0.30823633E+03</pdfrwt>
<totfact> 0.79348171E+03</totfact>
</mgrwt>
</event>
<event>
 4    1  0.1710914E-004  0.2713716E+03  0.7818608E-02  0.1100497E+00
         -2   -1    0    0    0  501 -0.00000000000E+00  0.00000000000E+00  0.43781556869E+02  0.43781556869E+02  0.00000000000E+00 0. -1.
          2   -1    0    0  501    0  0.00000000000E+00 -0.00000000000E+00 -0.42051117174E+03  0.42051117174E+03  0.00000000000E+00 0. -1.
         25    1    1    2    0    0  0.57878310289E+02  0.11756818654E+02 -0.14925589568E+03  0.20041318315E+03  0.12000000000E+03 0.  0.
         25    1    1    2    0    0 -0.57878310289E+02 -0.11756818654E+02 -0.22747371919E+03  0.26387954545E+03  0.12000000000E+03 0.  0.
<mgrwt>
<rscale>  0 0.27137158E+03</rscale>
<asrwt>0</asrwt>
<pdfrwt beam="1">  1        2 0.64694026E-01 0.27137158E+03</pdfrwt>
<pdfrwt beam="2">  1       -2 0.67356242E-02 0.27137158E+03</pdfrwt>
<totfact> 0.92796573E+03</totfact>
</mgrwt>
</event>
<event>
 4    1  0.1710914E-004  0.2828128E+03  0.7818608E-02  0.1094162E+00
          2   -1    0    0  501    0  0.00000000000E+00  0.00000000000E+00  0.27338673781E+03  0.27338673781E+03  0.00000000000E+00 0.  1.
         -2   -1    0    0    0  501 -0.00000000000E+00 -0.00000000000E+00 -0.73140967393E+02  0.73140967393E+02  0.00000000000E+00 0.  1.
         25    1    1    2    0    0 -0.52534415605E+02  0.51993225320E+02  0.11423289508E+03  0.18141751465E+03  0.12000000000E+03 0.  0.
         25    1    1    2    0    0  0.52534415605E+02 -0.51993225320E+02  0.86012875335E+02  0.16511019056E+03  0.12000000000E+03 0.  0.
<mgrwt>
<rscale>  0 0.28281280E+03</rscale>
<asrwt>0</asrwt>
<pdfrwt beam="1">  1        2 0.42059498E-01 0.28281280E+03</pdfrwt>
<pdfrwt beam="2">  1       -2 0.11252457E-01 0.28281280E+03</pdfrwt>
<totfact> 0.65997363E+03</totfact>
</mgrwt>
</event>
<event>
 4    1  0.1710914E-004  0.2418950E+03  0.7818608E-02  0.1118537E+00
          1   -1    0    0  501    0  0.00000000000E+00  0.00000000000E+00  0.82364972358E+01  0.82364972358E+01  0.00000000000E+00 0. -1.
         -1   -1    0    0    0  501 -0.00000000000E+00 -0.00000000000E+00 -0.17760344592E+04  0.17760344592E+04  0.00000000000E+00 0. -1.
         25    1    1    2    0    0  0.72369561947E+00  0.12969271173E+02 -0.94083325967E+03  0.94854412034E+03  0.12000000000E+03 0.  0.
         25    1    1    2    0    0 -0.72369561947E+00 -0.12969271173E+02 -0.82696470228E+03  0.83572683609E+03  0.12000000000E+03 0.  0.
<mgrwt>
<rscale>  0 0.24189504E+03</rscale>
<asrwt>0</asrwt>
<pdfrwt beam="1">  1        1 0.12671524E-02 0.24189504E+03</pdfrwt>
<pdfrwt beam="2">  1       -1 0.27323628E+00 0.24189504E+03</pdfrwt>
<totfact> 0.65566262E+02</totfact>
</mgrwt>
</event>
<event>
 4    1  0.1710914E-004  0.3257029E+03  0.7818608E-02  0.1073054E+00
         -2   -1    0    0    0  501 -0.00000000000E+00  0.00000000000E+00  0.23959386651E+02  0.23959386651E+02  0.00000000000E+00 0.  1.
          2   -1    0    0  501    0  0.00000000000E+00 -0.00000000000E+00 -0.11068982360E+04  0.11068982360E+04  0.00000000000E+00 0.  1.
         25    1    1    2    0    0 -0.16288918464E+02  0.60738451165E+02 -0.22771202934E+03  0.26496651981E+03  0.12000000000E+03 0.  0.
         25    1    1    2    0    0  0.16288918464E+02 -0.60738451165E+02 -0.85522682002E+03  0.86589110285E+03  0.12000000000E+03 0.  0.
<mgrwt>
<rscale>  0 0.32570295E+03</rscale>
<asrwt>0</asrwt>
<pdfrwt beam="1">  1        2 0.17029206E+00 0.32570295E+03</pdfrwt>
<pdfrwt beam="2">  1       -2 0.36860590E-02 0.32570295E+03</pdfrwt>
<totfact> 0.70586078E+03</totfact>
</mgrwt>
</event>
<event>
 4    1  0.1710914E-004  0.2931097E+03  0.7818608E-02  0.1088737E+00
          2   -1    0    0  501    0  0.00000000000E+00  0.00000000000E+00  0.44996356235E+03  0.44996356235E+03  0.00000000000E+00 0.  1.
         -2   -1    0    0    0  501 -0.00000000000E+00 -0.00000000000E+00 -0.47733468930E+02  0.47733468930E+02  0.00000000000E+00 0.  1.
         25    1    1    2    0    0 -0.12569810426E+02  0.65924813412E+02  0.11496422031E+03  0.17922291458E+03  0.12000000000E+03 0.  0.
         25    1    1    2    0    0  0.12569810426E+02 -0.65924813412E+02  0.28726587311E+03  0.31847411670E+03  0.12000000000E+03 0.  0.
<mgrwt>
<rscale>  0 0.29310968E+03</rscale>
<asrwt>0</asrwt>
<pdfrwt beam="1">  1        2 0.69225160E-01 0.29310968E+03</pdfrwt>
<pdfrwt beam="2">  1       -2 0.73436109E-02 0.29310968E+03</pdfrwt>
<totfact> 0.75557951E+03</totfact>
</mgrwt>
</event>
<event>
 4    1  0.1710914E-004  0.2550332E+03  0.7818608E-02  0.1110165E+00
          1   -1    0    0  501    0  0.00000000000E+00  0.00000000000E+00  0.21909296484E+02  0.21909296484E+02  0.00000000000E+00 0. -1.
         -1   -1    0    0    0  501 -0.00000000000E+00 -0.00000000000E+00 -0.74217287236E+03  0.74217287236E+03  0.00000000000E+00 0. -1.
         25    1    1    2    0    0  0.26765264647E+02  0.12906358555E+01 -0.46139695549E+03  0.47749889598E+03  0.12000000000E+03 0.  0.
         25    1    1    2    0    0 -0.26765264647E+02 -0.12906358555E+01 -0.25886662039E+03  0.28658327286E+03  0.12000000000E+03 0.  0.
<mgrwt>
<rscale>  0 0.25503322E+03</rscale>
<asrwt>0</asrwt>
<pdfrwt beam="1">  1        1 0.33706609E-02 0.25503322E+03</pdfrwt>
<pdfrwt beam="2">  1       -1 0.11418045E+00 0.25503322E+03</pdfrwt>
<totfact> 0.21438170E+03</totfact>
</mgrwt>
</event>
<event>
 4    1  0.1710914E-004  0.2749632E+03  0.7818608E-02  0.1098472E+00
         -2   -1    0    0    0  501 -0.00000000000E+00  0.00000000000E+00  0.64315603458E+01  0.64315603458E+01  0.00000000000E+00 0.  1.
          2   -1    0    0  501    0  0.00000000000E+00 -0.00000000000E+00 -0.29388187911E+04  0.29388187911E+04  0.00000000000E+00 0.  1.
         25    1    1    2    0    0 -0.58657278187E+02  0.30675003755E+02 -0.15833153340E+04  0.15892353756E+04  0.12000000000E+03 0.  0.
         25    1    1    2    0    0  0.58657278187E+02 -0.30675003755E+02 -0.13490718968E+04  0.13560149759E+04  0.12000000000E+03 0.  0.
<mgrwt>
<rscale>  0 0.27496320E+03</rscale>
<asrwt>0</asrwt>
<pdfrwt beam="1">  1        2 0.45212497E+00 0.27496320E+03</pdfrwt>
<pdfrwt beam="2">  1       -2 0.98947301E-03 0.27496320E+03</pdfrwt>
<totfact> 0.49020498E+03</totfact>
</mgrwt>
</event>
<event>
 4    1  0.1710914E-004  0.2834780E+03  0.7818608E-02  0.1093804E+00
          2   -1    0    0  501    0  0.00000000000E+00  0.00000000000E+00  0.53660695985E+03  0.53660695985E+03  0.00000000000E+00 0. -1.
         -2   -1    0    0    0  501 -0.00000000000E+00 -0.00000000000E+00 -0.37438854948E+02  0.37438854948E+02  0.00000000000E+00 0. -1.
         25    1    1    2    0    0  0.62425048776E+02  0.28155863608E+02  0.31363043439E+03  0.34271517145E+03  0.12000000000E+03 0.  0.
         25    1    1    2    0    0 -0.62425048776E+02 -0.28155863608E+02  0.18553767051E+03  0.23133064334E+03  0.12000000000E+03 0.  0.
<mgrwt>
<rscale>  0 0.28347804E+03</rscale>
<asrwt>0</asrwt>
<pdfrwt beam="1">  1        2 0.82554912E-01 0.28347804E+03</pdfrwt>
<pdfrwt beam="2">  1       -2 0.57598242E-02 0.28347804E+03</pdfrwt>
<totfact> 0.90187016E+03</totfact>
</mgrwt>
</event>
<event>
 4    1  0.1710914E-004  0.3897585E+03  0.7818608E-02  0.1047385E+00
         -4   -1    0    0    0  501 -0.00000000000E+00  0.00000000000E+00  0.61602455216E+03  0.61602455216E+03  0.00000000000E+00 0. -1.
          4   -1    0    0  501    0  0.00000000000E+00 -0.00000000000E+00 -0.61650012648E+02  0.61650012648E+02  0.00000000000E+00 0. -1.
         25    1    1    2    0    0 -0.11327455828E+03  0.74445772318E+01  0.97406863255E+02  0.19176716167E+03  0.12000000000E+03 0.  0.
         25    1    1    2    0    0  0.11327455828E+03 -0.74445772318E+01  0.45696767626E+03  0.48590740314E+03  0.12000000000E+03 0.  0.
<mgrwt>
<rscale>  0 0.38975850E+03</rscale>
<asrwt>0</asrwt>
<pdfrwt beam="1">  1        4 0.94846177E-02 0.38975850E+03</pdfrwt>
<pdfrwt beam="2">  1       -4 0.94773004E-01 0.38975850E+03</pdfrwt>
<totfact> 0.15507502E+02</totfact>
</mgrwt>
</event>
<event>
 4    1  0.1710914E-004  0.2996126E+03  0.7818608E-02  0.1085434E+00
          1   -1    0    0  501    0  0.00000000000E+00  0.00000000000E+00  0.85233332286E+03  0.85233332286E+03  0.00000000000E+00 0. -1.
         -1   -1    0    0    0  501 -0.00000000000E+00 -0.00000000000E+00 -0.26329996065E+02  0.26329996065E+02  0.00000000000E+00 0. -1.
         25    1    1    2    0    0 -0.47956784386E+02  0.75432985850E+02  0.39186520522E+03  0.41946195010E+03  0.12000000000E+03 0.  0.
         25    1    1    2    0    0  0.47956784386E+02 -0.75432985850E+02  0.43413812158E+03  0.45920136882E+03  0.12000000000E+03 0.  0.
<mgrwt>
<rscale>  0 0.29961264E+03</rscale>
<asrwt>0</asrwt>
<pdfrwt beam="1">  1        1 0.13112818E+00 0.29961264E+03</pdfrwt>
<pdfrwt beam="2">  1       -1 0.40507693E-02 0.29961264E+03</pdfrwt>
<totfact> 0.50376250E+03</totfact>
</mgrwt>
</event>
<event>
 4    1  0.1710914E-004  0.2596170E+03  0.7818608E-02  0.1107374E+00
          2   -1    0    0  501    0  0.00000000000E+00  0.00000000000E+00  0.88437232996E+03  0.88437232996E+03  0.00000000000E+00 0. -1.
         -2   -1    0    0    0  501 -0.00000000000E+00 -0.00000000000E+00 -0.19053347157E+02  0.19053347157E+02  0.00000000000E+00 0. -1.
         25    1    1    2    0    0  0.36520615512E+02 -0.42396861872E+00  0.31639337458E+03  0.34035085219E+03  0.12000000000E+03 0.  0.
         25    1    1    2    0    0 -0.36520615512E+02  0.42396861872E+00  0.54892560822E+03  0.56307482493E+03  0.12000000000E+03 0.  0.
<mgrwt>
<rscale>  0 0.25961705E+03</rscale>
<asrwt>0</asrwt>
<pdfrwt beam="1">  1        2 0.13605725E+00 0.25961705E+03</pdfrwt>
<pdfrwt beam="2">  1       -2 0.29312849E-02 0.25961705E+03</pdfrwt>
<totfact> 0.13557148E+04</totfact>
</mgrwt>
</event>
<event>
 4    1  0.1710914E-004  0.7372708E+03  0.7818608E-02  0.9655535E-01
          1   -1    0    0  501    0  0.00000000000E+00  0.00000000000E+00  0.43903347842E+03  0.43903347842E+03  0.00000000000E+00 0. -1.
         -1   -1    0    0    0  501 -0.00000000000E+00 -0.00000000000E+00 -0.30952553641E+03  0.30952553641E+03  0.00000000000E+00 0. -1.
         25    1    1    2    0    0  0.15341566877E+03 -0.24644719952E+03 -0.13112335089E+03  0.34039083820E+03  0.12000000000E+03 0.  0.
         25    1    1    2    0    0 -0.15341566877E+03  0.24644719952E+03  0.26063129290E+03  0.40816817664E+03  0.12000000000E+03 0.  0.
<mgrwt>
<rscale>  0 0.73727084E+03</rscale>
<asrwt>0</asrwt>
<pdfrwt beam="1">  1        1 0.67543612E-01 0.73727084E+03</pdfrwt>
<pdfrwt beam="2">  1       -1 0.47619313E-01 0.73727084E+03</pdfrwt>
<totfact> 0.23614611E+02</totfact>
</mgrwt>
</event>
<event>
 4    1  0.1710914E-004  0.5053365E+03  0.7818608E-02  0.1012395E+00
          1   -1    0    0  501    0  0.00000000000E+00  0.00000000000E+00  0.46229518081E+03  0.46229518081E+03  0.00000000000E+00 0. -1.
         -1   -1    0    0    0  501 -0.00000000000E+00 -0.00000000000E+00 -0.13809627124E+03  0.13809627124E+03  0.00000000000E+00 0. -1.
         25    1    1    2    0    0  0.17522921828E+03 -0.56645223396E+02  0.31014711346E+03  0.38013838567E+03  0.12000000000E+03 0.  0.
         25    1    1    2    0    0 -0.17522921828E+03  0.56645223396E+02  0.14051796105E+02  0.22025306638E+03  0.12000000000E+03 0.  0.
<mgrwt>
<rscale>  0 0.50533648E+03</rscale>
<asrwt>0</asrwt>
<pdfrwt beam="1">  1        1 0.71122335E-01 0.50533648E+03</pdfrwt>
<pdfrwt beam="2">  1       -1 0.21245580E-01 0.50533648E+03</pdfrwt>
<totfact> 0.91607053E+02</totfact>
</mgrwt>
</event>
<event>
 4    1  0.1710914E-004  0.3849760E+03  0.7818608E-02  0.1049110E+00
          4   -1    0    0  501    0  0.00000000000E+00  0.00000000000E+00  0.70231818718E+03  0.70231818718E+03  0.00000000000E+00 0. -1.
         -4   -1    0    0    0  501 -0.00000000000E+00 -0.00000000000E+00 -0.52756185875E+02  0.52756185875E+02  0.00000000000E+00 0. -1.
         25    1    1    2    0    0 -0.61974233661E+02 -0.39662312968E+02  0.58229215493E+03  0.59906431909E+03  0.12000000000E+03 0.  0.
         25    1    1    2    0    0  0.61974233661E+02  0.39662312968E+02  0.67269846373E+02  0.15601005397E+03  0.12000000000E+03 0.  0.
<mgrwt>
<rscale>  0 0.38497599E+03</rscale>
<asrwt>0</asrwt>
<pdfrwt beam="1">  1        4 0.10804895E+00 0.38497599E+03</pdfrwt>
<pdfrwt beam="2">  1       -4 0.81163368E-02 0.38497599E+03</pdfrwt>
<totfact> 0.14787433E+02</totfact>
</mgrwt>
</event>
<event>
 4    1  0.1710914E-004  0.3240896E+03  0.7818608E-02  0.1073782E+00
          2   -1    0    0  501    0  0.00000000000E+00  0.00000000000E+00  0.70468072457E+03  0.70468072457E+03  0.00000000000E+00 0.  1.
         -2   -1    0    0    0  501 -0.00000000000E+00 -0.00000000000E+00 -0.37263009937E+02  0.37263009937E+02  0.00000000000E+00 0.  1.
         25    1    1    2    0    0 -0.86990175645E+02 -0.43439874933E+02  0.22145735961E+03  0.26999569537E+03  0.12000000000E+03 0.  0.
         25    1    1    2    0    0  0.86990175645E+02  0.43439874933E+02  0.44596035502E+03  0.47194803913E+03  0.12000000000E+03 0.  0.
<mgrwt>
<rscale>  0 0.32408965E+03</rscale>
<asrwt>0</asrwt>
<pdfrwt beam="1">  1        2 0.10841241E+00 0.32408965E+03</pdfrwt>
<pdfrwt beam="2">  1       -2 0.57327713E-02 0.32408965E+03</pdfrwt>
<totfact> 0.66205843E+03</totfact>
</mgrwt>
</event>
<event>
 4    1  0.1710914E-004  0.3181491E+03  0.7818608E-02  0.1076504E+00
         -1   -1    0    0    0  501 -0.00000000000E+00  0.00000000000E+00  0.14076809808E+02  0.14076809808E+02  0.00000000000E+00 0. -1.
          1   -1    0    0  501    0  0.00000000000E+00 -0.00000000000E+00 -0.17976171980E+04  0.17976171980E+04  0.00000000000E+00 0. -1.
         25    1    1    2    0    0 -0.79848337913E+02 -0.67292317570E+02 -0.89654246936E+03  0.91054511829E+03  0.12000000000E+03 0.  0.
         25    1    1    2    0    0  0.79848337913E+02  0.67292317570E+02 -0.88699791886E+03  0.90114888955E+03  0.12000000000E+03 0.  0.
<mgrwt>
<rscale>  0 0.31814912E+03</rscale>
<asrwt>0</asrwt>
<pdfrwt beam="1">  1        1 0.27655662E+00 0.31814912E+03</pdfrwt>
<pdfrwt beam="2">  1       -1 0.21656620E-02 0.31814912E+03</pdfrwt>
<totfact> 0.27839768E+03</totfact>
</mgrwt>
</event>
<event>
 4    1  0.1710914E-004  0.3090602E+03  0.7818608E-02  0.1080797E+00
         -2   -1    0    0    0  501 -0.00000000000E+00  0.00000000000E+00  0.85060498616E+03  0.85060498616E+03  0.00000000000E+00 0. -1.
          2   -1    0    0  501    0  0.00000000000E+00 -0.00000000000E+00 -0.28073604059E+02  0.28073604059E+02  0.00000000000E+00 0. -1.
         25    1    1    2    0    0  0.93776053362E+02 -0.24931742017E+02  0.38851980094E+03  0.41804685822E+03  0.12000000000E+03 0.  0.
         25    1    1    2    0    0 -0.93776053362E+02  0.24931742017E+02  0.43401158116E+03  0.46063173200E+03  0.12000000000E+03 0.  0.
<mgrwt>
<rscale>  0 0.30906017E+03</rscale>
<asrwt>0</asrwt>
<pdfrwt beam="1">  1        2 0.43190166E-02 0.30906017E+03</pdfrwt>
<pdfrwt beam="2">  1       -2 0.13086229E+00 0.30906017E+03</pdfrwt>
<totfact> 0.86025022E+02</totfact>
</mgrwt>
</event>
<event>
 4    1  0.1710914E-004  0.2556002E+03  0.7818608E-02  0.1109816E+00
         -1   -1    0    0    0  501 -0.00000000000E+00  0.00000000000E+00  0.22296383711E+02  0.22296383711E+02  0.00000000000E+00 0.  1.
          1   -1    0    0  501    0  0.00000000000E+00 -0.00000000000E+00 -0.73253417526E+03  0.73253417526E+03  0.00000000000E+00 0.  1.
         25    1    1    2    0    0  0.90230965857E+01 -0.22962443337E+02 -0.46258232089E+03  0.47853013873E+03  0.12000000000E+03 0.  0.
         25    1    1    2    0    0 -0.90230965857E+01  0.22962443337E+02 -0.24765547066E+03  0.27630042024E+03  0.12000000000E+03 0.  0.
<mgrwt>
<rscale>  0 0.25560018E+03</rscale>
<asrwt>0</asrwt>
<pdfrwt beam="1">  1        1 0.11269756E+00 0.25560018E+03</pdfrwt>
<pdfrwt beam="2">  1       -1 0.34302129E-02 0.25560018E+03</pdfrwt>
<totfact> 0.81016139E+03</totfact>
</mgrwt>
</event>
<event>
 4    1  0.1710914E-004  0.2836148E+03  0.7818608E-02  0.1093731E+00
         -2   -1    0    0    0  501 -0.00000000000E+00  0.00000000000E+00  0.18291058678E+02  0.18291058678E+02  0.00000000000E+00 0. -1.
          2   -1    0    0  501    0  0.00000000000E+00 -0.00000000000E+00 -0.10994082583E+04  0.10994082583E+04  0.00000000000E+00 0. -1.
         25    1    1    2    0    0 -0.38392759229E+02 -0.51945851389E+02 -0.38605872416E+03  0.40940653871E+03  0.12000000000E+03 0.  0.
         25    1    1    2    0    0  0.38392759229E+02  0.51945851389E+02 -0.69505847548E+03  0.70829277829E+03  0.12000000000E+03 0.  0.
<mgrwt>
<rscale>  0 0.28361482E+03</rscale>
<asrwt>0</asrwt>
<pdfrwt beam="1">  1        2 0.16913976E+00 0.28361482E+03</pdfrwt>
<pdfrwt beam="2">  1       -2 0.28140086E-02 0.28361482E+03</pdfrwt>
<totfact> 0.10647470E+04</totfact>
</mgrwt>
</event>
<event>
 4    1  0.1710914E-004  0.2532080E+03  0.7818608E-02  0.1111294E+00
          1   -1    0    0  501    0  0.00000000000E+00  0.00000000000E+00  0.10286552160E+04  0.10286552160E+04  0.00000000000E+00 0.  1.
         -1   -1    0    0    0  501 -0.00000000000E+00 -0.00000000000E+00 -0.15582062432E+02  0.15582062432E+02  0.00000000000E+00 0.  1.
         25    1    1    2    0    0 -0.30076606561E+02 -0.25510554429E+02  0.54181551315E+03  0.55634471413E+03  0.12000000000E+03 0.  0.
         25    1    1    2    0    0  0.30076606561E+02  0.25510554429E+02  0.47125764039E+03  0.48789256427E+03  0.12000000000E+03 0.  0.
<mgrwt>
<rscale>  0 0.25320798E+03</rscale>
<asrwt>0</asrwt>
<pdfrwt beam="1">  1        1 0.15825459E+00 0.25320798E+03</pdfrwt>
<pdfrwt beam="2">  1       -1 0.23972412E-02 0.25320798E+03</pdfrwt>
<totfact> 0.79667996E+03</totfact>
</mgrwt>
</event>
<event>
 4    1  0.1710914E-004  0.3144596E+03  0.7818608E-02  0.1078228E+00
         -2   -1    0    0    0  501 -0.00000000000E+00  0.00000000000E+00  0.90682091298E+02  0.90682091298E+02  0.00000000000E+00 0.  1.
          2   -1    0    0  501    0  0.00000000000E+00 -0.00000000000E+00 -0.27261402887E+03  0.27261402887E+03  0.00000000000E+00 0.  1.
         25    1    1    2    0    0 -0.61069158361E+02  0.79426236059E+02 -0.71522484404E+02  0.17191112487E+03  0.12000000000E+03 0.  0.
         25    1    1    2    0    0  0.61069158361E+02 -0.79426236059E+02 -0.11040945316E+03  0.19138499530E+03  0.12000000000E+03 0.  0.
<mgrwt>
<rscale>  0 0.31445960E+03</rscale>
<asrwt>0</asrwt>
<pdfrwt beam="1">  1        2 0.41940619E-01 0.31445960E+03</pdfrwt>
<pdfrwt beam="2">  1       -2 0.13951091E-01 0.31445960E+03</pdfrwt>
<totfact> 0.46830173E+03</totfact>
</mgrwt>
</event>
<event>
 4    1  0.1710914E-004  0.2968709E+03  0.7818608E-02  0.1086815E+00
          1   -1    0    0  501    0  0.00000000000E+00  0.00000000000E+00  0.91156453760E+03  0.91156453760E+03  0.00000000000E+00 0.  1.
         -1   -1    0    0    0  501 -0.00000000000E+00 -0.00000000000E+00 -0.24170628690E+02  0.24170628690E+02  0.00000000000E+00 0.  1.
         25    1    1    2    0    0  0.12468696946E+01 -0.34548398090E+02  0.19079115791E+03  0.22802721862E+03  0.12000000000E+03 0.  0.
         25    1    1    2    0    0 -0.12468696946E+01  0.34548398090E+02  0.69660275100E+03  0.70770794767E+03  0.12000000000E+03 0.  0.
<mgrwt>
<rscale>  0 0.29687093E+03</rscale>
<asrwt>0</asrwt>
<pdfrwt beam="1">  1        1 0.14024067E+00 0.29687093E+03</pdfrwt>
<pdfrwt beam="2">  1       -1 0.37185590E-02 0.29687093E+03</pdfrwt>
<totfact> 0.51326683E+03</totfact>
</mgrwt>
</event>
<event>
 4    1  0.1710914E-004  0.2714693E+03  0.7818608E-02  0.1100442E+00
         -3   -1    0    0    0  501 -0.00000000000E+00  0.00000000000E+00  0.62071685724E+03  0.62071685724E+03  0.00000000000E+00 0.  1.
          3   -1    0    0  501    0  0.00000000000E+00 -0.00000000000E+00 -0.29681633111E+02  0.29681633111E+02  0.00000000000E+00 0.  1.
         25    1    1    2    0    0 -0.36416063731E+02  0.44996949153E+02  0.35767283842E+03  0.38168143061E+03  0.12000000000E+03 0.  0.
         25    1    1    2    0    0  0.36416063731E+02 -0.44996949153E+02  0.23336238570E+03  0.26871705973E+03  0.12000000000E+03 0.  0.
<mgrwt>
<rscale>  0 0.27146926E+03</rscale>
<asrwt>0</asrwt>
<pdfrwt beam="1">  1        3 0.45664056E-02 0.27146926E+03</pdfrwt>
<pdfrwt beam="2">  1       -3 0.95494891E-01 0.27146926E+03</pdfrwt>
<totfact> 0.67107747E+02</totfact>
</mgrwt>
</event>
<event>
 4    1  0.1710914E-004  0.2703494E+03  0.7818608E-02  0.1101080E+00
          2   -1    0    0  501    0  0.00000000000E+00  0.00000000000E+00  0.21165877078E+03  0.21165877078E+03  0.00000000000E+00 0. -1.
         -2   -1    0    0    0  501 -0.00000000000E+00 -0.00000000000E+00 -0.86328597047E+02  0.86328597047E+02  0.00000000000E+00 0. -1.
         25    1    1    2    0    0 -0.15300000527E+02  0.59171788647E+02  0.75557608943E+02  0.15441613535E+03  0.12000000000E+03 0.  0.
         25    1    1    2    0    0  0.15300000527E+02 -0.59171788647E+02  0.49772564787E+02  0.14357123247E+03  0.12000000000E+03 0.  0.
<mgrwt>
<rscale>  0 0.27034944E+03</rscale>
<asrwt>0</asrwt>
<pdfrwt beam="1">  1        2 0.32562888E-01 0.27034944E+03</pdfrwt>
<pdfrwt beam="2">  1       -2 0.13281323E-01 0.27034944E+03</pdfrwt>
<totfact> 0.66479535E+03</totfact>
</mgrwt>
</event>
<event>
 4    1  0.1710914E-004  0.4512357E+03  0.7818608E-02  0.1027354E+00
         -2   -1    0    0    0  501 -0.00000000000E+00  0.00000000000E+00  0.33377727511E+03  0.33377727511E+03  0.00000000000E+00 0. -1.
          2   -1    0    0  501    0  0.00000000000E+00 -0.00000000000E+00 -0.15250710385E+03  0.15250710385E+03  0.00000000000E+00 0. -1.
         25    1    1    2    0    0  0.60520718042E+01 -0.18960056713E+03  0.66098132891E+02  0.23399565338E+03  0.12000000000E+03 0.  0.
         25    1    1    2    0    0 -0.60520718042E+01  0.18960056713E+03  0.11517203836E+03  0.25228872557E+03  0.12000000000E+03 0.  0.
<mgrwt>
<rscale>  0 0.45123566E+03</rscale>
<asrwt>0</asrwt>
<pdfrwt beam="1">  1        2 0.23462631E-01 0.45123566E+03</pdfrwt>
<pdfrwt beam="2">  1       -2 0.51350350E-01 0.45123566E+03</pdfrwt>
<totfact> 0.84745617E+02</totfact>
</mgrwt>
</event>
<event>
 4    1  0.1710914E-004  0.3720406E+03  0.7818608E-02  0.1053915E+00
          2   -1    0    0  501    0  0.00000000000E+00  0.00000000000E+00  0.70980257815E+03  0.70980257815E+03  0.00000000000E+00 0. -1.
         -2   -1    0    0    0  501 -0.00000000000E+00 -0.00000000000E+00 -0.48750955664E+02  0.48750955664E+02  0.00000000000E+00 0. -1.
         25    1    1    2    0    0  0.33987566705E+02 -0.53898102807E+02  0.58958160416E+03  0.60503440244E+03  0.12000000000E+03 0.  0.
         25    1    1    2    0    0 -0.33987566705E+02  0.53898102807E+02  0.71470018323E+02  0.15351913137E+03  0.12000000000E+03 0.  0.
<mgrwt>
<rscale>  0 0.37204061E+03</rscale>
<asrwt>0</asrwt>
<pdfrwt beam="1">  1        2 0.10920039E+00 0.37204061E+03</pdfrwt>
<pdfrwt beam="2">  1       -2 0.75001475E-02 0.37204061E+03</pdfrwt>
<totfact> 0.43354107E+03</totfact>
</mgrwt>
</event>
<event>
 4    1  0.1710914E-004  0.2545246E+03  0.7818608E-02  0.1110478E+00
          2   -1    0    0  501    0  0.00000000000E+00  0.00000000000E+00  0.23096791394E+03  0.23096791394E+03  0.00000000000E+00 0.  1.
         -2   -1    0    0    0  501 -0.00000000000E+00 -0.00000000000E+00 -0.70120964551E+02  0.70120964551E+02  0.00000000000E+00 0.  1.
         25    1    1    2    0    0 -0.13671381352E+01 -0.42236790822E+02  0.76705683773E+02  0.14855833026E+03  0.12000000000E+03 0.  0.
         25    1    1    2    0    0  0.13671381352E+01  0.42236790822E+02  0.84141265617E+02  0.15253054824E+03  0.12000000000E+03 0.  0.
<mgrwt>
<rscale>  0 0.25452460E+03</rscale>
<asrwt>0</asrwt>
<pdfrwt beam="1">  1        2 0.35533525E-01 0.25452460E+03</pdfrwt>
<pdfrwt beam="2">  1       -2 0.10787841E-01 0.25452460E+03</pdfrwt>
<totfact> 0.84354948E+03</totfact>
</mgrwt>
</event>
<event>
 4    1  0.1710914E-004  0.2847074E+03  0.7818608E-02  0.1093145E+00
         -3   -1    0    0    0  501 -0.00000000000E+00  0.00000000000E+00  0.35087951110E+02  0.35087951110E+02  0.00000000000E+00 0.  1.
          3   -1    0    0  501    0  0.00000000000E+00 -0.00000000000E+00 -0.57753649804E+03  0.57753649804E+03  0.00000000000E+00 0.  1.
         25    1    1    2    0    0  0.31347622228E+02  0.17181880986E+02 -0.12549563058E+03  0.17727674339E+03  0.12000000000E+03 0.  0.
         25    1    1    2    0    0 -0.31347622228E+02 -0.17181880986E+02 -0.41695291635E+03  0.43534770576E+03  0.12000000000E+03 0.  0.
<mgrwt>
<rscale>  0 0.28470738E+03</rscale>
<asrwt>0</asrwt>
<pdfrwt beam="1">  1        3 0.88851767E-01 0.28470738E+03</pdfrwt>
<pdfrwt beam="2">  1       -3 0.53981464E-02 0.28470738E+03</pdfrwt>
<totfact> 0.60830526E+02</totfact>
</mgrwt>
</event>
<event>
 4    1  0.1710914E-004  0.3821865E+03  0.7818608E-02  0.1050129E+00
          1   -1    0    0  501    0  0.00000000000E+00  0.00000000000E+00  0.98589112572E+03  0.98589112572E+03  0.00000000000E+00 0. -1.
         -1   -1    0    0    0  501 -0.00000000000E+00 -0.00000000000E+00 -0.37039206066E+02  0.37039206066E+02  0.00000000000E+00 0. -1.
         25    1    1    2    0    0 -0.11753772382E+03 -0.30065667319E+02  0.24422077329E+03  0.29793094330E+03  0.12000000000E+03 0.  0.
         25    1    1    2    0    0  0.11753772382E+03  0.30065667319E+02  0.70463114637E+03  0.72499938849E+03  0.12000000000E+03 0.  0.
<mgrwt>
<rscale>  0 0.38218647E+03</rscale>
<asrwt>0</asrwt>
<pdfrwt beam="1">  1        1 0.15167554E+00 0.38218647E+03</pdfrwt>
<pdfrwt beam="2">  1       -1 0.56983401E-02 0.38218647E+03</pdfrwt>
<totfact> 0.23724813E+03</totfact>
</mgrwt>
</event>
<event>
 4    1  0.1710914E-004  0.3143500E+03  0.7818608E-02  0.1078279E+00
         -2   -1    0    0    0  501 -0.00000000000E+00  0.00000000000E+00  0.15782727776E+03  0.15782727776E+03  0.00000000000E+00 0.  1.
          2   -1    0    0  501    0  0.00000000000E+00 -0.00000000000E+00 -0.15652539329E+03  0.15652539329E+03  0.00000000000E+00 0.  1.
         25    1    1    2    0    0 -0.67112926551E+02 -0.40470325247E+01  0.76700613759E+02  0.15749129352E+03  0.12000000000E+03 0.  0.
         25    1    1    2    0    0  0.67112926551E+02  0.40470325247E+01 -0.75398729296E+02  0.15686137753E+03  0.12000000000E+03 0.  0.
<mgrwt>
<rscale>  0 0.31434998E+03</rscale>
<asrwt>0</asrwt>
<pdfrwt beam="1">  1        2 0.24080830E-01 0.31434998E+03</pdfrwt>
<pdfrwt beam="2">  1       -2 0.24281120E-01 0.31434998E+03</pdfrwt>
<totfact> 0.33612468E+03</totfact>
</mgrwt>
</event>
<event>
 4    1  0.1710914E-004  0.2476256E+03  0.7818608E-02  0.1114815E+00
         -1   -1    0    0    0  501 -0.00000000000E+00  0.00000000000E+00  0.16517285890E+03  0.16517285890E+03  0.00000000000E+00 0.  1.
          1   -1    0    0  501    0  0.00000000000E+00 -0.00000000000E+00 -0.92809529242E+02  0.92809529242E+02  0.00000000000E+00 0.  1.
         25    1    1    2    0    0 -0.11528299965E+02  0.19960586057E+02  0.56973525844E+02  0.13482325223E+03  0.12000000000E+03 0.  0.
         25    1    1    2    0    0  0.11528299965E+02 -0.19960586057E+02  0.15389803813E+02  0.12315913591E+03  0.12000000000E+03 0.  0.
<mgrwt>
<rscale>  0 0.24762565E+03</rscale>
<asrwt>0</asrwt>
<pdfrwt beam="1">  1        1 0.14278389E-01 0.24762565E+03</pdfrwt>
<pdfrwt beam="2">  1       -1 0.25411209E-01 0.24762565E+03</pdfrwt>
<totfact> 0.53224178E+03</totfact>
</mgrwt>
</event>
<event>
 4    1  0.1710914E-004  0.3745772E+03  0.7818608E-02  0.1052956E+00
         -2   -1    0    0    0  501 -0.00000000000E+00  0.00000000000E+00  0.38982876325E+02  0.38982876325E+02  0.00000000000E+00 0.  1.
          2   -1    0    0  501    0  0.00000000000E+00 -0.00000000000E+00 -0.89980606609E+03  0.89980606609E+03  0.00000000000E+00 0.  1.
         25    1    1    2    0    0  0.10678618625E+03 -0.82733468692E+02 -0.30689296165E+03  0.35613397244E+03  0.12000000000E+03 0.  0.
         25    1    1    2    0    0 -0.10678618625E+03  0.82733468692E+02 -0.55393022811E+03  0.58265496997E+03  0.12000000000E+03 0.  0.
<mgrwt>
<rscale>  0 0.37457725E+03</rscale>
<asrwt>0</asrwt>
<pdfrwt beam="1">  1        2 0.13843168E+00 0.37457725E+03</pdfrwt>
<pdfrwt beam="2">  1       -2 0.59973664E-02 0.37457725E+03</pdfrwt>
<totfact> 0.45218750E+03</totfact>
</mgrwt>
</event>
<event>
 4    1  0.1710914E-004  0.2617024E+03  0.7818608E-02  0.1106125E+00
         -2   -1    0    0    0  501 -0.00000000000E+00  0.00000000000E+00  0.42872150935E+02  0.42872150935E+02  0.00000000000E+00 0. -1.
          2   -1    0    0  501    0  0.00000000000E+00 -0.00000000000E+00 -0.39937444325E+03  0.39937444325E+03  0.00000000000E+00 0. -1.
         25    1    1    2    0    0 -0.11740580901E+02  0.32969516685E+02 -0.11286311592E+03  0.16841292470E+03  0.12000000000E+03 0.  0.
         25    1    1    2    0    0  0.11740580901E+02 -0.32969516685E+02 -0.24363917639E+03  0.27383366949E+03  0.12000000000E+03 0.  0.
<mgrwt>
<rscale>  0 0.26170244E+03</rscale>
<asrwt>0</asrwt>
<pdfrwt beam="1">  1        2 0.61442220E-01 0.26170244E+03</pdfrwt>
<pdfrwt beam="2">  1       -2 0.65957157E-02 0.26170244E+03</pdfrwt>
<totfact> 0.10123421E+04</totfact>
</mgrwt>
</event>
<event>
 4    1  0.1710914E-004  0.2546618E+03  0.7818608E-02  0.1110394E+00
          2   -1    0    0  501    0  0.00000000000E+00  0.00000000000E+00  0.83656146648E+02  0.83656146648E+02  0.00000000000E+00 0.  1.
         -2   -1    0    0    0  501 -0.00000000000E+00 -0.00000000000E+00 -0.19380719459E+03  0.19380719459E+03  0.00000000000E+00 0.  1.
         25    1    1    2    0    0  0.13037397626E+02  0.19628075259E+02 -0.16432630707E+02  0.12339070641E+03  0.12000000000E+03 0.  0.
         25    1    1    2    0    0 -0.13037397626E+02 -0.19628075259E+02 -0.93718417234E+02  0.15407263483E+03  0.12000000000E+03 0.  0.
<mgrwt>
<rscale>  0 0.25466184E+03</rscale>
<asrwt>0</asrwt>
<pdfrwt beam="1">  1        2 0.12870177E-01 0.25466184E+03</pdfrwt>
<pdfrwt beam="2">  1       -2 0.29816491E-01 0.25466184E+03</pdfrwt>
<totfact> 0.47999432E+03</totfact>
</mgrwt>
</event>
<event>
 4    1  0.1710914E-004  0.2460995E+03  0.7818608E-02  0.1115795E+00
         -1   -1    0    0    0  501 -0.00000000000E+00  0.00000000000E+00  0.74177606264E+01  0.74177606264E+01  0.00000000000E+00 0. -1.
          1   -1    0    0  501    0  0.00000000000E+00 -0.00000000000E+00 -0.20412141562E+04  0.20412141562E+04  0.00000000000E+00 0. -1.
         25    1    1    2    0    0 -0.25965150740E+02  0.61199266406E+01 -0.10621843758E+04  0.10692741888E+04  0.12000000000E+03 0.  0.
         25    1    1    2    0    0  0.25965150740E+02 -0.61199266406E+01 -0.97161201979E+03  0.97935772808E+03  0.12000000000E+03 0.  0.
<mgrwt>
<rscale>  0 0.24609948E+03</rscale>
<asrwt>0</asrwt>
<pdfrwt beam="1">  1        1 0.31403301E+00 0.24609948E+03</pdfrwt>
<pdfrwt beam="2">  1       -1 0.11411937E-02 0.24609948E+03</pdfrwt>
<totfact> 0.49227706E+03</totfact>
</mgrwt>
</event>
<event>
 4    1  0.1710914E-004  0.3990764E+03  0.7818608E-02  0.1044100E+00
          2   -1    0    0  501    0  0.00000000000E+00  0.00000000000E+00  0.24930886804E+04  0.24930886804E+04  0.00000000000E+00 0. -1.
         -2   -1    0    0    0  501 -0.00000000000E+00 -0.00000000000E+00 -0.15970346350E+02  0.15970346350E+02  0.00000000000E+00 0. -1.
         25    1    1    2    0    0 -0.60656371926E+02 -0.14447710399E+03  0.14232200266E+04  0.14368396129E+04  0.12000000000E+03 0.  0.
         25    1    1    2    0    0  0.60656371926E+02  0.14447710399E+03  0.10538983075E+04  0.10722194139E+04  0.12000000000E+03 0.  0.
<mgrwt>
<rscale>  0 0.39907638E+03</rscale>
<asrwt>0</asrwt>
<pdfrwt beam="1">  1        2 0.38355180E+00 0.39907638E+03</pdfrwt>
<pdfrwt beam="2">  1       -2 0.24569783E-02 0.39907638E+03</pdfrwt>
<totfact> 0.22832135E+03</totfact>
</mgrwt>
</event>
<event>
 4    1  0.1710914E-004  0.3378898E+03  0.7818608E-02  0.1067698E+00
          1   -1    0    0  501    0  0.00000000000E+00  0.00000000000E+00  0.44233506303E+03  0.44233506303E+03  0.00000000000E+00 0. -1.
         -1   -1    0    0    0  501 -0.00000000000E+00 -0.00000000000E+00 -0.64526591213E+02  0.64526591213E+02  0.00000000000E+00 0. -1.
         25    1    1    2    0    0  0.11299382263E+03 -0.26474373641E+02  0.14996343895E+03  0.22440483380E+03  0.12000000000E+03 0.  0.
         25    1    1    2    0    0 -0.11299382263E+03  0.26474373641E+02  0.22784503287E+03  0.28245682044E+03  0.12000000000E+03 0.  0.
<mgrwt>
<rscale>  0 0.33788977E+03</rscale>
<asrwt>0</asrwt>
<pdfrwt beam="1">  1        1 0.68051546E-01 0.33788977E+03</pdfrwt>
<pdfrwt beam="2">  1       -1 0.99271682E-02 0.33788977E+03</pdfrwt>
<totfact> 0.32829342E+03</totfact>
</mgrwt>
</event>
<event>
 4    1  0.1710914E-004  0.2631974E+03  0.7818608E-02  0.1105237E+00
         -2   -1    0    0    0  501 -0.00000000000E+00  0.00000000000E+00  0.42142231350E+02  0.42142231350E+02  0.00000000000E+00 0. -1.
          2   -1    0    0  501    0  0.00000000000E+00 -0.00000000000E+00 -0.41094683115E+03  0.41094683115E+03  0.00000000000E+00 0. -1.
         25    1    1    2    0    0  0.27904990938E+02  0.40260033681E+02 -0.14519721721E+03  0.19463245032E+03  0.12000000000E+03 0.  0.
         25    1    1    2    0    0 -0.27904990938E+02 -0.40260033681E+02 -0.22360738259E+03  0.25845661218E+03  0.12000000000E+03 0.  0.
<mgrwt>
<rscale>  0 0.26319739E+03</rscale>
<asrwt>0</asrwt>
<pdfrwt beam="1">  1        2 0.63222590E-01 0.26319739E+03</pdfrwt>
<pdfrwt beam="2">  1       -2 0.64834202E-02 0.26319739E+03</pdfrwt>
<totfact> 0.10079528E+04</totfact>
</mgrwt>
</event>
<event>
 4    1  0.1710914E-004  0.3797024E+03  0.7818608E-02  0.1051044E+00
          2   -1    0    0  501    0  0.00000000000E+00  0.00000000000E+00  0.40140872572E+03  0.40140872572E+03  0.00000000000E+00 0. -1.
         -2   -1    0    0    0  501 -0.00000000000E+00 -0.00000000000E+00 -0.89792464947E+02  0.89792464947E+02  0.00000000000E+00 0. -1.
         25    1    1    2    0    0 -0.14903981166E+02  0.13037865540E+03  0.24184063736E+03  0.30017930694E+03  0.12000000000E+03 0.  0.
         25    1    1    2    0    0  0.14903981166E+02 -0.13037865540E+03  0.69775623411E+02  0.19102188372E+03  0.12000000000E+03 0.  0.
<mgrwt>
<rscale>  0 0.37970240E+03</rscale>
<asrwt>0</asrwt>
<pdfrwt beam="1">  1        2 0.61755188E-01 0.37970240E+03</pdfrwt>
<pdfrwt beam="2">  1       -2 0.13814226E-01 0.37970240E+03</pdfrwt>
<totfact> 0.31376113E+03</totfact>
</mgrwt>
</event>
<event>
 4    1  0.1710914E-004  0.2544818E+03  0.7818608E-02  0.1110505E+00
         -2   -1    0    0    0  501 -0.00000000000E+00  0.00000000000E+00  0.29979071653E+03  0.29979071653E+03  0.00000000000E+00 0.  1.
          2   -1    0    0  501    0  0.00000000000E+00 -0.00000000000E+00 -0.54005163663E+02  0.54005163663E+02  0.00000000000E+00 0.  1.
         25    1    1    2    0    0  0.20395558234E+02 -0.34844036010E+02  0.10529837394E+03  0.16467493190E+03  0.12000000000E+03 0.  0.
         25    1    1    2    0    0 -0.20395558234E+02  0.34844036010E+02  0.14048717892E+03  0.18912094829E+03  0.12000000000E+03 0.  0.
<mgrwt>
<rscale>  0 0.25448180E+03</rscale>
<asrwt>0</asrwt>
<pdfrwt beam="1">  1        2 0.83084868E-02 0.25448180E+03</pdfrwt>
<pdfrwt beam="2">  1       -2 0.46121648E-01 0.25448180E+03</pdfrwt>
<totfact> 0.36252474E+03</totfact>
</mgrwt>
</event>
<event>
 4    1  0.1710914E-004  0.2610194E+03  0.7818608E-02  0.1106532E+00
         -1   -1    0    0    0  501 -0.00000000000E+00  0.00000000000E+00  0.38558803831E+02  0.38558803831E+02  0.00000000000E+00 0.  1.
          1   -1    0    0  501    0  0.00000000000E+00 -0.00000000000E+00 -0.44173531011E+03  0.44173531011E+03  0.00000000000E+00 0.  1.
         25    1    1    2    0    0  0.11340460418E+02  0.47978175705E+02 -0.17541822251E+03  0.21817897281E+03  0.12000000000E+03 0.  0.
         25    1    1    2    0    0 -0.11340460418E+02 -0.47978175705E+02 -0.22775828377E+03  0.26211514113E+03  0.12000000000E+03 0.  0.
<mgrwt>
<rscale>  0 0.26101943E+03</rscale>
<asrwt>0</asrwt>
<pdfrwt beam="1">  1        1 0.67959280E-01 0.26101943E+03</pdfrwt>
<pdfrwt beam="2">  1       -1 0.59321235E-02 0.26101943E+03</pdfrwt>
<totfact> 0.71770491E+03</totfact>
</mgrwt>
</event>
<event>
 4    1  0.1710914E-004  0.3091867E+03  0.7818608E-02  0.1080736E+00
         -4   -1    0    0    0  501 -0.00000000000E+00  0.00000000000E+00  0.12157170280E+03  0.12157170280E+03  0.00000000000E+00 0.  1.
          4   -1    0    0  501    0  0.00000000000E+00 -0.00000000000E+00 -0.19658437416E+03  0.19658437416E+03  0.00000000000E+00 0.  1.
         25    1    1    2    0    0  0.88538346469E+02  0.33145830501E+02 -0.61887835449E+02  0.16482654232E+03  0.12000000000E+03 0.  0.
         25    1    1    2    0    0 -0.88538346469E+02 -0.33145830501E+02 -0.13124835910E+02  0.15332953464E+03  0.12000000000E+03 0.  0.
<mgrwt>
<rscale>  0 0.30918666E+03</rscale>
<asrwt>0</asrwt>
<pdfrwt beam="1">  1        4 0.30243750E-01 0.30918666E+03</pdfrwt>
<pdfrwt beam="2">  1       -4 0.18703339E-01 0.30918666E+03</pdfrwt>
<totfact> 0.50691140E+02</totfact>
</mgrwt>
</event>
<event>
 4    1  0.1710914E-004  0.3157092E+03  0.7818608E-02  0.1077641E+00
          2   -1    0    0  501    0  0.00000000000E+00  0.00000000000E+00  0.53476301880E+02  0.53476301880E+02  0.00000000000E+00 0.  1.
         -2   -1    0    0    0  501 -0.00000000000E+00 -0.00000000000E+00 -0.46596492045E+03  0.46596492045E+03  0.00000000000E+00 0.  1.
         25    1    1    2    0    0  0.41541456046E+01  0.99336570047E+02 -0.24764188202E+03  0.29259445108E+03  0.12000000000E+03 0.  0.
         25    1    1    2    0    0 -0.41541456046E+01 -0.99336570047E+02 -0.16484673655E+03  0.22684677125E+03  0.12000000000E+03 0.  0.
<mgrwt>
<rscale>  0 0.31570924E+03</rscale>
<asrwt>0</asrwt>
<pdfrwt beam="1">  1        2 0.82271229E-02 0.31570924E+03</pdfrwt>
<pdfrwt beam="2">  1       -2 0.71686915E-01 0.31570924E+03</pdfrwt>
<totfact> 0.14908361E+03</totfact>
</mgrwt>
</event>
<event>
 4    1  0.1710914E-004  0.2631350E+03  0.7818608E-02  0.1105274E+00
         -1   -1    0    0    0  501 -0.00000000000E+00  0.00000000000E+00  0.53537749897E+03  0.53537749897E+03  0.00000000000E+00 0. -1.
          1   -1    0    0  501    0  0.00000000000E+00 -0.00000000000E+00 -0.32332345862E+02  0.32332345862E+02  0.00000000000E+00 0. -1.
         25    1    1    2    0    0  0.39292563104E+02 -0.12053139001E+02  0.32690581485E+03  0.35065167254E+03  0.12000000000E+03 0.  0.
         25    1    1    2    0    0 -0.39292563104E+02  0.12053139001E+02  0.17613933826E+03  0.21705817229E+03  0.12000000000E+03 0.  0.
<mgrwt>
<rscale>  0 0.26313503E+03</rscale>
<asrwt>0</asrwt>
<pdfrwt beam="1">  1        1 0.49742074E-02 0.26313503E+03</pdfrwt>
<pdfrwt beam="2">  1       -1 0.82365763E-01 0.26313503E+03</pdfrwt>
<totfact> 0.25640530E+03</totfact>
</mgrwt>
</event>
<event>
 4    1  0.1710914E-004  0.2635978E+03  0.7818608E-02  0.1105001E+00
         -1   -1    0    0    0  501 -0.00000000000E+00  0.00000000000E+00  0.20408509737E+02  0.20408509737E+02  0.00000000000E+00 0. -1.
          1   -1    0    0  501    0  0.00000000000E+00 -0.00000000000E+00 -0.85116240195E+03  0.85116240195E+03  0.00000000000E+00 0. -1.
         25    1    1    2    0    0 -0.10516809368E+02  0.47107068243E+02 -0.49910745001E+03  0.51559473020E+03  0.12000000000E+03 0.  0.
         25    1    1    2    0    0  0.10516809368E+02 -0.47107068243E+02 -0.33164644221E+03  0.35597618149E+03  0.12000000000E+03 0.  0.
<mgrwt>
<rscale>  0 0.26359785E+03</rscale>
<asrwt>0</asrwt>
<pdfrwt beam="1">  1        1 0.13094804E+00 0.26359785E+03</pdfrwt>
<pdfrwt beam="2">  1       -1 0.31397713E-02 0.26359785E+03</pdfrwt>
<totfact> 0.73459902E+03</totfact>
</mgrwt>
</event>
<event>
 4    1  0.1710914E-004  0.3271308E+03  0.7818608E-02  0.1072413E+00
          2   -1    0    0  501    0  0.00000000000E+00  0.00000000000E+00  0.65968162081E+03  0.65968162081E+03  0.00000000000E+00 0. -1.
         -2   -1    0    0    0  501 -0.00000000000E+00 -0.00000000000E+00 -0.40555384376E+02  0.40555384376E+02  0.00000000000E+00 0. -1.
         25    1    1    2    0    0 -0.29179101034E+02  0.23183069329E+02  0.53370515498E+03  0.54829742576E+03  0.12000000000E+03 0.  0.
         25    1    1    2    0    0  0.29179101034E+02 -0.23183069329E+02  0.85421081460E+02  0.15193957943E+03  0.12000000000E+03 0.  0.
<mgrwt>
<rscale>  0 0.32713081E+03</rscale>
<asrwt>0</asrwt>
<pdfrwt beam="1">  1        2 0.10148947E+00 0.32713081E+03</pdfrwt>
<pdfrwt beam="2">  1       -2 0.62392904E-02 0.32713081E+03</pdfrwt>
<totfact> 0.62960848E+03</totfact>
</mgrwt>
</event>
<event>
 4    1  0.1710914E-004  0.2938074E+03  0.7818608E-02  0.1088378E+00
         -1   -1    0    0    0  501 -0.00000000000E+00  0.00000000000E+00  0.13246118317E+03  0.13246118317E+03  0.00000000000E+00 0.  1.
          1   -1    0    0  501    0  0.00000000000E+00 -0.00000000000E+00 -0.16292087702E+03  0.16292087702E+03  0.00000000000E+00 0.  1.
         25    1    1    2    0    0  0.55560990472E+02 -0.63160309328E+02 -0.25504395762E+02  0.14875053795E+03  0.12000000000E+03 0.  0.
         25    1    1    2    0    0 -0.55560990472E+02  0.63160309328E+02 -0.49552980915E+01  0.14663152224E+03  0.12000000000E+03 0.  0.
<mgrwt>
<rscale>  0 0.29380737E+03</rscale>
<asrwt>0</asrwt>
<pdfrwt beam="1">  1        1 0.25064750E-01 0.29380737E+03</pdfrwt>
<pdfrwt beam="2">  1       -1 0.20378644E-01 0.29380737E+03</pdfrwt>
<totfact> 0.37173390E+03</totfact>
</mgrwt>
</event>
<event>
 4    1  0.1710914E-004  0.3306299E+03  0.7818608E-02  0.1070859E+00
         -2   -1    0    0    0  501 -0.00000000000E+00  0.00000000000E+00  0.30239369879E+03  0.30239369879E+03  0.00000000000E+00 0.  1.
          2   -1    0    0  501    0  0.00000000000E+00 -0.00000000000E+00 -0.90375644027E+02  0.90375644027E+02  0.00000000000E+00 0.  1.
         25    1    1    2    0    0  0.56675834777E+02 -0.92982903205E+02  0.67131257099E+02  0.17539833584E+03  0.12000000000E+03 0.  0.
         25    1    1    2    0    0 -0.56675834777E+02  0.92982903205E+02  0.14488679766E+03  0.21737100698E+03  0.12000000000E+03 0.  0.
<mgrwt>
<rscale>  0 0.33062986E+03</rscale>
<asrwt>0</asrwt>
<pdfrwt beam="1">  1        2 0.13903945E-01 0.33062986E+03</pdfrwt>
<pdfrwt beam="2">  1       -2 0.46522107E-01 0.33062986E+03</pdfrwt>
<totfact> 0.19007212E+03</totfact>
</mgrwt>
</event>
<event>
 4    1  0.1710914E-004  0.2723608E+03  0.7818608E-02  0.1099936E+00
          1   -1    0    0  501    0  0.00000000000E+00  0.00000000000E+00  0.11258392079E+04  0.11258392079E+04  0.00000000000E+00 0. -1.
         -1   -1    0    0    0  501 -0.00000000000E+00 -0.00000000000E+00 -0.16472251564E+02  0.16472251564E+02  0.00000000000E+00 0. -1.
         25    1    1    2    0    0 -0.29797444485E+02 -0.39044557785E+02  0.72926840850E+03  0.74070559389E+03  0.12000000000E+03 0.  0.
         25    1    1    2    0    0  0.29797444485E+02  0.39044557785E+02  0.38009854779E+03  0.40160586552E+03  0.12000000000E+03 0.  0.
<mgrwt>
<rscale>  0 0.27236084E+03</rscale>
<asrwt>0</asrwt>
<pdfrwt beam="1">  1        1 0.17320597E+00 0.27236084E+03</pdfrwt>
<pdfrwt beam="2">  1       -1 0.25341934E-02 0.27236084E+03</pdfrwt>
<totfact> 0.62530846E+03</totfact>
</mgrwt>
</event>
<event>
 4    1  0.1710914E-004  0.4862861E+03  0.7818608E-02  0.1017422E+00
         -2   -1    0    0    0  501 -0.00000000000E+00  0.00000000000E+00  0.26724657345E+03  0.26724657345E+03  0.00000000000E+00 0.  1.
          2   -1    0    0  501    0  0.00000000000E+00 -0.00000000000E+00 -0.22121349435E+03  0.22121349435E+03  0.00000000000E+00 0.  1.
         25    1    1    2    0    0 -0.17450972719E+03 -0.88679865081E+02 -0.57346028973E+02  0.23665656635E+03  0.12000000000E+03 0.  0.
         25    1    1    2    0    0  0.17450972719E+03  0.88679865081E+02  0.10337910808E+03  0.25180350145E+03  0.12000000000E+03 0.  0.
<mgrwt>
<rscale>  0 0.48628612E+03</rscale>
<asrwt>0</asrwt>
<pdfrwt beam="1">  1        2 0.34032845E-01 0.48628612E+03</pdfrwt>
<pdfrwt beam="2">  1       -2 0.41114858E-01 0.48628612E+03</pdfrwt>
<totfact> 0.86745198E+02</totfact>
</mgrwt>
</event>
<event>
 4    1  0.1710914E-004  0.2643548E+03  0.7818608E-02  0.1104555E+00
          2   -1    0    0  501    0  0.00000000000E+00  0.00000000000E+00  0.45554065760E+04  0.45554065760E+04  0.00000000000E+00 0.  1.
         -2   -1    0    0    0  501 -0.00000000000E+00 -0.00000000000E+00 -0.38351919389E+01  0.38351919389E+01  0.00000000000E+00 0.  1.
         25    1    1    2    0    0 -0.40272941552E+02  0.49126317680E+01  0.16247801097E+04  0.16297105414E+04  0.12000000000E+03 0.  0.
         25    1    1    2    0    0  0.40272941552E+02 -0.49126317680E+01  0.29267912743E+04  0.29295312265E+04  0.12000000000E+03 0.  0.
<mgrwt>
<rscale>  0 0.26435475E+03</rscale>
<asrwt>0</asrwt>
<pdfrwt beam="1">  1        2 0.70082745E+00 0.26435475E+03</pdfrwt>
<pdfrwt beam="2">  1       -2 0.59003317E-03 0.26435475E+03</pdfrwt>
<totfact> 0.69162936E+02</totfact>
</mgrwt>
</event>
<event>
 4    1  0.1710914E-004  0.2614689E+03  0.7818608E-02  0.1106264E+00
          2   -1    0    0  501    0  0.00000000000E+00  0.00000000000E+00  0.15218080212E+04  0.15218080212E+04  0.00000000000E+00 0. -1.
         -2   -1    0    0    0  501 -0.00000000000E+00 -0.00000000000E+00 -0.11231048706E+02  0.11231048706E+02  0.00000000000E+00 0. -1.
         25    1    1    2    0    0 -0.14825225009E+02 -0.48535421420E+02  0.69213315621E+03  0.70428955718E+03  0.12000000000E+03 0.  0.
         25    1    1    2    0    0  0.14825225009E+02  0.48535421420E+02  0.81844381633E+03  0.82874951277E+03  0.12000000000E+03 0.  0.
<mgrwt>
<rscale>  0 0.26146893E+03</rscale>
<asrwt>0</asrwt>
<pdfrwt beam="1">  1        2 0.23412415E+00 0.26146893E+03</pdfrwt>
<pdfrwt beam="2">  1       -2 0.17278548E-02 0.26146893E+03</pdfrwt>
<totfact> 0.12714251E+04</totfact>
</mgrwt>
</event>
<event>
 4    1  0.1710914E-004  0.2695712E+03  0.7818608E-02  0.1101525E+00
         -2   -1    0    0    0  501 -0.00000000000E+00  0.00000000000E+00  0.13902549915E+02  0.13902549915E+02  0.00000000000E+00 0.  1.
          2   -1    0    0  501    0  0.00000000000E+00 -0.00000000000E+00 -0.13067501171E+04  0.13067501171E+04  0.00000000000E+00 0.  1.
         25    1    1    2    0    0 -0.14986959210E+02 -0.49313585194E+02 -0.80969793186E+03  0.82016289814E+03  0.12000000000E+03 0.  0.
         25    1    1    2    0    0  0.14986959210E+02  0.49313585194E+02 -0.48314963529E+03  0.50048976884E+03  0.12000000000E+03 0.  0.
<mgrwt>
<rscale>  0 0.26957121E+03</rscale>
<asrwt>0</asrwt>
<pdfrwt beam="1">  1        2 0.20103856E+00 0.26957121E+03</pdfrwt>
<pdfrwt beam="2">  1       -2 0.21388530E-02 0.26957121E+03</pdfrwt>
<totfact> 0.12161950E+04</totfact>
</mgrwt>
</event>
<event>
 4    1  0.1710914E-004  0.3429852E+03  0.7818608E-02  0.1065532E+00
          2   -1    0    0  501    0  0.00000000000E+00  0.00000000000E+00  0.56781679946E+02  0.56781679946E+02  0.00000000000E+00 0. -1.
         -2   -1    0    0    0  501 -0.00000000000E+00 -0.00000000000E+00 -0.51794354393E+03  0.51794354393E+03  0.00000000000E+00 0. -1.
         25    1    1    2    0    0 -0.33831658906E+01 -0.11444389522E+03 -0.15752436442E+03  0.22874172411E+03  0.12000000000E+03 0.  0.
         25    1    1    2    0    0  0.33831658906E+01  0.11444389522E+03 -0.30363749957E+03  0.34598349977E+03  0.12000000000E+03 0.  0.
<mgrwt>
<rscale>  0 0.34298516E+03</rscale>
<asrwt>0</asrwt>
<pdfrwt beam="1">  1        2 0.87356435E-02 0.34298516E+03</pdfrwt>
<pdfrwt beam="2">  1       -2 0.79683618E-01 0.34298516E+03</pdfrwt>
<totfact> 0.10977290E+03</totfact>
</mgrwt>
</event>
<event>
 4    1  0.1710914E-004  0.2902760E+03  0.7818608E-02  0.1090205E+00
         -2   -1    0    0    0  501 -0.00000000000E+00  0.00000000000E+00  0.96598821471E+02  0.96598821471E+02  0.00000000000E+00 0. -1.
          2   -1    0    0  501    0  0.00000000000E+00 -0.00000000000E+00 -0.21806725315E+03  0.21806725315E+03  0.00000000000E+00 0. -1.
         25    1    1    2    0    0 -0.17302696832E+02 -0.79343404756E+02 -0.51646471860E+02  0.15382495653E+03  0.12000000000E+03 0.  0.
         25    1    1    2    0    0  0.17302696832E+02  0.79343404756E+02 -0.69821959820E+02  0.16084111809E+03  0.12000000000E+03 0.  0.
<mgrwt>
<rscale>  0 0.29027600E+03</rscale>
<asrwt>0</asrwt>
<pdfrwt beam="1">  1        2 0.33548808E-01 0.29027600E+03</pdfrwt>
<pdfrwt beam="2">  1       -2 0.14861357E-01 0.29027600E+03</pdfrwt>
<totfact> 0.53640529E+03</totfact>
</mgrwt>
</event>
<event>
 4    1  0.1710914E-004  0.2745385E+03  0.7818608E-02  0.1098710E+00
         -1   -1    0    0    0  501 -0.00000000000E+00  0.00000000000E+00  0.11709159196E+03  0.11709159196E+03  0.00000000000E+00 0. -1.
          1   -1    0    0  501    0  0.00000000000E+00 -0.00000000000E+00 -0.16092397767E+03  0.16092397767E+03  0.00000000000E+00 0. -1.
         25    1    1    2    0    0 -0.88094440819E+01 -0.11707601236E+02 -0.87764123874E+02  0.14938947644E+03  0.12000000000E+03 0.  0.
         25    1    1    2    0    0  0.88094440819E+01  0.11707601236E+02  0.43931738161E+02  0.12862609319E+03  0.12000000000E+03 0.  0.
<mgrwt>
<rscale>  0 0.27453848E+03</rscale>
<asrwt>0</asrwt>
<pdfrwt beam="1">  1        1 0.24757535E-01 0.27453848E+03</pdfrwt>
<pdfrwt beam="2">  1       -1 0.18014091E-01 0.27453848E+03</pdfrwt>
<totfact> 0.46031765E+03</totfact>
</mgrwt>
</event>
<event>
 4    1  0.1710914E-004  0.3629376E+03  0.7818608E-02  0.1057427E+00
          2   -1    0    0  501    0  0.00000000000E+00  0.00000000000E+00  0.35474436525E+03  0.35474436525E+03  0.00000000000E+00 0. -1.
         -2   -1    0    0    0  501 -0.00000000000E+00 -0.00000000000E+00 -0.92830026199E+02  0.92830026199E+02  0.00000000000E+00 0. -1.
         25    1    1    2    0    0  0.12525683256E+01 -0.13590914553E+03  0.14035411160E+03  0.22928615617E+03  0.12000000000E+03 0.  0.
         25    1    1    2    0    0 -0.12525683256E+01  0.13590914553E+03  0.12156022745E+03  0.21828823528E+03  0.12000000000E+03 0.  0.
<mgrwt>
<rscale>  0 0.36293762E+03</rscale>
<asrwt>0</asrwt>
<pdfrwt beam="1">  1        2 0.54576056E-01 0.36293762E+03</pdfrwt>
<pdfrwt beam="2">  1       -2 0.14281543E-01 0.36293762E+03</pdfrwt>
<totfact> 0.33974659E+03</totfact>
</mgrwt>
</event>
<event>
 4    1  0.1710914E-004  0.2699871E+03  0.7818608E-02  0.1101287E+00
          2   -1    0    0  501    0  0.00000000000E+00  0.00000000000E+00  0.15973625459E+04  0.15973625459E+04  0.00000000000E+00 0.  1.
         -2   -1    0    0    0  501 -0.00000000000E+00 -0.00000000000E+00 -0.11408339885E+02  0.11408339885E+02  0.00000000000E+00 0.  1.
         25    1    1    2    0    0  0.36636578214E+02  0.42361770231E+02  0.63685285432E+03  0.65047545419E+03  0.12000000000E+03 0.  0.
         25    1    1    2    0    0 -0.36636578214E+02 -0.42361770231E+02  0.94910135173E+03  0.95829543163E+03  0.12000000000E+03 0.  0.
<mgrwt>
<rscale>  0 0.26998707E+03</rscale>
<asrwt>0</asrwt>
<pdfrwt beam="1">  1        2 0.24574791E+00 0.26998707E+03</pdfrwt>
<pdfrwt beam="2">  1       -2 0.17551305E-02 0.26998707E+03</pdfrwt>
<totfact> 0.11337160E+04</totfact>
</mgrwt>
</event>
<event>
 4    1  0.1710914E-004  0.2441587E+03  0.7818608E-02  0.1117053E+00
         -2   -1    0    0    0  501 -0.00000000000E+00  0.00000000000E+00  0.73966354535E+02  0.73966354535E+02  0.00000000000E+00 0.  1.
          2   -1    0    0  501    0  0.00000000000E+00 -0.00000000000E+00 -0.20148840724E+03  0.20148840724E+03  0.00000000000E+00 0.  1.
         25    1    1    2    0    0  0.19781496316E+02 -0.29943230998E+01 -0.52306288628E+02  0.13242439880E+03  0.12000000000E+03 0.  0.
         25    1    1    2    0    0 -0.19781496316E+02  0.29943230998E+01 -0.75215764079E+02  0.14303036298E+03  0.12000000000E+03 0.  0.
<mgrwt>
<rscale>  0 0.24415866E+03</rscale>
<asrwt>0</asrwt>
<pdfrwt beam="1">  1        2 0.30998216E-01 0.24415866E+03</pdfrwt>
<pdfrwt beam="2">  1       -2 0.11379439E-01 0.24415866E+03</pdfrwt>
<totfact> 0.89673211E+03</totfact>
</mgrwt>
</event>
<event>
 4    1  0.1710914E-004  0.2893117E+03  0.7818608E-02  0.1090709E+00
          2   -1    0    0  501    0  0.00000000000E+00  0.00000000000E+00  0.59561796616E+02  0.59561796616E+02  0.00000000000E+00 0. -1.
         -2   -1    0    0    0  501 -0.00000000000E+00 -0.00000000000E+00 -0.35132108274E+03  0.35132108274E+03  0.00000000000E+00 0. -1.
         25    1    1    2    0    0  0.41278518843E+02 -0.69364776706E+02 -0.14140508270E+03  0.20226414853E+03  0.12000000000E+03 0.  0.
         25    1    1    2    0    0 -0.41278518843E+02  0.69364776706E+02 -0.15035420342E+03  0.20861873082E+03  0.12000000000E+03 0.  0.
<mgrwt>
<rscale>  0 0.28931170E+03</rscale>
<asrwt>0</asrwt>
<pdfrwt beam="1">  1        2 0.91633536E-02 0.28931170E+03</pdfrwt>
<pdfrwt beam="2">  1       -2 0.54049396E-01 0.28931170E+03</pdfrwt>
<totfact> 0.23445145E+03</totfact>
</mgrwt>
</event>
<event>
 4    1  0.1710914E-004  0.3271104E+03  0.7818608E-02  0.1072423E+00
          2   -1    0    0  501    0  0.00000000000E+00  0.00000000000E+00  0.94377316987E+03  0.94377316987E+03  0.00000000000E+00 0. -1.
         -2   -1    0    0    0  501 -0.00000000000E+00 -0.00000000000E+00 -0.28343995272E+02  0.28343995272E+02  0.00000000000E+00 0. -1.
         25    1    1    2    0    0 -0.18260799826E+02 -0.10414857044E+02  0.78201727085E+03  0.79144989606E+03  0.12000000000E+03 0.  0.
         25    1    1    2    0    0  0.18260799826E+02  0.10414857044E+02  0.13341190374E+03  0.18066726908E+03  0.12000000000E+03 0.  0.
<mgrwt>
<rscale>  0 0.32711039E+03</rscale>
<asrwt>0</asrwt>
<pdfrwt beam="1">  1        2 0.14519585E+00 0.32711039E+03</pdfrwt>
<pdfrwt beam="2">  1       -2 0.43606154E-02 0.32711039E+03</pdfrwt>
<totfact> 0.68875518E+03</totfact>
</mgrwt>
</event>
<event>
 4    1  0.1710914E-004  0.2530246E+03  0.7818608E-02  0.1111408E+00
         -2   -1    0    0    0  501 -0.00000000000E+00  0.00000000000E+00  0.12242113534E+02  0.12242113534E+02  0.00000000000E+00 0.  1.
          2   -1    0    0  501    0  0.00000000000E+00 -0.00000000000E+00 -0.13074022690E+04  0.13074022690E+04  0.00000000000E+00 0.  1.
         25    1    1    2    0    0 -0.63945678783E+01 -0.35881899161E+01 -0.44214046798E+03  0.45819423723E+03  0.12000000000E+03 0.  0.
         25    1    1    2    0    0  0.63945678783E+01  0.35881899161E+01 -0.85301968747E+03  0.86145014529E+03  0.12000000000E+03 0.  0.
<mgrwt>
<rscale>  0 0.25302464E+03</rscale>
<asrwt>0</asrwt>
<pdfrwt beam="1">  1        2 0.20113870E+00 0.25302464E+03</pdfrwt>
<pdfrwt beam="2">  1       -2 0.18834031E-02 0.25302464E+03</pdfrwt>
<totfact> 0.14621746E+04</totfact>
</mgrwt>
</event>
<event>
 4    1  0.1710914E-004  0.3130075E+03  0.7818608E-02  0.1078913E+00
         -1   -1    0    0    0  501 -0.00000000000E+00  0.00000000000E+00  0.57436742465E+02  0.57436742465E+02  0.00000000000E+00 0.  1.
          1   -1    0    0  501    0  0.00000000000E+00 -0.00000000000E+00 -0.42644172464E+03  0.42644172464E+03  0.00000000000E+00 0.  1.
         25    1    1    2    0    0 -0.63992847634E+02  0.38069158847E+02 -0.28876862043E+03  0.32145242501E+03  0.12000000000E+03 0.  0.
         25    1    1    2    0    0  0.63992847634E+02 -0.38069158847E+02 -0.80236361751E+02  0.16242604210E+03  0.12000000000E+03 0.  0.
<mgrwt>
<rscale>  0 0.31300750E+03</rscale>
<asrwt>0</asrwt>
<pdfrwt beam="1">  1        1 0.65606421E-01 0.31300750E+03</pdfrwt>
<pdfrwt beam="2">  1       -1 0.88364217E-02 0.31300750E+03</pdfrwt>
<totfact> 0.41166318E+03</totfact>
</mgrwt>
</event>
<event>
 4    1  0.1710914E-004  0.3316178E+03  0.7818608E-02  0.1070423E+00
         -2   -1    0    0    0  501 -0.00000000000E+00  0.00000000000E+00  0.18247069735E+02  0.18247069735E+02  0.00000000000E+00 0.  1.
          2   -1    0    0  501    0  0.00000000000E+00 -0.00000000000E+00 -0.15066854037E+04  0.15066854037E+04  0.00000000000E+00 0.  1.
         25    1    1    2    0    0  0.73395460267E+02  0.86094491631E+02 -0.66544726221E+03  0.68557947304E+03  0.12000000000E+03 0.  0.
         25    1    1    2    0    0 -0.73395460267E+02 -0.86094491631E+02 -0.82299107179E+03  0.83935300042E+03  0.12000000000E+03 0.  0.
<mgrwt>
<rscale>  0 0.33161781E+03</rscale>
<asrwt>0</asrwt>
<pdfrwt beam="1">  1        2 0.23179778E+00 0.33161781E+03</pdfrwt>
<pdfrwt beam="2">  1       -2 0.28072412E-02 0.33161781E+03</pdfrwt>
<totfact> 0.63453579E+03</totfact>
</mgrwt>
</event>
<event>
 4    1  0.1710914E-004  0.3840365E+03  0.7818608E-02  0.1049452E+00
          2   -1    0    0  501    0  0.00000000000E+00  0.00000000000E+00  0.10459971720E+03  0.10459971720E+03  0.00000000000E+00 0.  1.
         -2   -1    0    0    0  501 -0.00000000000E+00 -0.00000000000E+00 -0.35249633444E+03  0.35249633444E+03  0.00000000000E+00 0.  1.
         25    1    1    2    0    0  0.57771332431E+01 -0.14903365887E+03 -0.14186569240E+03  0.23826514941E+03  0.12000000000E+03 0.  0.
         25    1    1    2    0    0 -0.57771332431E+01  0.14903365887E+03 -0.10603092484E+03  0.21883090222E+03  0.12000000000E+03 0.  0.
<mgrwt>
<rscale>  0 0.38403654E+03</rscale>
<asrwt>0</asrwt>
<pdfrwt beam="1">  1        2 0.16092264E-01 0.38403654E+03</pdfrwt>
<pdfrwt beam="2">  1       -2 0.54230205E-01 0.38403654E+03</pdfrwt>
<totfact> 0.11754375E+03</totfact>
</mgrwt>
</event>
<event>
 4    1  0.1710914E-004  0.2810278E+03  0.7818608E-02  0.1095129E+00
         -4   -1    0    0    0  501 -0.00000000000E+00  0.00000000000E+00  0.38629798975E+03  0.38629798975E+03  0.00000000000E+00 0. -1.
          4   -1    0    0  501    0  0.00000000000E+00 -0.00000000000E+00 -0.51111209353E+02  0.51111209353E+02  0.00000000000E+00 0. -1.
         25    1    1    2    0    0  0.35624999028E+02 -0.54802776608E+02  0.21854637935E+03  0.25774988808E+03  0.12000000000E+03 0.  0.
         25    1    1    2    0    0 -0.35624999028E+02  0.54802776608E+02  0.11664040105E+03  0.17965931102E+03  0.12000000000E+03 0.  0.
<mgrwt>
<rscale>  0 0.28102781E+03</rscale>
<asrwt>0</asrwt>
<pdfrwt beam="1">  1        4 0.78632632E-02 0.28102781E+03</pdfrwt>
<pdfrwt beam="2">  1       -4 0.59430458E-01 0.28102781E+03</pdfrwt>
<totfact> 0.57807298E+02</totfact>
</mgrwt>
</event>
<event>
 4    1  0.1710914E-004  0.2922530E+03  0.7818608E-02  0.1089179E+00
         -1   -1    0    0    0  501 -0.00000000000E+00  0.00000000000E+00  0.65822099445E+01  0.65822099445E+01  0.00000000000E+00 0.  1.
          1   -1    0    0  501    0  0.00000000000E+00 -0.00000000000E+00 -0.32440393370E+04  0.32440393370E+04  0.00000000000E+00 0.  1.
         25    1    1    2    0    0  0.39372303676E+02  0.67503392325E+02 -0.12952030659E+04  0.13030954946E+04  0.12000000000E+03 0.  0.
         25    1    1    2    0    0 -0.39372303676E+02 -0.67503392325E+02 -0.19422540611E+04  0.19475260523E+04  0.12000000000E+03 0.  0.
<mgrwt>
<rscale>  0 0.29225296E+03</rscale>
<asrwt>0</asrwt>
<pdfrwt beam="1">  1        1 0.49908264E+00 0.29225296E+03</pdfrwt>
<pdfrwt beam="2">  1       -1 0.10126484E-02 0.29225296E+03</pdfrwt>
<totfact> 0.89394097E+02</totfact>
</mgrwt>
</event>
<event>
 4    1  0.1710914E-004  0.3620282E+03  0.7818608E-02  0.1057784E+00
         -2   -1    0    0    0  501 -0.00000000000E+00  0.00000000000E+00  0.19747230048E+02  0.19747230048E+02  0.00000000000E+00 0.  1.
          2   -1    0    0  501    0  0.00000000000E+00 -0.00000000000E+00 -0.16592761409E+04  0.16592761409E+04  0.00000000000E+00 0.  1.
         25    1    1    2    0    0  0.13185300577E+03  0.25247474111E+02 -0.73381346660E+03  0.75558245999E+03  0.12000000000E+03 0.  0.
         25    1    1    2    0    0 -0.13185300577E+03 -0.25247474111E+02 -0.90571544430E+03  0.92344091100E+03  0.12000000000E+03 0.  0.
<mgrwt>
<rscale>  0 0.36202822E+03</rscale>
<asrwt>0</asrwt>
<pdfrwt beam="1">  1        2 0.25527333E+00 0.36202822E+03</pdfrwt>
<pdfrwt beam="2">  1       -2 0.30380344E-02 0.36202822E+03</pdfrwt>
<totfact> 0.46709351E+03</totfact>
</mgrwt>
</event>
<event>
 4    1  0.1710914E-004  0.3550655E+03  0.7818608E-02  0.1060555E+00
          2   -1    0    0  501    0  0.00000000000E+00  0.00000000000E+00  0.91454988303E+03  0.91454988303E+03  0.00000000000E+00 0.  1.
         -2   -1    0    0    0  501 -0.00000000000E+00 -0.00000000000E+00 -0.34462719114E+02  0.34462719114E+02  0.00000000000E+00 0.  1.
         25    1    1    2    0    0 -0.32096860282E+01  0.13036313267E+03  0.41162809046E+03  0.44815458638E+03  0.12000000000E+03 0.  0.
         25    1    1    2    0    0  0.32096860282E+01 -0.13036313267E+03  0.46845907346E+03  0.50085801576E+03  0.12000000000E+03 0.  0.
<mgrwt>
<rscale>  0 0.35506549E+03</rscale>
<asrwt>0</asrwt>
<pdfrwt beam="1">  1        2 0.14069996E+00 0.35506549E+03</pdfrwt>
<pdfrwt beam="2">  1       -2 0.53019575E-02 0.35506549E+03</pdfrwt>
<totfact> 0.53442300E+03</totfact>
</mgrwt>
</event>
<event>
 4    1  0.1710914E-004  0.2534465E+03  0.7818608E-02  0.1111146E+00
          2   -1    0    0  501    0  0.00000000000E+00  0.00000000000E+00  0.36315811736E+03  0.36315811736E+03  0.00000000000E+00 0. -1.
         -2   -1    0    0    0  501 -0.00000000000E+00 -0.00000000000E+00 -0.44219801796E+02  0.44219801796E+02  0.00000000000E+00 0. -1.
         25    1    1    2    0    0  0.54573774172E+01  0.28544364718E+02  0.20533412606E+03  0.23959688448E+03  0.12000000000E+03 0.  0.
         25    1    1    2    0    0 -0.54573774172E+01 -0.28544364718E+02  0.11360418950E+03  0.16778103468E+03  0.12000000000E+03 0.  0.
<mgrwt>
<rscale>  0 0.25344648E+03</rscale>
<asrwt>0</asrwt>
<pdfrwt beam="1">  1        2 0.55870478E-01 0.25344648E+03</pdfrwt>
<pdfrwt beam="2">  1       -2 0.68030467E-02 0.25344648E+03</pdfrwt>
<totfact> 0.10681423E+04</totfact>
</mgrwt>
</event>
<event>
 4    1  0.1710914E-004  0.3071059E+03  0.7818608E-02  0.1081741E+00
         -2   -1    0    0    0  501 -0.00000000000E+00  0.00000000000E+00  0.16271288325E+02  0.16271288325E+02  0.00000000000E+00 0.  1.
          2   -1    0    0  501    0  0.00000000000E+00 -0.00000000000E+00 -0.14490864918E+04  0.14490864918E+04  0.00000000000E+00 0.  1.
         25    1    1    2    0    0 -0.92805565844E+02 -0.11951636095E+02 -0.81451858530E+03  0.82861103085E+03  0.12000000000E+03 0.  0.
         25    1    1    2    0    0  0.92805565844E+02  0.11951636095E+02 -0.61829661817E+03  0.63674674926E+03  0.12000000000E+03 0.  0.
<mgrwt>
<rscale>  0 0.30710587E+03</rscale>
<asrwt>0</asrwt>
<pdfrwt beam="1">  1        2 0.22293644E+00 0.30710587E+03</pdfrwt>
<pdfrwt beam="2">  1       -2 0.25032745E-02 0.30710587E+03</pdfrwt>
<totfact> 0.80782666E+03</totfact>
</mgrwt>
</event>
<event>
 4    1  0.1710914E-004  0.3231852E+03  0.7818608E-02  0.1074193E+00
          2   -1    0    0  501    0  0.00000000000E+00  0.00000000000E+00  0.14683153024E+04  0.14683153024E+04  0.00000000000E+00 0. -1.
         -2   -1    0    0    0  501 -0.00000000000E+00 -0.00000000000E+00 -0.17783757672E+02  0.17783757672E+02  0.00000000000E+00 0. -1.
         25    1    1    2    0    0  0.66553656837E+02 -0.80345636347E+02  0.85752980490E+03  0.87214802460E+03  0.12000000000E+03 0.  0.
         25    1    1    2    0    0 -0.66553656837E+02  0.80345636347E+02  0.59300173980E+03  0.61395103544E+03  0.12000000000E+03 0.  0.
<mgrwt>
<rscale>  0 0.32318517E+03</rscale>
<asrwt>0</asrwt>
<pdfrwt beam="1">  1        2 0.22589457E+00 0.32318517E+03</pdfrwt>
<pdfrwt beam="2">  1       -2 0.27359639E-02 0.32318517E+03</pdfrwt>
<totfact> 0.69142545E+03</totfact>
</mgrwt>
</event>
<event>
 4    1  0.1710914E-004  0.2991236E+03  0.7818608E-02  0.1085680E+00
          1   -1    0    0  501    0  0.00000000000E+00  0.00000000000E+00  0.46198838260E+02  0.46198838260E+02  0.00000000000E+00 0. -1.
         -1   -1    0    0    0  501 -0.00000000000E+00 -0.00000000000E+00 -0.48418386788E+03  0.48418386788E+03  0.00000000000E+00 0. -1.
         25    1    1    2    0    0 -0.10431579265E+02 -0.72016124464E+02 -0.12731005546E+03  0.18948084402E+03  0.12000000000E+03 0.  0.
         25    1    1    2    0    0  0.10431579265E+02  0.72016124464E+02 -0.31067497416E+03  0.34090186212E+03  0.12000000000E+03 0.  0.
<mgrwt>
<rscale>  0 0.29912360E+03</rscale>
<asrwt>0</asrwt>
<pdfrwt beam="1">  1        1 0.71075137E-02 0.29912360E+03</pdfrwt>
<pdfrwt beam="2">  1       -1 0.74489824E-01 0.29912360E+03</pdfrwt>
<totfact> 0.19342420E+03</totfact>
</mgrwt>
</event>
<event>
 4    1  0.1710914E-004  0.2683804E+03  0.7818608E-02  0.1102210E+00
         -2   -1    0    0    0  501 -0.00000000000E+00  0.00000000000E+00  0.48131264382E+03  0.48131264382E+03  0.00000000000E+00 0.  1.
          2   -1    0    0  501    0  0.00000000000E+00 -0.00000000000E+00 -0.37412288167E+02  0.37412288167E+02  0.00000000000E+00 0.  1.
         25    1    1    2    0    0 -0.15923493160E+02 -0.45948277735E+02  0.15382885475E+03  0.20106744743E+03  0.12000000000E+03 0.  0.
         25    1    1    2    0    0  0.15923493160E+02  0.45948277735E+02  0.29007150090E+03  0.31765748456E+03  0.12000000000E+03 0.  0.
<mgrwt>
<rscale>  0 0.26838038E+03</rscale>
<asrwt>0</asrwt>
<pdfrwt beam="1">  1        2 0.57557370E-02 0.26838038E+03</pdfrwt>
<pdfrwt beam="2">  1       -2 0.74048095E-01 0.26838038E+03</pdfrwt>
<totfact> 0.21959446E+03</totfact>
</mgrwt>
</event>
<event>
 4    1  0.1710914E-004  0.3553276E+03  0.7818608E-02  0.1060449E+00
         -2   -1    0    0    0  501 -0.00000000000E+00  0.00000000000E+00  0.39438629833E+02  0.39438629833E+02  0.00000000000E+00 0.  1.
          2   -1    0    0  501    0  0.00000000000E+00 -0.00000000000E+00 -0.80034280447E+03  0.80034280447E+03  0.00000000000E+00 0.  1.
         25    1    1    2    0    0 -0.12439401948E+01  0.12552937653E+03 -0.29185602418E+03  0.33961612243E+03  0.12000000000E+03 0.  0.
         25    1    1    2    0    0  0.12439401948E+01 -0.12552937653E+03 -0.46904815046E+03  0.50016531188E+03  0.12000000000E+03 0.  0.
<mgrwt>
<rscale>  0 0.35532759E+03</rscale>
<asrwt>0</asrwt>
<pdfrwt beam="1">  1        2 0.12312965E+00 0.35532759E+03</pdfrwt>
<pdfrwt beam="2">  1       -2 0.60674822E-02 0.35532759E+03</pdfrwt>
<totfact> 0.51804816E+03</totfact>
</mgrwt>
</event>
<event>
 4    1  0.1710914E-004  0.3158759E+03  0.7818608E-02  0.1077563E+00
         -1   -1    0    0    0  501 -0.00000000000E+00  0.00000000000E+00  0.49277555108E+02  0.49277555108E+02  0.00000000000E+00 0.  1.
          1   -1    0    0  501    0  0.00000000000E+00 -0.00000000000E+00 -0.50620209360E+03  0.50620209360E+03  0.00000000000E+00 0.  1.
         25    1    1    2    0    0  0.19851484863E+02  0.10074011246E+03 -0.23078849876E+03  0.27965332623E+03  0.12000000000E+03 0.  0.
         25    1    1    2    0    0 -0.19851484863E+02 -0.10074011246E+03 -0.22613603973E+03  0.27582632248E+03  0.12000000000E+03 0.  0.
<mgrwt>
<rscale>  0 0.31587593E+03</rscale>
<asrwt>0</asrwt>
<pdfrwt beam="1">  1        1 0.77877248E-01 0.31587593E+03</pdfrwt>
<pdfrwt beam="2">  1       -1 0.75811621E-02 0.31587593E+03</pdfrwt>
<totfact> 0.41555920E+03</totfact>
</mgrwt>
</event>
<event>
 4    1  0.1710914E-004  0.3808301E+03  0.7818608E-02  0.1050627E+00
         -2   -1    0    0    0  501 -0.00000000000E+00  0.00000000000E+00  0.13887646754E+02  0.13887646754E+02  0.00000000000E+00 0.  1.
          2   -1    0    0  501    0  0.00000000000E+00 -0.00000000000E+00 -0.26108017403E+04  0.26108017403E+04  0.00000000000E+00 0.  1.
         25    1    1    2    0    0  0.13125845416E+03  0.24790041264E+02 -0.17351396147E+04  0.17444061484E+04  0.12000000000E+03 0.  0.
         25    1    1    2    0    0 -0.13125845416E+03 -0.24790041264E+02 -0.86177447881E+03  0.88028323866E+03  0.12000000000E+03 0.  0.
<mgrwt>
<rscale>  0 0.38083011E+03</rscale>
<asrwt>0</asrwt>
<pdfrwt beam="1">  1        2 0.40166162E+00 0.38083011E+03</pdfrwt>
<pdfrwt beam="2">  1       -2 0.21365620E-02 0.38083011E+03</pdfrwt>
<totfact> 0.24206905E+03</totfact>
</mgrwt>
</event>
<event>
 4    1  0.1710914E-004  0.4485546E+03  0.7818608E-02  0.1028154E+00
          1   -1    0    0  501    0  0.00000000000E+00  0.00000000000E+00  0.11445348736E+04  0.11445348736E+04  0.00000000000E+00 0.  1.
         -1   -1    0    0    0  501 -0.00000000000E+00 -0.00000000000E+00 -0.43948256969E+02  0.43948256969E+02  0.00000000000E+00 0.  1.
         25    1    1    2    0    0  0.15426818734E+03 -0.74133361722E+02  0.33494416519E+03  0.39481897464E+03  0.12000000000E+03 0.  0.
         25    1    1    2    0    0 -0.15426818734E+03  0.74133361722E+02  0.76564245143E+03  0.79366415591E+03  0.12000000000E+03 0.  0.
<mgrwt>
<rscale>  0 0.44855462E+03</rscale>
<asrwt>0</asrwt>
<pdfrwt beam="1">  1        1 0.17608227E+00 0.44855462E+03</pdfrwt>
<pdfrwt beam="2">  1       -1 0.67612712E-02 0.44855462E+03</pdfrwt>
<totfact> 0.13917342E+03</totfact>
</mgrwt>
</event>
<event>
 4    1  0.1710914E-004  0.2550979E+03  0.7818608E-02  0.1110125E+00
          1   -1    0    0  501    0  0.00000000000E+00  0.00000000000E+00  0.76800525164E+03  0.76800525164E+03  0.00000000000E+00 0. -1.
         -1   -1    0    0    0  501 -0.00000000000E+00 -0.00000000000E+00 -0.21183106108E+02  0.21183106108E+02  0.00000000000E+00 0. -1.
         25    1    1    2    0    0 -0.34771775043E+02 -0.14839522852E+02  0.43826376031E+03  0.45596536204E+03  0.12000000000E+03 0.  0.
         25    1    1    2    0    0  0.34771775043E+02  0.14839522852E+02  0.30855838521E+03  0.33322299570E+03  0.12000000000E+03 0.  0.
<mgrwt>
<rscale>  0 0.25509792E+03</rscale>
<asrwt>0</asrwt>
<pdfrwt beam="1">  1        1 0.11815463E+00 0.25509792E+03</pdfrwt>
<pdfrwt beam="2">  1       -1 0.32589400E-02 0.25509792E+03</pdfrwt>
<totfact> 0.81416964E+03</totfact>
</mgrwt>
</event>
<event>
 4    1  0.1710914E-004  0.3425052E+03  0.7818608E-02  0.1065734E+00
          2   -1    0    0  501    0  0.00000000000E+00  0.00000000000E+00  0.21814498598E+04  0.21814498598E+04  0.00000000000E+00 0. -1.
         -2   -1    0    0    0  501 -0.00000000000E+00 -0.00000000000E+00 -0.13444019550E+02  0.13444019550E+02  0.00000000000E+00 0. -1.
         25    1    1    2    0    0  0.10822537808E+03  0.49776397433E+02  0.91002680652E+03  0.92560208015E+03  0.12000000000E+03 0.  0.
         25    1    1    2    0    0 -0.10822537808E+03 -0.49776397433E+02  0.12579790337E+04  0.12692917992E+04  0.12000000000E+03 0.  0.
<mgrwt>
<rscale>  0 0.34250521E+03</rscale>
<asrwt>0</asrwt>
<pdfrwt beam="1">  1        2 0.33560739E+00 0.34250521E+03</pdfrwt>
<pdfrwt beam="2">  1       -2 0.20683124E-02 0.34250521E+03</pdfrwt>
<totfact> 0.43745558E+03</totfact>
</mgrwt>
</event>
<event>
 4    1  0.1710914E-004  0.3300591E+03  0.7818608E-02  0.1071111E+00
          2   -1    0    0  501    0  0.00000000000E+00  0.00000000000E+00  0.78257257055E+03  0.78257257055E+03  0.00000000000E+00 0.  1.
         -2   -1    0    0    0  501 -0.00000000000E+00 -0.00000000000E+00 -0.34801571802E+02  0.34801571802E+02  0.00000000000E+00 0.  1.
         25    1    1    2    0    0  0.50072852768E+02  0.59399648692E+02  0.57808579337E+03  0.59549877695E+03  0.12000000000E+03 0.  0.
         25    1    1    2    0    0 -0.50072852768E+02 -0.59399648692E+02  0.16968520538E+03  0.22187536540E+03  0.12000000000E+03 0.  0.
<mgrwt>
<rscale>  0 0.33005912E+03</rscale>
<asrwt>0</asrwt>
<pdfrwt beam="1">  1        2 0.12039577E+00 0.33005912E+03</pdfrwt>
<pdfrwt beam="2">  1       -2 0.53540885E-02 0.33005912E+03</pdfrwt>
<totfact> 0.64541671E+03</totfact>
</mgrwt>
</event>
<event>
 4    1  0.1710914E-004  0.3731988E+03  0.7818608E-02  0.1053477E+00
          2   -1    0    0  501    0  0.00000000000E+00  0.00000000000E+00  0.70138604118E+03  0.70138604118E+03  0.00000000000E+00 0.  1.
         -2   -1    0    0    0  501 -0.00000000000E+00 -0.00000000000E+00 -0.49643602681E+02  0.49643602681E+02  0.00000000000E+00 0.  1.
         25    1    1    2    0    0  0.39400994169E+02 -0.12429197006E+03  0.44353103894E+03  0.47761984325E+03  0.12000000000E+03 0.  0.
         25    1    1    2    0    0 -0.39400994169E+02  0.12429197006E+03  0.20821139956E+03  0.27340980061E+03  0.12000000000E+03 0.  0.
<mgrwt>
<rscale>  0 0.37319877E+03</rscale>
<asrwt>0</asrwt>
<pdfrwt beam="1">  1        2 0.10790554E+00 0.37319877E+03</pdfrwt>
<pdfrwt beam="2">  1       -2 0.76374778E-02 0.37319877E+03</pdfrwt>
<totfact> 0.42763017E+03</totfact>
</mgrwt>
</event>
<event>
 4    1  0.1710914E-004  0.3274436E+03  0.7818608E-02  0.1072274E+00
         -2   -1    0    0    0  501 -0.00000000000E+00  0.00000000000E+00  0.49790898177E+02  0.49790898177E+02  0.00000000000E+00 0.  1.
          2   -1    0    0  501    0  0.00000000000E+00 -0.00000000000E+00 -0.53834810403E+03  0.53834810403E+03  0.00000000000E+00 0.  1.
         25    1    1    2    0    0 -0.10731706788E+03 -0.11689767426E+02 -0.29350866965E+03  0.33496409192E+03  0.12000000000E+03 0.  0.
         25    1    1    2    0    0  0.10731706788E+03  0.11689767426E+02 -0.19504853620E+03  0.25317491028E+03  0.12000000000E+03 0.  0.
<mgrwt>
<rscale>  0 0.32744365E+03</rscale>
<asrwt>0</asrwt>
<pdfrwt beam="1">  1        2 0.82822784E-01 0.32744365E+03</pdfrwt>
<pdfrwt beam="2">  1       -2 0.76601383E-02 0.32744365E+03</pdfrwt>
<totfact> 0.58038836E+03</totfact>
</mgrwt>
</event>
<event>
 4    1  0.1710914E-004  0.3223457E+03  0.7818608E-02  0.1074575E+00
          4   -1    0    0  501    0  0.00000000000E+00  0.00000000000E+00  0.30853184934E+02  0.30853184934E+02  0.00000000000E+00 0.  1.
         -4   -1    0    0    0  501 -0.00000000000E+00 -0.00000000000E+00 -0.84194522912E+03  0.84194522912E+03  0.00000000000E+00 0.  1.
         25    1    1    2    0    0 -0.44119662305E+02 -0.97766608749E+02 -0.42849522189E+03  0.45772591097E+03  0.12000000000E+03 0.  0.
         25    1    1    2    0    0  0.44119662305E+02  0.97766608749E+02 -0.38259682229E+03  0.41507250308E+03  0.12000000000E+03 0.  0.
<mgrwt>
<rscale>  0 0.32234573E+03</rscale>
<asrwt>0</asrwt>
<pdfrwt beam="1">  1        4 0.47466430E-02 0.32234573E+03</pdfrwt>
<pdfrwt beam="2">  1       -4 0.12953006E+00 0.32234573E+03</pdfrwt>
<totfact> 0.22634170E+02</totfact>
</mgrwt>
</event>
<event>
 4    1  0.1710914E-004  0.2503379E+03  0.7818608E-02  0.1113091E+00
          1   -1    0    0  501    0  0.00000000000E+00  0.00000000000E+00  0.34250266462E+02  0.34250266462E+02  0.00000000000E+00 0. -1.
         -1   -1    0    0    0  501 -0.00000000000E+00 -0.00000000000E+00 -0.45743489095E+03  0.45743489095E+03  0.00000000000E+00 0. -1.
         25    1    1    2    0    0  0.32102527184E+02  0.23478995479E+01 -0.24145559241E+03  0.27154537004E+03  0.12000000000E+03 0.  0.
         25    1    1    2    0    0 -0.32102527184E+02 -0.23478995479E+01 -0.18172903208E+03  0.22013978737E+03  0.12000000000E+03 0.  0.
<mgrwt>
<rscale>  0 0.25033791E+03</rscale>
<asrwt>0</asrwt>
<pdfrwt beam="1">  1        1 0.52692721E-02 0.25033791E+03</pdfrwt>
<pdfrwt beam="2">  1       -1 0.70374594E-01 0.25033791E+03</pdfrwt>
<totfact> 0.32602039E+03</totfact>
</mgrwt>
</event>
<event>
 4    1  0.1710914E-004  0.3530064E+03  0.7818608E-02  0.1061388E+00
          1   -1    0    0  501    0  0.00000000000E+00  0.00000000000E+00  0.58998107872E+03  0.58998107872E+03  0.00000000000E+00 0.  1.
         -1   -1    0    0    0  501 -0.00000000000E+00 -0.00000000000E+00 -0.52804027141E+02  0.52804027141E+02  0.00000000000E+00 0.  1.
         25    1    1    2    0    0 -0.30091631931E+02 -0.88218360160E+02  0.10505907744E+03  0.18473060151E+03  0.12000000000E+03 0.  0.
         25    1    1    2    0    0  0.30091631931E+02  0.88218360160E+02  0.43211797414E+03  0.45805450436E+03  0.12000000000E+03 0.  0.
<mgrwt>
<rscale>  0 0.35300638E+03</rscale>
<asrwt>0</asrwt>
<pdfrwt beam="1">  1        1 0.90766315E-01 0.35300638E+03</pdfrwt>
<pdfrwt beam="2">  1       -1 0.81236969E-02 0.35300638E+03</pdfrwt>
<totfact> 0.30374285E+03</totfact>
</mgrwt>
</event>
<event>
 4    1  0.1710914E-004  0.3148857E+03  0.7818608E-02  0.1078027E+00
         -1   -1    0    0    0  501 -0.00000000000E+00  0.00000000000E+00  0.42601166116E+02  0.42601166116E+02  0.00000000000E+00 0.  1.
          1   -1    0    0  501    0  0.00000000000E+00 -0.00000000000E+00 -0.58186787670E+03  0.58186787670E+03  0.00000000000E+00 0.  1.
         25    1    1    2    0    0 -0.23787499695E+02 -0.98168668340E+02 -0.29663039746E+03  0.33554809683E+03  0.12000000000E+03 0.  0.
         25    1    1    2    0    0  0.23787499695E+02  0.98168668340E+02 -0.24263631312E+03  0.28892094598E+03  0.12000000000E+03 0.  0.
<mgrwt>
<rscale>  0 0.31488569E+03</rscale>
<asrwt>0</asrwt>
<pdfrwt beam="1">  1        1 0.89518129E-01 0.31488569E+03</pdfrwt>
<pdfrwt beam="2">  1       -1 0.65540260E-02 0.31488569E+03</pdfrwt>
<totfact> 0.42922848E+03</totfact>
</mgrwt>
</event>
<event>
 4    1  0.1710914E-004  0.3736708E+03  0.7818608E-02  0.1053298E+00
          2   -1    0    0  501    0  0.00000000000E+00  0.00000000000E+00  0.46905870868E+03  0.46905870868E+03  0.00000000000E+00 0. -1.
         -2   -1    0    0    0  501 -0.00000000000E+00 -0.00000000000E+00 -0.74420244078E+02  0.74420244078E+02  0.00000000000E+00 0. -1.
         25    1    1    2    0    0  0.71608531127E+02  0.58439722464E+02  0.38230099670E+02  0.15621947194E+03  0.12000000000E+03 0.  0.
         25    1    1    2    0    0 -0.71608531127E+02 -0.58439722464E+02  0.35640836493E+03  0.38725948082E+03  0.12000000000E+03 0.  0.
<mgrwt>
<rscale>  0 0.37367078E+03</rscale>
<asrwt>0</asrwt>
<pdfrwt beam="1">  1        2 0.72162877E-01 0.37367078E+03</pdfrwt>
<pdfrwt beam="2">  1       -2 0.11449269E-01 0.37367078E+03</pdfrwt>
<totfact> 0.35874191E+03</totfact>
</mgrwt>
</event>
<event>
 4    1  0.1710914E-004  0.2650107E+03  0.7818608E-02  0.1104170E+00
          1   -1    0    0  501    0  0.00000000000E+00  0.00000000000E+00  0.12943587314E+04  0.12943587314E+04  0.00000000000E+00 0. -1.
         -1   -1    0    0    0  501 -0.00000000000E+00 -0.00000000000E+00 -0.13564763290E+02  0.13564763290E+02  0.00000000000E+00 0. -1.
         25    1    1    2    0    0  0.15540023647E+02 -0.46205567637E+02  0.50245184091E+03  0.51887792326E+03  0.12000000000E+03 0.  0.
         25    1    1    2    0    0 -0.15540023647E+02  0.46205567637E+02  0.77834212717E+03  0.78904557140E+03  0.12000000000E+03 0.  0.
<mgrwt>
<rscale>  0 0.26501072E+03</rscale>
<asrwt>0</asrwt>
<pdfrwt beam="1">  1        1 0.19913202E+00 0.26501072E+03</pdfrwt>
<pdfrwt beam="2">  1       -1 0.20868877E-02 0.26501072E+03</pdfrwt>
<totfact> 0.63370343E+03</totfact>
</mgrwt>
</event>
<event>
 4    1  0.1710914E-004  0.2820243E+03  0.7818608E-02  0.1094588E+00
          2   -1    0    0  501    0  0.00000000000E+00  0.00000000000E+00  0.31268496585E+03  0.31268496585E+03  0.00000000000E+00 0.  1.
         -2   -1    0    0    0  501 -0.00000000000E+00 -0.00000000000E+00 -0.63592517042E+02  0.63592517042E+02  0.00000000000E+00 0.  1.
         25    1    1    2    0    0 -0.15414458649E+02  0.17935571777E+02  0.21817961308E+03  0.25012323729E+03  0.12000000000E+03 0.  0.
         25    1    1    2    0    0  0.15414458649E+02 -0.17935571777E+02  0.30912835732E+02  0.12615424560E+03  0.12000000000E+03 0.  0.
<mgrwt>
<rscale>  0 0.28202428E+03</rscale>
<asrwt>0</asrwt>
<pdfrwt beam="1">  1        2 0.48105378E-01 0.28202428E+03</pdfrwt>
<pdfrwt beam="2">  1       -2 0.97834644E-02 0.28202428E+03</pdfrwt>
<totfact> 0.71401985E+03</totfact>
</mgrwt>
</event>
<event>
 4    1  0.1710914E-004  0.3224029E+03  0.7818608E-02  0.1074549E+00
          2   -1    0    0  501    0  0.00000000000E+00  0.00000000000E+00  0.25998348246E+03  0.25998348246E+03  0.00000000000E+00 0. -1.
         -2   -1    0    0    0  501 -0.00000000000E+00 -0.00000000000E+00 -0.99952132217E+02  0.99952132217E+02  0.00000000000E+00 0. -1.
         25    1    1    2    0    0 -0.64908666390E+01  0.10707381666E+03  0.70094649514E+02  0.17555680976E+03  0.12000000000E+03 0.  0.
         25    1    1    2    0    0  0.64908666390E+01 -0.10707381666E+03  0.89936700730E+02  0.18437880491E+03  0.12000000000E+03 0.  0.
<mgrwt>
<rscale>  0 0.32240287E+03</rscale>
<asrwt>0</asrwt>
<pdfrwt beam="1">  1        2 0.39997459E-01 0.32240287E+03</pdfrwt>
<pdfrwt beam="2">  1       -2 0.15377251E-01 0.32240287E+03</pdfrwt>
<totfact> 0.41995140E+03</totfact>
</mgrwt>
</event>
<event>
 4    1  0.1710914E-004  0.2434861E+03  0.7818608E-02  0.1117492E+00
         -1   -1    0    0    0  501 -0.00000000000E+00  0.00000000000E+00  0.15865425143E+02  0.15865425143E+02  0.00000000000E+00 0.  1.
          1   -1    0    0  501    0  0.00000000000E+00 -0.00000000000E+00 -0.93419316306E+03  0.93419316306E+03  0.00000000000E+00 0.  1.
         25    1    1    2    0    0  0.14923194087E+02  0.53349655612E+01 -0.40825817902E+03  0.42582379491E+03  0.12000000000E+03 0.  0.
         25    1    1    2    0    0 -0.14923194087E+02 -0.53349655612E+01 -0.51006955890E+03  0.52423479329E+03  0.12000000000E+03 0.  0.
<mgrwt>
<rscale>  0 0.24348611E+03</rscale>
<asrwt>0</asrwt>
<pdfrwt beam="1">  1        1 0.14372209E+00 0.24348611E+03</pdfrwt>
<pdfrwt beam="2">  1       -1 0.24408336E-02 0.24348611E+03</pdfrwt>
<totfact> 0.91283736E+03</totfact>
</mgrwt>
</event>
<event>
 4    1  0.1710914E-004  0.2950489E+03  0.7818608E-02  0.1087742E+00
         -2   -1    0    0    0  501 -0.00000000000E+00  0.00000000000E+00  0.16883702711E+02  0.16883702711E+02  0.00000000000E+00 0. -1.
          2   -1    0    0  501    0  0.00000000000E+00 -0.00000000000E+00 -0.12890221133E+04  0.12890221133E+04  0.00000000000E+00 0. -1.
         25    1    1    2    0    0 -0.72741183364E+02  0.44272381458E+02 -0.58919831533E+03  0.60729398014E+03  0.12000000000E+03 0.  0.
         25    1    1    2    0    0  0.72741183364E+02 -0.44272381458E+02 -0.68294009524E+03  0.69861183586E+03  0.12000000000E+03 0.  0.
<mgrwt>
<rscale>  0 0.29504892E+03</rscale>
<asrwt>0</asrwt>
<pdfrwt beam="1">  1        2 0.19831117E+00 0.29504892E+03</pdfrwt>
<pdfrwt beam="2">  1       -2 0.25974917E-02 0.29504892E+03</pdfrwt>
<totfact> 0.93539011E+03</totfact>
</mgrwt>
</event>
<event>
 4    1  0.1710914E-004  0.3191594E+03  0.7818608E-02  0.1076037E+00
         -2   -1    0    0    0  501 -0.00000000000E+00  0.00000000000E+00  0.17831140727E+03  0.17831140727E+03  0.00000000000E+00 0.  1.
          2   -1    0    0  501    0  0.00000000000E+00 -0.00000000000E+00 -0.14281576100E+03  0.14281576100E+03  0.00000000000E+00 0.  1.
         25    1    1    2    0    0  0.64129055552E+02 -0.36696137588E+02 -0.57590642157E+02  0.15223608095E+03  0.12000000000E+03 0.  0.
         25    1    1    2    0    0 -0.64129055552E+02  0.36696137588E+02  0.93086288426E+02  0.16889108731E+03  0.12000000000E+03 0.  0.
<mgrwt>
<rscale>  0 0.31915939E+03</rscale>
<asrwt>0</asrwt>
<pdfrwt beam="1">  1        2 0.21971656E-01 0.31915939E+03</pdfrwt>
<pdfrwt beam="2">  1       -2 0.27432524E-01 0.31915939E+03</pdfrwt>
<totfact> 0.30023443E+03</totfact>
</mgrwt>
</event>
<event>
 4    1  0.1710914E-004  0.3103206E+03  0.7818608E-02  0.1080192E+00
          2   -1    0    0  501    0  0.00000000000E+00  0.00000000000E+00  0.19235443807E+03  0.19235443807E+03  0.00000000000E+00 0.  1.
         -2   -1    0    0    0  501 -0.00000000000E+00 -0.00000000000E+00 -0.12515811069E+03  0.12515811069E+03  0.00000000000E+00 0.  1.
         25    1    1    2    0    0 -0.52490158094E+02  0.30555046047E+02  0.11275978461E+03  0.17550953410E+03  0.12000000000E+03 0.  0.
         25    1    1    2    0    0  0.52490158094E+02 -0.30555046047E+02 -0.45563457229E+02  0.14200301465E+03  0.12000000000E+03 0.  0.
<mgrwt>
<rscale>  0 0.31032060E+03</rscale>
<asrwt>0</asrwt>
<pdfrwt beam="1">  1        2 0.29592991E-01 0.31032060E+03</pdfrwt>
<pdfrwt beam="2">  1       -2 0.19255094E-01 0.31032060E+03</pdfrwt>
<totfact> 0.39925337E+03</totfact>
</mgrwt>
</event>
<event>
 4    1  0.1710914E-004  0.2850984E+03  0.7818608E-02  0.1092936E+00
         -2   -1    0    0    0  501 -0.00000000000E+00  0.00000000000E+00  0.41673552314E+02  0.41673552314E+02  0.00000000000E+00 0.  1.
          2   -1    0    0  501    0  0.00000000000E+00 -0.00000000000E+00 -0.48760594918E+03  0.48760594918E+03  0.00000000000E+00 0.  1.
         25    1    1    2    0    0 -0.22594015966E+02 -0.65391957510E+02 -0.28547403724E+03  0.31730430757E+03  0.12000000000E+03 0.  0.
         25    1    1    2    0    0  0.22594015966E+02  0.65391957510E+02 -0.16045835962E+03  0.21197519392E+03  0.12000000000E+03 0.  0.
<mgrwt>
<rscale>  0 0.28509838E+03</rscale>
<asrwt>0</asrwt>
<pdfrwt beam="1">  1        2 0.75016303E-01 0.28509838E+03</pdfrwt>
<pdfrwt beam="2">  1       -2 0.64113155E-02 0.28509838E+03</pdfrwt>
<totfact> 0.85210039E+03</totfact>
</mgrwt>
</event>
<event>
 4    1  0.1710914E-004  0.3776160E+03  0.7818608E-02  0.1051818E+00
          2   -1    0    0  501    0  0.00000000000E+00  0.00000000000E+00  0.26432612683E+04  0.26432612683E+04  0.00000000000E+00 0. -1.
         -2   -1    0    0    0  501 -0.00000000000E+00 -0.00000000000E+00 -0.13486546249E+02  0.13486546249E+02  0.00000000000E+00 0. -1.
         25    1    1    2    0    0 -0.35640641084E+02 -0.71476670276E+02  0.45697067329E+03  0.47916736735E+03  0.12000000000E+03 0.  0.
         25    1    1    2    0    0  0.35640641084E+02  0.71476670276E+02  0.21728040488E+04  0.21775804472E+04  0.12000000000E+03 0.  0.
<mgrwt>
<rscale>  0 0.37761602E+03</rscale>
<asrwt>0</asrwt>
<pdfrwt beam="1">  1        2 0.40665517E+00 0.37761602E+03</pdfrwt>
<pdfrwt beam="2">  1       -2 0.20748554E-02 0.37761602E+03</pdfrwt>
<totfact> 0.24248669E+03</totfact>
</mgrwt>
</event>
<event>
 4    1  0.1710914E-004  0.2713020E+03  0.7818608E-02  0.1100537E+00
         -4   -1    0    0    0  501 -0.00000000000E+00  0.00000000000E+00  0.27422932753E+03  0.27422932753E+03  0.00000000000E+00 0. -1.
          4   -1    0    0  501    0  0.00000000000E+00 -0.00000000000E+00 -0.67101499011E+02  0.67101499011E+02  0.00000000000E+00 0. -1.
         25    1    1    2    0    0 -0.45811916143E+02 -0.39529115108E+02  0.80368160887E+02  0.15658966724E+03  0.12000000000E+03 0.  0.
         25    1    1    2    0    0  0.45811916143E+02  0.39529115108E+02  0.12675966764E+03  0.18474115930E+03  0.12000000000E+03 0.  0.
<mgrwt>
<rscale>  0 0.27130204E+03</rscale>
<asrwt>0</asrwt>
<pdfrwt beam="1">  1        4 0.10323308E-01 0.27130204E+03</pdfrwt>
<pdfrwt beam="2">  1       -4 0.42189127E-01 0.27130204E+03</pdfrwt>
<totfact> 0.73600408E+02</totfact>
</mgrwt>
</event>
<event>
 4    1  0.1710914E-004  0.2741749E+03  0.7818608E-02  0.1098914E+00
          1   -1    0    0  501    0  0.00000000000E+00  0.00000000000E+00  0.93003291744E+02  0.93003291744E+02  0.00000000000E+00 0. -1.
         -1   -1    0    0    0  501 -0.00000000000E+00 -0.00000000000E+00 -0.20206783342E+03  0.20206783342E+03  0.00000000000E+00 0. -1.
         25    1    1    2    0    0 -0.35398026350E+02 -0.21399857033E+02  0.12027684789E+01  0.12693471079E+03  0.12000000000E+03 0.  0.
         25    1    1    2    0    0  0.35398026350E+02  0.21399857033E+02 -0.11026731015E+03  0.16813641438E+03  0.12000000000E+03 0.  0.
<mgrwt>
<rscale>  0 0.27417493E+03</rscale>
<asrwt>0</asrwt>
<pdfrwt beam="1">  1        1 0.14308199E-01 0.27417493E+03</pdfrwt>
<pdfrwt beam="2">  1       -1 0.31087359E-01 0.27417493E+03</pdfrwt>
<totfact> 0.37917190E+03</totfact>
</mgrwt>
</event>
<event>
 4    1  0.1710914E-004  0.2426645E+03  0.7818608E-02  0.1118030E+00
         -2   -1    0    0    0  501 -0.00000000000E+00  0.00000000000E+00  0.15401586256E+02  0.15401586256E+02  0.00000000000E+00 0.  1.
          2   -1    0    0  501    0  0.00000000000E+00 -0.00000000000E+00 -0.95584376599E+03  0.95584376599E+03  0.00000000000E+00 0.  1.
         25    1    1    2    0    0 -0.73050525878E+01 -0.32044679784E+01 -0.53449426494E+03  0.54785741910E+03  0.12000000000E+03 0.  0.
         25    1    1    2    0    0  0.73050525878E+01  0.32044679784E+01 -0.40594791480E+03  0.42338793315E+03  0.12000000000E+03 0.  0.
<mgrwt>
<rscale>  0 0.24266446E+03</rscale>
<asrwt>0</asrwt>
<pdfrwt beam="1">  1        2 0.14705290E+00 0.24266446E+03</pdfrwt>
<pdfrwt beam="2">  1       -2 0.23694746E-02 0.24266446E+03</pdfrwt>
<totfact> 0.16678230E+04</totfact>
</mgrwt>
</event>
<event>
 4    1  0.1710914E-004  0.2694399E+03  0.7818608E-02  0.1101601E+00
          3   -1    0    0  501    0  0.00000000000E+00  0.00000000000E+00  0.19449273723E+02  0.19449273723E+02  0.00000000000E+00 0.  1.
         -3   -1    0    0    0  501 -0.00000000000E+00 -0.00000000000E+00 -0.93316938444E+03  0.93316938444E+03  0.00000000000E+00 0.  1.
         25    1    1    2    0    0  0.60153699489E+02  0.10138980384E+02 -0.47563523214E+03  0.49431785376E+03  0.12000000000E+03 0.  0.
         25    1    1    2    0    0 -0.60153699489E+02 -0.10138980384E+02 -0.43808487857E+03  0.45830080440E+03  0.12000000000E+03 0.  0.
<mgrwt>
<rscale>  0 0.26943991E+03</rscale>
<asrwt>0</asrwt>
<pdfrwt beam="1">  1        3 0.29921954E-02 0.26943991E+03</pdfrwt>
<pdfrwt beam="2">  1       -3 0.14356455E+00 0.26943991E+03</pdfrwt>
<totfact> 0.49430150E+02</totfact>
</mgrwt>
</event>
<event>
 4    1  0.1710914E-004  0.2842981E+03  0.7818608E-02  0.1093364E+00
          1   -1    0    0  501    0  0.00000000000E+00  0.00000000000E+00  0.58252927553E+02  0.58252927553E+02  0.00000000000E+00 0. -1.
         -1   -1    0    0    0  501 -0.00000000000E+00 -0.00000000000E+00 -0.34687275555E+03  0.34687275555E+03  0.00000000000E+00 0. -1.
         25    1    1    2    0    0  0.53766393410E+02 -0.13287421585E+02 -0.69732096034E+02  0.14943207771E+03  0.12000000000E+03 0.  0.
         25    1    1    2    0    0 -0.53766393410E+02  0.13287421585E+02 -0.21888773196E+03  0.25569360539E+03  0.12000000000E+03 0.  0.
<mgrwt>
<rscale>  0 0.28429811E+03</rscale>
<asrwt>0</asrwt>
<pdfrwt beam="1">  1        1 0.89619888E-02 0.28429811E+03</pdfrwt>
<pdfrwt beam="2">  1       -1 0.53365040E-01 0.28429811E+03</pdfrwt>
<totfact> 0.27017440E+03</totfact>
</mgrwt>
</event>
<event>
 4    1  0.1710914E-004  0.5543644E+03  0.7818608E-02  0.1000489E+00
         -2   -1    0    0    0  501 -0.00000000000E+00  0.00000000000E+00  0.31443109805E+02  0.31443109805E+02  0.00000000000E+00 0.  1.
          2   -1    0    0  501    0  0.00000000000E+00 -0.00000000000E+00 -0.24434600536E+04  0.24434600536E+04  0.00000000000E+00 0.  1.
         25    1    1    2    0    0  0.23636641171E+03  0.50582945535E+02 -0.92357515926E+03  0.96219477745E+03  0.12000000000E+03 0.  0.
         25    1    1    2    0    0 -0.23636641171E+03 -0.50582945535E+02 -0.14884417845E+04  0.15127083859E+04  0.12000000000E+03 0.  0.
<mgrwt>
<rscale>  0 0.55436444E+03</rscale>
<asrwt>0</asrwt>
<pdfrwt beam="1">  1        2 0.37591691E+00 0.55436444E+03</pdfrwt>
<pdfrwt beam="2">  1       -2 0.48374018E-02 0.55436444E+03</pdfrwt>
<totfact> 0.85833616E+02</totfact>
</mgrwt>
</event>
<event>
 4    1  0.1710914E-004  0.2750242E+03  0.7818608E-02  0.1098438E+00
          2   -1    0    0  501    0  0.00000000000E+00  0.00000000000E+00  0.11751816619E+04  0.11751816619E+04  0.00000000000E+00 0.  1.
         -2   -1    0    0    0  501 -0.00000000000E+00 -0.00000000000E+00 -0.16090765710E+02  0.16090765710E+02  0.00000000000E+00 0.  1.
         25    1    1    2    0    0  0.19903085045E+02  0.11993267492E+02  0.85245183067E+03  0.86117018927E+03  0.12000000000E+03 0.  0.
         25    1    1    2    0    0 -0.19903085045E+02 -0.11993267492E+02  0.30663906551E+03  0.33010223834E+03  0.12000000000E+03 0.  0.
<mgrwt>
<rscale>  0 0.27502416E+03</rscale>
<asrwt>0</asrwt>
<pdfrwt beam="1">  1        2 0.18079711E+00 0.27502416E+03</pdfrwt>
<pdfrwt beam="2">  1       -2 0.24755034E-02 0.27502416E+03</pdfrwt>
<totfact> 0.11626814E+04</totfact>
</mgrwt>
</event>
<event>
 4    1  0.1710914E-004  0.2795036E+03  0.7818608E-02  0.1095960E+00
         -4   -1    0    0    0  501 -0.00000000000E+00  0.00000000000E+00  0.24766637490E+02  0.24766637490E+02  0.00000000000E+00 0.  1.
          4   -1    0    0  501    0  0.00000000000E+00 -0.00000000000E+00 -0.78858370782E+03  0.78858370782E+03  0.00000000000E+00 0.  1.
         25    1    1    2    0    0 -0.12541280315E+02  0.27815427110E+02 -0.57048757939E+03  0.58376969769E+03  0.12000000000E+03 0.  0.
         25    1    1    2    0    0  0.12541280315E+02 -0.27815427110E+02 -0.19332949094E+03  0.22958064763E+03  0.12000000000E+03 0.  0.
<mgrwt>
<rscale>  0 0.27950361E+03</rscale>
<asrwt>0</asrwt>
<pdfrwt beam="1">  1        4 0.12132058E+00 0.27950361E+03</pdfrwt>
<pdfrwt beam="2">  1       -4 0.38102515E-02 0.27950361E+03</pdfrwt>
<totfact> 0.37315472E+02</totfact>
</mgrwt>
</event>
<event>
 4    1  0.1710914E-004  0.3220289E+03  0.7818608E-02  0.1074719E+00
         -2   -1    0    0    0  501 -0.00000000000E+00  0.00000000000E+00  0.80123630769E+02  0.80123630769E+02  0.00000000000E+00 0. -1.
          2   -1    0    0  501    0  0.00000000000E+00 -0.00000000000E+00 -0.32357061384E+03  0.32357061384E+03  0.00000000000E+00 0. -1.
         25    1    1    2    0    0  0.35607218296E+02  0.53972813059E+02 -0.22915833499E+03  0.26663548346E+03  0.12000000000E+03 0.  0.
         25    1    1    2    0    0 -0.35607218296E+02 -0.53972813059E+02 -0.14288648083E+02  0.13705876115E+03  0.12000000000E+03 0.  0.
<mgrwt>
<rscale>  0 0.32202890E+03</rscale>
<asrwt>0</asrwt>
<pdfrwt beam="1">  1        2 0.49780096E-01 0.32202890E+03</pdfrwt>
<pdfrwt beam="2">  1       -2 0.12326712E-01 0.32202890E+03</pdfrwt>
<totfact> 0.47670262E+03</totfact>
</mgrwt>
</event>
<event>
 4    1  0.1710914E-004  0.3178882E+03  0.7818608E-02  0.1076625E+00
          2   -1    0    0  501    0  0.00000000000E+00  0.00000000000E+00  0.93952168972E+02  0.93952168972E+02  0.00000000000E+00 0. -1.
         -2   -1    0    0    0  501 -0.00000000000E+00 -0.00000000000E+00 -0.26889455338E+03  0.26889455338E+03  0.00000000000E+00 0. -1.
         25    1    1    2    0    0  0.32020487554E+02  0.67767897803E+02 -0.17013953298E+03  0.22128095326E+03  0.12000000000E+03 0.  0.
         25    1    1    2    0    0 -0.32020487554E+02 -0.67767897803E+02 -0.48028514309E+01  0.14156576909E+03  0.12000000000E+03 0.  0.
<mgrwt>
<rscale>  0 0.31788820E+03</rscale>
<asrwt>0</asrwt>
<pdfrwt beam="1">  1        2 0.14454180E-01 0.31788820E+03</pdfrwt>
<pdfrwt beam="2">  1       -2 0.41368393E-01 0.31788820E+03</pdfrwt>
<totfact> 0.22795307E+03</totfact>
</mgrwt>
</event>
<event>
 4    1  0.1710914E-004  0.3001905E+03  0.7818608E-02  0.1085145E+00
         -1   -1    0    0    0  501 -0.00000000000E+00  0.00000000000E+00  0.14569451447E+03  0.14569451447E+03  0.00000000000E+00 0. -1.
          1   -1    0    0  501    0  0.00000000000E+00 -0.00000000000E+00 -0.15462893917E+03  0.15462893917E+03  0.00000000000E+00 0. -1.
         25    1    1    2    0    0 -0.81829958278E+02 -0.25995946325E+02  0.23052365598E+02  0.14934303752E+03  0.12000000000E+03 0.  0.
         25    1    1    2    0    0  0.81829958278E+02  0.25995946325E+02 -0.31986790291E+02  0.15098041611E+03  0.12000000000E+03 0.  0.
<mgrwt>
<rscale>  0 0.30019053E+03</rscale>
<asrwt>0</asrwt>
<pdfrwt beam="1">  1        1 0.23789067E-01 0.30019053E+03</pdfrwt>
<pdfrwt beam="2">  1       -1 0.22414541E-01 0.30019053E+03</pdfrwt>
<totfact> 0.34011533E+03</totfact>
</mgrwt>
</event>
<event>
 4    1  0.1710914E-004  0.2419334E+03  0.7818608E-02  0.1118511E+00
         -3   -1    0    0    0  501 -0.00000000000E+00  0.00000000000E+00  0.10527522268E+03  0.10527522268E+03  0.00000000000E+00 0. -1.
          3   -1    0    0  501    0  0.00000000000E+00 -0.00000000000E+00 -0.13899706781E+03  0.13899706781E+03  0.00000000000E+00 0. -1.
         25    1    1    2    0    0 -0.52750945091E+00  0.14200701406E+02 -0.11238509735E+02  0.12135996987E+03  0.12000000000E+03 0.  0.
         25    1    1    2    0    0  0.52750945091E+00 -0.14200701406E+02 -0.22483335396E+02  0.12291232061E+03  0.12000000000E+03 0.  0.
<mgrwt>
<rscale>  0 0.24193344E+03</rscale>
<asrwt>0</asrwt>
<pdfrwt beam="1">  1        3 0.21384164E-01 0.24193344E+03</pdfrwt>
<pdfrwt beam="2">  1       -3 0.16196188E-01 0.24193344E+03</pdfrwt>
<totfact> 0.16233218E+03</totfact>
</mgrwt>
</event>
<event>
 4    1  0.1710914E-004  0.2978853E+03  0.7818608E-02  0.1086303E+00
         -1   -1    0    0    0  501 -0.00000000000E+00  0.00000000000E+00  0.27268738289E+02  0.27268738289E+02  0.00000000000E+00 0.  1.
          1   -1    0    0  501    0  0.00000000000E+00 -0.00000000000E+00 -0.81352885992E+03  0.81352885992E+03  0.00000000000E+00 0.  1.
         25    1    1    2    0    0 -0.59961577600E+02 -0.37620426883E+02 -0.24449047425E+03  0.28140056735E+03  0.12000000000E+03 0.  0.
         25    1    1    2    0    0  0.59961577600E+02  0.37620426883E+02 -0.54176964739E+03  0.55939703086E+03  0.12000000000E+03 0.  0.
<mgrwt>
<rscale>  0 0.29788525E+03</rscale>
<asrwt>0</asrwt>
<pdfrwt beam="1">  1        1 0.12515830E+00 0.29788525E+03</pdfrwt>
<pdfrwt beam="2">  1       -1 0.41951902E-02 0.29788525E+03</pdfrwt>
<totfact> 0.51441142E+03</totfact>
</mgrwt>
</event>
<event>
 4    1  0.1710914E-004  0.3343441E+03  0.7818608E-02  0.1069231E+00
          3   -1    0    0  501    0  0.00000000000E+00  0.00000000000E+00  0.36483331555E+02  0.36483331555E+02  0.00000000000E+00 0. -1.
         -3   -1    0    0    0  501 -0.00000000000E+00 -0.00000000000E+00 -0.76600727901E+03  0.76600727901E+03  0.00000000000E+00 0. -1.
         25    1    1    2    0    0  0.33907526886E+02  0.78493405128E+02 -0.55429464746E+03  0.57354467240E+03  0.12000000000E+03 0.  0.
         25    1    1    2    0    0 -0.33907526886E+02 -0.78493405128E+02 -0.17522929999E+03  0.22894593817E+03  0.12000000000E+03 0.  0.
<mgrwt>
<rscale>  0 0.33434412E+03</rscale>
<asrwt>0</asrwt>
<pdfrwt beam="1">  1        3 0.56128201E-02 0.33434412E+03</pdfrwt>
<pdfrwt beam="2">  1       -3 0.11784728E+00 0.33434412E+03</pdfrwt>
<totfact> 0.30072256E+02</totfact>
</mgrwt>
</event>
<event>
 4    1  0.1710914E-004  0.3187056E+03  0.7818608E-02  0.1076247E+00
         -1   -1    0    0    0  501 -0.00000000000E+00  0.00000000000E+00  0.35216144377E+02  0.35216144377E+02  0.00000000000E+00 0.  1.
          1   -1    0    0  501    0  0.00000000000E+00 -0.00000000000E+00 -0.72107025157E+03  0.72107025157E+03  0.00000000000E+00 0.  1.
         25    1    1    2    0    0  0.88755213735E+02  0.26631207307E+02 -0.22651471860E+03  0.27257224164E+03  0.12000000000E+03 0.  0.
         25    1    1    2    0    0 -0.88755213735E+02 -0.26631207307E+02 -0.45933938860E+03  0.48371415431E+03  0.12000000000E+03 0.  0.
<mgrwt>
<rscale>  0 0.31870560E+03</rscale>
<asrwt>0</asrwt>
<pdfrwt beam="1">  1        1 0.11093388E+00 0.31870560E+03</pdfrwt>
<pdfrwt beam="2">  1       -1 0.54178688E-02 0.31870560E+03</pdfrwt>
<totfact> 0.42139080E+03</totfact>
</mgrwt>
</event>
<event>
 4    1  0.1710914E-004  0.2642588E+03  0.7818608E-02  0.1104611E+00
         -1   -1    0    0    0  501 -0.00000000000E+00  0.00000000000E+00  0.10416786784E+02  0.10416786784E+02  0.00000000000E+00 0.  1.
          1   -1    0    0  501    0  0.00000000000E+00 -0.00000000000E+00 -0.16759656569E+04  0.16759656569E+04  0.00000000000E+00 0.  1.
         25    1    1    2    0    0 -0.15141191255E+02 -0.13412304245E+02 -0.50432374483E+03  0.51879821239E+03  0.12000000000E+03 0.  0.
         25    1    1    2    0    0  0.15141191255E+02  0.13412304245E+02 -0.11612251253E+04  0.11675842313E+04  0.12000000000E+03 0.  0.
<mgrwt>
<rscale>  0 0.26425879E+03</rscale>
<asrwt>0</asrwt>
<pdfrwt beam="1">  1        1 0.25784096E+00 0.26425879E+03</pdfrwt>
<pdfrwt beam="2">  1       -1 0.16025820E-02 0.26425879E+03</pdfrwt>
<totfact> 0.51930620E+03</totfact>
</mgrwt>
</event>
<event>
 4    1  0.1710914E-004  0.2455736E+03  0.7818608E-02  0.1116135E+00
         -4   -1    0    0    0  501 -0.00000000000E+00  0.00000000000E+00  0.56712256768E+02  0.56712256768E+02  0.00000000000E+00 0.  1.
          4   -1    0    0  501    0  0.00000000000E+00 -0.00000000000E+00 -0.26584378624E+03  0.26584378624E+03  0.00000000000E+00 0.  1.
         25    1    1    2    0    0  0.22722524513E+02  0.10919844753E+02 -0.96150781506E+02  0.15582210663E+03  0.12000000000E+03 0.  0.
         25    1    1    2    0    0 -0.22722524513E+02 -0.10919844753E+02 -0.11298074797E+03  0.16673393638E+03  0.12000000000E+03 0.  0.
<mgrwt>
<rscale>  0 0.24557362E+03</rscale>
<asrwt>0</asrwt>
<pdfrwt beam="1">  1        4 0.40899044E-01 0.24557362E+03</pdfrwt>
<pdfrwt beam="2">  1       -4 0.87249625E-02 0.24557362E+03</pdfrwt>
<totfact> 0.10258992E+03</totfact>
</mgrwt>
</event>
<event>
 4    1  0.1710914E-004  0.3072138E+03  0.7818608E-02  0.1081689E+00
         -1   -1    0    0    0  501 -0.00000000000E+00  0.00000000000E+00  0.11222905249E+02  0.11222905249E+02  0.00000000000E+00 0.  1.
          1   -1    0    0  501    0  0.00000000000E+00 -0.00000000000E+00 -0.21024037709E+04  0.21024037709E+04  0.00000000000E+00 0.  1.
         25    1    1    2    0    0 -0.66081189516E+02  0.47234311889E+01 -0.15225498645E+04  0.15287076648E+04  0.12000000000E+03 0.  0.
         25    1    1    2    0    0  0.66081189516E+02 -0.47234311889E+01 -0.56863100108E+03  0.58491901131E+03  0.12000000000E+03 0.  0.
<mgrwt>
<rscale>  0 0.30721379E+03</rscale>
<asrwt>0</asrwt>
<pdfrwt beam="1">  1        1 0.32344672E+00 0.30721379E+03</pdfrwt>
<pdfrwt beam="2">  1       -1 0.17266009E-02 0.30721379E+03</pdfrwt>
<totfact> 0.24572326E+03</totfact>
</mgrwt>
</event>
<event>
 4    1  0.1710914E-004  0.3107929E+03  0.7818608E-02  0.1079966E+00
         -2   -1    0    0    0  501 -0.00000000000E+00  0.00000000000E+00  0.43369374692E+02  0.43369374692E+02  0.00000000000E+00 0.  1.
          2   -1    0    0  501    0  0.00000000000E+00 -0.00000000000E+00 -0.55679969295E+03  0.55679969295E+03  0.00000000000E+00 0.  1.
         25    1    1    2    0    0 -0.13943904757E+02 -0.34432441564E+02 -0.43336535659E+03  0.45120456315E+03  0.12000000000E+03 0.  0.
         25    1    1    2    0    0  0.13943904757E+02  0.34432441564E+02 -0.80064961661E+02  0.14896450449E+03  0.12000000000E+03 0.  0.
<mgrwt>
<rscale>  0 0.31079289E+03</rscale>
<asrwt>0</asrwt>
<pdfrwt beam="1">  1        2 0.85661488E-01 0.31079289E+03</pdfrwt>
<pdfrwt beam="2">  1       -2 0.66722118E-02 0.31079289E+03</pdfrwt>
<totfact> 0.69138558E+03</totfact>
</mgrwt>
</event>
<event>
 4    1  0.1710914E-004  0.2632374E+03  0.7818608E-02  0.1105214E+00
         -2   -1    0    0    0  501 -0.00000000000E+00  0.00000000000E+00  0.23523187286E+03  0.23523187286E+03  0.00000000000E+00 0. -1.
          2   -1    0    0  501    0  0.00000000000E+00 -0.00000000000E+00 -0.73644257461E+02  0.73644257461E+02  0.00000000000E+00 0. -1.
         25    1    1    2    0    0 -0.28564546738E+02  0.10070011259E+02  0.28238420081E+02  0.12694387274E+03  0.12000000000E+03 0.  0.
         25    1    1    2    0    0  0.28564546738E+02 -0.10070011259E+02  0.13334919532E+03  0.18193225758E+03  0.12000000000E+03 0.  0.
<mgrwt>
<rscale>  0 0.26323736E+03</rscale>
<asrwt>0</asrwt>
<pdfrwt beam="1">  1        2 0.11329886E-01 0.26323736E+03</pdfrwt>
<pdfrwt beam="2">  1       -2 0.36189519E-01 0.26323736E+03</pdfrwt>
<totfact> 0.39266556E+03</totfact>
</mgrwt>
</event>
<event>
 4    1  0.1710914E-004  0.3025908E+03  0.7818608E-02  0.1083953E+00
          2   -1    0    0  501    0  0.00000000000E+00  0.00000000000E+00  0.97122916757E+03  0.97122916757E+03  0.00000000000E+00 0. -1.
         -2   -1    0    0    0  501 -0.00000000000E+00 -0.00000000000E+00 -0.23568381791E+02  0.23568381791E+02  0.00000000000E+00 0. -1.
         25    1    1    2    0    0 -0.52829239250E+02 -0.45668083235E+02  0.67146403579E+03  0.68566788878E+03  0.12000000000E+03 0.  0.
         25    1    1    2    0    0  0.52829239250E+02  0.45668083235E+02  0.27619674999E+03  0.30912966058E+03  0.12000000000E+03 0.  0.
<mgrwt>
<rscale>  0 0.30259081E+03</rscale>
<asrwt>0</asrwt>
<pdfrwt beam="1">  1        2 0.14941984E+00 0.30259081E+03</pdfrwt>
<pdfrwt beam="2">  1       -2 0.36259056E-02 0.30259081E+03</pdfrwt>
<totfact> 0.87297230E+03</totfact>
</mgrwt>
</event>
<event>
 4    1  0.1710914E-004  0.4543735E+03  0.7818608E-02  0.1026426E+00
          2   -1    0    0  501    0  0.00000000000E+00  0.00000000000E+00  0.12960304996E+04  0.12960304996E+04  0.00000000000E+00 0.  1.
         -2   -1    0    0    0  501 -0.00000000000E+00 -0.00000000000E+00 -0.39824540190E+02  0.39824540190E+02  0.00000000000E+00 0.  1.
         25    1    1    2    0    0  0.12492006240E+03  0.14333839368E+03  0.72395314748E+03  0.75806271300E+03  0.12000000000E+03 0.  0.
         25    1    1    2    0    0 -0.12492006240E+03 -0.14333839368E+03  0.53225281198E+03  0.57779232684E+03  0.12000000000E+03 0.  0.
<mgrwt>
<rscale>  0 0.45437350E+03</rscale>
<asrwt>0</asrwt>
<pdfrwt beam="1">  1        2 0.19938928E+00 0.45437350E+03</pdfrwt>
<pdfrwt beam="2">  1       -2 0.61268533E-02 0.45437350E+03</pdfrwt>
<totfact> 0.25262171E+03</totfact>
</mgrwt>
</event>
<event>
 4    1  0.1710914E-004  0.2877215E+03  0.7818608E-02  0.1091545E+00
          4   -1    0    0  501    0  0.00000000000E+00  0.00000000000E+00  0.11957850903E+02  0.11957850903E+02  0.00000000000E+00 0. -1.
         -4   -1    0    0    0  501 -0.00000000000E+00 -0.00000000000E+00 -0.17307392626E+04  0.17307392626E+04  0.00000000000E+00 0. -1.
         25    1    1    2    0    0  0.25915819054E+02  0.60281070199E+01 -0.13121589396E+04  0.13179032781E+04  0.12000000000E+03 0.  0.
         25    1    1    2    0    0 -0.25915819054E+02 -0.60281070199E+01 -0.40662247212E+03  0.42479383539E+03  0.12000000000E+03 0.  0.
<mgrwt>
<rscale>  0 0.28772155E+03</rscale>
<asrwt>0</asrwt>
<pdfrwt beam="1">  1        4 0.18396704E-02 0.28772155E+03</pdfrwt>
<pdfrwt beam="2">  1       -4 0.26626742E+00 0.28772155E+03</pdfrwt>
<totfact> 0.12431223E+02</totfact>
</mgrwt>
</event>
<event>
 4    1  0.1710914E-004  0.2652117E+03  0.7818608E-02  0.1104052E+00
          2   -1    0    0  501    0  0.00000000000E+00  0.00000000000E+00  0.80316465726E+03  0.80316465726E+03  0.00000000000E+00 0.  1.
         -2   -1    0    0    0  501 -0.00000000000E+00 -0.00000000000E+00 -0.21893788142E+02  0.21893788142E+02  0.00000000000E+00 0.  1.
         25    1    1    2    0    0 -0.40156858784E+02  0.39577702857E+02  0.39783037829E+03  0.41934231573E+03  0.12000000000E+03 0.  0.
         25    1    1    2    0    0  0.40156858784E+02 -0.39577702857E+02  0.38344049083E+03  0.40571612968E+03  0.12000000000E+03 0.  0.
<mgrwt>
<rscale>  0 0.26521174E+03</rscale>
<asrwt>0</asrwt>
<pdfrwt beam="1">  1        2 0.12356377E+00 0.26521174E+03</pdfrwt>
<pdfrwt beam="2">  1       -2 0.33682757E-02 0.26521174E+03</pdfrwt>
<totfact> 0.12501756E+04</totfact>
</mgrwt>
</event>
<event>
 4    1  0.1710914E-004  0.2862544E+03  0.7818608E-02  0.1092321E+00
         -4   -1    0    0    0  501 -0.00000000000E+00  0.00000000000E+00  0.22843446397E+03  0.22843446397E+03  0.00000000000E+00 0. -1.
          4   -1    0    0  501    0  0.00000000000E+00 -0.00000000000E+00 -0.89677335822E+02  0.89677335822E+02  0.00000000000E+00 0. -1.
         25    1    1    2    0    0 -0.15166711188E+01  0.77441321806E+02  0.79680384785E+02  0.16354944920E+03  0.12000000000E+03 0.  0.
         25    1    1    2    0    0  0.15166711188E+01 -0.77441321806E+02  0.59076743366E+02  0.15456235059E+03  0.12000000000E+03 0.  0.
<mgrwt>
<rscale>  0 0.28625439E+03</rscale>
<asrwt>0</asrwt>
<pdfrwt beam="1">  1        4 0.13796513E-01 0.28625439E+03</pdfrwt>
<pdfrwt beam="2">  1       -4 0.35143763E-01 0.28625439E+03</pdfrwt>
<totfact> 0.64490286E+02</totfact>
</mgrwt>
</event>
<event>
 4    1  0.1710914E-004  0.2678503E+03  0.7818608E-02  0.1102516E+00
          3   -1    0    0  501    0  0.00000000000E+00  0.00000000000E+00  0.31104406081E+03  0.31104406081E+03  0.00000000000E+00 0. -1.
         -3   -1    0    0    0  501 -0.00000000000E+00 -0.00000000000E+00 -0.57663702819E+02  0.57663702819E+02  0.00000000000E+00 0. -1.
         25    1    1    2    0    0  0.21124201215E+02  0.51112620716E+02  0.15676129686E+03  0.20501911147E+03  0.12000000000E+03 0.  0.
         25    1    1    2    0    0 -0.21124201215E+02 -0.51112620716E+02  0.96619061134E+02  0.16368865217E+03  0.12000000000E+03 0.  0.
<mgrwt>
<rscale>  0 0.26785035E+03</rscale>
<asrwt>0</asrwt>
<pdfrwt beam="1">  1        3 0.47852931E-01 0.26785035E+03</pdfrwt>
<pdfrwt beam="2">  1       -3 0.88713391E-02 0.26785035E+03</pdfrwt>
<totfact> 0.99595403E+02</totfact>
</mgrwt>
</event>
<event>
 4    1  0.1710914E-004  0.3346029E+03  0.7818608E-02  0.1069118E+00
         -1   -1    0    0    0  501 -0.00000000000E+00  0.00000000000E+00  0.13467429026E+03  0.13467429026E+03  0.00000000000E+00 0.  1.
          1   -1    0    0  501    0  0.00000000000E+00 -0.00000000000E+00 -0.20783310936E+03  0.20783310936E+03  0.00000000000E+00 0.  1.
         25    1    1    2    0    0 -0.23379030553E+02 -0.10140858255E+03 -0.90351286467E+02  0.18273925317E+03  0.12000000000E+03 0.  0.
         25    1    1    2    0    0  0.23379030553E+02  0.10140858255E+03  0.17192467370E+02  0.15976814644E+03  0.12000000000E+03 0.  0.
<mgrwt>
<rscale>  0 0.33460291E+03</rscale>
<asrwt>0</asrwt>
<pdfrwt beam="1">  1        1 0.31974324E-01 0.33460291E+03</pdfrwt>
<pdfrwt beam="2">  1       -1 0.20719122E-01 0.33460291E+03</pdfrwt>
<totfact> 0.26627277E+03</totfact>
</mgrwt>
</event>
<event>
 4    1  0.1710914E-004  0.2647240E+03  0.7818608E-02  0.1104338E+00
         -1   -1    0    0    0  501 -0.00000000000E+00  0.00000000000E+00  0.37060788383E+03  0.37060788383E+03  0.00000000000E+00 0.  1.
          1   -1    0    0  501    0  0.00000000000E+00 -0.00000000000E+00 -0.47272859976E+02  0.47272859976E+02  0.00000000000E+00 0.  1.
         25    1    1    2    0    0  0.40683520955E+02 -0.33549436266E+02  0.19073093782E+03  0.23142818367E+03  0.12000000000E+03 0.  0.
         25    1    1    2    0    0 -0.40683520955E+02  0.33549436266E+02  0.13260408602E+03  0.18645256014E+03  0.12000000000E+03 0.  0.
<mgrwt>
<rscale>  0 0.26472397E+03</rscale>
<asrwt>0</asrwt>
<pdfrwt beam="1">  1        1 0.72727479E-02 0.26472397E+03</pdfrwt>
<pdfrwt beam="2">  1       -1 0.57016596E-01 0.26472397E+03</pdfrwt>
<totfact> 0.31613799E+03</totfact>
</mgrwt>
</event>
<event>
 4    1  0.1710914E-004  0.2892031E+03  0.7818608E-02  0.1090766E+00
          1   -1    0    0  501    0  0.00000000000E+00  0.00000000000E+00  0.25362941746E+02  0.25362941746E+02  0.00000000000E+00 0. -1.
         -1   -1    0    0    0  501 -0.00000000000E+00 -0.00000000000E+00 -0.82441571514E+03  0.82441571514E+03  0.00000000000E+00 0. -1.
         25    1    1    2    0    0 -0.42301701871E+02  0.66222377107E+02 -0.34576425240E+03  0.37433642015E+03  0.12000000000E+03 0.  0.
         25    1    1    2    0    0  0.42301701871E+02 -0.66222377107E+02 -0.45328852099E+03  0.47544223674E+03  0.12000000000E+03 0.  0.
<mgrwt>
<rscale>  0 0.28920310E+03</rscale>
<asrwt>0</asrwt>
<pdfrwt beam="1">  1        1 0.39019917E-02 0.28920310E+03</pdfrwt>
<pdfrwt beam="2">  1       -1 0.12683316E+00 0.28920310E+03</pdfrwt>
<totfact> 0.13628055E+03</totfact>
</mgrwt>
</event>
<event>
 4    1  0.1710914E-004  0.5390427E+03  0.7818608E-02  0.1004062E+00
          2   -1    0    0  501    0  0.00000000000E+00  0.00000000000E+00  0.92807826675E+03  0.92807826675E+03  0.00000000000E+00 0. -1.
         -2   -1    0    0    0  501 -0.00000000000E+00 -0.00000000000E+00 -0.78271144792E+02  0.78271144792E+02  0.00000000000E+00 0. -1.
         25    1    1    2    0    0 -0.18426520674E+03 -0.96053027809E+02  0.65402488257E+03  0.69665514969E+03  0.12000000000E+03 0.  0.
         25    1    1    2    0    0  0.18426520674E+03  0.96053027809E+02  0.19578223939E+03  0.30969426185E+03  0.12000000000E+03 0.  0.
<mgrwt>
<rscale>  0 0.53904266E+03</rscale>
<asrwt>0</asrwt>
<pdfrwt beam="1">  1        2 0.14278126E+00 0.53904266E+03</pdfrwt>
<pdfrwt beam="2">  1       -2 0.12041715E-01 0.53904266E+03</pdfrwt>
<totfact> 0.14292490E+03</totfact>
</mgrwt>
</event>
<event>
 4    1  0.1710914E-004  0.2849534E+03  0.7818608E-02  0.1093014E+00
          1   -1    0    0  501    0  0.00000000000E+00  0.00000000000E+00  0.28245458784E+02  0.28245458784E+02  0.00000000000E+00 0.  1.
         -1   -1    0    0    0  501 -0.00000000000E+00 -0.00000000000E+00 -0.71868589292E+03  0.71868589292E+03  0.00000000000E+00 0.  1.
         25    1    1    2    0    0  0.14991305631E+01 -0.62882837448E+02 -0.22967393617E+03  0.26665823744E+03  0.12000000000E+03 0.  0.
         25    1    1    2    0    0 -0.14991305631E+01  0.62882837448E+02 -0.46076649797E+03  0.48027311427E+03  0.12000000000E+03 0.  0.
<mgrwt>
<rscale>  0 0.28495342E+03</rscale>
<asrwt>0</asrwt>
<pdfrwt beam="1">  1        1 0.43454550E-02 0.28495342E+03</pdfrwt>
<pdfrwt beam="2">  1       -1 0.11056706E+00 0.28495342E+03</pdfrwt>
<totfact> 0.16236672E+03</totfact>
</mgrwt>
</event>
<event>
 4    1  0.1710914E-004  0.3055551E+03  0.7818608E-02  0.1082496E+00
         -1   -1    0    0    0  501 -0.00000000000E+00  0.00000000000E+00  0.26388840723E+02  0.26388840723E+02  0.00000000000E+00 0. -1.
          1   -1    0    0  501    0  0.00000000000E+00 -0.00000000000E+00 -0.88450216407E+03  0.88450216407E+03  0.00000000000E+00 0. -1.
         25    1    1    2    0    0 -0.34529644096E+02 -0.31452533527E+02 -0.67415016659E+03  0.68633811296E+03  0.12000000000E+03 0.  0.
         25    1    1    2    0    0  0.34529644096E+02  0.31452533527E+02 -0.18396315675E+03  0.22455289183E+03  0.12000000000E+03 0.  0.
<mgrwt>
<rscale>  0 0.30555515E+03</rscale>
<asrwt>0</asrwt>
<pdfrwt beam="1">  1        1 0.13607728E+00 0.30555515E+03</pdfrwt>
<pdfrwt beam="2">  1       -1 0.40598209E-02 0.30555515E+03</pdfrwt>
<totfact> 0.47325785E+03</totfact>
</mgrwt>
</event>
<event>
 4    1  0.1710914E-004  0.2429870E+03  0.7818608E-02  0.1117819E+00
         -2   -1    0    0    0  501 -0.00000000000E+00  0.00000000000E+00  0.49731216017E+02  0.49731216017E+02  0.00000000000E+00 0. -1.
          2   -1    0    0  501    0  0.00000000000E+00 -0.00000000000E+00 -0.29680903541E+03  0.29680903541E+03  0.00000000000E+00 0. -1.
         25    1    1    2    0    0 -0.84431509730E+01  0.91101729385E+01 -0.10305007590E+03  0.15866190530E+03  0.12000000000E+03 0.  0.
         25    1    1    2    0    0  0.84431509730E+01 -0.91101729385E+01 -0.14402774349E+03  0.18787834613E+03  0.12000000000E+03 0.  0.
<mgrwt>
<rscale>  0 0.24298703E+03</rscale>
<asrwt>0</asrwt>
<pdfrwt beam="1">  1        2 0.45662930E-01 0.24298703E+03</pdfrwt>
<pdfrwt beam="2">  1       -2 0.76509561E-02 0.24298703E+03</pdfrwt>
<totfact> 0.11038936E+04</totfact>
</mgrwt>
</event>
<event>
 4    1  0.1710914E-004  0.3123027E+03  0.7818608E-02  0.1079247E+00
          2   -1    0    0  501    0  0.00000000000E+00  0.00000000000E+00  0.73015666226E+03  0.73015666226E+03  0.00000000000E+00 0.  1.
         -2   -1    0    0    0  501 -0.00000000000E+00 -0.00000000000E+00 -0.33394536628E+02  0.33394536628E+02  0.00000000000E+00 0.  1.
         25    1    1    2    0    0 -0.51213805543E+02 -0.52448245712E+02  0.18238694935E+03  0.23030126280E+03  0.12000000000E+03 0.  0.
         25    1    1    2    0    0  0.51213805543E+02  0.52448245712E+02  0.51437517629E+03  0.53324993609E+03  0.12000000000E+03 0.  0.
<mgrwt>
<rscale>  0 0.31230270E+03</rscale>
<asrwt>0</asrwt>
<pdfrwt beam="1">  1        2 0.11233178E+00 0.31230270E+03</pdfrwt>
<pdfrwt beam="2">  1       -2 0.51376216E-02 0.31230270E+03</pdfrwt>
<totfact> 0.74891147E+03</totfact>
</mgrwt>
</event>
<event>
 4    1  0.1710914E-004  0.4905124E+03  0.7818608E-02  0.1016285E+00
         -1   -1    0    0    0  501 -0.00000000000E+00  0.00000000000E+00  0.12490349544E+03  0.12490349544E+03  0.00000000000E+00 0. -1.
          1   -1    0    0  501    0  0.00000000000E+00 -0.00000000000E+00 -0.48157657778E+03  0.48157657778E+03  0.00000000000E+00 0. -1.
         25    1    1    2    0    0  0.99637157573E+02 -0.15074769409E+03 -0.36831525042E+02  0.22002043468E+03  0.12000000000E+03 0.  0.
         25    1    1    2    0    0 -0.99637157573E+02  0.15074769409E+03 -0.31984155730E+03  0.38645963853E+03  0.12000000000E+03 0.  0.
<mgrwt>
<rscale>  0 0.49051238E+03</rscale>
<asrwt>0</asrwt>
<pdfrwt beam="1">  1        1 0.74088705E-01 0.49051238E+03</pdfrwt>
<pdfrwt beam="2">  1       -1 0.19215922E-01 0.49051238E+03</pdfrwt>
<totfact> 0.10240137E+03</totfact>
</mgrwt>
</event>
<event>
 4    1  0.1710914E-004  0.2663656E+03  0.7818608E-02  0.1103378E+00
         -1   -1    0    0    0  501 -0.00000000000E+00  0.00000000000E+00  0.69697552281E+01  0.69697552281E+01  0.00000000000E+00 0. -1.
          1   -1    0    0  501    0  0.00000000000E+00 -0.00000000000E+00 -0.25449465521E+04  0.25449465521E+04  0.00000000000E+00 0. -1.
         25    1    1    2    0    0  0.24068605303E+02  0.21238079447E+02 -0.80879494137E+03  0.81827844342E+03  0.12000000000E+03 0.  0.
         25    1    1    2    0    0 -0.24068605303E+02 -0.21238079447E+02 -0.17291818556E+04  0.17336378640E+04  0.12000000000E+03 0.  0.
<mgrwt>
<rscale>  0 0.26636557E+03</rscale>
<asrwt>0</asrwt>
<pdfrwt beam="1">  1        1 0.39153135E+00 0.26636557E+03</pdfrwt>
<pdfrwt beam="2">  1       -1 0.10722670E-02 0.26636557E+03</pdfrwt>
<totfact> 0.25173209E+03</totfact>
</mgrwt>
</event>
<event>
 4    1  0.1710914E-004  0.2752466E+03  0.7818608E-02  0.1098314E+00
          1   -1    0    0  501    0  0.00000000000E+00  0.00000000000E+00  0.12098359888E+04  0.12098359888E+04  0.00000000000E+00 0. -1.
         -1   -1    0    0    0  501 -0.00000000000E+00 -0.00000000000E+00 -0.15655162867E+02  0.15655162867E+02  0.00000000000E+00 0. -1.
         25    1    1    2    0    0 -0.37459775643E+00  0.61053153841E+02  0.72400560042E+03  0.73641818103E+03  0.12000000000E+03 0.  0.
         25    1    1    2    0    0  0.37459775643E+00 -0.61053153841E+02  0.47017522550E+03  0.48907297062E+03  0.12000000000E+03 0.  0.
<mgrwt>
<rscale>  0 0.27524665E+03</rscale>
<asrwt>0</asrwt>
<pdfrwt beam="1">  1        1 0.18612854E+00 0.27524665E+03</pdfrwt>
<pdfrwt beam="2">  1       -1 0.24084876E-02 0.27524665E+03</pdfrwt>
<totfact> 0.58792861E+03</totfact>
</mgrwt>
</event>
<event>
 4    1  0.1710914E-004  0.3135731E+03  0.7818608E-02  0.1078646E+00
         -1   -1    0    0    0  501 -0.00000000000E+00  0.00000000000E+00  0.66517372029E+01  0.66517372029E+01  0.00000000000E+00 0.  1.
          1   -1    0    0  501    0  0.00000000000E+00 -0.00000000000E+00 -0.36955788204E+04  0.36955788204E+04  0.00000000000E+00 0.  1.
         25    1    1    2    0    0  0.34602576301E+02 -0.19218475157E+01 -0.29633518387E+04  0.29659829992E+04  0.12000000000E+03 0.  0.
         25    1    1    2    0    0 -0.34602576301E+02  0.19218475157E+01 -0.72557524444E+03  0.73624755832E+03  0.12000000000E+03 0.  0.
<mgrwt>
<rscale>  0 0.31357308E+03</rscale>
<asrwt>0</asrwt>
<pdfrwt beam="1">  1        1 0.56855061E+00 0.31357308E+03</pdfrwt>
<pdfrwt beam="2">  1       -1 0.10233441E-02 0.31357308E+03</pdfrwt>
<totfact> 0.40030214E+02</totfact>
</mgrwt>
</event>
<event>
 4    1  0.1710914E-004  0.2529832E+03  0.7818608E-02  0.1111434E+00
         -2   -1    0    0    0  501 -0.00000000000E+00  0.00000000000E+00  0.30830815204E+02  0.30830815204E+02  0.00000000000E+00 0.  1.
          2   -1    0    0  501    0  0.00000000000E+00 -0.00000000000E+00 -0.51896536038E+03  0.51896536038E+03  0.00000000000E+00 0.  1.
         25    1    1    2    0    0  0.31479095943E+02  0.14680308443E+02 -0.28718757598E+03  0.31318229314E+03  0.12000000000E+03 0.  0.
         25    1    1    2    0    0 -0.31479095943E+02 -0.14680308443E+02 -0.20094696920E+03  0.23661388245E+03  0.12000000000E+03 0.  0.
<mgrwt>
<rscale>  0 0.25298320E+03</rscale>
<asrwt>0</asrwt>
<pdfrwt beam="1">  1        2 0.79840816E-01 0.25298320E+03</pdfrwt>
<pdfrwt beam="2">  1       -2 0.47432029E-02 0.25298320E+03</pdfrwt>
<totfact> 0.12529020E+04</totfact>
</mgrwt>
</event>
<event>
 4    1  0.1710914E-004  0.2907452E+03  0.7818608E-02  0.1089961E+00
          1   -1    0    0  501    0  0.00000000000E+00  0.00000000000E+00  0.98601462596E+03  0.98601462596E+03  0.00000000000E+00 0. -1.
         -1   -1    0    0    0  501 -0.00000000000E+00 -0.00000000000E+00 -0.21432935883E+02  0.21432935883E+02  0.00000000000E+00 0. -1.
         25    1    1    2    0    0 -0.76756292057E+02 -0.52999587786E+01  0.38345658998E+03  0.40909482315E+03  0.12000000000E+03 0.  0.
         25    1    1    2    0    0  0.76756292057E+02  0.52999587786E+01  0.58112510010E+03  0.59835273869E+03  0.12000000000E+03 0.  0.
<mgrwt>
<rscale>  0 0.29074517E+03</rscale>
<asrwt>0</asrwt>
<pdfrwt beam="1">  1        1 0.15169452E+00 0.29074517E+03</pdfrwt>
<pdfrwt beam="2">  1       -1 0.32973755E-02 0.29074517E+03</pdfrwt>
<totfact> 0.53762374E+03</totfact>
</mgrwt>
</event>
<event>
 4    1  0.1710914E-004  0.3656399E+03  0.7818608E-02  0.1056373E+00
         -1   -1    0    0    0  501 -0.00000000000E+00  0.00000000000E+00  0.18364876812E+02  0.18364876812E+02  0.00000000000E+00 0. -1.
          1   -1    0    0  501    0  0.00000000000E+00 -0.00000000000E+00 -0.18199484354E+04  0.18199484354E+04  0.00000000000E+00 0. -1.
         25    1    1    2    0    0 -0.75795707433E+02 -0.10392561899E+03 -0.65053719411E+03  0.67390219206E+03  0.12000000000E+03 0.  0.
         25    1    1    2    0    0  0.75795707433E+02  0.10392561899E+03 -0.11510463644E+04  0.11644111201E+04  0.12000000000E+03 0.  0.
<mgrwt>
<rscale>  0 0.36563987E+03</rscale>
<asrwt>0</asrwt>
<pdfrwt beam="1">  1        1 0.27999216E+00 0.36563987E+03</pdfrwt>
<pdfrwt beam="2">  1       -1 0.28253647E-02 0.36563987E+03</pdfrwt>
<totfact> 0.18136410E+03</totfact>
</mgrwt>
</event>
<event>
 4    1  0.1710914E-004  0.2723282E+03  0.7818608E-02  0.1099954E+00
          1   -1    0    0  501    0  0.00000000000E+00  0.00000000000E+00  0.18340425919E+03  0.18340425919E+03  0.00000000000E+00 0.  1.
         -1   -1    0    0    0  501 -0.00000000000E+00 -0.00000000000E+00 -0.10109176098E+03  0.10109176098E+03  0.00000000000E+00 0.  1.
         25    1    1    2    0    0  0.32106009636E+02  0.26592928706E+02  0.92363511768E+02  0.15706367504E+03  0.12000000000E+03 0.  0.
         25    1    1    2    0    0 -0.32106009636E+02 -0.26592928706E+02 -0.10051013557E+02  0.12743234513E+03  0.12000000000E+03 0.  0.
<mgrwt>
<rscale>  0 0.27232818E+03</rscale>
<asrwt>0</asrwt>
<pdfrwt beam="1">  1        1 0.28216040E-01 0.27232818E+03</pdfrwt>
<pdfrwt beam="2">  1       -1 0.15552579E-01 0.27232818E+03</pdfrwt>
<totfact> 0.49315912E+03</totfact>
</mgrwt>
</event>
<event>
 4    1  0.1710914E-004  0.2561875E+03  0.7818608E-02  0.1109456E+00
         -1   -1    0    0    0  501 -0.00000000000E+00  0.00000000000E+00  0.25655866793E+03  0.25655866793E+03  0.00000000000E+00 0.  1.
          1   -1    0    0  501    0  0.00000000000E+00 -0.00000000000E+00 -0.63954210053E+02  0.63954210053E+02  0.00000000000E+00 0.  1.
         25    1    1    2    0    0 -0.36155701977E+02 -0.17127609974E+02  0.71049564042E+02  0.14508146112E+03  0.12000000000E+03 0.  0.
         25    1    1    2    0    0  0.36155701977E+02  0.17127609974E+02  0.12155489383E+03  0.17543141687E+03  0.12000000000E+03 0.  0.
<mgrwt>
<rscale>  0 0.25618749E+03</rscale>
<asrwt>0</asrwt>
<pdfrwt beam="1">  1        1 0.98391094E-02 0.25618749E+03</pdfrwt>
<pdfrwt beam="2">  1       -1 0.39470564E-01 0.25618749E+03</pdfrwt>
<totfact> 0.41117936E+03</totfact>
</mgrwt>
</event>
<event>
 4    1  0.1710914E-004  0.2661165E+03  0.7818608E-02  0.1103523E+00
         -1   -1    0    0    0  501 -0.00000000000E+00  0.00000000000E+00  0.44927947087E+02  0.44927947087E+02  0.00000000000E+00 0.  1.
          1   -1    0    0  501    0  0.00000000000E+00 -0.00000000000E+00 -0.39406427744E+03  0.39406427744E+03  0.00000000000E+00 0.  1.
         25    1    1    2    0    0  0.56517611233E+02  0.77228226217E+01 -0.18630447741E+03  0.22883015683E+03  0.12000000000E+03 0.  0.
         25    1    1    2    0    0 -0.56517611233E+02 -0.77228226217E+01 -0.16283185294E+03  0.21016206770E+03  0.12000000000E+03 0.  0.
<mgrwt>
<rscale>  0 0.26611651E+03</rscale>
<asrwt>0</asrwt>
<pdfrwt beam="1">  1        1 0.60625272E-01 0.26611651E+03</pdfrwt>
<pdfrwt beam="2">  1       -1 0.69119920E-02 0.26611651E+03</pdfrwt>
<totfact> 0.66039420E+03</totfact>
</mgrwt>
</event>
<event>
 4    1  0.1710914E-004  0.2601915E+03  0.7818608E-02  0.1107028E+00
          4   -1    0    0  501    0  0.00000000000E+00  0.00000000000E+00  0.20939011463E+03  0.20939011463E+03  0.00000000000E+00 0. -1.
         -4   -1    0    0    0  501 -0.00000000000E+00 -0.00000000000E+00 -0.80829558975E+02  0.80829558975E+02  0.00000000000E+00 0. -1.
         25    1    1    2    0    0 -0.34512460971E+02  0.31516911238E+02  0.43698512120E+02  0.13599259398E+03  0.12000000000E+03 0.  0.
         25    1    1    2    0    0  0.34512460971E+02 -0.31516911238E+02  0.84862043534E+02  0.15422707962E+03  0.12000000000E+03 0.  0.
<mgrwt>
<rscale>  0 0.26019155E+03</rscale>
<asrwt>0</asrwt>
<pdfrwt beam="1">  1        4 0.32213864E-01 0.26019155E+03</pdfrwt>
<pdfrwt beam="2">  1       -4 0.12435317E-01 0.26019155E+03</pdfrwt>
<totfact> 0.90246445E+02</totfact>
</mgrwt>
</event>
<event>
 4    1  0.1710914E-004  0.3789132E+03  0.7818608E-02  0.1051336E+00
          1   -1    0    0  501    0  0.00000000000E+00  0.00000000000E+00  0.34814460932E+02  0.34814460932E+02  0.00000000000E+00 0.  1.
         -1   -1    0    0    0  501 -0.00000000000E+00 -0.00000000000E+00 -0.10310025679E+04  0.10310025679E+04  0.00000000000E+00 0.  1.
         25    1    1    2    0    0  0.84160437285E+02  0.10007192225E+03 -0.68460014436E+03  0.70723032067E+03  0.12000000000E+03 0.  0.
         25    1    1    2    0    0 -0.84160437285E+02 -0.10007192225E+03 -0.31158796265E+03  0.35858670820E+03  0.12000000000E+03 0.  0.
<mgrwt>
<rscale>  0 0.37891318E+03</rscale>
<asrwt>0</asrwt>
<pdfrwt beam="1">  1        1 0.53560713E-02 0.37891318E+03</pdfrwt>
<pdfrwt beam="2">  1       -1 0.15861577E+00 0.37891318E+03</pdfrwt>
<totfact> 0.49267147E+02</totfact>
</mgrwt>
</event>
<event>
 4    1  0.1710914E-004  0.3320270E+03  0.7818608E-02  0.1070244E+00
          1   -1    0    0  501    0  0.00000000000E+00  0.00000000000E+00  0.30649264150E+03  0.30649264150E+03  0.00000000000E+00 0. -1.
         -1   -1    0    0    0  501 -0.00000000000E+00 -0.00000000000E+00 -0.89922148241E+02  0.89922148241E+02  0.00000000000E+00 0. -1.
         25    1    1    2    0    0 -0.86301063127E+02  0.94340454413E+01  0.19781837929E+03  0.24712139911E+03  0.12000000000E+03 0.  0.
         25    1    1    2    0    0  0.86301063127E+02 -0.94340454413E+01  0.18752113970E+02  0.14929339064E+03  0.12000000000E+03 0.  0.
<mgrwt>
<rscale>  0 0.33202697E+03</rscale>
<asrwt>0</asrwt>
<pdfrwt beam="1">  1        1 0.47152713E-01 0.33202697E+03</pdfrwt>
<pdfrwt beam="2">  1       -1 0.13834177E-01 0.33202697E+03</pdfrwt>
<totfact> 0.31231041E+03</totfact>
</mgrwt>
</event>
<event>
 4    1  0.1710914E-004  0.2868462E+03  0.7818608E-02  0.1092007E+00
          2   -1    0    0  501    0  0.00000000000E+00  0.00000000000E+00  0.26655567195E+04  0.26655567195E+04  0.00000000000E+00 0. -1.
         -2   -1    0    0    0  501 -0.00000000000E+00 -0.00000000000E+00 -0.77170290361E+01  0.77170290361E+01  0.00000000000E+00 0. -1.
         25    1    1    2    0    0  0.22506166940E+00  0.28261462641E+02  0.20119484135E+04  0.20157219996E+04  0.12000000000E+03 0.  0.
         25    1    1    2    0    0 -0.22506166940E+00 -0.28261462641E+02  0.64589127693E+03  0.65755174895E+03  0.12000000000E+03 0.  0.
<mgrwt>
<rscale>  0 0.28684615E+03</rscale>
<asrwt>0</asrwt>
<pdfrwt beam="1">  1        2 0.41008491E+00 0.28684615E+03</pdfrwt>
<pdfrwt beam="2">  1       -2 0.11872374E-02 0.28684615E+03</pdfrwt>
<totfact> 0.53894209E+03</totfact>
</mgrwt>
</event>
<event>
 4    1  0.1710914E-004  0.2457493E+03  0.7818608E-02  0.1116021E+00
         -2   -1    0    0    0  501 -0.00000000000E+00  0.00000000000E+00  0.26956505914E+02  0.26956505914E+02  0.00000000000E+00 0. -1.
          2   -1    0    0  501    0  0.00000000000E+00 -0.00000000000E+00 -0.56009425291E+03  0.56009425291E+03  0.00000000000E+00 0. -1.
         25    1    1    2    0    0  0.20996252549E+02 -0.12905712195E+02 -0.24380804912E+03  0.27285484207E+03  0.12000000000E+03 0.  0.
         25    1    1    2    0    0 -0.20996252549E+02  0.12905712195E+02 -0.28932969789E+03  0.31419591676E+03  0.12000000000E+03 0.  0.
<mgrwt>
<rscale>  0 0.24574934E+03</rscale>
<asrwt>0</asrwt>
<pdfrwt beam="1">  1        2 0.86168344E-01 0.24574934E+03</pdfrwt>
<pdfrwt beam="2">  1       -2 0.41471549E-02 0.24574934E+03</pdfrwt>
<totfact> 0.14054914E+04</totfact>
</mgrwt>
</event>
<event>
 4    1  0.1710914E-004  0.2633465E+03  0.7818608E-02  0.1105149E+00
         -2   -1    0    0    0  501 -0.00000000000E+00  0.00000000000E+00  0.38207925100E+03  0.38207925100E+03  0.00000000000E+00 0.  1.
          2   -1    0    0  501    0  0.00000000000E+00 -0.00000000000E+00 -0.45377630698E+02  0.45377630698E+02  0.00000000000E+00 0.  1.
         25    1    1    2    0    0  0.60087319511E+01 -0.52012949892E+02  0.19109836321E+03  0.23164636029E+03  0.12000000000E+03 0.  0.
         25    1    1    2    0    0 -0.60087319511E+01  0.52012949892E+02  0.14560325709E+03  0.19581052140E+03  0.12000000000E+03 0.  0.
<mgrwt>
<rscale>  0 0.26334655E+03</rscale>
<asrwt>0</asrwt>
<pdfrwt beam="1">  1        2 0.69811742E-02 0.26334655E+03</pdfrwt>
<pdfrwt beam="2">  1       -2 0.58781421E-01 0.26334655E+03</pdfrwt>
<totfact> 0.27830936E+03</totfact>
</mgrwt>
</event>
<event>
 4    1  0.1710914E-004  0.2966444E+03  0.7818608E-02  0.1086930E+00
         -1   -1    0    0    0  501 -0.00000000000E+00  0.00000000000E+00  0.13906418138E+02  0.13906418138E+02  0.00000000000E+00 0. -1.
          1   -1    0    0  501    0  0.00000000000E+00 -0.00000000000E+00 -0.15819658226E+04  0.15819658226E+04  0.00000000000E+00 0. -1.
         25    1    1    2    0    0  0.74534578342E+02  0.16200900642E+02 -0.10111038675E+04  0.10210528407E+04  0.12000000000E+03 0.  0.
         25    1    1    2    0    0 -0.74534578342E+02 -0.16200900642E+02 -0.55695553689E+03  0.57481940001E+03  0.12000000000E+03 0.  0.
<mgrwt>
<rscale>  0 0.29664442E+03</rscale>
<asrwt>0</asrwt>
<pdfrwt beam="1">  1        1 0.24337945E+00 0.29664442E+03</pdfrwt>
<pdfrwt beam="2">  1       -1 0.21394481E-02 0.29664442E+03</pdfrwt>
<totfact> 0.39257970E+03</totfact>
</mgrwt>
</event>
<event>
 4    1  0.1710914E-004  0.2445376E+03  0.7818608E-02  0.1116806E+00
          2   -1    0    0  501    0  0.00000000000E+00  0.00000000000E+00  0.14453580999E+03  0.14453580999E+03  0.00000000000E+00 0. -1.
         -2   -1    0    0    0  501 -0.00000000000E+00 -0.00000000000E+00 -0.10343218770E+03  0.10343218770E+03  0.00000000000E+00 0. -1.
         25    1    1    2    0    0 -0.10682247722E+02 -0.79152850932E+01  0.97048523371E+00  0.12073816296E+03  0.12000000000E+03 0.  0.
         25    1    1    2    0    0  0.10682247722E+02  0.79152850932E+01  0.40133137050E+02  0.12722983472E+03  0.12000000000E+03 0.  0.
<mgrwt>
<rscale>  0 0.24453756E+03</rscale>
<asrwt>0</asrwt>
<pdfrwt beam="1">  1        2 0.22236278E-01 0.24453756E+03</pdfrwt>
<pdfrwt beam="2">  1       -2 0.15912644E-01 0.24453756E+03</pdfrwt>
<totfact> 0.75043450E+03</totfact>
</mgrwt>
</event>
<event>
 4    1  0.1710914E-004  0.2500785E+03  0.7818608E-02  0.1113255E+00
         -3   -1    0    0    0  501 -0.00000000000E+00  0.00000000000E+00  0.19042690362E+02  0.19042690362E+02  0.00000000000E+00 0. -1.
          3   -1    0    0  501    0  0.00000000000E+00 -0.00000000000E+00 -0.82104017588E+03  0.82104017588E+03  0.00000000000E+00 0. -1.
         25    1    1    2    0    0  0.16166549298E+02 -0.18609265051E+02 -0.48512510401E+03  0.50035390336E+03  0.12000000000E+03 0.  0.
         25    1    1    2    0    0 -0.16166549298E+02  0.18609265051E+02 -0.31687238151E+03  0.33972896289E+03  0.12000000000E+03 0.  0.
<mgrwt>
<rscale>  0 0.25007850E+03</rscale>
<asrwt>0</asrwt>
<pdfrwt beam="1">  1        3 0.12631387E+00 0.25007850E+03</pdfrwt>
<pdfrwt beam="2">  1       -3 0.29296447E-02 0.25007850E+03</pdfrwt>
<totfact> 0.69656723E+02</totfact>
</mgrwt>
</event>
<event>
 4    1  0.1710914E-004  0.2914139E+03  0.7818608E-02  0.1089613E+00
          2   -1    0    0  501    0  0.00000000000E+00  0.00000000000E+00  0.25319440431E+03  0.25319440431E+03  0.00000000000E+00 0.  1.
         -2   -1    0    0    0  501 -0.00000000000E+00 -0.00000000000E+00 -0.83850629041E+02  0.83850629041E+02  0.00000000000E+00 0.  1.
         25    1    1    2    0    0  0.14758004046E-01 -0.75002980663E+01 -0.10521877495E+02  0.12069368084E+03  0.12000000000E+03 0.  0.
         25    1    1    2    0    0 -0.14758004046E-01  0.75002980663E+01  0.17986565276E+03  0.21635135251E+03  0.12000000000E+03 0.  0.
<mgrwt>
<rscale>  0 0.29141386E+03</rscale>
<asrwt>0</asrwt>
<pdfrwt beam="1">  1        2 0.38952985E-01 0.29141386E+03</pdfrwt>
<pdfrwt beam="2">  1       -2 0.12900097E-01 0.29141386E+03</pdfrwt>
<totfact> 0.57535126E+03</totfact>
</mgrwt>
</event>
<event>
 4    1  0.1710914E-004  0.2941749E+03  0.7818608E-02  0.1088189E+00
         -1   -1    0    0    0  501 -0.00000000000E+00  0.00000000000E+00  0.23195187722E+02  0.23195187722E+02  0.00000000000E+00 0.  1.
          1   -1    0    0  501    0  0.00000000000E+00 -0.00000000000E+00 -0.93272411002E+03  0.93272411002E+03  0.00000000000E+00 0.  1.
         25    1    1    2    0    0  0.71694813328E+01  0.75434787950E+02 -0.58031869283E+03  0.59742078466E+03  0.12000000000E+03 0.  0.
         25    1    1    2    0    0 -0.71694813328E+01 -0.75434787950E+02 -0.32921022947E+03  0.35849851308E+03  0.12000000000E+03 0.  0.
<mgrwt>
<rscale>  0 0.29417485E+03</rscale>
<asrwt>0</asrwt>
<pdfrwt beam="1">  1        1 0.14349601E+00 0.29417485E+03</pdfrwt>
<pdfrwt beam="2">  1       -1 0.35684906E-02 0.29417485E+03</pdfrwt>
<totfact> 0.52527664E+03</totfact>
</mgrwt>
</event>
<event>
 4    1  0.1710914E-004  0.2898437E+03  0.7818608E-02  0.1090431E+00
         -2   -1    0    0    0  501 -0.00000000000E+00  0.00000000000E+00  0.10464484994E+02  0.10464484994E+02  0.00000000000E+00 0.  1.
          2   -1    0    0  501    0  0.00000000000E+00 -0.00000000000E+00 -0.20070112199E+04  0.20070112199E+04  0.00000000000E+00 0.  1.
         25    1    1    2    0    0  0.79242454944E+02  0.17374332407E+02 -0.96629663494E+03  0.97709284143E+03  0.12000000000E+03 0.  0.
         25    1    1    2    0    0 -0.79242454944E+02 -0.17374332407E+02 -0.10302501000E+04  0.10403828635E+04  0.12000000000E+03 0.  0.
<mgrwt>
<rscale>  0 0.28984367E+03</rscale>
<asrwt>0</asrwt>
<pdfrwt beam="1">  1        2 0.30877120E+00 0.28984367E+03</pdfrwt>
<pdfrwt beam="2">  1       -2 0.16099195E-02 0.28984367E+03</pdfrwt>
<totfact> 0.78389495E+03</totfact>
</mgrwt>
</event>
<event>
 4    1  0.1710914E-004  0.2571514E+03  0.7818608E-02  0.1108867E+00
         -1   -1    0    0    0  501 -0.00000000000E+00  0.00000000000E+00  0.69034802528E+01  0.69034802528E+01  0.00000000000E+00 0. -1.
          1   -1    0    0  501    0  0.00000000000E+00 -0.00000000000E+00 -0.23946921186E+04  0.23946921186E+04  0.00000000000E+00 0. -1.
         25    1    1    2    0    0 -0.24541683641E+02 -0.12547933007E+02 -0.15398197550E+04  0.15447344829E+04  0.12000000000E+03 0.  0.
         25    1    1    2    0    0  0.24541683641E+02  0.12547933007E+02 -0.84796888335E+03  0.85686111593E+03  0.12000000000E+03 0.  0.
<mgrwt>
<rscale>  0 0.25715139E+03</rscale>
<asrwt>0</asrwt>
<pdfrwt beam="1">  1        1 0.36841380E+00 0.25715139E+03</pdfrwt>
<pdfrwt beam="2">  1       -1 0.10620750E-02 0.25715139E+03</pdfrwt>
<totfact> 0.32115234E+03</totfact>
</mgrwt>
</event>
<event>
 4    1  0.1710914E-004  0.3130465E+03  0.7818608E-02  0.1078895E+00
          1   -1    0    0  501    0  0.00000000000E+00  0.00000000000E+00  0.26909243218E+03  0.26909243218E+03  0.00000000000E+00 0. -1.
         -1   -1    0    0    0  501 -0.00000000000E+00 -0.00000000000E+00 -0.91045014435E+02  0.91045014435E+02  0.00000000000E+00 0. -1.
         25    1    1    2    0    0  0.27140545601E+02 -0.96357207585E+02  0.78850144946E+02  0.17503904144E+03  0.12000000000E+03 0.  0.
         25    1    1    2    0    0 -0.27140545601E+02  0.96357207585E+02  0.99197272804E+02  0.18509840518E+03  0.12000000000E+03 0.  0.
<mgrwt>
<rscale>  0 0.31304648E+03</rscale>
<asrwt>0</asrwt>
<pdfrwt beam="1">  1        1 0.41398835E-01 0.31304648E+03</pdfrwt>
<pdfrwt beam="2">  1       -1 0.14006925E-01 0.31304648E+03</pdfrwt>
<totfact> 0.36048633E+03</totfact>
</mgrwt>
</event>
<event>
 4    1  0.1710914E-004  0.2638351E+03  0.7818608E-02  0.1104861E+00
          1   -1    0    0  501    0  0.00000000000E+00  0.00000000000E+00  0.67217570648E+03  0.67217570648E+03  0.00000000000E+00 0.  1.
         -1   -1    0    0    0  501 -0.00000000000E+00 -0.00000000000E+00 -0.25889426279E+02  0.25889426279E+02  0.00000000000E+00 0.  1.
         25    1    1    2    0    0 -0.34009460546E+02  0.39620690585E+02  0.36708325087E+03  0.38971342753E+03  0.12000000000E+03 0.  0.
         25    1    1    2    0    0  0.34009460546E+02 -0.39620690585E+02  0.27920302934E+03  0.30835170523E+03  0.12000000000E+03 0.  0.
<mgrwt>
<rscale>  0 0.26383513E+03</rscale>
<asrwt>0</asrwt>
<pdfrwt beam="1">  1        1 0.10341163E+00 0.26383513E+03</pdfrwt>
<pdfrwt beam="2">  1       -1 0.39829892E-02 0.26383513E+03</pdfrwt>
<totfact> 0.73675632E+03</totfact>
</mgrwt>
</event>
<event>
 4    1  0.1710914E-004  0.3497398E+03  0.7818608E-02  0.1062722E+00
          1   -1    0    0  501    0  0.00000000000E+00  0.00000000000E+00  0.90986974487E+03  0.90986974487E+03  0.00000000000E+00 0. -1.
         -1   -1    0    0    0  501 -0.00000000000E+00 -0.00000000000E+00 -0.33608646359E+02  0.33608646359E+02  0.00000000000E+00 0. -1.
         25    1    1    2    0    0 -0.84881545213E+02  0.80346161811E+02  0.30273317639E+03  0.34598809014E+03  0.12000000000E+03 0.  0.
         25    1    1    2    0    0  0.84881545213E+02 -0.80346161811E+02  0.57352792212E+03  0.59749030108E+03  0.12000000000E+03 0.  0.
<mgrwt>
<rscale>  0 0.34973985E+03</rscale>
<asrwt>0</asrwt>
<pdfrwt beam="1">  1        1 0.13997994E+00 0.34973985E+03</pdfrwt>
<pdfrwt beam="2">  1       -1 0.51705617E-02 0.34973985E+03</pdfrwt>
<totfact> 0.31475213E+03</totfact>
</mgrwt>
</event>
<event>
 4    1  0.1710914E-004  0.2730192E+03  0.7818608E-02  0.1099564E+00
          2   -1    0    0  501    0  0.00000000000E+00  0.00000000000E+00  0.12726066559E+04  0.12726066559E+04  0.00000000000E+00 0. -1.
         -2   -1    0    0    0  501 -0.00000000000E+00 -0.00000000000E+00 -0.14643068327E+02  0.14643068327E+02  0.00000000000E+00 0. -1.
         25    1    1    2    0    0  0.12793457464E+02 -0.43403977984E+02  0.84948895231E+03  0.85911527629E+03  0.12000000000E+03 0.  0.
         25    1    1    2    0    0 -0.12793457464E+02  0.43403977984E+02  0.40847463531E+03  0.42813444798E+03  0.12000000000E+03 0.  0.
<mgrwt>
<rscale>  0 0.27301917E+03</rscale>
<asrwt>0</asrwt>
<pdfrwt beam="1">  1        2 0.19578555E+00 0.27301917E+03</pdfrwt>
<pdfrwt beam="2">  1       -2 0.22527807E-02 0.27301917E+03</pdfrwt>
<totfact> 0.11772504E+04</totfact>
</mgrwt>
</event>
<event>
 4    1  0.1710914E-004  0.3100474E+03  0.7818608E-02  0.1080323E+00
          2   -1    0    0  501    0  0.00000000000E+00  0.00000000000E+00  0.77525105888E+03  0.77525105888E+03  0.00000000000E+00 0. -1.
         -2   -1    0    0    0  501 -0.00000000000E+00 -0.00000000000E+00 -0.30999434378E+02  0.30999434378E+02  0.00000000000E+00 0. -1.
         25    1    1    2    0    0  0.43431876094E+02  0.50125074630E+02  0.56024702399E+03  0.57678035582E+03  0.12000000000E+03 0.  0.
         25    1    1    2    0    0 -0.43431876094E+02 -0.50125074630E+02  0.18400460052E+03  0.22947013744E+03  0.12000000000E+03 0.  0.
<mgrwt>
<rscale>  0 0.31004738E+03</rscale>
<asrwt>0</asrwt>
<pdfrwt beam="1">  1        2 0.11926938E+00 0.31004738E+03</pdfrwt>
<pdfrwt beam="2">  1       -2 0.47691444E-02 0.31004738E+03</pdfrwt>
<totfact> 0.77816109E+03</totfact>
</mgrwt>
</event>
<event>
 4    1  0.1710914E-004  0.2644839E+03  0.7818608E-02  0.1104479E+00
         -1   -1    0    0    0  501 -0.00000000000E+00  0.00000000000E+00  0.31120112424E+02  0.31120112424E+02  0.00000000000E+00 0.  1.
          1   -1    0    0  501    0  0.00000000000E+00 -0.00000000000E+00 -0.56194965532E+03  0.56194965532E+03  0.00000000000E+00 0.  1.
         25    1    1    2    0    0  0.55057776676E+02 -0.63410722794E+01 -0.25634261186E+03  0.28841480999E+03  0.12000000000E+03 0.  0.
         25    1    1    2    0    0 -0.55057776676E+02  0.63410722794E+01 -0.27448693103E+03  0.30465495774E+03  0.12000000000E+03 0.  0.
<mgrwt>
<rscale>  0 0.26448392E+03</rscale>
<asrwt>0</asrwt>
<pdfrwt beam="1">  1        1 0.86453790E-01 0.26448392E+03</pdfrwt>
<pdfrwt beam="2">  1       -1 0.47877098E-02 0.26448392E+03</pdfrwt>
<totfact> 0.71946802E+03</totfact>
</mgrwt>
</event>
<event>
 4    1  0.1710914E-004  0.3073764E+03  0.7818608E-02  0.1081610E+00
          2   -1    0    0  501    0  0.00000000000E+00  0.00000000000E+00  0.21554929942E+04  0.21554929942E+04  0.00000000000E+00 0.  1.
         -2   -1    0    0    0  501 -0.00000000000E+00 -0.00000000000E+00 -0.10958082349E+02  0.10958082349E+02  0.00000000000E+00 0.  1.
         25    1    1    2    0    0 -0.59161468284E+02 -0.48902282726E+02  0.66563099998E+03  0.68070268158E+03  0.12000000000E+03 0.  0.
         25    1    1    2    0    0  0.59161468284E+02  0.48902282726E+02  0.14789039119E+04  0.14857483950E+04  0.12000000000E+03 0.  0.
<mgrwt>
<rscale>  0 0.30737644E+03</rscale>
<asrwt>0</asrwt>
<pdfrwt beam="1">  1        2 0.33161397E+00 0.30737644E+03</pdfrwt>
<pdfrwt beam="2">  1       -2 0.16858605E-02 0.30737644E+03</pdfrwt>
<totfact> 0.61128207E+03</totfact>
</mgrwt>
</event>
<event>
 4    1  0.1710914E-004  0.2611039E+03  0.7818608E-02  0.1106482E+00
         -1   -1    0    0    0  501 -0.00000000000E+00  0.00000000000E+00  0.28290265206E+02  0.28290265206E+02  0.00000000000E+00 0.  1.
          1   -1    0    0  501    0  0.00000000000E+00 -0.00000000000E+00 -0.60246216055E+03  0.60246216055E+03  0.00000000000E+00 0.  1.
         25    1    1    2    0    0  0.13731811475E+02  0.31993391913E+02 -0.19568142487E+03  0.23217097108E+03  0.12000000000E+03 0.  0.
         25    1    1    2    0    0 -0.13731811475E+02 -0.31993391913E+02 -0.37849047048E+03  0.39858145468E+03  0.12000000000E+03 0.  0.
<mgrwt>
<rscale>  0 0.26110392E+03</rscale>
<asrwt>0</asrwt>
<pdfrwt beam="1">  1        1 0.92686474E-01 0.26110392E+03</pdfrwt>
<pdfrwt beam="2">  1       -1 0.43523491E-02 0.26110392E+03</pdfrwt>
<totfact> 0.75340015E+03</totfact>
</mgrwt>
</event>
<event>
 4    1  0.1710914E-004  0.2656376E+03  0.7818608E-02  0.1103803E+00
          1   -1    0    0  501    0  0.00000000000E+00  0.00000000000E+00  0.15117408445E+04  0.15117408445E+04  0.00000000000E+00 0. -1.
         -1   -1    0    0    0  501 -0.00000000000E+00 -0.00000000000E+00 -0.11669214585E+02  0.11669214585E+02  0.00000000000E+00 0. -1.
         25    1    1    2    0    0  0.12261249813E+02  0.38570162983E+02  0.52043606062E+03  0.53562271134E+03  0.12000000000E+03 0.  0.
         25    1    1    2    0    0 -0.12261249813E+02 -0.38570162983E+02  0.97963556930E+03  0.98778734774E+03  0.12000000000E+03 0.  0.
<mgrwt>
<rscale>  0 0.26563756E+03</rscale>
<asrwt>0</asrwt>
<pdfrwt beam="1">  1        1 0.23257536E+00 0.26563756E+03</pdfrwt>
<pdfrwt beam="2">  1       -1 0.17952650E-02 0.26563756E+03</pdfrwt>
<totfact> 0.56419025E+03</totfact>
</mgrwt>
</event>
<event>
 4    1  0.1710914E-004  0.2578766E+03  0.7818608E-02  0.1108426E+00
          2   -1    0    0  501    0  0.00000000000E+00  0.00000000000E+00  0.31624498355E+03  0.31624498355E+03  0.00000000000E+00 0. -1.
         -2   -1    0    0    0  501 -0.00000000000E+00 -0.00000000000E+00 -0.52570268207E+02  0.52570268207E+02  0.00000000000E+00 0. -1.
         25    1    1    2    0    0  0.72731985210E+01 -0.28738210042E+02  0.79360503167E+02  0.14689068587E+03  0.12000000000E+03 0.  0.
         25    1    1    2    0    0 -0.72731985210E+01  0.28738210042E+02  0.18431421218E+03  0.22192456589E+03  0.12000000000E+03 0.  0.
<mgrwt>
<rscale>  0 0.25787659E+03</rscale>
<asrwt>0</asrwt>
<pdfrwt beam="1">  1        2 0.48653073E-01 0.25787659E+03</pdfrwt>
<pdfrwt beam="2">  1       -2 0.80877337E-02 0.25787659E+03</pdfrwt>
<totfact> 0.94841915E+03</totfact>
</mgrwt>
</event>
<event>
 4    1  0.1710914E-004  0.2436934E+03  0.7818608E-02  0.1117357E+00
         -2   -1    0    0    0  501 -0.00000000000E+00  0.00000000000E+00  0.15942383624E+04  0.15942383624E+04  0.00000000000E+00 0.  1.
          2   -1    0    0  501    0  0.00000000000E+00 -0.00000000000E+00 -0.93126697663E+01  0.93126697663E+01  0.00000000000E+00 0.  1.
         25    1    1    2    0    0  0.64788936610E+01  0.24861654619E+01  0.92381297671E+03  0.93160000699E+03  0.12000000000E+03 0.  0.
         25    1    1    2    0    0 -0.64788936610E+01 -0.24861654619E+01  0.66111271589E+03  0.67195102515E+03  0.12000000000E+03 0.  0.
<mgrwt>
<rscale>  0 0.24369338E+03</rscale>
<asrwt>0</asrwt>
<pdfrwt beam="1">  1        2 0.14327197E-02 0.24369338E+03</pdfrwt>
<pdfrwt beam="2">  1       -2 0.24526722E+00 0.24369338E+03</pdfrwt>
<totfact> 0.66492660E+02</totfact>
</mgrwt>
</event>
<event>
 4    1  0.1710914E-004  0.4035274E+03  0.7818608E-02  0.1042565E+00
         -2   -1    0    0    0  501 -0.00000000000E+00  0.00000000000E+00  0.10407746601E+03  0.10407746601E+03  0.00000000000E+00 0. -1.
          2   -1    0    0  501    0  0.00000000000E+00 -0.00000000000E+00 -0.39113733725E+03  0.39113733725E+03  0.00000000000E+00 0. -1.
         25    1    1    2    0    0  0.21115821660E+02 -0.11130576289E+03 -0.28598063476E+03  0.33018142624E+03  0.12000000000E+03 0.  0.
         25    1    1    2    0    0 -0.21115821660E+02  0.11130576289E+03 -0.10792364820E+01  0.16503337701E+03  0.12000000000E+03 0.  0.
<mgrwt>
<rscale>  0 0.40352736E+03</rscale>
<asrwt>0</asrwt>
<pdfrwt beam="1">  1        2 0.60174975E-01 0.40352736E+03</pdfrwt>
<pdfrwt beam="2">  1       -2 0.16011918E-01 0.40352736E+03</pdfrwt>
<totfact> 0.25269578E+03</totfact>
</mgrwt>
</event>
<event>
 4    1  0.1710914E-004  0.3051058E+03  0.7818608E-02  0.1082716E+00
          1   -1    0    0  501    0  0.00000000000E+00  0.00000000000E+00  0.15240027212E+04  0.15240027212E+04  0.00000000000E+00 0.  1.
         -1   -1    0    0    0  501 -0.00000000000E+00 -0.00000000000E+00 -0.15270563566E+02  0.15270563566E+02  0.00000000000E+00 0.  1.
         25    1    1    2    0    0  0.86669937715E+02  0.36856907710E+02  0.74676380775E+03  0.76218520998E+03  0.12000000000E+03 0.  0.
         25    1    1    2    0    0 -0.86669937715E+02 -0.36856907710E+02  0.76196834993E+03  0.77708807483E+03  0.12000000000E+03 0.  0.
<mgrwt>
<rscale>  0 0.30510575E+03</rscale>
<asrwt>0</asrwt>
<pdfrwt beam="1">  1        1 0.23446184E+00 0.30510575E+03</pdfrwt>
<pdfrwt beam="2">  1       -1 0.23493187E-02 0.30510575E+03</pdfrwt>
<totfact> 0.37372785E+03</totfact>
</mgrwt>
</event>
<event>
 4    1  0.1710914E-004  0.2950588E+03  0.7818608E-02  0.1087737E+00
         -1   -1    0    0    0  501 -0.00000000000E+00  0.00000000000E+00  0.67134448280E+03  0.67134448280E+03  0.00000000000E+00 0.  1.
          1   -1    0    0  501    0  0.00000000000E+00 -0.00000000000E+00 -0.32419895163E+02  0.32419895163E+02  0.00000000000E+00 0.  1.
         25    1    1    2    0    0 -0.21798819431E+02  0.39711716505E+02  0.14561146095E+03  0.19404872202E+03  0.12000000000E+03 0.  0.
         25    1    1    2    0    0  0.21798819431E+02 -0.39711716505E+02  0.49331312668E+03  0.50971565594E+03  0.12000000000E+03 0.  0.
<mgrwt>
<rscale>  0 0.29505876E+03</rscale>
<asrwt>0</asrwt>
<pdfrwt beam="1">  1        1 0.49876767E-02 0.29505876E+03</pdfrwt>
<pdfrwt beam="2">  1       -1 0.10328376E+00 0.29505876E+03</pdfrwt>
<totfact> 0.15668432E+03</totfact>
</mgrwt>
</event>
<event>
 4    1  0.1710914E-004  0.2498370E+03  0.7818608E-02  0.1113408E+00
          2   -1    0    0  501    0  0.00000000000E+00  0.00000000000E+00  0.15395567044E+03  0.15395567044E+03  0.00000000000E+00 0. -1.
         -2   -1    0    0    0  501 -0.00000000000E+00 -0.00000000000E+00 -0.10135792270E+03  0.10135792270E+03  0.00000000000E+00 0. -1.
         25    1    1    2    0    0  0.51803359022E+01 -0.19310250623E+02 -0.26938911631E+01  0.12168392954E+03  0.12000000000E+03 0.  0.
         25    1    1    2    0    0 -0.51803359022E+01  0.19310250623E+02  0.55291638905E+02  0.13362966359E+03  0.12000000000E+03 0.  0.
<mgrwt>
<rscale>  0 0.24983696E+03</rscale>
<asrwt>0</asrwt>
<pdfrwt beam="1">  1        2 0.23685488E-01 0.24983696E+03</pdfrwt>
<pdfrwt beam="2">  1       -2 0.15593527E-01 0.24983696E+03</pdfrwt>
<totfact> 0.72353471E+03</totfact>
</mgrwt>
</event>
<event>
 4    1  0.1710914E-004  0.2790141E+03  0.7818608E-02  0.1096229E+00
         -1   -1    0    0    0  501 -0.00000000000E+00  0.00000000000E+00  0.36614691622E+03  0.36614691622E+03  0.00000000000E+00 0. -1.
          1   -1    0    0  501    0  0.00000000000E+00 -0.00000000000E+00 -0.53154123472E+02  0.53154123472E+02  0.00000000000E+00 0. -1.
         25    1    1    2    0    0  0.46443430192E+02  0.47961557012E+02  0.19345767903E+03  0.23724075690E+03  0.12000000000E+03 0.  0.
         25    1    1    2    0    0 -0.46443430192E+02 -0.47961557012E+02  0.11953511372E+03  0.18206028279E+03  0.12000000000E+03 0.  0.
<mgrwt>
<rscale>  0 0.27901411E+03</rscale>
<asrwt>0</asrwt>
<pdfrwt beam="1">  1        1 0.81775577E-02 0.27901411E+03</pdfrwt>
<pdfrwt beam="2">  1       -1 0.56330293E-01 0.27901411E+03</pdfrwt>
<totfact> 0.27613442E+03</totfact>
</mgrwt>
</event>
<event>
 4    1  0.1710914E-004  0.3641116E+03  0.7818608E-02  0.1056968E+00
         -1   -1    0    0    0  501 -0.00000000000E+00  0.00000000000E+00  0.29541214376E+03  0.29541214376E+03  0.00000000000E+00 0. -1.
          1   -1    0    0  501    0  0.00000000000E+00 -0.00000000000E+00 -0.11219684329E+03  0.11219684329E+03  0.00000000000E+00 0. -1.
         25    1    1    2    0    0  0.60927545638E+02  0.10039554603E+03  0.12823636611E+02  0.16839203406E+03  0.12000000000E+03 0.  0.
         25    1    1    2    0    0 -0.60927545638E+02 -0.10039554603E+03  0.17039166386E+03  0.23921695298E+03  0.12000000000E+03 0.  0.
<mgrwt>
<rscale>  0 0.36411158E+03</rscale>
<asrwt>0</asrwt>
<pdfrwt beam="1">  1        1 0.17261053E-01 0.36411158E+03</pdfrwt>
<pdfrwt beam="2">  1       -1 0.45448022E-01 0.36411158E+03</pdfrwt>
<totfact> 0.15232999E+03</totfact>
</mgrwt>
</event>
<event>
 4    1  0.1710914E-004  0.2472123E+03  0.7818608E-02  0.1115079E+00
         -1   -1    0    0    0  501 -0.00000000000E+00  0.00000000000E+00  0.16902399651E+02  0.16902399651E+02  0.00000000000E+00 0. -1.
          1   -1    0    0  501    0  0.00000000000E+00 -0.00000000000E+00 -0.90392352310E+03  0.90392352310E+03  0.00000000000E+00 0. -1.
         25    1    1    2    0    0  0.27274128812E+02 -0.10070229954E+02 -0.42205180037E+03  0.43974198097E+03  0.12000000000E+03 0.  0.
         25    1    1    2    0    0 -0.27274128812E+02  0.10070229954E+02 -0.46496932308E+03  0.48108394178E+03  0.12000000000E+03 0.  0.
<mgrwt>
<rscale>  0 0.24721227E+03</rscale>
<asrwt>0</asrwt>
<pdfrwt beam="1">  1        1 0.13906516E+00 0.24721227E+03</pdfrwt>
<pdfrwt beam="2">  1       -1 0.26003692E-02 0.24721227E+03</pdfrwt>
<totfact> 0.87855755E+03</totfact>
</mgrwt>
</event>
<event>
 4    1  0.1710914E-004  0.2529178E+03  0.7818608E-02  0.1111475E+00
         -2   -1    0    0    0  501 -0.00000000000E+00  0.00000000000E+00  0.94696085371E+02  0.94696085371E+02  0.00000000000E+00 0.  1.
          2   -1    0    0  501    0  0.00000000000E+00 -0.00000000000E+00 -0.16887550313E+03  0.16887550313E+03  0.00000000000E+00 0.  1.
         25    1    1    2    0    0  0.19488142899E+02  0.33975122302E+02 -0.29170089285E+02  0.12955690162E+03  0.12000000000E+03 0.  0.
         25    1    1    2    0    0 -0.19488142899E+02 -0.33975122302E+02 -0.45009328473E+02  0.13401468688E+03  0.12000000000E+03 0.  0.
<mgrwt>
<rscale>  0 0.25291777E+03</rscale>
<asrwt>0</asrwt>
<pdfrwt beam="1">  1        2 0.25980846E-01 0.25291777E+03</pdfrwt>
<pdfrwt beam="2">  1       -2 0.14568629E-01 0.25291777E+03</pdfrwt>
<totfact> 0.73042437E+03</totfact>
</mgrwt>
</event>
<event>
 4    1  0.1710914E-004  0.2686477E+03  0.7818608E-02  0.1102056E+00
         -2   -1    0    0    0  501 -0.00000000000E+00  0.00000000000E+00  0.24824623309E+02  0.24824623309E+02  0.00000000000E+00 0. -1.
          2   -1    0    0  501    0  0.00000000000E+00 -0.00000000000E+00 -0.72681459667E+03  0.72681459667E+03  0.00000000000E+00 0. -1.
         25    1    1    2    0    0 -0.61586352310E+01 -0.32160154165E+02 -0.20913774903E+03  0.24333269894E+03  0.12000000000E+03 0.  0.
         25    1    1    2    0    0  0.61586352310E+01  0.32160154165E+02 -0.49285222433E+03  0.50830652104E+03  0.12000000000E+03 0.  0.
<mgrwt>
<rscale>  0 0.26864771E+03</rscale>
<asrwt>0</asrwt>
<pdfrwt beam="1">  1        2 0.11181761E+00 0.26864771E+03</pdfrwt>
<pdfrwt beam="2">  1       -2 0.38191733E-02 0.26864771E+03</pdfrwt>
<totfact> 0.11741696E+04</totfact>
</mgrwt>
</event>
<event>
 4    1  0.1710914E-004  0.2575676E+03  0.7818608E-02  0.1108614E+00
         -2   -1    0    0    0  501 -0.00000000000E+00  0.00000000000E+00  0.10735678625E+02  0.10735678625E+02  0.00000000000E+00 0. -1.
          2   -1    0    0  501    0  0.00000000000E+00 -0.00000000000E+00 -0.15448737806E+04  0.15448737806E+04  0.00000000000E+00 0. -1.
         25    1    1    2    0    0  0.40771336786E+02  0.53368533655E+01 -0.90137203949E+03  0.91025399613E+03  0.12000000000E+03 0.  0.
         25    1    1    2    0    0 -0.40771336786E+02 -0.53368533655E+01 -0.63276606253E+03  0.64535546314E+03  0.12000000000E+03 0.  0.
<mgrwt>
<rscale>  0 0.25756761E+03</rscale>
<asrwt>0</asrwt>
<pdfrwt beam="1">  1        2 0.23767278E+00 0.25756761E+03</pdfrwt>
<pdfrwt beam="2">  1       -2 0.16516437E-02 0.25756761E+03</pdfrwt>
<totfact> 0.13198563E+04</totfact>
</mgrwt>
</event>
<event>
 4    1  0.1710914E-004  0.3009438E+03  0.7818608E-02  0.1084770E+00
         -2   -1    0    0    0  501 -0.00000000000E+00  0.00000000000E+00  0.63284569220E+02  0.63284569220E+02  0.00000000000E+00 0.  1.
          2   -1    0    0  501    0  0.00000000000E+00 -0.00000000000E+00 -0.35777753392E+03  0.35777753392E+03  0.00000000000E+00 0.  1.
         25    1    1    2    0    0 -0.80119226796E+02 -0.19399594156E+02 -0.94035746195E+02  0.17331519356E+03  0.12000000000E+03 0.  0.
         25    1    1    2    0    0  0.80119226796E+02  0.19399594156E+02 -0.20045721850E+03  0.24774690958E+03  0.12000000000E+03 0.  0.
<mgrwt>
<rscale>  0 0.30094383E+03</rscale>
<asrwt>0</asrwt>
<pdfrwt beam="1">  1        2 0.55042699E-01 0.30094383E+03</pdfrwt>
<pdfrwt beam="2">  1       -2 0.97360872E-02 0.30094383E+03</pdfrwt>
<totfact> 0.62343003E+03</totfact>
</mgrwt>
</event>
<event>
 4    1  0.1710914E-004  0.2769456E+03  0.7818608E-02  0.1097369E+00
         -2   -1    0    0    0  501 -0.00000000000E+00  0.00000000000E+00  0.12420572847E+02  0.12420572847E+02  0.00000000000E+00 0.  1.
          2   -1    0    0  501    0  0.00000000000E+00 -0.00000000000E+00 -0.15437869505E+04  0.15437869505E+04  0.00000000000E+00 0.  1.
         25    1    1    2    0    0  0.29760820466E+02 -0.26894249405E+02 -0.44952192072E+03  0.46698925501E+03  0.12000000000E+03 0.  0.
         25    1    1    2    0    0 -0.29760820466E+02  0.26894249405E+02 -0.10818444569E+04  0.10892182683E+04  0.12000000000E+03 0.  0.
<mgrwt>
<rscale>  0 0.27694561E+03</rscale>
<asrwt>0</asrwt>
<pdfrwt beam="1">  1        2 0.23750553E+00 0.27694561E+03</pdfrwt>
<pdfrwt beam="2">  1       -2 0.19108586E-02 0.27694561E+03</pdfrwt>
<totfact> 0.10690111E+04</totfact>
</mgrwt>
</event>
<event>
 4    1  0.1710914E-004  0.2429651E+03  0.7818608E-02  0.1117833E+00
         -4   -1    0    0    0  501 -0.00000000000E+00  0.00000000000E+00  0.44368661450E+02  0.44368661450E+02  0.00000000000E+00 0.  1.
          4   -1    0    0  501    0  0.00000000000E+00 -0.00000000000E+00 -0.33262245293E+03  0.33262245293E+03  0.00000000000E+00 0.  1.
         25    1    1    2    0    0 -0.14407193402E+02  0.46713396715E-01 -0.16315844020E+03  0.20304739843E+03  0.12000000000E+03 0.  0.
         25    1    1    2    0    0  0.14407193402E+02 -0.46713396715E-01 -0.12509535128E+03  0.17394371594E+03  0.12000000000E+03 0.  0.
<mgrwt>
<rscale>  0 0.24296513E+03</rscale>
<asrwt>0</asrwt>
<pdfrwt beam="1">  1        4 0.51172685E-01 0.24296513E+03</pdfrwt>
<pdfrwt beam="2">  1       -4 0.68259479E-02 0.24296513E+03</pdfrwt>
<totfact> 0.97893791E+02</totfact>
</mgrwt>
</event>
<event>
 4    1  0.1710914E-004  0.3810356E+03  0.7818608E-02  0.1050552E+00
          2   -1    0    0  501    0  0.00000000000E+00  0.00000000000E+00  0.10295563714E+04  0.10295563714E+04  0.00000000000E+00 0.  1.
         -2   -1    0    0    0  501 -0.00000000000E+00 -0.00000000000E+00 -0.35255028517E+02  0.35255028517E+02  0.00000000000E+00 0.  1.
         25    1    1    2    0    0  0.13593694679E+03  0.29420618888E+02  0.63833925355E+03  0.66424500671E+03  0.12000000000E+03 0.  0.
         25    1    1    2    0    0 -0.13593694679E+03 -0.29420618888E+02  0.35596208929E+03  0.40056639316E+03  0.12000000000E+03 0.  0.
<mgrwt>
<rscale>  0 0.38103564E+03</rscale>
<asrwt>0</asrwt>
<pdfrwt beam="1">  1        2 0.15839326E+00 0.38103564E+03</pdfrwt>
<pdfrwt beam="2">  1       -2 0.54238513E-02 0.38103564E+03</pdfrwt>
<totfact> 0.43721335E+03</totfact>
</mgrwt>
</event>
<event>
 4    1  0.1710914E-004  0.2838435E+03  0.7818608E-02  0.1093608E+00
         -1   -1    0    0    0  501 -0.00000000000E+00  0.00000000000E+00  0.89801039977E+02  0.89801039977E+02  0.00000000000E+00 0.  1.
          1   -1    0    0  501    0  0.00000000000E+00 -0.00000000000E+00 -0.22429337563E+03  0.22429337563E+03  0.00000000000E+00 0.  1.
         25    1    1    2    0    0 -0.44486584472E+02  0.30858379568E+02 -0.85821554805E+01  0.13192781807E+03  0.12000000000E+03 0.  0.
         25    1    1    2    0    0  0.44486584472E+02 -0.30858379568E+02 -0.12591018017E+03  0.18216659754E+03  0.12000000000E+03 0.  0.
<mgrwt>
<rscale>  0 0.28384347E+03</rscale>
<asrwt>0</asrwt>
<pdfrwt beam="1">  1        1 0.34506673E-01 0.28384347E+03</pdfrwt>
<pdfrwt beam="2">  1       -1 0.13815545E-01 0.28384347E+03</pdfrwt>
<totfact> 0.46220387E+03</totfact>
</mgrwt>
</event>
<event>
 4    1  0.1710914E-004  0.2528174E+03  0.7818608E-02  0.1111537E+00
         -2   -1    0    0    0  501 -0.00000000000E+00  0.00000000000E+00  0.20324506600E+02  0.20324506600E+02  0.00000000000E+00 0.  1.
          2   -1    0    0  501    0  0.00000000000E+00 -0.00000000000E+00 -0.78620147949E+03  0.78620147949E+03  0.00000000000E+00 0.  1.
         25    1    1    2    0    0 -0.35053524003E+02  0.10026402959E+02 -0.43336700280E+03  0.45114990571E+03  0.12000000000E+03 0.  0.
         25    1    1    2    0    0  0.35053524003E+02 -0.10026402959E+02 -0.33250997009E+03  0.35537608038E+03  0.12000000000E+03 0.  0.
<mgrwt>
<rscale>  0 0.25281738E+03</rscale>
<asrwt>0</asrwt>
<pdfrwt beam="1">  1        2 0.12095405E+00 0.25281738E+03</pdfrwt>
<pdfrwt beam="2">  1       -2 0.31268478E-02 0.25281738E+03</pdfrwt>
<totfact> 0.14322583E+04</totfact>
</mgrwt>
</event>
<event>
 4    1  0.1710914E-004  0.2512979E+03  0.7818608E-02  0.1112487E+00
          1   -1    0    0  501    0  0.00000000000E+00  0.00000000000E+00  0.48136660911E+03  0.48136660911E+03  0.00000000000E+00 0. -1.
         -1   -1    0    0    0  501 -0.00000000000E+00 -0.00000000000E+00 -0.32797587449E+02  0.32797587449E+02  0.00000000000E+00 0. -1.
         25    1    1    2    0    0 -0.21243284716E+02 -0.29999158050E+02  0.21193404930E+03  0.24630726315E+03  0.12000000000E+03 0.  0.
         25    1    1    2    0    0  0.21243284716E+02  0.29999158050E+02  0.23663497237E+03  0.26785693341E+03  0.12000000000E+03 0.  0.
<mgrwt>
<rscale>  0 0.25129794E+03</rscale>
<asrwt>0</asrwt>
<pdfrwt beam="1">  1        1 0.74056397E-01 0.25129794E+03</pdfrwt>
<pdfrwt beam="2">  1       -1 0.50457830E-02 0.25129794E+03</pdfrwt>
<totfact> 0.81670517E+03</totfact>
</mgrwt>
</event>
<event>
 4    1  0.1710914E-004  0.3157162E+03  0.7818608E-02  0.1077638E+00
         -1   -1    0    0    0  501 -0.00000000000E+00  0.00000000000E+00  0.15942123900E+02  0.15942123900E+02  0.00000000000E+00 0.  1.
          1   -1    0    0  501    0  0.00000000000E+00 -0.00000000000E+00 -0.15631030529E+04  0.15631030529E+04  0.00000000000E+00 0.  1.
         25    1    1    2    0    0 -0.94465147744E+02  0.39250459853E+02 -0.73651562332E+03  0.75320616443E+03  0.12000000000E+03 0.  0.
         25    1    1    2    0    0  0.94465147744E+02 -0.39250459853E+02 -0.81064530572E+03  0.82583901241E+03  0.12000000000E+03 0.  0.
<mgrwt>
<rscale>  0 0.31571622E+03</rscale>
<asrwt>0</asrwt>
<pdfrwt beam="1">  1        1 0.24047737E+00 0.31571622E+03</pdfrwt>
<pdfrwt beam="2">  1       -1 0.24526347E-02 0.31571622E+03</pdfrwt>
<totfact> 0.33044506E+03</totfact>
</mgrwt>
</event>
<event>
 4    1  0.1710914E-004  0.2659433E+03  0.7818608E-02  0.1103624E+00
          1   -1    0    0  501    0  0.00000000000E+00  0.00000000000E+00  0.29122112357E+03  0.29122112357E+03  0.00000000000E+00 0.  1.
         -1   -1    0    0    0  501 -0.00000000000E+00 -0.00000000000E+00 -0.60714907005E+02  0.60714907005E+02  0.00000000000E+00 0.  1.
         25    1    1    2    0    0  0.13844184621E+02 -0.55438146175E+02  0.10989167379E+03  0.17245645673E+03  0.12000000000E+03 0.  0.
         25    1    1    2    0    0 -0.13844184621E+02  0.55438146175E+02  0.12061454277E+03  0.17947957384E+03  0.12000000000E+03 0.  0.
<mgrwt>
<rscale>  0 0.26594333E+03</rscale>
<asrwt>0</asrwt>
<pdfrwt beam="1">  1        1 0.44803249E-01 0.26594333E+03</pdfrwt>
<pdfrwt beam="2">  1       -1 0.93407551E-02 0.26594333E+03</pdfrwt>
<totfact> 0.61133260E+03</totfact>
</mgrwt>
</event>
<event>
 4    1  0.1710914E-004  0.2546106E+03  0.7818608E-02  0.1110425E+00
          1   -1    0    0  501    0  0.00000000000E+00  0.00000000000E+00  0.11896361389E+03  0.11896361389E+03  0.00000000000E+00 0. -1.
         -1   -1    0    0    0  501 -0.00000000000E+00 -0.00000000000E+00 -0.13623187036E+03  0.13623187036E+03  0.00000000000E+00 0. -1.
         25    1    1    2    0    0 -0.37656509985E+02 -0.11687582402E+02 -0.24545839929E+02  0.12867443641E+03  0.12000000000E+03 0.  0.
         25    1    1    2    0    0  0.37656509985E+02  0.11687582402E+02  0.72775834521E+01  0.12652104784E+03  0.12000000000E+03 0.  0.
<mgrwt>
<rscale>  0 0.25461057E+03</rscale>
<asrwt>0</asrwt>
<pdfrwt beam="1">  1        1 0.18302095E-01 0.25461057E+03</pdfrwt>
<pdfrwt beam="2">  1       -1 0.20958749E-01 0.25461057E+03</pdfrwt>
<totfact> 0.52935777E+03</totfact>
</mgrwt>
</event>
<event>
 4    1  0.1710914E-004  0.4311245E+03  0.7818608E-02  0.1033505E+00
          2   -1    0    0  501    0  0.00000000000E+00  0.00000000000E+00  0.11203135774E+04  0.11203135774E+04  0.00000000000E+00 0. -1.
         -2   -1    0    0    0  501 -0.00000000000E+00 -0.00000000000E+00 -0.41476854894E+02  0.41476854894E+02  0.00000000000E+00 0. -1.
         25    1    1    2    0    0 -0.11742710715E+03  0.12623067842E+03  0.40895668349E+03  0.45974871250E+03  0.12000000000E+03 0.  0.
         25    1    1    2    0    0  0.11742710715E+03 -0.12623067842E+03  0.66988003906E+03  0.70204171985E+03  0.12000000000E+03 0.  0.
<mgrwt>
<rscale>  0 0.43112450E+03</rscale>
<asrwt>0</asrwt>
<pdfrwt beam="1">  1        2 0.17235591E+00 0.43112450E+03</pdfrwt>
<pdfrwt beam="2">  1       -2 0.63810554E-02 0.43112450E+03</pdfrwt>
<totfact> 0.29979004E+03</totfact>
</mgrwt>
</event>
<event>
 4    1  0.1710914E-004  0.2499517E+03  0.7818608E-02  0.1113335E+00
          1   -1    0    0  501    0  0.00000000000E+00  0.00000000000E+00  0.36621813325E+03  0.36621813325E+03  0.00000000000E+00 0. -1.
         -1   -1    0    0    0  501 -0.00000000000E+00 -0.00000000000E+00 -0.42649348730E+02  0.42649348730E+02  0.00000000000E+00 0. -1.
         25    1    1    2    0    0 -0.28239307226E+02  0.44338021392E+01  0.19457558777E+03  0.23038397607E+03  0.12000000000E+03 0.  0.
         25    1    1    2    0    0  0.28239307226E+02 -0.44338021392E+01  0.12899319675E+03  0.17848350591E+03  0.12000000000E+03 0.  0.
<mgrwt>
<rscale>  0 0.24995171E+03</rscale>
<asrwt>0</asrwt>
<pdfrwt beam="1">  1        1 0.56341249E-01 0.24995171E+03</pdfrwt>
<pdfrwt beam="2">  1       -1 0.65614385E-02 0.24995171E+03</pdfrwt>
<totfact> 0.78261956E+03</totfact>
</mgrwt>
</event>
<event>
 4    1  0.1710914E-004  0.3450243E+03  0.7818608E-02  0.1064676E+00
          2   -1    0    0  501    0  0.00000000000E+00  0.00000000000E+00  0.53400844444E+02  0.53400844444E+02  0.00000000000E+00 0.  1.
         -2   -1    0    0    0  501 -0.00000000000E+00 -0.00000000000E+00 -0.55730288608E+03  0.55730288608E+03  0.00000000000E+00 0.  1.
         25    1    1    2    0    0 -0.71004113809E+02 -0.50182595246E+02 -0.40828161321E+03  0.43434289764E+03  0.12000000000E+03 0.  0.
         25    1    1    2    0    0  0.71004113809E+02  0.50182595246E+02 -0.95620428422E+02  0.17636083288E+03  0.12000000000E+03 0.  0.
<mgrwt>
<rscale>  0 0.34502432E+03</rscale>
<asrwt>0</asrwt>
<pdfrwt beam="1">  1        2 0.82155145E-02 0.34502432E+03</pdfrwt>
<pdfrwt beam="2">  1       -2 0.85738906E-01 0.34502432E+03</pdfrwt>
<totfact> 0.10080524E+03</totfact>
</mgrwt>
</event>
<event>
 4    1  0.1710914E-004  0.2753928E+03  0.7818608E-02  0.1098232E+00
         -2   -1    0    0    0  501 -0.00000000000E+00  0.00000000000E+00  0.11715027281E+02  0.11715027281E+02  0.00000000000E+00 0. -1.
          2   -1    0    0  501    0  0.00000000000E+00 -0.00000000000E+00 -0.16184599899E+04  0.16184599899E+04  0.00000000000E+00 0. -1.
         25    1    1    2    0    0  0.23504617256E+02 -0.13733589923E+02 -0.43755101151E+03  0.45452388958E+03  0.12000000000E+03 0.  0.
         25    1    1    2    0    0 -0.23504617256E+02  0.13733589923E+02 -0.11691939511E+04  0.11756511276E+04  0.12000000000E+03 0.  0.
<mgrwt>
<rscale>  0 0.27539283E+03</rscale>
<asrwt>0</asrwt>
<pdfrwt beam="1">  1        2 0.24899394E+00 0.27539283E+03</pdfrwt>
<pdfrwt beam="2">  1       -2 0.18023112E-02 0.27539283E+03</pdfrwt>
<totfact> 0.10631574E+04</totfact>
</mgrwt>
</event>
<event>
 4    1  0.1710914E-004  0.3908876E+03  0.7818608E-02  0.1046981E+00
          2   -1    0    0  501    0  0.00000000000E+00  0.00000000000E+00  0.11352565789E+03  0.11352565789E+03  0.00000000000E+00 0.  1.
         -2   -1    0    0    0  501 -0.00000000000E+00 -0.00000000000E+00 -0.33647269306E+03  0.33647269306E+03  0.00000000000E+00 0.  1.
         25    1    1    2    0    0 -0.19500432466E+02  0.13129243823E+03 -0.20970257552E+02  0.18016027005E+03  0.12000000000E+03 0.  0.
         25    1    1    2    0    0  0.19500432466E+02 -0.13129243823E+03 -0.20197677762E+03  0.26983808089E+03  0.12000000000E+03 0.  0.
<mgrwt>
<rscale>  0 0.39088762E+03</rscale>
<asrwt>0</asrwt>
<pdfrwt beam="1">  1        2 0.17465486E-01 0.39088762E+03</pdfrwt>
<pdfrwt beam="2">  1       -2 0.51765028E-01 0.39088762E+03</pdfrwt>
<totfact> 0.11730349E+03</totfact>
</mgrwt>
</event>
<event>
 4    1  0.1710914E-004  0.2954862E+03  0.7818608E-02  0.1087519E+00
         -1   -1    0    0    0  501 -0.00000000000E+00  0.00000000000E+00  0.43730535901E+02  0.43730535901E+02  0.00000000000E+00 0. -1.
          1   -1    0    0  501    0  0.00000000000E+00 -0.00000000000E+00 -0.49914819185E+03  0.49914819185E+03  0.00000000000E+00 0. -1.
         25    1    1    2    0    0 -0.26028252040E+02 -0.80730425990E+02 -0.19965578496E+03  0.24790583707E+03  0.12000000000E+03 0.  0.
         25    1    1    2    0    0  0.26028252040E+02  0.80730425990E+02 -0.25576187099E+03  0.29497289068E+03  0.12000000000E+03 0.  0.
<mgrwt>
<rscale>  0 0.29548616E+03</rscale>
<asrwt>0</asrwt>
<pdfrwt beam="1">  1        1 0.76792028E-01 0.29548616E+03</pdfrwt>
<pdfrwt beam="2">  1       -1 0.67277749E-02 0.29548616E+03</pdfrwt>
<totfact> 0.50718547E+03</totfact>
</mgrwt>
</event>
<event>
 4    1  0.1710914E-004  0.5221492E+03  0.7818608E-02  0.1008154E+00
         -2   -1    0    0    0  501 -0.00000000000E+00  0.00000000000E+00  0.23900256741E+02  0.23900256741E+02  0.00000000000E+00 0.  1.
          2   -1    0    0  501    0  0.00000000000E+00 -0.00000000000E+00 -0.28518494591E+04  0.28518494591E+04  0.00000000000E+00 0.  1.
         25    1    1    2    0    0  0.15703229767E+03 -0.11417622825E+03 -0.21120321132E+04  0.21243293061E+04  0.12000000000E+03 0.  0.
         25    1    1    2    0    0 -0.15703229767E+03  0.11417622825E+03 -0.71591708914E+03  0.75142040971E+03  0.12000000000E+03 0.  0.
<mgrwt>
<rscale>  0 0.52214915E+03</rscale>
<asrwt>0</asrwt>
<pdfrwt beam="1">  1        2 0.43874585E+00 0.52214915E+03</pdfrwt>
<pdfrwt beam="2">  1       -2 0.36769644E-02 0.52214915E+03</pdfrwt>
<totfact> 0.76585124E+02</totfact>
</mgrwt>
</event>
<event>
 4    1  0.1710914E-004  0.2476278E+03  0.7818608E-02  0.1114813E+00
          1   -1    0    0  501    0  0.00000000000E+00  0.00000000000E+00  0.10743286901E+04  0.10743286901E+04  0.00000000000E+00 0.  1.
         -1   -1    0    0    0  501 -0.00000000000E+00 -0.00000000000E+00 -0.14269270709E+02  0.14269270709E+02  0.00000000000E+00 0.  1.
         25    1    1    2    0    0 -0.94659472395E+01 -0.19824300338E+02  0.43705652202E+03  0.45376316563E+03  0.12000000000E+03 0.  0.
         25    1    1    2    0    0  0.94659472395E+01  0.19824300338E+02  0.62300289741E+03  0.63483479522E+03  0.12000000000E+03 0.  0.
<mgrwt>
<rscale>  0 0.24762784E+03</rscale>
<asrwt>0</asrwt>
<pdfrwt beam="1">  1        1 0.16528127E+00 0.24762784E+03</pdfrwt>
<pdfrwt beam="2">  1       -1 0.21952733E-02 0.24762784E+03</pdfrwt>
<totfact> 0.83859341E+03</totfact>
</mgrwt>
</event>
<event>
 4    1  0.1710914E-004  0.2874794E+03  0.7818608E-02  0.1091673E+00
          2   -1    0    0  501    0  0.00000000000E+00  0.00000000000E+00  0.37379700731E+04  0.37379700731E+04  0.00000000000E+00 0.  1.
         -2   -1    0    0    0  501 -0.00000000000E+00 -0.00000000000E+00 -0.55273581340E+01  0.55273581340E+01  0.00000000000E+00 0.  1.
         25    1    1    2    0    0 -0.23513605252E+02  0.64604912479E+02  0.23763059912E+04  0.23803270464E+04  0.12000000000E+03 0.  0.
         25    1    1    2    0    0  0.23513605252E+02 -0.64604912479E+02  0.13561367238E+04  0.13631703848E+04  0.12000000000E+03 0.  0.
<mgrwt>
<rscale>  0 0.28747939E+03</rscale>
<asrwt>0</asrwt>
<pdfrwt beam="1">  1        2 0.57507030E+00 0.28747939E+03</pdfrwt>
<pdfrwt beam="2">  1       -2 0.85036578E-03 0.28747939E+03</pdfrwt>
<totfact> 0.18767410E+03</totfact>
</mgrwt>
</event>
<event>
 4    1  0.1710914E-004  0.2998031E+03  0.7818608E-02  0.1085339E+00
          2   -1    0    0  501    0  0.00000000000E+00  0.00000000000E+00  0.79114409714E+03  0.79114409714E+03  0.00000000000E+00 0. -1.
         -2   -1    0    0    0  501 -0.00000000000E+00 -0.00000000000E+00 -0.28402510964E+02  0.28402510964E+02  0.00000000000E+00 0. -1.
         25    1    1    2    0    0 -0.47454831933E+02  0.27602166503E+02  0.18698324625E+03  0.22885929094E+03  0.12000000000E+03 0.  0.
         25    1    1    2    0    0  0.47454831933E+02 -0.27602166503E+02  0.57575833993E+03  0.59068731717E+03  0.12000000000E+03 0.  0.
<mgrwt>
<rscale>  0 0.29980313E+03</rscale>
<asrwt>0</asrwt>
<pdfrwt beam="1">  1        2 0.12171446E+00 0.29980313E+03</pdfrwt>
<pdfrwt beam="2">  1       -2 0.43696177E-02 0.29980313E+03</pdfrwt>
<totfact> 0.86528488E+03</totfact>
</mgrwt>
</event>
<event>
 4    1  0.1710914E-004  0.3036192E+03  0.7818608E-02  0.1083445E+00
          1   -1    0    0  501    0  0.00000000000E+00  0.00000000000E+00  0.75765333497E+03  0.75765333497E+03  0.00000000000E+00 0.  1.
         -1   -1    0    0    0  501 -0.00000000000E+00 -0.00000000000E+00 -0.30417814099E+02  0.30417814099E+02  0.00000000000E+00 0.  1.
         25    1    1    2    0    0 -0.80625661503E+02  0.14086250238E+02  0.47815474431E+03  0.49973080678E+03  0.12000000000E+03 0.  0.
         25    1    1    2    0    0  0.80625661503E+02 -0.14086250238E+02  0.24908077656E+03  0.28834034228E+03  0.12000000000E+03 0.  0.
<mgrwt>
<rscale>  0 0.30361922E+03</rscale>
<asrwt>0</asrwt>
<pdfrwt beam="1">  1        1 0.11656204E+00 0.30361922E+03</pdfrwt>
<pdfrwt beam="2">  1       -1 0.46796643E-02 0.30361922E+03</pdfrwt>
<totfact> 0.48733249E+03</totfact>
</mgrwt>
</event>
<event>
 4    1  0.1710914E-004  0.2452959E+03  0.7818608E-02  0.1116314E+00
          2   -1    0    0  501    0  0.00000000000E+00  0.00000000000E+00  0.70669987642E+03  0.70669987642E+03  0.00000000000E+00 0. -1.
         -2   -1    0    0    0  501 -0.00000000000E+00 -0.00000000000E+00 -0.21285582848E+02  0.21285582848E+02  0.00000000000E+00 0. -1.
         25    1    1    2    0    0 -0.12825317169E+02  0.21482672190E+02  0.33064288974E+03  0.35263396675E+03  0.12000000000E+03 0.  0.
         25    1    1    2    0    0  0.12825317169E+02 -0.21482672190E+02  0.35477140383E+03  0.37535149252E+03  0.12000000000E+03 0.  0.
<mgrwt>
<rscale>  0 0.24529589E+03</rscale>
<asrwt>0</asrwt>
<pdfrwt beam="1">  1        2 0.10872304E+00 0.24529589E+03</pdfrwt>
<pdfrwt beam="2">  1       -2 0.32747056E-02 0.24529589E+03</pdfrwt>
<totfact> 0.15233074E+04</totfact>
</mgrwt>
</event>
<event>
 4    1  0.1710914E-004  0.2406339E+03  0.7818608E-02  0.1119371E+00
         -2   -1    0    0    0  501 -0.00000000000E+00  0.00000000000E+00  0.90603612993E+03  0.90603612993E+03  0.00000000000E+00 0.  1.
          2   -1    0    0  501    0  0.00000000000E+00 -0.00000000000E+00 -0.15977479607E+02  0.15977479607E+02  0.00000000000E+00 0.  1.
         25    1    1    2    0    0 -0.44414286525E+01  0.75009205120E+01  0.44338712676E+03  0.45942152134E+03  0.12000000000E+03 0.  0.
         25    1    1    2    0    0  0.44414286525E+01 -0.75009205120E+01  0.44667152357E+03  0.46259208820E+03  0.12000000000E+03 0.  0.
<mgrwt>
<rscale>  0 0.24063394E+03</rscale>
<asrwt>0</asrwt>
<pdfrwt beam="1">  1        2 0.24580745E-02 0.24063394E+03</pdfrwt>
<pdfrwt beam="2">  1       -2 0.13939013E+00 0.24063394E+03</pdfrwt>
<totfact> 0.15671615E+03</totfact>
</mgrwt>
</event>
<event>
 4    1  0.1710914E-004  0.2709912E+03  0.7818608E-02  0.1100714E+00
          1   -1    0    0  501    0  0.00000000000E+00  0.00000000000E+00  0.77291463684E+03  0.77291463684E+03  0.00000000000E+00 0.  1.
         -1   -1    0    0    0  501 -0.00000000000E+00 -0.00000000000E+00 -0.23753014062E+02  0.23753014062E+02  0.00000000000E+00 0.  1.
         25    1    1    2    0    0  0.14043289667E+02 -0.45667603012E+02  0.49494547446E+03  0.51152103245E+03  0.12000000000E+03 0.  0.
         25    1    1    2    0    0 -0.14043289667E+02  0.45667603012E+02  0.25421614831E+03  0.28514661845E+03  0.12000000000E+03 0.  0.
<mgrwt>
<rscale>  0 0.27099116E+03</rscale>
<asrwt>0</asrwt>
<pdfrwt beam="1">  1        1 0.11890992E+00 0.27099116E+03</pdfrwt>
<pdfrwt beam="2">  1       -1 0.36543105E-02 0.27099116E+03</pdfrwt>
<totfact> 0.68192089E+03</totfact>
</mgrwt>
</event>
<event>
 4    1  0.1710914E-004  0.2669323E+03  0.7818608E-02  0.1103048E+00
          2   -1    0    0  501    0  0.00000000000E+00  0.00000000000E+00  0.52709373629E+03  0.52709373629E+03  0.00000000000E+00 0. -1.
         -2   -1    0    0    0  501 -0.00000000000E+00 -0.00000000000E+00 -0.33795150890E+02  0.33795150890E+02  0.00000000000E+00 0. -1.
         25    1    1    2    0    0  0.42452943867E+02  0.75984943688E+01  0.32946116325E+03  0.35327701262E+03  0.12000000000E+03 0.  0.
         25    1    1    2    0    0 -0.42452943867E+02 -0.75984943688E+01  0.16383742215E+03  0.20761187456E+03  0.12000000000E+03 0.  0.
<mgrwt>
<rscale>  0 0.26693229E+03</rscale>
<asrwt>0</asrwt>
<pdfrwt beam="1">  1        2 0.81091338E-01 0.26693229E+03</pdfrwt>
<pdfrwt beam="2">  1       -2 0.51992544E-02 0.26693229E+03</pdfrwt>
<totfact> 0.10735564E+04</totfact>
</mgrwt>
</event>
<event>
 4    1  0.1710914E-004  0.2536369E+03  0.7818608E-02  0.1111028E+00
         -2   -1    0    0    0  501 -0.00000000000E+00  0.00000000000E+00  0.26394508109E+02  0.26394508109E+02  0.00000000000E+00 0. -1.
          2   -1    0    0  501    0  0.00000000000E+00 -0.00000000000E+00 -0.60932848034E+03  0.60932848034E+03  0.00000000000E+00 0. -1.
         25    1    1    2    0    0 -0.37466707602E+02  0.16227270368E+02 -0.28148931046E+03  0.30871234246E+03  0.12000000000E+03 0.  0.
         25    1    1    2    0    0  0.37466707602E+02 -0.16227270368E+02 -0.30144466177E+03  0.32701064599E+03  0.12000000000E+03 0.  0.
<mgrwt>
<rscale>  0 0.25363695E+03</rscale>
<asrwt>0</asrwt>
<pdfrwt beam="1">  1        2 0.93742843E-01 0.25363695E+03</pdfrwt>
<pdfrwt beam="2">  1       -2 0.40606936E-02 0.25363695E+03</pdfrwt>
<totfact> 0.13185809E+04</totfact>
</mgrwt>
</event>
<event>
 4    1  0.1710914E-004  0.2477335E+03  0.7818608E-02  0.1114746E+00
         -1   -1    0    0    0  501 -0.00000000000E+00  0.00000000000E+00  0.13617157770E+03  0.13617157770E+03  0.00000000000E+00 0.  1.
          1   -1    0    0  501    0  0.00000000000E+00 -0.00000000000E+00 -0.11267377532E+03  0.11267377532E+03  0.00000000000E+00 0.  1.
         25    1    1    2    0    0  0.18475992654E+02  0.24263309533E+02  0.81417871841E+01  0.12408206636E+03  0.12000000000E+03 0.  0.
         25    1    1    2    0    0 -0.18475992654E+02 -0.24263309533E+02  0.15356015199E+02  0.12476328665E+03  0.12000000000E+03 0.  0.
<mgrwt>
<rscale>  0 0.24773345E+03</rscale>
<asrwt>0</asrwt>
<pdfrwt beam="1">  1        1 0.17334427E-01 0.24773345E+03</pdfrwt>
<pdfrwt beam="2">  1       -1 0.20949473E-01 0.24773345E+03</pdfrwt>
<totfact> 0.56777877E+03</totfact>
</mgrwt>
</event>
<event>
 4    1  0.1710914E-004  0.3347332E+03  0.7818608E-02  0.1069062E+00
          1   -1    0    0  501    0  0.00000000000E+00  0.00000000000E+00  0.21339914198E+04  0.21339914198E+04  0.00000000000E+00 0.  1.
         -1   -1    0    0    0  501 -0.00000000000E+00 -0.00000000000E+00 -0.13126377302E+02  0.13126377302E+02  0.00000000000E+00 0.  1.
         25    1    1    2    0    0 -0.61887555517E+02  0.64197111973E+02  0.15430182110E+04  0.15502440254E+04  0.12000000000E+03 0.  0.
         25    1    1    2    0    0  0.61887555517E+02 -0.64197111973E+02  0.57784683156E+03  0.59687377180E+03  0.12000000000E+03 0.  0.
<mgrwt>
<rscale>  0 0.33473319E+03</rscale>
<asrwt>0</asrwt>
<pdfrwt beam="1">  1        1 0.32830610E+00 0.33473319E+03</pdfrwt>
<pdfrwt beam="2">  1       -1 0.20194444E-02 0.33473319E+03</pdfrwt>
<totfact> 0.18591362E+03</totfact>
</mgrwt>
</event>
<event>
 4    1  0.1710914E-004  0.3210907E+03  0.7818608E-02  0.1075148E+00
          1   -1    0    0  501    0  0.00000000000E+00  0.00000000000E+00  0.66558438346E+03  0.66558438346E+03  0.00000000000E+00 0. -1.
         -1   -1    0    0    0  501 -0.00000000000E+00 -0.00000000000E+00 -0.38725079995E+02  0.38725079995E+02  0.00000000000E+00 0. -1.
         25    1    1    2    0    0 -0.96411597352E+02  0.43679812369E+02  0.28468852916E+03  0.32657415811E+03  0.12000000000E+03 0.  0.
         25    1    1    2    0    0  0.96411597352E+02 -0.43679812369E+02  0.34217077431E+03  0.37773530534E+03  0.12000000000E+03 0.  0.
<mgrwt>
<rscale>  0 0.32109069E+03</rscale>
<asrwt>0</asrwt>
<pdfrwt beam="1">  1        1 0.10239759E+00 0.32109069E+03</pdfrwt>
<pdfrwt beam="2">  1       -1 0.59577051E-02 0.32109069E+03</pdfrwt>
<totfact> 0.41044563E+03</totfact>
</mgrwt>
</event>
<event>
 4    1  0.1710914E-004  0.2888768E+03  0.7818608E-02  0.1090937E+00
          1   -1    0    0  501    0  0.00000000000E+00  0.00000000000E+00  0.26025919159E+03  0.26025919159E+03  0.00000000000E+00 0.  1.
         -1   -1    0    0    0  501 -0.00000000000E+00 -0.00000000000E+00 -0.80160312649E+02  0.80160312649E+02  0.00000000000E+00 0.  1.
         25    1    1    2    0    0 -0.40642285073E+02 -0.94705191241E+00  0.17177608439E+03  0.21344721927E+03  0.12000000000E+03 0.  0.
         25    1    1    2    0    0  0.40642285073E+02  0.94705191241E+00  0.83227945533E+01  0.12697228498E+03  0.12000000000E+03 0.  0.
<mgrwt>
<rscale>  0 0.28887685E+03</rscale>
<asrwt>0</asrwt>
<pdfrwt beam="1">  1        1 0.40039875E-01 0.28887685E+03</pdfrwt>
<pdfrwt beam="2">  1       -1 0.12332356E-01 0.28887685E+03</pdfrwt>
<totfact> 0.45855423E+03</totfact>
</mgrwt>
</event>
<event>
 4    1  0.1710914E-004  0.2537718E+03  0.7818608E-02  0.1110944E+00
         -1   -1    0    0    0  501 -0.00000000000E+00  0.00000000000E+00  0.91151457113E+01  0.91151457113E+01  0.00000000000E+00 0. -1.
          1   -1    0    0  501    0  0.00000000000E+00 -0.00000000000E+00 -0.17662950414E+04  0.17662950414E+04  0.00000000000E+00 0. -1.
         25    1    1    2    0    0 -0.19272841919E+02  0.35598471293E+02 -0.82379531006E+03  0.83347309883E+03  0.12000000000E+03 0.  0.
         25    1    1    2    0    0  0.19272841919E+02 -0.35598471293E+02 -0.93338458566E+03  0.94193708832E+03  0.12000000000E+03 0.  0.
<mgrwt>
<rscale>  0 0.25377184E+03</rscale>
<asrwt>0</asrwt>
<pdfrwt beam="1">  1        1 0.27173802E+00 0.25377184E+03</pdfrwt>
<pdfrwt beam="2">  1       -1 0.14023285E-02 0.25377184E+03</pdfrwt>
<totfact> 0.55047467E+03</totfact>
</mgrwt>
</event>
<event>
 4    1  0.1710914E-004  0.2654456E+03  0.7818608E-02  0.1103915E+00
         -2   -1    0    0    0  501 -0.00000000000E+00  0.00000000000E+00  0.88783429308E+02  0.88783429308E+02  0.00000000000E+00 0. -1.
          2   -1    0    0  501    0  0.00000000000E+00 -0.00000000000E+00 -0.19840804687E+03  0.19840804687E+03  0.00000000000E+00 0. -1.
         25    1    1    2    0    0 -0.14192683272E+02  0.30065634831E+02 -0.10450978249E+03  0.16256589215E+03  0.12000000000E+03 0.  0.
         25    1    1    2    0    0  0.14192683272E+02 -0.30065634831E+02 -0.51148350770E+01  0.12462558403E+03  0.12000000000E+03 0.  0.
<mgrwt>
<rscale>  0 0.26544564E+03</rscale>
<asrwt>0</asrwt>
<pdfrwt beam="1">  1        2 0.30524314E-01 0.26544564E+03</pdfrwt>
<pdfrwt beam="2">  1       -2 0.13658989E-01 0.26544564E+03</pdfrwt>
<totfact> 0.68104455E+03</totfact>
</mgrwt>
</event>
<event>
 4    1  0.1710914E-004  0.3101371E+03  0.7818608E-02  0.1080280E+00
          3   -1    0    0  501    0  0.00000000000E+00  0.00000000000E+00  0.24347621344E+03  0.24347621344E+03  0.00000000000E+00 0.  1.
         -3   -1    0    0    0  501 -0.00000000000E+00 -0.00000000000E+00 -0.98762218228E+02  0.98762218228E+02  0.00000000000E+00 0.  1.
         25    1    1    2    0    0 -0.89907237964E+02  0.32131232174E+02  0.97774177834E+02  0.18186675719E+03  0.12000000000E+03 0.  0.
         25    1    1    2    0    0  0.89907237964E+02 -0.32131232174E+02  0.46939817375E+02  0.16037167448E+03  0.12000000000E+03 0.  0.
<mgrwt>
<rscale>  0 0.31013707E+03</rscale>
<asrwt>0</asrwt>
<pdfrwt beam="1">  1        3 0.37457879E-01 0.31013707E+03</pdfrwt>
<pdfrwt beam="2">  1       -3 0.15194188E-01 0.31013707E+03</pdfrwt>
<totfact> 0.65795756E+02</totfact>
</mgrwt>
</event>
<event>
 4    1  0.1710914E-004  0.4352236E+03  0.7818608E-02  0.1032222E+00
         -2   -1    0    0    0  501 -0.00000000000E+00  0.00000000000E+00  0.43006486680E+02  0.43006486680E+02  0.00000000000E+00 0. -1.
          2   -1    0    0  501    0  0.00000000000E+00 -0.00000000000E+00 -0.11011105485E+04  0.11011105485E+04  0.00000000000E+00 0. -1.
         25    1    1    2    0    0 -0.70821143796E+02  0.64582861934E+02 -0.93433393749E+03  0.94687194869E+03  0.12000000000E+03 0.  0.
         25    1    1    2    0    0  0.70821143796E+02 -0.64582861934E+02 -0.12377012429E+03  0.19724508646E+03  0.12000000000E+03 0.  0.
<mgrwt>
<rscale>  0 0.43522360E+03</rscale>
<asrwt>0</asrwt>
<pdfrwt beam="1">  1        2 0.16940161E+00 0.43522360E+03</pdfrwt>
<pdfrwt beam="2">  1       -2 0.66163830E-02 0.43522360E+03</pdfrwt>
<totfact> 0.29088482E+03</totfact>
</mgrwt>
</event>
<event>
 4    1  0.1710914E-004  0.2574618E+03  0.7818608E-02  0.1108678E+00
         -1   -1    0    0    0  501 -0.00000000000E+00  0.00000000000E+00  0.52753068298E+02  0.52753068298E+02  0.00000000000E+00 0. -1.
          1   -1    0    0  501    0  0.00000000000E+00 -0.00000000000E+00 -0.31413608087E+03  0.31413608087E+03  0.00000000000E+00 0. -1.
         25    1    1    2    0    0 -0.43555834256E+01  0.41034262372E+02 -0.16154780606E+03  0.20542754304E+03  0.12000000000E+03 0.  0.
         25    1    1    2    0    0  0.43555834256E+01 -0.41034262372E+02 -0.99835206512E+02  0.16146160613E+03  0.12000000000E+03 0.  0.
<mgrwt>
<rscale>  0 0.25746178E+03</rscale>
<asrwt>0</asrwt>
<pdfrwt beam="1">  1        1 0.48328628E-01 0.25746178E+03</pdfrwt>
<pdfrwt beam="2">  1       -1 0.81158566E-02 0.25746178E+03</pdfrwt>
<totfact> 0.68862047E+03</totfact>
</mgrwt>
</event>
<event>
 4    1  0.1710914E-004  0.4471300E+03  0.7818608E-02  0.1028581E+00
         -4   -1    0    0    0  501 -0.00000000000E+00  0.00000000000E+00  0.19281909971E+04  0.19281909971E+04  0.00000000000E+00 0. -1.
          4   -1    0    0  501    0  0.00000000000E+00 -0.00000000000E+00 -0.25921352933E+02  0.25921352933E+02  0.00000000000E+00 0. -1.
         25    1    1    2    0    0  0.14369721869E+03  0.11112281455E+03  0.11732992043E+04  0.11933265242E+04  0.12000000000E+03 0.  0.
         25    1    1    2    0    0 -0.14369721869E+03 -0.11112281455E+03  0.72897043991E+03  0.76078582586E+03  0.12000000000E+03 0.  0.
<mgrwt>
<rscale>  0 0.44713005E+03</rscale>
<asrwt>0</asrwt>
<pdfrwt beam="1">  1        4 0.39879020E-02 0.44713005E+03</pdfrwt>
<pdfrwt beam="2">  1       -4 0.29664466E+00 0.44713005E+03</pdfrwt>
<totfact> 0.24574163E+01</totfact>
</mgrwt>
</event>
<event>
 4    1  0.1710914E-004  0.2445968E+03  0.7818608E-02  0.1116768E+00
         -2   -1    0    0    0  501 -0.00000000000E+00  0.00000000000E+00  0.70123122303E+02  0.70123122303E+02  0.00000000000E+00 0. -1.
          2   -1    0    0  501    0  0.00000000000E+00 -0.00000000000E+00 -0.21329479770E+03  0.21329479770E+03  0.00000000000E+00 0. -1.
         25    1    1    2    0    0 -0.40540933632E+00 -0.23588414011E+02 -0.70930827127E+02  0.14137807422E+03  0.12000000000E+03 0.  0.
         25    1    1    2    0    0  0.40540933632E+00  0.23588414011E+02 -0.72240848272E+02  0.14203984579E+03  0.12000000000E+03 0.  0.
<mgrwt>
<rscale>  0 0.24459679E+03</rscale>
<asrwt>0</asrwt>
<pdfrwt beam="1">  1        2 0.32814584E-01 0.24459679E+03</pdfrwt>
<pdfrwt beam="2">  1       -2 0.10788173E-01 0.24459679E+03</pdfrwt>
<totfact> 0.91796273E+03</totfact>
</mgrwt>
</event>
<event>
 4    1  0.1710914E-004  0.3369767E+03  0.7818608E-02  0.1068091E+00
          2   -1    0    0  501    0  0.00000000000E+00  0.00000000000E+00  0.14019464238E+04  0.14019464238E+04  0.00000000000E+00 0. -1.
         -2   -1    0    0    0  501 -0.00000000000E+00 -0.00000000000E+00 -0.20249222622E+02  0.20249222622E+02  0.00000000000E+00 0. -1.
         25    1    1    2    0    0 -0.32223263093E+02 -0.41438056632E+02  0.24354241164E+03  0.27652912594E+03  0.12000000000E+03 0.  0.
         25    1    1    2    0    0  0.32223263093E+02  0.41438056632E+02  0.11381547896E+04  0.11456665205E+04  0.12000000000E+03 0.  0.
<mgrwt>
<rscale>  0 0.33697671E+03</rscale>
<asrwt>0</asrwt>
<pdfrwt beam="1">  1        2 0.21568399E+00 0.33697671E+03</pdfrwt>
<pdfrwt beam="2">  1       -2 0.31152661E-02 0.33697671E+03</pdfrwt>
<totfact> 0.61908381E+03</totfact>
</mgrwt>
</event>
<event>
 4    1  0.1710914E-004  0.4280723E+03  0.7818608E-02  0.1034471E+00
          1   -1    0    0  501    0  0.00000000000E+00  0.00000000000E+00  0.21474619231E+04  0.21474619231E+04  0.00000000000E+00 0.  1.
         -1   -1    0    0    0  501 -0.00000000000E+00 -0.00000000000E+00 -0.21332845038E+02  0.21332845038E+02  0.00000000000E+00 0.  1.
         25    1    1    2    0    0 -0.72143790990E+00  0.17321589775E+03  0.87300924198E+03  0.89808095643E+03  0.12000000000E+03 0.  0.
         25    1    1    2    0    0  0.72143790990E+00 -0.17321589775E+03  0.12531198361E+04  0.12707138117E+04  0.12000000000E+03 0.  0.
<mgrwt>
<rscale>  0 0.42807229E+03</rscale>
<asrwt>0</asrwt>
<pdfrwt beam="1">  1        1 0.33037859E+00 0.42807229E+03</pdfrwt>
<pdfrwt beam="2">  1       -1 0.32819779E-02 0.42807229E+03</pdfrwt>
<totfact> 0.88002196E+02</totfact>
</mgrwt>
</event>
<event>
 4    1  0.1710914E-004  0.2809389E+03  0.7818608E-02  0.1095177E+00
          1   -1    0    0  501    0  0.00000000000E+00  0.00000000000E+00  0.21366802123E+02  0.21366802123E+02  0.00000000000E+00 0. -1.
         -1   -1    0    0    0  501 -0.00000000000E+00 -0.00000000000E+00 -0.92347322677E+03  0.92347322677E+03  0.00000000000E+00 0. -1.
         25    1    1    2    0    0 -0.27707101573E+01  0.69837032931E+02 -0.52214084597E+03  0.54029246805E+03  0.12000000000E+03 0.  0.
         25    1    1    2    0    0  0.27707101573E+01 -0.69837032931E+02 -0.37996557868E+03  0.40454756085E+03  0.12000000000E+03 0.  0.
<mgrwt>
<rscale>  0 0.28093892E+03</rscale>
<asrwt>0</asrwt>
<pdfrwt beam="1">  1        1 0.32872012E-02 0.28093892E+03</pdfrwt>
<pdfrwt beam="2">  1       -1 0.14207277E+00 0.28093892E+03</pdfrwt>
<totfact> 0.13047041E+03</totfact>
</mgrwt>
</event>
<event>
 4    1  0.1710914E-004  0.2925026E+03  0.7818608E-02  0.1089050E+00
          2   -1    0    0  501    0  0.00000000000E+00  0.00000000000E+00  0.15991289380E+04  0.15991289380E+04  0.00000000000E+00 0. -1.
         -2   -1    0    0    0  501 -0.00000000000E+00 -0.00000000000E+00 -0.13375682710E+02  0.13375682710E+02  0.00000000000E+00 0. -1.
         25    1    1    2    0    0 -0.18875478264E+02 -0.80650786440E+02  0.85539471366E+03  0.86773322467E+03  0.12000000000E+03 0.  0.
         25    1    1    2    0    0  0.18875478264E+02  0.80650786440E+02  0.73035854164E+03  0.74477139605E+03  0.12000000000E+03 0.  0.
<mgrwt>
<rscale>  0 0.29250259E+03</rscale>
<asrwt>0</asrwt>
<pdfrwt beam="1">  1        2 0.24601968E+00 0.29250259E+03</pdfrwt>
<pdfrwt beam="2">  1       -2 0.20577986E-02 0.29250259E+03</pdfrwt>
<totfact> 0.89651384E+03</totfact>
</mgrwt>
</event>
<event>
 4    1  0.1710914E-004  0.2471107E+03  0.7818608E-02  0.1115145E+00
          2   -1    0    0  501    0  0.00000000000E+00  0.00000000000E+00  0.43525206604E+03  0.43525206604E+03  0.00000000000E+00 0. -1.
         -2   -1    0    0    0  501 -0.00000000000E+00 -0.00000000000E+00 -0.35073756285E+02  0.35073756285E+02  0.00000000000E+00 0. -1.
         25    1    1    2    0    0  0.24681455103E+02  0.11168192498E+02  0.17822006815E+03  0.21655552508E+03  0.12000000000E+03 0.  0.
         25    1    1    2    0    0 -0.24681455103E+02 -0.11168192498E+02  0.22195824160E+03  0.25377029724E+03  0.12000000000E+03 0.  0.
<mgrwt>
<rscale>  0 0.24711070E+03</rscale>
<asrwt>0</asrwt>
<pdfrwt beam="1">  1        2 0.66961853E-01 0.24711070E+03</pdfrwt>
<pdfrwt beam="2">  1       -2 0.53959628E-02 0.24711070E+03</pdfrwt>
<totfact> 0.12503987E+04</totfact>
</mgrwt>
</event>
<event>
 4    1  0.1710914E-004  0.3293868E+03  0.7818608E-02  0.1071409E+00
          3   -1    0    0  501    0  0.00000000000E+00  0.00000000000E+00  0.24741310932E+03  0.24741310932E+03  0.00000000000E+00 0.  1.
         -3   -1    0    0    0  501 -0.00000000000E+00 -0.00000000000E+00 -0.10963006355E+03  0.10963006355E+03  0.00000000000E+00 0.  1.
         25    1    1    2    0    0  0.10327951394E+03 -0.36961617387E+02  0.97387506873E+02  0.18951819347E+03  0.12000000000E+03 0.  0.
         25    1    1    2    0    0 -0.10327951394E+03  0.36961617387E+02  0.40395538902E+02  0.16752497940E+03  0.12000000000E+03 0.  0.
<mgrwt>
<rscale>  0 0.32938679E+03</rscale>
<asrwt>0</asrwt>
<pdfrwt beam="1">  1        3 0.38063555E-01 0.32938679E+03</pdfrwt>
<pdfrwt beam="2">  1       -3 0.16866164E-01 0.32938679E+03</pdfrwt>
<totfact> 0.53458873E+02</totfact>
</mgrwt>
</event>
<event>
 4    1  0.1710914E-004  0.2890166E+03  0.7818608E-02  0.1090864E+00
         -2   -1    0    0    0  501 -0.00000000000E+00  0.00000000000E+00  0.44983371151E+02  0.44983371151E+02  0.00000000000E+00 0. -1.
          2   -1    0    0  501    0  0.00000000000E+00 -0.00000000000E+00 -0.46423028203E+03  0.46423028203E+03  0.00000000000E+00 0. -1.
         25    1    1    2    0    0 -0.16757016613E+02 -0.63020337011E+02 -0.12641695461E+03  0.18610106635E+03  0.12000000000E+03 0.  0.
         25    1    1    2    0    0  0.16757016613E+02  0.63020337011E+02 -0.29282995627E+03  0.32311258684E+03  0.12000000000E+03 0.  0.
<mgrwt>
<rscale>  0 0.28901656E+03</rscale>
<asrwt>0</asrwt>
<pdfrwt beam="1">  1        2 0.71420046E-01 0.28901656E+03</pdfrwt>
<pdfrwt beam="2">  1       -2 0.69205184E-02 0.28901656E+03</pdfrwt>
<totfact> 0.80002842E+03</totfact>
</mgrwt>
</event>
<event>
 4    1  0.1710914E-004  0.3365032E+03  0.7818608E-02  0.1068295E+00
          1   -1    0    0  501    0  0.00000000000E+00  0.00000000000E+00  0.12750814524E+04  0.12750814524E+04  0.00000000000E+00 0.  1.
         -1   -1    0    0    0  501 -0.00000000000E+00 -0.00000000000E+00 -0.22201405564E+02  0.22201405564E+02  0.00000000000E+00 0.  1.
         25    1    1    2    0    0 -0.87392816694E+02 -0.15138855511E+02  0.32677735006E+03  0.35923547412E+03  0.12000000000E+03 0.  0.
         25    1    1    2    0    0  0.87392816694E+02  0.15138855511E+02  0.92610269679E+03  0.93804738385E+03  0.12000000000E+03 0.  0.
<mgrwt>
<rscale>  0 0.33650320E+03</rscale>
<asrwt>0</asrwt>
<pdfrwt beam="1">  1        1 0.19616632E+00 0.33650320E+03</pdfrwt>
<pdfrwt beam="2">  1       -1 0.34156018E-02 0.33650320E+03</pdfrwt>
<totfact> 0.31649814E+03</totfact>
</mgrwt>
</event>
<event>
 4    1  0.1710914E-004  0.3017428E+03  0.7818608E-02  0.1084373E+00
          1   -1    0    0  501    0  0.00000000000E+00  0.00000000000E+00  0.14592124378E+03  0.14592124378E+03  0.00000000000E+00 0.  1.
         -1   -1    0    0    0  501 -0.00000000000E+00 -0.00000000000E+00 -0.15598950377E+03  0.15598950377E+03  0.00000000000E+00 0.  1.
         25    1    1    2    0    0  0.69480073220E+02 -0.57926289505E+02 -0.18429889859E+02  0.15140210180E+03  0.12000000000E+03 0.  0.
         25    1    1    2    0    0 -0.69480073220E+02  0.57926289505E+02  0.83616298689E+01  0.15050864575E+03  0.12000000000E+03 0.  0.
<mgrwt>
<rscale>  0 0.30174282E+03</rscale>
<asrwt>0</asrwt>
<pdfrwt beam="1">  1        1 0.22449422E-01 0.30174282E+03</pdfrwt>
<pdfrwt beam="2">  1       -1 0.23998385E-01 0.30174282E+03</pdfrwt>
<totfact> 0.32726336E+03</totfact>
</mgrwt>
</event>
<event>
 4    1  0.1710914E-004  0.2629290E+03  0.7818608E-02  0.1105396E+00
          2   -1    0    0  501    0  0.00000000000E+00  0.00000000000E+00  0.69992382828E+03  0.69992382828E+03  0.00000000000E+00 0. -1.
         -2   -1    0    0    0  501 -0.00000000000E+00 -0.00000000000E+00 -0.24692571520E+02  0.24692571520E+02  0.00000000000E+00 0. -1.
         25    1    1    2    0    0  0.23090298264E+02 -0.14063966665E+01  0.47115159487E+03  0.48674322304E+03  0.12000000000E+03 0.  0.
         25    1    1    2    0    0 -0.23090298264E+02  0.14063966665E+01  0.20407966189E+03  0.23787317676E+03  0.12000000000E+03 0.  0.
<mgrwt>
<rscale>  0 0.26292903E+03</rscale>
<asrwt>0</asrwt>
<pdfrwt beam="1">  1        2 0.10768057E+00 0.26292903E+03</pdfrwt>
<pdfrwt beam="2">  1       -2 0.37988577E-02 0.26292903E+03</pdfrwt>
<totfact> 0.12382466E+04</totfact>
</mgrwt>
</event>
<event>
 4    1  0.1710914E-004  0.3028004E+03  0.7818608E-02  0.1083849E+00
         -2   -1    0    0    0  501 -0.00000000000E+00  0.00000000000E+00  0.25725289296E+03  0.25725289296E+03  0.00000000000E+00 0. -1.
          2   -1    0    0  501    0  0.00000000000E+00 -0.00000000000E+00 -0.89103052682E+02  0.89103052682E+02  0.00000000000E+00 0. -1.
         25    1    1    2    0    0 -0.71786475905E+02 -0.38448145024E+02  0.13380853005E+03  0.19732278300E+03  0.12000000000E+03 0.  0.
         25    1    1    2    0    0  0.71786475905E+02  0.38448145024E+02  0.34341310234E+02  0.14903316264E+03  0.12000000000E+03 0.  0.
<mgrwt>
<rscale>  0 0.30280038E+03</rscale>
<asrwt>0</asrwt>
<pdfrwt beam="1">  1        2 0.13708162E-01 0.30280038E+03</pdfrwt>
<pdfrwt beam="2">  1       -2 0.39577368E-01 0.30280038E+03</pdfrwt>
<totfact> 0.26415468E+03</totfact>
</mgrwt>
</event>
<event>
 4    1  0.1710914E-004  0.2835000E+03  0.7818608E-02  0.1093793E+00
          2   -1    0    0  501    0  0.00000000000E+00  0.00000000000E+00  0.10007638206E+04  0.10007638206E+04  0.00000000000E+00 0.  1.
         -2   -1    0    0    0  501 -0.00000000000E+00 -0.00000000000E+00 -0.20077725811E+02  0.20077725811E+02  0.00000000000E+00 0.  1.
         25    1    1    2    0    0 -0.24976638517E+02  0.67423837457E+02  0.57271172353E+03  0.58954942507E+03  0.12000000000E+03 0.  0.
         25    1    1    2    0    0  0.24976638517E+02 -0.67423837457E+02  0.40797437125E+03  0.43129212134E+03  0.12000000000E+03 0.  0.
<mgrwt>
<rscale>  0 0.28349999E+03</rscale>
<asrwt>0</asrwt>
<pdfrwt beam="1">  1        2 0.15396363E+00 0.28349999E+03</pdfrwt>
<pdfrwt beam="2">  1       -2 0.30888817E-02 0.28349999E+03</pdfrwt>
<totfact> 0.10621480E+04</totfact>
</mgrwt>
</event>
<event>
 4    1  0.1710914E-004  0.3220704E+03  0.7818608E-02  0.1074700E+00
         -1   -1    0    0    0  501 -0.00000000000E+00  0.00000000000E+00  0.11113385313E+02  0.11113385313E+02  0.00000000000E+00 0. -1.
          1   -1    0    0  501    0  0.00000000000E+00 -0.00000000000E+00 -0.23334328884E+04  0.23334328884E+04  0.00000000000E+00 0. -1.
         25    1    1    2    0    0  0.16773930152E+02  0.37072817025E+01 -0.19328403955E+04  0.19366380930E+04  0.12000000000E+03 0.  0.
         25    1    1    2    0    0 -0.16773930152E+02 -0.37072817025E+01 -0.38947910760E+03  0.40790818076E+03  0.12000000000E+03 0.  0.
<mgrwt>
<rscale>  0 0.32207042E+03</rscale>
<asrwt>0</asrwt>
<pdfrwt beam="1">  1        1 0.35898994E+00 0.32207042E+03</pdfrwt>
<pdfrwt beam="2">  1       -1 0.17097503E-02 0.32207042E+03</pdfrwt>
<totfact> 0.17565969E+03</totfact>
</mgrwt>
</event>
<event>
 4    1  0.1710914E-004  0.2600476E+03  0.7818608E-02  0.1107115E+00
         -1   -1    0    0    0  501 -0.00000000000E+00  0.00000000000E+00  0.60823487939E+02  0.60823487939E+02  0.00000000000E+00 0. -1.
          1   -1    0    0  501    0  0.00000000000E+00 -0.00000000000E+00 -0.27795490980E+03  0.27795490980E+03  0.00000000000E+00 0. -1.
         25    1    1    2    0    0 -0.48281737880E+02  0.10702677701E+02 -0.98431514791E+02  0.16289394288E+03  0.12000000000E+03 0.  0.
         25    1    1    2    0    0  0.48281737880E+02 -0.10702677701E+02 -0.11869990707E+03  0.17588445486E+03  0.12000000000E+03 0.  0.
<mgrwt>
<rscale>  0 0.26004759E+03</rscale>
<asrwt>0</asrwt>
<pdfrwt beam="1">  1        1 0.42762294E-01 0.26004759E+03</pdfrwt>
<pdfrwt beam="2">  1       -1 0.93574596E-02 0.26004759E+03</pdfrwt>
<totfact> 0.64584601E+03</totfact>
</mgrwt>
</event>
<event>
 4    1  0.1710914E-004  0.2942432E+03  0.7818608E-02  0.1088154E+00
         -2   -1    0    0    0  501 -0.00000000000E+00  0.00000000000E+00  0.41258198659E+02  0.41258198659E+02  0.00000000000E+00 0. -1.
          2   -1    0    0  501    0  0.00000000000E+00 -0.00000000000E+00 -0.52461736686E+03  0.52461736686E+03  0.00000000000E+00 0. -1.
         25    1    1    2    0    0 -0.81965405392E+02 -0.12945506590E+02 -0.20524840653E+03  0.25181902670E+03  0.12000000000E+03 0.  0.
         25    1    1    2    0    0  0.81965405392E+02  0.12945506590E+02 -0.27811076167E+03  0.31405653882E+03  0.12000000000E+03 0.  0.
<mgrwt>
<rscale>  0 0.29424322E+03</rscale>
<asrwt>0</asrwt>
<pdfrwt beam="1">  1        2 0.80710354E-01 0.29424322E+03</pdfrwt>
<pdfrwt beam="2">  1       -2 0.63474159E-02 0.29424322E+03</pdfrwt>
<totfact> 0.79791287E+03</totfact>
</mgrwt>
</event>
<event>
 4    1  0.1710914E-004  0.3112073E+03  0.7818608E-02  0.1079769E+00
         -2   -1    0    0    0  501 -0.00000000000E+00  0.00000000000E+00  0.61653553324E+02  0.61653553324E+02  0.00000000000E+00 0.  1.
          2   -1    0    0  501    0  0.00000000000E+00 -0.00000000000E+00 -0.39271869957E+03  0.39271869957E+03  0.00000000000E+00 0.  1.
         25    1    1    2    0    0 -0.23696672336E+02  0.82993201048E+02 -0.23650717621E+03  0.27889970975E+03  0.12000000000E+03 0.  0.
         25    1    1    2    0    0  0.23696672336E+02 -0.82993201048E+02 -0.94557970037E+02  0.17547254314E+03  0.12000000000E+03 0.  0.
<mgrwt>
<rscale>  0 0.31120735E+03</rscale>
<asrwt>0</asrwt>
<pdfrwt beam="1">  1        2 0.60418261E-01 0.31120735E+03</pdfrwt>
<pdfrwt beam="2">  1       -2 0.94851622E-02 0.31120735E+03</pdfrwt>
<totfact> 0.58783607E+03</totfact>
</mgrwt>
</event>
<event>
 4    1  0.1710914E-004  0.3005083E+03  0.7818608E-02  0.1084987E+00
         -2   -1    0    0    0  501 -0.00000000000E+00  0.00000000000E+00  0.13789972343E+02  0.13789972343E+02  0.00000000000E+00 0. -1.
          2   -1    0    0  501    0  0.00000000000E+00 -0.00000000000E+00 -0.16371541186E+04  0.16371541186E+04  0.00000000000E+00 0. -1.
         25    1    1    2    0    0 -0.16181392803E+02 -0.13117563916E+02 -0.32827416521E+03  0.35013973711E+03  0.12000000000E+03 0.  0.
         25    1    1    2    0    0  0.16181392803E+02  0.13117563916E+02 -0.12950899810E+04  0.13008043538E+04  0.12000000000E+03 0.  0.
<mgrwt>
<rscale>  0 0.30050830E+03</rscale>
<asrwt>0</asrwt>
<pdfrwt beam="1">  1        2 0.25186998E+00 0.30050830E+03</pdfrwt>
<pdfrwt beam="2">  1       -2 0.21215333E-02 0.30050830E+03</pdfrwt>
<totfact> 0.81839499E+03</totfact>
</mgrwt>
</event>
<event>
 4    1  0.1710914E-004  0.2618856E+03  0.7818608E-02  0.1106016E+00
          1   -1    0    0  501    0  0.00000000000E+00  0.00000000000E+00  0.15744137774E+02  0.15744137774E+02  0.00000000000E+00 0.  1.
         -1   -1    0    0    0  501 -0.00000000000E+00 -0.00000000000E+00 -0.10890412294E+04  0.10890412294E+04  0.00000000000E+00 0.  1.
         25    1    1    2    0    0  0.20493410286E+02 -0.21276864728E+02 -0.35406001371E+03  0.37500823744E+03  0.12000000000E+03 0.  0.
         25    1    1    2    0    0 -0.20493410286E+02  0.21276864728E+02 -0.71923707795E+03  0.72977712978E+03  0.12000000000E+03 0.  0.
<mgrwt>
<rscale>  0 0.26188559E+03</rscale>
<asrwt>0</asrwt>
<pdfrwt beam="1">  1        1 0.24221749E-02 0.26188559E+03</pdfrwt>
<pdfrwt beam="2">  1       -1 0.16754481E+00 0.26188559E+03</pdfrwt>
<totfact> 0.12907915E+03</totfact>
</mgrwt>
</event>
<event>
 4    1  0.1710914E-004  0.2657855E+03  0.7818608E-02  0.1103716E+00
          2   -1    0    0  501    0  0.00000000000E+00  0.00000000000E+00  0.56633603047E+03  0.56633603047E+03  0.00000000000E+00 0.  1.
         -2   -1    0    0    0  501 -0.00000000000E+00 -0.00000000000E+00 -0.31183752822E+02  0.31183752822E+02  0.00000000000E+00 0.  1.
         25    1    1    2    0    0 -0.69593627049E+01 -0.15752311990E+02  0.38996837217E+03  0.40837715332E+03  0.12000000000E+03 0.  0.
         25    1    1    2    0    0  0.69593627049E+01  0.15752311990E+02  0.14518390548E+03  0.18914262997E+03  0.12000000000E+03 0.  0.
<mgrwt>
<rscale>  0 0.26578550E+03</rscale>
<asrwt>0</asrwt>
<pdfrwt beam="1">  1        2 0.87128612E-01 0.26578550E+03</pdfrwt>
<pdfrwt beam="2">  1       -2 0.47975009E-02 0.26578550E+03</pdfrwt>
<totfact> 0.11177723E+04</totfact>
</mgrwt>
</event>
<event>
 4    1  0.1710914E-004  0.2443221E+03  0.7818608E-02  0.1116947E+00
         -2   -1    0    0    0  501 -0.00000000000E+00  0.00000000000E+00  0.22884379684E+02  0.22884379684E+02  0.00000000000E+00 0.  1.
          2   -1    0    0  501    0  0.00000000000E+00 -0.00000000000E+00 -0.65211841391E+03  0.65211841391E+03  0.00000000000E+00 0.  1.
         25    1    1    2    0    0 -0.11285196625E+02 -0.28056859754E+01 -0.36904389051E+03  0.38823784032E+03  0.12000000000E+03 0.  0.
         25    1    1    2    0    0  0.11285196625E+02  0.28056859754E+01 -0.26019014371E+03  0.28676495327E+03  0.12000000000E+03 0.  0.
<mgrwt>
<rscale>  0 0.24432213E+03</rscale>
<asrwt>0</asrwt>
<pdfrwt beam="1">  1        2 0.10032590E+00 0.24432213E+03</pdfrwt>
<pdfrwt beam="2">  1       -2 0.35206740E-02 0.24432213E+03</pdfrwt>
<totfact> 0.15052606E+04</totfact>
</mgrwt>
</event>
<event>
 4    1  0.1710914E-004  0.3128519E+03  0.7818608E-02  0.1078987E+00
          2   -1    0    0  501    0  0.00000000000E+00  0.00000000000E+00  0.25683460107E+04  0.25683460107E+04  0.00000000000E+00 0.  1.
         -2   -1    0    0    0  501 -0.00000000000E+00 -0.00000000000E+00 -0.95271753371E+01  0.95271753371E+01  0.00000000000E+00 0.  1.
         25    1    1    2    0    0  0.57495986810E+02  0.60292956367E+02  0.81855918892E+03  0.83149273890E+03  0.12000000000E+03 0.  0.
         25    1    1    2    0    0 -0.57495986810E+02 -0.60292956367E+02  0.17402596464E+04  0.17463804471E+04  0.12000000000E+03 0.  0.
<mgrwt>
<rscale>  0 0.31285193E+03</rscale>
<asrwt>0</asrwt>
<pdfrwt beam="1">  1        2 0.39512960E+00 0.31285193E+03</pdfrwt>
<pdfrwt beam="2">  1       -2 0.14657213E-02 0.31285193E+03</pdfrwt>
<totfact> 0.44815743E+03</totfact>
</mgrwt>
</event>
<event>
 4    1  0.1710914E-004  0.2654507E+03  0.7818608E-02  0.1103912E+00
          1   -1    0    0  501    0  0.00000000000E+00  0.00000000000E+00  0.10532062940E+04  0.10532062940E+04  0.00000000000E+00 0.  1.
         -1   -1    0    0    0  501 -0.00000000000E+00 -0.00000000000E+00 -0.16726082888E+02  0.16726082888E+02  0.00000000000E+00 0.  1.
         25    1    1    2    0    0 -0.52598013271E+01  0.17570256707E+02  0.73453253152E+03  0.74449608413E+03  0.12000000000E+03 0.  0.
         25    1    1    2    0    0  0.52598013271E+01 -0.17570256707E+02  0.30194767960E+03  0.32543629276E+03  0.12000000000E+03 0.  0.
<mgrwt>
<rscale>  0 0.26545068E+03</rscale>
<asrwt>0</asrwt>
<pdfrwt beam="1">  1        1 0.16203169E+00 0.26545068E+03</pdfrwt>
<pdfrwt beam="2">  1       -1 0.25732443E-02 0.26545068E+03</pdfrwt>
<totfact> 0.68963425E+03</totfact>
</mgrwt>
</event>
<event>
 4    1  0.1710914E-004  0.2541287E+03  0.7818608E-02  0.1110723E+00
          1   -1    0    0  501    0  0.00000000000E+00  0.00000000000E+00  0.28987618221E+03  0.28987618221E+03  0.00000000000E+00 0. -1.
         -1   -1    0    0    0  501 -0.00000000000E+00 -0.00000000000E+00 -0.55697403980E+02  0.55697403980E+02  0.00000000000E+00 0. -1.
         25    1    1    2    0    0 -0.41350503363E+02  0.53531760629E+00  0.10902151815E+03  0.16731958078E+03  0.12000000000E+03 0.  0.
         25    1    1    2    0    0  0.41350503363E+02 -0.53531760629E+00  0.12515726008E+03  0.17825400541E+03  0.12000000000E+03 0.  0.
<mgrwt>
<rscale>  0 0.25412871E+03</rscale>
<asrwt>0</asrwt>
<pdfrwt beam="1">  1        1 0.44596335E-01 0.25412871E+03</pdfrwt>
<pdfrwt beam="2">  1       -1 0.85688315E-02 0.25412871E+03</pdfrwt>
<totfact> 0.70071849E+03</totfact>
</mgrwt>
</event>
<event>
 4    1  0.1710914E-004  0.2986485E+03  0.7818608E-02  0.1085918E+00
          1   -1    0    0  501    0  0.00000000000E+00  0.00000000000E+00  0.66666946738E+03  0.66666946738E+03  0.00000000000E+00 0.  1.
         -1   -1    0    0    0  501 -0.00000000000E+00 -0.00000000000E+00 -0.33446450764E+02  0.33446450764E+02  0.00000000000E+00 0.  1.
         25    1    1    2    0    0 -0.53557713396E+02 -0.18905373029E+02  0.47684590886E+03  0.49498268918E+03  0.12000000000E+03 0.  0.
         25    1    1    2    0    0  0.53557713396E+02  0.18905373029E+02  0.15637710775E+03  0.20513322896E+03  0.12000000000E+03 0.  0.
<mgrwt>
<rscale>  0 0.29864847E+03</rscale>
<asrwt>0</asrwt>
<pdfrwt beam="1">  1        1 0.10256452E+00 0.29864847E+03</pdfrwt>
<pdfrwt beam="2">  1       -1 0.51456083E-02 0.29864847E+03</pdfrwt>
<totfact> 0.51010627E+03</totfact>
</mgrwt>
</event>
<event>
 4    1  0.1710914E-004  0.3458305E+03  0.7818608E-02  0.1064340E+00
          2   -1    0    0  501    0  0.00000000000E+00  0.00000000000E+00  0.39018161036E+03  0.39018161036E+03  0.00000000000E+00 0.  1.
         -2   -1    0    0    0  501 -0.00000000000E+00 -0.00000000000E+00 -0.76630158214E+02  0.76630158214E+02  0.00000000000E+00 0.  1.
         25    1    1    2    0    0 -0.92984708269E+02  0.72745347141E+02  0.10343381259E+03  0.19757680808E+03  0.12000000000E+03 0.  0.
         25    1    1    2    0    0  0.92984708269E+02 -0.72745347141E+02  0.21011763956E+03  0.26923496050E+03  0.12000000000E+03 0.  0.
<mgrwt>
<rscale>  0 0.34583047E+03</rscale>
<asrwt>0</asrwt>
<pdfrwt beam="1">  1        2 0.60027939E-01 0.34583047E+03</pdfrwt>
<pdfrwt beam="2">  1       -2 0.11789255E-01 0.34583047E+03</pdfrwt>
<totfact> 0.41879017E+03</totfact>
</mgrwt>
</event>
<event>
 4    1  0.1710914E-004  0.4047663E+03  0.7818608E-02  0.1042142E+00
          1   -1    0    0  501    0  0.00000000000E+00  0.00000000000E+00  0.21089270251E+04  0.21089270251E+04  0.00000000000E+00 0. -1.
         -1   -1    0    0    0  501 -0.00000000000E+00 -0.00000000000E+00 -0.19421695907E+02  0.19421695907E+02  0.00000000000E+00 0. -1.
         25    1    1    2    0    0 -0.15783383303E+03  0.40296928401E+02  0.10702851267E+04  0.10892408429E+04  0.12000000000E+03 0.  0.
         25    1    1    2    0    0  0.15783383303E+03 -0.40296928401E+02  0.10192202025E+04  0.10391078781E+04  0.12000000000E+03 0.  0.
<mgrwt>
<rscale>  0 0.40476630E+03</rscale>
<asrwt>0</asrwt>
<pdfrwt beam="1">  1        1 0.32445013E+00 0.40476630E+03</pdfrwt>
<pdfrwt beam="2">  1       -1 0.29879549E-02 0.40476630E+03</pdfrwt>
<totfact> 0.10755517E+03</totfact>
</mgrwt>
</event>
<event>
 4    1  0.1710914E-004  0.2440423E+03  0.7818608E-02  0.1117129E+00
         -3   -1    0    0    0  501 -0.00000000000E+00  0.00000000000E+00  0.52572035217E+03  0.52572035217E+03  0.00000000000E+00 0. -1.
          3   -1    0    0  501    0  0.00000000000E+00 -0.00000000000E+00 -0.28321439424E+02  0.28321439424E+02  0.00000000000E+00 0. -1.
         25    1    1    2    0    0  0.19703554746E+00 -0.18833377321E+02  0.22237781632E+03  0.25339026839E+03  0.12000000000E+03 0.  0.
         25    1    1    2    0    0 -0.19703554746E+00  0.18833377321E+02  0.27502109642E+03  0.30065152320E+03  0.12000000000E+03 0.  0.
<mgrwt>
<rscale>  0 0.24404227E+03</rscale>
<asrwt>0</asrwt>
<pdfrwt beam="1">  1        3 0.43571449E-02 0.24404227E+03</pdfrwt>
<pdfrwt beam="2">  1       -3 0.80880047E-01 0.24404227E+03</pdfrwt>
<totfact> 0.10358077E+03</totfact>
</mgrwt>
</event>
<event>
 4    1  0.1710914E-004  0.2821063E+03  0.7818608E-02  0.1094544E+00
          1   -1    0    0  501    0  0.00000000000E+00  0.00000000000E+00  0.20593828740E+04  0.20593828740E+04  0.00000000000E+00 0. -1.
         -1   -1    0    0    0  501 -0.00000000000E+00 -0.00000000000E+00 -0.96611420337E+01  0.96611420337E+01  0.00000000000E+00 0. -1.
         25    1    1    2    0    0 -0.72648883199E+02  0.14559550346E+02  0.10430488397E+04  0.10525401288E+04  0.12000000000E+03 0.  0.
         25    1    1    2    0    0  0.72648883199E+02 -0.14559550346E+02  0.10066728923E+04  0.10165038873E+04  0.12000000000E+03 0.  0.
<mgrwt>
<rscale>  0 0.28210630E+03</rscale>
<asrwt>0</asrwt>
<pdfrwt beam="1">  1        1 0.31682778E+00 0.28210630E+03</pdfrwt>
<pdfrwt beam="2">  1       -1 0.14863312E-02 0.28210630E+03</pdfrwt>
<totfact> 0.32647124E+03</totfact>
</mgrwt>
</event>
<event>
 4    1  0.1710914E-004  0.2728718E+03  0.7818608E-02  0.1099647E+00
          1   -1    0    0  501    0  0.00000000000E+00  0.00000000000E+00  0.51896142256E+02  0.51896142256E+02  0.00000000000E+00 0.  1.
         -1   -1    0    0    0  501 -0.00000000000E+00 -0.00000000000E+00 -0.35869236653E+03  0.35869236653E+03  0.00000000000E+00 0.  1.
         25    1    1    2    0    0  0.94256860806E+01 -0.54213016519E+02 -0.10156024933E+03  0.16656043637E+03  0.12000000000E+03 0.  0.
         25    1    1    2    0    0 -0.94256860806E+01  0.54213016519E+02 -0.20523597494E+03  0.24402807242E+03  0.12000000000E+03 0.  0.
<mgrwt>
<rscale>  0 0.27287177E+03</rscale>
<asrwt>0</asrwt>
<pdfrwt beam="1">  1        1 0.79840222E-02 0.27287177E+03</pdfrwt>
<pdfrwt beam="2">  1       -1 0.55183439E-01 0.27287177E+03</pdfrwt>
<totfact> 0.29641985E+03</totfact>
</mgrwt>
</event>
<event>
 4    1  0.1710914E-004  0.2785832E+03  0.7818608E-02  0.1096465E+00
         -2   -1    0    0    0  501 -0.00000000000E+00  0.00000000000E+00  0.92727221814E+02  0.92727221814E+02  0.00000000000E+00 0. -1.
          2   -1    0    0  501    0  0.00000000000E+00 -0.00000000000E+00 -0.20923899741E+03  0.20923899741E+03  0.00000000000E+00 0. -1.
         25    1    1    2    0    0 -0.49621289385E+02 -0.45062708621E+02 -0.33795643946E+02  0.14154527763E+03  0.12000000000E+03 0.  0.
         25    1    1    2    0    0  0.49621289385E+02  0.45062708621E+02 -0.82716131654E+02  0.16042094160E+03  0.12000000000E+03 0.  0.
<mgrwt>
<rscale>  0 0.27858321E+03</rscale>
<asrwt>0</asrwt>
<pdfrwt beam="1">  1        2 0.32190615E-01 0.27858321E+03</pdfrwt>
<pdfrwt beam="2">  1       -2 0.14265727E-01 0.27858321E+03</pdfrwt>
<totfact> 0.59948573E+03</totfact>
</mgrwt>
</event>
<event>
 4    1  0.1710914E-004  0.2423674E+03  0.7818608E-02  0.1118226E+00
         -2   -1    0    0    0  501 -0.00000000000E+00  0.00000000000E+00  0.57440937457E+03  0.57440937457E+03  0.00000000000E+00 0. -1.
          2   -1    0    0  501    0  0.00000000000E+00 -0.00000000000E+00 -0.25566233941E+02  0.25566233941E+02  0.00000000000E+00 0. -1.
         25    1    1    2    0    0 -0.31809045636E+01 -0.11769303090E+02  0.24546270491E+03  0.27349693627E+03  0.12000000000E+03 0.  0.
         25    1    1    2    0    0  0.31809045636E+01  0.11769303090E+02  0.30338043572E+03  0.32647867224E+03  0.12000000000E+03 0.  0.
<mgrwt>
<rscale>  0 0.24236736E+03</rscale>
<asrwt>0</asrwt>
<pdfrwt beam="1">  1        2 0.39332672E-02 0.24236736E+03</pdfrwt>
<pdfrwt beam="2">  1       -2 0.88370663E-01 0.24236736E+03</pdfrwt>
<totfact> 0.24515890E+03</totfact>
</mgrwt>
</event>
<event>
 4    1  0.1710914E-004  0.3129185E+03  0.7818608E-02  0.1078955E+00
         -1   -1    0    0    0  501 -0.00000000000E+00  0.00000000000E+00  0.38958135339E+02  0.38958135339E+02  0.00000000000E+00 0. -1.
          1   -1    0    0  501    0  0.00000000000E+00 -0.00000000000E+00 -0.62835411654E+03  0.62835411654E+03  0.00000000000E+00 0. -1.
         25    1    1    2    0    0 -0.95985061154E+02  0.15712203980E+02 -0.34777644068E+03  0.38053706523E+03  0.12000000000E+03 0.  0.
         25    1    1    2    0    0  0.95985061154E+02 -0.15712203980E+02 -0.24161954052E+03  0.28677518666E+03  0.12000000000E+03 0.  0.
<mgrwt>
<rscale>  0 0.31291855E+03</rscale>
<asrwt>0</asrwt>
<pdfrwt beam="1">  1        1 0.96669857E-01 0.31291855E+03</pdfrwt>
<pdfrwt beam="2">  1       -1 0.59935597E-02 0.31291855E+03</pdfrwt>
<totfact> 0.44138902E+03</totfact>
</mgrwt>
</event>
<event>
 4    1  0.1710914E-004  0.2428278E+03  0.7818608E-02  0.1117923E+00
          2   -1    0    0  501    0  0.00000000000E+00  0.00000000000E+00  0.20577164256E+04  0.20577164256E+04  0.00000000000E+00 0.  1.
         -2   -1    0    0    0  501 -0.00000000000E+00 -0.00000000000E+00 -0.71639285914E+01  0.71639285914E+01  0.00000000000E+00 0.  1.
         25    1    1    2    0    0  0.18081617317E+02 -0.42468141841E+00  0.10573291611E+04  0.10642706799E+04  0.12000000000E+03 0.  0.
         25    1    1    2    0    0 -0.18081617317E+02  0.42468141841E+00  0.99322333594E+03  0.10006096743E+04  0.12000000000E+03 0.  0.
<mgrwt>
<rscale>  0 0.24282779E+03</rscale>
<asrwt>0</asrwt>
<pdfrwt beam="1">  1        2 0.31657129E+00 0.24282779E+03</pdfrwt>
<pdfrwt beam="2">  1       -2 0.11021445E-02 0.24282779E+03</pdfrwt>
<totfact> 0.12783805E+04</totfact>
</mgrwt>
</event>
<event>
 4    1  0.1710914E-004  0.2791186E+03  0.7818608E-02  0.1096171E+00
          1   -1    0    0  501    0  0.00000000000E+00  0.00000000000E+00  0.25995305772E+02  0.25995305772E+02  0.00000000000E+00 0.  1.
         -1   -1    0    0    0  501 -0.00000000000E+00 -0.00000000000E+00 -0.74924281983E+03  0.74924281983E+03  0.00000000000E+00 0.  1.
         25    1    1    2    0    0  0.48515821863E+02 -0.17976256061E+02 -0.49768668535E+03  0.51455705955E+03  0.12000000000E+03 0.  0.
         25    1    1    2    0    0 -0.48515821863E+02  0.17976256061E+02 -0.22556082871E+03  0.26068106606E+03  0.12000000000E+03 0.  0.
<mgrwt>
<rscale>  0 0.27911859E+03</rscale>
<asrwt>0</asrwt>
<pdfrwt beam="1">  1        1 0.39992782E-02 0.27911859E+03</pdfrwt>
<pdfrwt beam="2">  1       -1 0.11526811E+00 0.27911859E+03</pdfrwt>
<totfact> 0.16542481E+03</totfact>
</mgrwt>
</event>
<event>
 4    1  0.1710914E-004  0.3008131E+03  0.7818608E-02  0.1084835E+00
          1   -1    0    0  501    0  0.00000000000E+00  0.00000000000E+00  0.20937896112E+04  0.20937896112E+04  0.00000000000E+00 0.  1.
         -1   -1    0    0    0  501 -0.00000000000E+00 -0.00000000000E+00 -0.10804397280E+02  0.10804397280E+02  0.00000000000E+00 0.  1.
         25    1    1    2    0    0 -0.80633181035E+02  0.39138622588E+02  0.94541228242E+03  0.95720317875E+03  0.12000000000E+03 0.  0.
         25    1    1    2    0    0  0.80633181035E+02 -0.39138622588E+02  0.11375729315E+04  0.11473908297E+04  0.12000000000E+03 0.  0.
<mgrwt>
<rscale>  0 0.30081313E+03</rscale>
<asrwt>0</asrwt>
<pdfrwt beam="1">  1        1 0.32212116E+00 0.30081313E+03</pdfrwt>
<pdfrwt beam="2">  1       -1 0.16622166E-02 0.30081313E+03</pdfrwt>
<totfact> 0.26322242E+03</totfact>
</mgrwt>
</event>
<event>
 4    1  0.1710914E-004  0.2632314E+03  0.7818608E-02  0.1105217E+00
         -1   -1    0    0    0  501 -0.00000000000E+00  0.00000000000E+00  0.14150787170E+03  0.14150787170E+03  0.00000000000E+00 0. -1.
          1   -1    0    0  501    0  0.00000000000E+00 -0.00000000000E+00 -0.12241508617E+03  0.12241508617E+03  0.00000000000E+00 0. -1.
         25    1    1    2    0    0 -0.23521554676E+02  0.18592782102E+02 -0.35557820023E+02  0.12869853785E+03  0.12000000000E+03 0.  0.
         25    1    1    2    0    0  0.23521554676E+02 -0.18592782102E+02  0.54650605560E+02  0.13522442002E+03  0.12000000000E+03 0.  0.
<mgrwt>
<rscale>  0 0.26323144E+03</rscale>
<asrwt>0</asrwt>
<pdfrwt beam="1">  1        1 0.18833090E-01 0.26323144E+03</pdfrwt>
<pdfrwt beam="2">  1       -1 0.21770442E-01 0.26323144E+03</pdfrwt>
<totfact> 0.47999022E+03</totfact>
</mgrwt>
</event>
<event>
 4    1  0.1710914E-004  0.2819252E+03  0.7818608E-02  0.1094642E+00
         -1   -1    0    0    0  501 -0.00000000000E+00  0.00000000000E+00  0.22501146282E+03  0.22501146282E+03  0.00000000000E+00 0. -1.
          1   -1    0    0  501    0  0.00000000000E+00 -0.00000000000E+00 -0.88308623547E+02  0.88308623547E+02  0.00000000000E+00 0. -1.
         25    1    1    2    0    0  0.56454624622E+02 -0.18076958642E+02  0.19192763348E+02  0.13521191974E+03  0.12000000000E+03 0.  0.
         25    1    1    2    0    0 -0.56454624622E+02  0.18076958642E+02  0.11751007592E+03  0.17810816663E+03  0.12000000000E+03 0.  0.
<mgrwt>
<rscale>  0 0.28192519E+03</rscale>
<asrwt>0</asrwt>
<pdfrwt beam="1">  1        1 0.13585942E-01 0.28192519E+03</pdfrwt>
<pdfrwt beam="2">  1       -1 0.34617148E-01 0.28192519E+03</pdfrwt>
<totfact> 0.33758760E+03</totfact>
</mgrwt>
</event>
<event>
 4    1  0.1710914E-004  0.2991646E+03  0.7818608E-02  0.1085659E+00
         -1   -1    0    0    0  501 -0.00000000000E+00  0.00000000000E+00  0.41943521518E+01  0.41943521518E+01  0.00000000000E+00 0. -1.
          1   -1    0    0  501    0  0.00000000000E+00 -0.00000000000E+00 -0.53345233773E+04  0.53345233773E+04  0.00000000000E+00 0. -1.
         25    1    1    2    0    0  0.66819105653E+02  0.59125966469E+02 -0.27324036568E+04  0.27364923564E+04  0.12000000000E+03 0.  0.
         25    1    1    2    0    0 -0.66819105653E+02 -0.59125966469E+02 -0.25979253684E+04  0.26022253731E+04  0.12000000000E+03 0.  0.
<mgrwt>
<rscale>  0 0.29916463E+03</rscale>
<asrwt>0</asrwt>
<pdfrwt beam="1">  1        1 0.82069176E+00 0.29916463E+03</pdfrwt>
<pdfrwt beam="2">  1       -1 0.64528820E-03 0.29916463E+03</pdfrwt>
<totfact> 0.15518331E+01</totfact>
</mgrwt>
</event>
<event>
 4    1  0.1710914E-004  0.2958217E+03  0.7818608E-02  0.1087348E+00
         -2   -1    0    0    0  501 -0.00000000000E+00  0.00000000000E+00  0.42482698319E+02  0.42482698319E+02  0.00000000000E+00 0.  1.
          2   -1    0    0  501    0  0.00000000000E+00 -0.00000000000E+00 -0.51497702806E+03  0.51497702806E+03  0.00000000000E+00 0.  1.
         25    1    1    2    0    0 -0.82147105275E+02  0.24952041931E+02 -0.25572748256E+03  0.29524108224E+03  0.12000000000E+03 0.  0.
         25    1    1    2    0    0  0.82147105275E+02 -0.24952041931E+02 -0.21676684718E+03  0.26221864415E+03  0.12000000000E+03 0.  0.
<mgrwt>
<rscale>  0 0.29582166E+03</rscale>
<asrwt>0</asrwt>
<pdfrwt beam="1">  1        2 0.79227234E-01 0.29582166E+03</pdfrwt>
<pdfrwt beam="2">  1       -2 0.65357999E-02 0.29582166E+03</pdfrwt>
<totfact> 0.77896929E+03</totfact>
</mgrwt>
</event>
<event>
 4    1  0.1710914E-004  0.3949876E+03  0.7818608E-02  0.1045529E+00
          2   -1    0    0  501    0  0.00000000000E+00  0.00000000000E+00  0.11909025660E+04  0.11909025660E+04  0.00000000000E+00 0. -1.
         -2   -1    0    0    0  501 -0.00000000000E+00 -0.00000000000E+00 -0.32751463326E+02  0.32751463326E+02  0.00000000000E+00 0. -1.
         25    1    1    2    0    0  0.13824432110E+03  0.29050329176E+02  0.36785977485E+03  0.41191774409E+03  0.12000000000E+03 0.  0.
         25    1    1    2    0    0 -0.13824432110E+03 -0.29050329176E+02  0.79029132783E+03  0.81173628524E+03  0.12000000000E+03 0.  0.
<mgrwt>
<rscale>  0 0.39498760E+03</rscale>
<asrwt>0</asrwt>
<pdfrwt beam="1">  1        2 0.18321575E+00 0.39498760E+03</pdfrwt>
<pdfrwt beam="2">  1       -2 0.50386876E-02 0.39498760E+03</pdfrwt>
<totfact> 0.39268918E+03</totfact>
</mgrwt>
</event>
<event>
 4    1  0.1710914E-004  0.3120686E+03  0.7818608E-02  0.1079359E+00
         -2   -1    0    0    0  501 -0.00000000000E+00  0.00000000000E+00  0.17947467762E+04  0.17947467762E+04  0.00000000000E+00 0.  1.
          2   -1    0    0  501    0  0.00000000000E+00 -0.00000000000E+00 -0.13565540697E+02  0.13565540697E+02  0.00000000000E+00 0.  1.
         25    1    1    2    0    0 -0.79289645964E+01 -0.87736072926E+02  0.61965220964E+03  0.63728278486E+03  0.12000000000E+03 0.  0.
         25    1    1    2    0    0  0.79289645964E+01  0.87736072926E+02  0.11615290259E+04  0.11710295321E+04  0.12000000000E+03 0.  0.
<mgrwt>
<rscale>  0 0.31206865E+03</rscale>
<asrwt>0</asrwt>
<pdfrwt beam="1">  1        2 0.20870077E-02 0.31206865E+03</pdfrwt>
<pdfrwt beam="2">  1       -2 0.27611470E+00 0.31206865E+03</pdfrwt>
<totfact> 0.26024022E+02</totfact>
</mgrwt>
</event>
<event>
 4    1  0.1710914E-004  0.2466100E+03  0.7818608E-02  0.1115466E+00
          2   -1    0    0  501    0  0.00000000000E+00  0.00000000000E+00  0.52355613215E+03  0.52355613215E+03  0.00000000000E+00 0.  1.
         -2   -1    0    0    0  501 -0.00000000000E+00 -0.00000000000E+00 -0.29040101844E+02  0.29040101844E+02  0.00000000000E+00 0.  1.
         25    1    1    2    0    0  0.12193722108E+02 -0.22884727661E+02  0.27297574450E+03  0.29931280411E+03  0.12000000000E+03 0.  0.
         25    1    1    2    0    0 -0.12193722108E+02  0.22884727661E+02  0.22154028580E+03  0.25328342988E+03  0.12000000000E+03 0.  0.
<mgrwt>
<rscale>  0 0.24661000E+03</rscale>
<asrwt>0</asrwt>
<pdfrwt beam="1">  1        2 0.80547090E-01 0.24661000E+03</pdfrwt>
<pdfrwt beam="2">  1       -2 0.44677084E-02 0.24661000E+03</pdfrwt>
<totfact> 0.13563238E+04</totfact>
</mgrwt>
</event>
<event>
 4    1  0.1710914E-004  0.3294304E+03  0.7818608E-02  0.1071389E+00
          3   -1    0    0  501    0  0.00000000000E+00  0.00000000000E+00  0.32300129208E+03  0.32300129208E+03  0.00000000000E+00 0.  1.
         -3   -1    0    0    0  501 -0.00000000000E+00 -0.00000000000E+00 -0.83996873344E+02  0.83996873344E+02  0.00000000000E+00 0.  1.
         25    1    1    2    0    0  0.53301732717E+02 -0.59173079698E+02  0.20753685241E+02  0.14551028666E+03  0.12000000000E+03 0.  0.
         25    1    1    2    0    0 -0.53301732717E+02  0.59173079698E+02  0.21825073350E+03  0.26148787877E+03  0.12000000000E+03 0.  0.
<mgrwt>
<rscale>  0 0.32943041E+03</rscale>
<asrwt>0</asrwt>
<pdfrwt beam="1">  1        3 0.49692506E-01 0.32943041E+03</pdfrwt>
<pdfrwt beam="2">  1       -3 0.12922596E-01 0.32943041E+03</pdfrwt>
<totfact> 0.50033033E+02</totfact>
</mgrwt>
</event>
<event>
 4    1  0.1710914E-004  0.2805655E+03  0.7818608E-02  0.1095380E+00
         -2   -1    0    0    0  501 -0.00000000000E+00  0.00000000000E+00  0.48141167333E+02  0.48141167333E+02  0.00000000000E+00 0.  1.
          2   -1    0    0  501    0  0.00000000000E+00 -0.00000000000E+00 -0.40878213416E+03  0.40878213416E+03  0.00000000000E+00 0.  1.
         25    1    1    2    0    0  0.15947448522E+02 -0.17052463022E+02 -0.29237507747E+03  0.31690423401E+03  0.12000000000E+03 0.  0.
         25    1    1    2    0    0 -0.15947448522E+02  0.17052463022E+02 -0.68265889365E+02  0.14001906749E+03  0.12000000000E+03 0.  0.
<mgrwt>
<rscale>  0 0.28056549E+03</rscale>
<asrwt>0</asrwt>
<pdfrwt beam="1">  1        2 0.62889558E-01 0.28056549E+03</pdfrwt>
<pdfrwt beam="2">  1       -2 0.74063336E-02 0.28056549E+03</pdfrwt>
<totfact> 0.82719178E+03</totfact>
</mgrwt>
</event>
<event>
 4    1  0.1710914E-004  0.2873230E+03  0.7818608E-02  0.1091755E+00
          2   -1    0    0  501    0  0.00000000000E+00  0.00000000000E+00  0.28159000196E+04  0.28159000196E+04  0.00000000000E+00 0. -1.
         -2   -1    0    0    0  501 -0.00000000000E+00 -0.00000000000E+00 -0.73293166904E+01  0.73293166904E+01  0.00000000000E+00 0. -1.
         25    1    1    2    0    0  0.75050846284E+02  0.12332735980E+02  0.11949442471E+04  0.12033604944E+04  0.12000000000E+03 0.  0.
         25    1    1    2    0    0 -0.75050846284E+02 -0.12332735980E+02  0.16136264558E+04  0.16198688418E+04  0.12000000000E+03 0.  0.
<mgrwt>
<rscale>  0 0.28732298E+03</rscale>
<asrwt>0</asrwt>
<pdfrwt beam="1">  1        2 0.43321452E+00 0.28732298E+03</pdfrwt>
<pdfrwt beam="2">  1       -2 0.11275894E-02 0.28732298E+03</pdfrwt>
<totfact> 0.47731983E+03</totfact>
</mgrwt>
</event>
<event>
 4    1  0.1710914E-004  0.3323844E+03  0.7818608E-02  0.1070087E+00
         -2   -1    0    0    0  501 -0.00000000000E+00  0.00000000000E+00  0.22060243144E+02  0.22060243144E+02  0.00000000000E+00 0. -1.
          2   -1    0    0  501    0  0.00000000000E+00 -0.00000000000E+00 -0.12520191183E+04  0.12520191183E+04  0.00000000000E+00 0. -1.
         25    1    1    2    0    0 -0.65245098180E+02 -0.93913860783E+02 -0.56912398530E+03  0.59277217101E+03  0.12000000000E+03 0.  0.
         25    1    1    2    0    0  0.65245098180E+02  0.93913860783E+02 -0.66083488988E+03  0.68130719046E+03  0.12000000000E+03 0.  0.
<mgrwt>
<rscale>  0 0.33238439E+03</rscale>
<asrwt>0</asrwt>
<pdfrwt beam="1">  1        2 0.19261836E+00 0.33238439E+03</pdfrwt>
<pdfrwt beam="2">  1       -2 0.33938830E-02 0.33238439E+03</pdfrwt>
<totfact> 0.65938375E+03</totfact>
</mgrwt>
</event>
<event>
 4    1  0.1710914E-004  0.4159231E+03  0.7818608E-02  0.1038401E+00
         -1   -1    0    0    0  501 -0.00000000000E+00  0.00000000000E+00  0.22673392678E+03  0.22673392678E+03  0.00000000000E+00 0.  1.
          1   -1    0    0  501    0  0.00000000000E+00 -0.00000000000E+00 -0.19074345094E+03  0.19074345094E+03  0.00000000000E+00 0.  1.
         25    1    1    2    0    0  0.64772211388E+02  0.10101208082E+03  0.13864896855E+03  0.21914017505E+03  0.12000000000E+03 0.  0.
         25    1    1    2    0    0 -0.64772211388E+02 -0.10101208082E+03 -0.10265849271E+03  0.19833720268E+03  0.12000000000E+03 0.  0.
<mgrwt>
<rscale>  0 0.41592313E+03</rscale>
<asrwt>0</asrwt>
<pdfrwt beam="1">  1        1 0.29345147E-01 0.41592313E+03</pdfrwt>
<pdfrwt beam="2">  1       -1 0.34882142E-01 0.41592313E+03</pdfrwt>
<totfact> 0.12317675E+03</totfact>
</mgrwt>
</event>
<event>
 4    1  0.1710914E-004  0.2881736E+03  0.7818608E-02  0.1091307E+00
          2   -1    0    0  501    0  0.00000000000E+00  0.00000000000E+00  0.21517359443E+04  0.21517359443E+04  0.00000000000E+00 0. -1.
         -2   -1    0    0    0  501 -0.00000000000E+00 -0.00000000000E+00 -0.96484931621E+01  0.96484931621E+01  0.00000000000E+00 0. -1.
         25    1    1    2    0    0 -0.45992073987E+02  0.59751194516E+02  0.12659838385E+04  0.12738918932E+04  0.12000000000E+03 0.  0.
         25    1    1    2    0    0  0.45992073987E+02 -0.59751194516E+02  0.87610361268E+03  0.88749254435E+03  0.12000000000E+03 0.  0.
<mgrwt>
<rscale>  0 0.28817363E+03</rscale>
<asrwt>0</asrwt>
<pdfrwt beam="1">  1        2 0.33103592E+00 0.28817363E+03</pdfrwt>
<pdfrwt beam="2">  1       -2 0.14843853E-02 0.28817363E+03</pdfrwt>
<totfact> 0.74023230E+03</totfact>
</mgrwt>
</event>
<event>
 4    1  0.1710914E-004  0.2641064E+03  0.7818608E-02  0.1104701E+00
         -4   -1    0    0    0  501 -0.00000000000E+00  0.00000000000E+00  0.62643795427E+02  0.62643795427E+02  0.00000000000E+00 0.  1.
          4   -1    0    0  501    0  0.00000000000E+00 -0.00000000000E+00 -0.27836833216E+03  0.27836833216E+03  0.00000000000E+00 0.  1.
         25    1    1    2    0    0  0.49839948231E+02  0.11528928787E+02 -0.81365689518E+02  0.15374430744E+03  0.12000000000E+03 0.  0.
         25    1    1    2    0    0 -0.49839948231E+02 -0.11528928787E+02 -0.13435884722E+03  0.18726782015E+03  0.12000000000E+03 0.  0.
<mgrwt>
<rscale>  0 0.26410641E+03</rscale>
<asrwt>0</asrwt>
<pdfrwt beam="1">  1        4 0.42825898E-01 0.26410641E+03</pdfrwt>
<pdfrwt beam="2">  1       -4 0.96375068E-02 0.26410641E+03</pdfrwt>
<totfact> 0.79966737E+02</totfact>
</mgrwt>
</event>
<event>
 4    1  0.1710914E-004  0.2771046E+03  0.7818608E-02  0.1097281E+00
          2   -1    0    0  501    0  0.00000000000E+00  0.00000000000E+00  0.28256406916E+04  0.28256406916E+04  0.00000000000E+00 0.  1.
         -2   -1    0    0    0  501 -0.00000000000E+00 -0.00000000000E+00 -0.67937667836E+01  0.67937667836E+01  0.00000000000E+00 0.  1.
         25    1    1    2    0    0 -0.37562145914E+02 -0.58187151111E+02  0.14064519485E+04  0.14132599700E+04  0.12000000000E+03 0.  0.
         25    1    1    2    0    0  0.37562145914E+02  0.58187151111E+02  0.14123949764E+04  0.14191744884E+04  0.12000000000E+03 0.  0.
<mgrwt>
<rscale>  0 0.27710463E+03</rscale>
<asrwt>0</asrwt>
<pdfrwt beam="1">  1        2 0.43471301E+00 0.27710463E+03</pdfrwt>
<pdfrwt beam="2">  1       -2 0.10451971E-02 0.27710463E+03</pdfrwt>
<totfact> 0.52653135E+03</totfact>
</mgrwt>
</event>
<event>
 4    1  0.1710914E-004  0.4200555E+03  0.7818608E-02  0.1037048E+00
          2   -1    0    0  501    0  0.00000000000E+00  0.00000000000E+00  0.24976856404E+03  0.24976856404E+03  0.00000000000E+00 0.  1.
         -2   -1    0    0    0  501 -0.00000000000E+00 -0.00000000000E+00 -0.17661014758E+03  0.17661014758E+03  0.00000000000E+00 0.  1.
         25    1    1    2    0    0 -0.52828359838E+02 -0.17912068117E+02  0.20212932801E+03  0.24159458402E+03  0.12000000000E+03 0.  0.
         25    1    1    2    0    0  0.52828359838E+02  0.17912068117E+02 -0.12897091154E+03  0.18478412760E+03  0.12000000000E+03 0.  0.
<mgrwt>
<rscale>  0 0.42005553E+03</rscale>
<asrwt>0</asrwt>
<pdfrwt beam="1">  1        2 0.38425933E-01 0.42005553E+03</pdfrwt>
<pdfrwt beam="2">  1       -2 0.27170792E-01 0.42005553E+03</pdfrwt>
<totfact> 0.16465139E+03</totfact>
</mgrwt>
</event>
<event>
 4    1  0.1710914E-004  0.3230314E+03  0.7818608E-02  0.1074263E+00
          2   -1    0    0  501    0  0.00000000000E+00  0.00000000000E+00  0.72877126224E+03  0.72877126224E+03  0.00000000000E+00 0.  1.
         -2   -1    0    0    0  501 -0.00000000000E+00 -0.00000000000E+00 -0.35796312903E+02  0.35796312903E+02  0.00000000000E+00 0.  1.
         25    1    1    2    0    0 -0.10423655760E+03  0.28601917680E+02  0.34175702423E+03  0.37799628734E+03  0.12000000000E+03 0.  0.
         25    1    1    2    0    0  0.10423655760E+03 -0.28601917680E+02  0.35121792511E+03  0.38657128780E+03  0.12000000000E+03 0.  0.
<mgrwt>
<rscale>  0 0.32303142E+03</rscale>
<asrwt>0</asrwt>
<pdfrwt beam="1">  1        2 0.11211864E+00 0.32303142E+03</pdfrwt>
<pdfrwt beam="2">  1       -2 0.55071256E-02 0.32303142E+03</pdfrwt>
<totfact> 0.67556107E+03</totfact>
</mgrwt>
</event>
<event>
 4    1  0.1710914E-004  0.2913075E+03  0.7818608E-02  0.1089668E+00
         -2   -1    0    0    0  501 -0.00000000000E+00  0.00000000000E+00  0.18027157712E+02  0.18027157712E+02  0.00000000000E+00 0.  1.
          2   -1    0    0  501    0  0.00000000000E+00 -0.00000000000E+00 -0.11768361263E+04  0.11768361263E+04  0.00000000000E+00 0.  1.
         25    1    1    2    0    0 -0.60892919782E+02 -0.54225682374E+02 -0.63235300157E+03  0.64878246809E+03  0.12000000000E+03 0.  0.
         25    1    1    2    0    0  0.60892919782E+02  0.54225682374E+02 -0.52645596706E+03  0.54608081596E+03  0.12000000000E+03 0.  0.
<mgrwt>
<rscale>  0 0.29130747E+03</rscale>
<asrwt>0</asrwt>
<pdfrwt beam="1">  1        2 0.18105180E+00 0.29130747E+03</pdfrwt>
<pdfrwt beam="2">  1       -2 0.27734076E-02 0.29130747E+03</pdfrwt>
<totfact> 0.98164630E+03</totfact>
</mgrwt>
</event>
<event>
 4    1  0.1710914E-004  0.2881850E+03  0.7818608E-02  0.1091301E+00
         -1   -1    0    0    0  501 -0.00000000000E+00  0.00000000000E+00  0.36778132702E+02  0.36778132702E+02  0.00000000000E+00 0.  1.
          1   -1    0    0  501    0  0.00000000000E+00 -0.00000000000E+00 -0.56453801666E+03  0.56453801666E+03  0.00000000000E+00 0.  1.
         25    1    1    2    0    0 -0.46976931348E+02  0.40267405650E+02 -0.36892253255E+03  0.39285128364E+03  0.12000000000E+03 0.  0.
         25    1    1    2    0    0  0.46976931348E+02 -0.40267405650E+02 -0.15883735141E+03  0.20846486572E+03  0.12000000000E+03 0.  0.
<mgrwt>
<rscale>  0 0.28818504E+03</rscale>
<asrwt>0</asrwt>
<pdfrwt beam="1">  1        1 0.86852006E-01 0.28818504E+03</pdfrwt>
<pdfrwt beam="2">  1       -1 0.56581740E-02 0.28818504E+03</pdfrwt>
<totfact> 0.55783103E+03</totfact>
</mgrwt>
</event>
<event>
 4    1  0.1710914E-004  0.3917568E+03  0.7818608E-02  0.1046672E+00
         -2   -1    0    0    0  501 -0.00000000000E+00  0.00000000000E+00  0.62712140508E+03  0.62712140508E+03  0.00000000000E+00 0.  1.
          2   -1    0    0  501    0  0.00000000000E+00 -0.00000000000E+00 -0.61181697402E+02  0.61181697402E+02  0.00000000000E+00 0.  1.
         25    1    1    2    0    0  0.12898514298E+03  0.69574728507E+02  0.37065178385E+03  0.41624578656E+03  0.12000000000E+03 0.  0.
         25    1    1    2    0    0 -0.12898514298E+03 -0.69574728507E+02  0.19528792382E+03  0.27205731592E+03  0.12000000000E+03 0.  0.
<mgrwt>
<rscale>  0 0.39175682E+03</rscale>
<asrwt>0</asrwt>
<pdfrwt beam="1">  1        2 0.94125693E-02 0.39175682E+03</pdfrwt>
<pdfrwt beam="2">  1       -2 0.96480212E-01 0.39175682E+03</pdfrwt>
<totfact> 0.64845232E+02</totfact>
</mgrwt>
</event>
<event>
 4    1  0.1710914E-004  0.2848553E+03  0.7818608E-02  0.1093066E+00
         -2   -1    0    0    0  501 -0.00000000000E+00  0.00000000000E+00  0.94311512108E+02  0.94311512108E+02  0.00000000000E+00 0. -1.
          2   -1    0    0  501    0  0.00000000000E+00 -0.00000000000E+00 -0.21509180688E+03  0.21509180688E+03  0.00000000000E+00 0. -1.
         25    1    1    2    0    0  0.57240570319E+02  0.96125827187E+01 -0.58996679270E+01  0.13343047148E+03  0.12000000000E+03 0.  0.
         25    1    1    2    0    0 -0.57240570319E+02 -0.96125827187E+01 -0.11488062684E+03  0.17597284751E+03  0.12000000000E+03 0.  0.
<mgrwt>
<rscale>  0 0.28485529E+03</rscale>
<asrwt>0</asrwt>
<pdfrwt beam="1">  1        2 0.33091047E-01 0.28485529E+03</pdfrwt>
<pdfrwt beam="2">  1       -2 0.14509464E-01 0.28485529E+03</pdfrwt>
<totfact> 0.56613242E+03</totfact>
</mgrwt>
</event>
<event>
 4    1  0.1710914E-004  0.3139945E+03  0.7818608E-02  0.1078447E+00
         -1   -1    0    0    0  501 -0.00000000000E+00  0.00000000000E+00  0.32580502838E+02  0.32580502838E+02  0.00000000000E+00 0.  1.
          1   -1    0    0  501    0  0.00000000000E+00 -0.00000000000E+00 -0.75653037277E+03  0.75653037277E+03  0.00000000000E+00 0.  1.
         25    1    1    2    0    0  0.40387209363E+02  0.86706599919E+02 -0.27866234872E+03  0.31812240686E+03  0.12000000000E+03 0.  0.
         25    1    1    2    0    0 -0.40387209363E+02 -0.86706599919E+02 -0.44528752121E+03  0.47098846875E+03  0.12000000000E+03 0.  0.
<mgrwt>
<rscale>  0 0.31399452E+03</rscale>
<asrwt>0</asrwt>
<pdfrwt beam="1">  1        1 0.11638927E+00 0.31399452E+03</pdfrwt>
<pdfrwt beam="2">  1       -1 0.50123856E-02 0.31399452E+03</pdfrwt>
<totfact> 0.44082113E+03</totfact>
</mgrwt>
</event>
<event>
 4    1  0.1710914E-004  0.4544484E+03  0.7818608E-02  0.1026404E+00
          2   -1    0    0  501    0  0.00000000000E+00  0.00000000000E+00  0.10203342161E+04  0.10203342161E+04  0.00000000000E+00 0. -1.
         -2   -1    0    0    0  501 -0.00000000000E+00 -0.00000000000E+00 -0.50601890106E+02  0.50601890106E+02  0.00000000000E+00 0. -1.
         25    1    1    2    0    0 -0.80987690607E+02  0.50116733234E+02  0.88032057783E+03  0.89355190825E+03  0.12000000000E+03 0.  0.
         25    1    1    2    0    0  0.80987690607E+02 -0.50116733234E+02  0.89411748187E+02  0.17738419798E+03  0.12000000000E+03 0.  0.
<mgrwt>
<rscale>  0 0.45444841E+03</rscale>
<asrwt>0</asrwt>
<pdfrwt beam="1">  1        2 0.15697448E+00 0.45444841E+03</pdfrwt>
<pdfrwt beam="2">  1       -2 0.77849069E-02 0.45444841E+03</pdfrwt>
<totfact> 0.25228861E+03</totfact>
</mgrwt>
</event>
<event>
 4    1  0.1710914E-004  0.4934524E+03  0.7818608E-02  0.1015502E+00
          1   -1    0    0  501    0  0.00000000000E+00  0.00000000000E+00  0.19258135946E+04  0.19258135946E+04  0.00000000000E+00 0. -1.
         -1   -1    0    0    0  501 -0.00000000000E+00 -0.00000000000E+00 -0.31609397535E+02  0.31609397535E+02  0.00000000000E+00 0. -1.
         25    1    1    2    0    0  0.44647421760E+02  0.17542783812E+03  0.48270796871E+03  0.52931588084E+03  0.12000000000E+03 0.  0.
         25    1    1    2    0    0 -0.44647421760E+02 -0.17542783812E+03  0.14114962284E+04  0.14281071113E+04  0.12000000000E+03 0.  0.
<mgrwt>
<rscale>  0 0.49345236E+03</rscale>
<asrwt>0</asrwt>
<pdfrwt beam="1">  1        1 0.29627892E+00 0.49345236E+03</pdfrwt>
<pdfrwt beam="2">  1       -1 0.48629857E-02 0.49345236E+03</pdfrwt>
<totfact> 0.67733942E+02</totfact>
</mgrwt>
</event>
<event>
 4    1  0.1710914E-004  0.2528354E+03  0.7818608E-02  0.1111526E+00
          2   -1    0    0  501    0  0.00000000000E+00  0.00000000000E+00  0.89823784024E+01  0.89823784024E+01  0.00000000000E+00 0. -1.
         -2   -1    0    0    0  501 -0.00000000000E+00 -0.00000000000E+00 -0.17791986900E+04  0.17791986900E+04  0.00000000000E+00 0. -1.
         25    1    1    2    0    0 -0.17089556467E+02  0.35763834348E+02 -0.86237567325E+03  0.87158643094E+03  0.12000000000E+03 0.  0.
         25    1    1    2    0    0  0.17089556467E+02 -0.35763834348E+02 -0.90784063836E+03  0.91659463747E+03  0.12000000000E+03 0.  0.
<mgrwt>
<rscale>  0 0.25283541E+03</rscale>
<asrwt>0</asrwt>
<pdfrwt beam="1">  1        2 0.13819037E-02 0.25283541E+03</pdfrwt>
<pdfrwt beam="2">  1       -2 0.27372301E+00 0.25283541E+03</pdfrwt>
<totfact> 0.47714561E+02</totfact>
</mgrwt>
</event>
<event>
 4    1  0.1710914E-004  0.2609415E+03  0.7818608E-02  0.1106579E+00
         -2   -1    0    0    0  501 -0.00000000000E+00  0.00000000000E+00  0.34314486326E+02  0.34314486326E+02  0.00000000000E+00 0.  1.
          2   -1    0    0  501    0  0.00000000000E+00 -0.00000000000E+00 -0.49607681884E+03  0.49607681884E+03  0.00000000000E+00 0.  1.
         25    1    1    2    0    0  0.12445349321E+02 -0.47670583052E+02 -0.25928315253E+03  0.28992261794E+03  0.12000000000E+03 0.  0.
         25    1    1    2    0    0 -0.12445349321E+02  0.47670583052E+02 -0.20247917998E+03  0.24046868722E+03  0.12000000000E+03 0.  0.
<mgrwt>
<rscale>  0 0.26094154E+03</rscale>
<asrwt>0</asrwt>
<pdfrwt beam="1">  1        2 0.76319513E-01 0.26094154E+03</pdfrwt>
<pdfrwt beam="2">  1       -2 0.52791516E-02 0.26094154E+03</pdfrwt>
<totfact> 0.11217138E+04</totfact>
</mgrwt>
</event>
<event>
 4    1  0.1710914E-004  0.2482346E+03  0.7818608E-02  0.1114426E+00
         -2   -1    0    0    0  501 -0.00000000000E+00  0.00000000000E+00  0.12792245299E+03  0.12792245299E+03  0.00000000000E+00 0.  1.
          2   -1    0    0  501    0  0.00000000000E+00 -0.00000000000E+00 -0.12042530244E+03  0.12042530244E+03  0.00000000000E+00 0.  1.
         25    1    1    2    0    0  0.19560176505E+02  0.19054622320E+02  0.19862469450E+02  0.12466032580E+03  0.12000000000E+03 0.  0.
         25    1    1    2    0    0 -0.19560176505E+02 -0.19054622320E+02 -0.12365318900E+02  0.12368742963E+03  0.12000000000E+03 0.  0.
<mgrwt>
<rscale>  0 0.24823457E+03</rscale>
<asrwt>0</asrwt>
<pdfrwt beam="1">  1        2 0.18526970E-01 0.24823457E+03</pdfrwt>
<pdfrwt beam="2">  1       -2 0.19680377E-01 0.24823457E+03</pdfrwt>
<totfact> 0.64694366E+03</totfact>
</mgrwt>
</event>
<event>
 4    1  0.1710914E-004  0.2556418E+03  0.7818608E-02  0.1109790E+00
         -2   -1    0    0    0  501 -0.00000000000E+00  0.00000000000E+00  0.16313315310E+02  0.16313315310E+02  0.00000000000E+00 0. -1.
          2   -1    0    0  501    0  0.00000000000E+00 -0.00000000000E+00 -0.10015242081E+04  0.10015242081E+04  0.00000000000E+00 0. -1.
         25    1    1    2    0    0  0.53966989796E+01  0.43548195093E+02 -0.47846661596E+03  0.49523314938E+03  0.12000000000E+03 0.  0.
         25    1    1    2    0    0 -0.53966989796E+01 -0.43548195093E+02 -0.50674427681E+03  0.52260437401E+03  0.12000000000E+03 0.  0.
<mgrwt>
<rscale>  0 0.25564178E+03</rscale>
<asrwt>0</asrwt>
<pdfrwt beam="1">  1        2 0.15408071E+00 0.25564178E+03</pdfrwt>
<pdfrwt beam="2">  1       -2 0.25097398E-02 0.25564178E+03</pdfrwt>
<totfact> 0.14389336E+04</totfact>
</mgrwt>
</event>
<event>
 4    1  0.1710914E-004  0.2512115E+03  0.7818608E-02  0.1112542E+00
         -1   -1    0    0    0  501 -0.00000000000E+00  0.00000000000E+00  0.15344695990E+03  0.15344695990E+03  0.00000000000E+00 0. -1.
          1   -1    0    0  501    0  0.00000000000E+00 -0.00000000000E+00 -0.10281603075E+03  0.10281603075E+03  0.00000000000E+00 0. -1.
         25    1    1    2    0    0 -0.10690697074E+00  0.26729956078E+02  0.51568254939E+02  0.13331836670E+03  0.12000000000E+03 0.  0.
         25    1    1    2    0    0  0.10690697074E+00 -0.26729956078E+02 -0.93732578638E+00  0.12294462396E+03  0.12000000000E+03 0.  0.
<mgrwt>
<rscale>  0 0.25121152E+03</rscale>
<asrwt>0</asrwt>
<pdfrwt beam="1">  1        1 0.15817851E-01 0.25121152E+03</pdfrwt>
<pdfrwt beam="2">  1       -1 0.23607225E-01 0.25121152E+03</pdfrwt>
<totfact> 0.52613998E+03</totfact>
</mgrwt>
</event>
<event>
 4    1  0.1710914E-004  0.2701847E+03  0.7818608E-02  0.1101174E+00
         -1   -1    0    0    0  501 -0.00000000000E+00  0.00000000000E+00  0.11193322672E+02  0.11193322672E+02  0.00000000000E+00 0.  1.
          1   -1    0    0  501    0  0.00000000000E+00 -0.00000000000E+00 -0.16304316606E+04  0.16304316606E+04  0.00000000000E+00 0.  1.
         25    1    1    2    0    0 -0.48395412777E+02  0.38824100415E+02 -0.80523387155E+03  0.81648699600E+03  0.12000000000E+03 0.  0.
         25    1    1    2    0    0  0.48395412777E+02 -0.38824100415E+02 -0.81400446640E+03  0.82513798729E+03  0.12000000000E+03 0.  0.
<mgrwt>
<rscale>  0 0.27018473E+03</rscale>
<asrwt>0</asrwt>
<pdfrwt beam="1">  1        1 0.25083544E+00 0.27018473E+03</pdfrwt>
<pdfrwt beam="2">  1       -1 0.17220510E-02 0.27018473E+03</pdfrwt>
<totfact> 0.50092696E+03</totfact>
</mgrwt>
</event>
<event>
 4    1  0.1710914E-004  0.2568072E+03  0.7818608E-02  0.1109077E+00
         -1   -1    0    0    0  501 -0.00000000000E+00  0.00000000000E+00  0.26476507827E+02  0.26476507827E+02  0.00000000000E+00 0. -1.
          1   -1    0    0  501    0  0.00000000000E+00 -0.00000000000E+00 -0.62272140114E+03  0.62272140114E+03  0.00000000000E+00 0. -1.
         25    1    1    2    0    0 -0.42366554709E+02 -0.97416084798E+01 -0.33366378951E+03  0.35724130266E+03  0.12000000000E+03 0.  0.
         25    1    1    2    0    0  0.42366554709E+02  0.97416084798E+01 -0.26258110380E+03  0.29195660631E+03  0.12000000000E+03 0.  0.
<mgrwt>
<rscale>  0 0.25680723E+03</rscale>
<asrwt>0</asrwt>
<pdfrwt beam="1">  1        1 0.95803280E-01 0.25680723E+03</pdfrwt>
<pdfrwt beam="2">  1       -1 0.40733094E-02 0.25680723E+03</pdfrwt>
<totfact> 0.79352258E+03</totfact>
</mgrwt>
</event>
<event>
 4    1  0.1710914E-004  0.2717995E+03  0.7818608E-02  0.1100254E+00
         -1   -1    0    0    0  501 -0.00000000000E+00  0.00000000000E+00  0.77363751201E+03  0.77363751201E+03  0.00000000000E+00 0.  1.
          1   -1    0    0  501    0  0.00000000000E+00 -0.00000000000E+00 -0.23872606718E+02  0.23872606718E+02  0.00000000000E+00 0.  1.
         25    1    1    2    0    0  0.50382886929E+02 -0.36565264768E+02  0.33408881588E+03  0.36040364978E+03  0.12000000000E+03 0.  0.
         25    1    1    2    0    0 -0.50382886929E+02  0.36565264768E+02  0.41567608941E+03  0.43710646894E+03  0.12000000000E+03 0.  0.
<mgrwt>
<rscale>  0 0.27179951E+03</rscale>
<asrwt>0</asrwt>
<pdfrwt beam="1">  1        1 0.36727093E-02 0.27179951E+03</pdfrwt>
<pdfrwt beam="2">  1       -1 0.11902114E+00 0.27179951E+03</pdfrwt>
<totfact> 0.17270392E+03</totfact>
</mgrwt>
</event>
<event>
 4    1  0.1710914E-004  0.2851522E+03  0.7818608E-02  0.1092908E+00
         -2   -1    0    0    0  501 -0.00000000000E+00  0.00000000000E+00  0.10623567009E+03  0.10623567009E+03  0.00000000000E+00 0. -1.
          2   -1    0    0  501    0  0.00000000000E+00 -0.00000000000E+00 -0.19134763975E+03  0.19134763975E+03  0.00000000000E+00 0. -1.
         25    1    1    2    0    0 -0.23540849323E+01  0.67808918496E+02 -0.45778340441E+01  0.13792950267E+03  0.12000000000E+03 0.  0.
         25    1    1    2    0    0  0.23540849323E+01 -0.67808918496E+02 -0.80534135611E+02  0.15965380716E+03  0.12000000000E+03 0.  0.
<mgrwt>
<rscale>  0 0.28515220E+03</rscale>
<asrwt>0</asrwt>
<pdfrwt beam="1">  1        2 0.29438098E-01 0.28515220E+03</pdfrwt>
<pdfrwt beam="2">  1       -2 0.16343950E-01 0.28515220E+03</pdfrwt>
<totfact> 0.52824708E+03</totfact>
</mgrwt>
</event>
<event>
 4    1  0.1710914E-004  0.2914540E+03  0.7818608E-02  0.1089592E+00
          1   -1    0    0  501    0  0.00000000000E+00  0.00000000000E+00  0.14455705895E+03  0.14455705895E+03  0.00000000000E+00 0.  1.
         -1   -1    0    0    0  501 -0.00000000000E+00 -0.00000000000E+00 -0.14690645560E+03  0.14690645560E+03  0.00000000000E+00 0.  1.
         25    1    1    2    0    0 -0.56726889425E+02  0.55697268307E+02  0.21546943920E+02  0.14554860519E+03  0.12000000000E+03 0.  0.
         25    1    1    2    0    0  0.56726889425E+02 -0.55697268307E+02 -0.23896340574E+02  0.14591490936E+03  0.12000000000E+03 0.  0.
<mgrwt>
<rscale>  0 0.29145405E+03</rscale>
<asrwt>0</asrwt>
<pdfrwt beam="1">  1        1 0.22239548E-01 0.29145405E+03</pdfrwt>
<pdfrwt beam="2">  1       -1 0.22600993E-01 0.29145405E+03</pdfrwt>
<totfact> 0.36548657E+03</totfact>
</mgrwt>
</event>
<event>
 4    1  0.1710914E-004  0.2593877E+03  0.7818608E-02  0.1107512E+00
          4   -1    0    0  501    0  0.00000000000E+00  0.00000000000E+00  0.18615034913E+03  0.18615034913E+03  0.00000000000E+00 0. -1.
         -4   -1    0    0    0  501 -0.00000000000E+00 -0.00000000000E+00 -0.90359739599E+02  0.90359739599E+02  0.00000000000E+00 0. -1.
         25    1    1    2    0    0 -0.40030641263E+02 -0.27979867135E+02  0.54217374651E+02  0.14044518119E+03  0.12000000000E+03 0.  0.
         25    1    1    2    0    0  0.40030641263E+02  0.27979867135E+02  0.41573234875E+02  0.13606490754E+03  0.12000000000E+03 0.  0.
<mgrwt>
<rscale>  0 0.25938772E+03</rscale>
<asrwt>0</asrwt>
<pdfrwt beam="1">  1        4 0.28638515E-01 0.25938772E+03</pdfrwt>
<pdfrwt beam="2">  1       -4 0.13901498E-01 0.25938772E+03</pdfrwt>
<totfact> 0.93029824E+02</totfact>
</mgrwt>
</event>
<event>
 4    1  0.1710914E-004  0.2478536E+03  0.7818608E-02  0.1114669E+00
          1   -1    0    0  501    0  0.00000000000E+00  0.00000000000E+00  0.14663342955E+04  0.14663342955E+04  0.00000000000E+00 0.  1.
         -1   -1    0    0    0  501 -0.00000000000E+00 -0.00000000000E+00 -0.10473634908E+02  0.10473634908E+02  0.00000000000E+00 0.  1.
         25    1    1    2    0    0 -0.32753041308E+01 -0.17704853792E+02  0.57794210715E+03  0.59054319798E+03  0.12000000000E+03 0.  0.
         25    1    1    2    0    0  0.32753041308E+01  0.17704853792E+02  0.87791855347E+03  0.88626473245E+03  0.12000000000E+03 0.  0.
<mgrwt>
<rscale>  0 0.24785359E+03</rscale>
<asrwt>0</asrwt>
<pdfrwt beam="1">  1        1 0.22558973E+00 0.24785359E+03</pdfrwt>
<pdfrwt beam="2">  1       -1 0.16113296E-02 0.24785359E+03</pdfrwt>
<totfact> 0.70694438E+03</totfact>
</mgrwt>
</event>
<event>
 4    1  0.1710914E-004  0.2908773E+03  0.7818608E-02  0.1089892E+00
          2   -1    0    0  501    0  0.00000000000E+00  0.00000000000E+00  0.54821091017E+03  0.54821091017E+03  0.00000000000E+00 0.  1.
         -2   -1    0    0    0  501 -0.00000000000E+00 -0.00000000000E+00 -0.38584424417E+02  0.38584424417E+02  0.00000000000E+00 0.  1.
         25    1    1    2    0    0 -0.53676680983E+02  0.62130316839E+02  0.24811034125E+03  0.28757625734E+03  0.12000000000E+03 0.  0.
         25    1    1    2    0    0  0.53676680983E+02 -0.62130316839E+02  0.26151614450E+03  0.29921907724E+03  0.12000000000E+03 0.  0.
<mgrwt>
<rscale>  0 0.29087731E+03</rscale>
<asrwt>0</asrwt>
<pdfrwt beam="1">  1        2 0.84340134E-01 0.29087731E+03</pdfrwt>
<pdfrwt beam="2">  1       -2 0.59360657E-02 0.29087731E+03</pdfrwt>
<totfact> 0.84114769E+03</totfact>
</mgrwt>
</event>
<event>
 4    1  0.1710914E-004  0.2532464E+03  0.7818608E-02  0.1111270E+00
         -1   -1    0    0    0  501 -0.00000000000E+00  0.00000000000E+00  0.11041047556E+02  0.11041047556E+02  0.00000000000E+00 0. -1.
          1   -1    0    0  501    0  0.00000000000E+00 -0.00000000000E+00 -0.14521665635E+04  0.14521665635E+04  0.00000000000E+00 0. -1.
         25    1    1    2    0    0 -0.38107798749E+01  0.35484291582E+02 -0.61096971766E+03  0.62366469588E+03  0.12000000000E+03 0.  0.
         25    1    1    2    0    0  0.38107798749E+01 -0.35484291582E+02 -0.83015579827E+03  0.83954291516E+03  0.12000000000E+03 0.  0.
<mgrwt>
<rscale>  0 0.25324644E+03</rscale>
<asrwt>0</asrwt>
<pdfrwt beam="1">  1        1 0.22341019E+00 0.25324644E+03</pdfrwt>
<pdfrwt beam="2">  1       -1 0.16986231E-02 0.25324644E+03</pdfrwt>
<totfact> 0.66933575E+03</totfact>
</mgrwt>
</event>
<event>
 4    1  0.1710914E-004  0.3062649E+03  0.7818608E-02  0.1082150E+00
         -2   -1    0    0    0  501 -0.00000000000E+00  0.00000000000E+00  0.23810591703E+03  0.23810591703E+03  0.00000000000E+00 0. -1.
          2   -1    0    0  501    0  0.00000000000E+00 -0.00000000000E+00 -0.98483709320E+02  0.98483709320E+02  0.00000000000E+00 0. -1.
         25    1    1    2    0    0 -0.33412873754E+02 -0.38426160607E+02 -0.18497733614E+02  0.13166303999E+03  0.12000000000E+03 0.  0.
         25    1    1    2    0    0  0.33412873754E+02  0.38426160607E+02  0.15811994133E+03  0.20492658636E+03  0.12000000000E+03 0.  0.
<mgrwt>
<rscale>  0 0.30626494E+03</rscale>
<asrwt>0</asrwt>
<pdfrwt beam="1">  1        2 0.15151340E-01 0.30626494E+03</pdfrwt>
<pdfrwt beam="2">  1       -2 0.36631679E-01 0.30626494E+03</pdfrwt>
<totfact> 0.27148830E+03</totfact>
</mgrwt>
</event>
<event>
 4    1  0.1710914E-004  0.3107058E+03  0.7818608E-02  0.1080008E+00
          2   -1    0    0  501    0  0.00000000000E+00  0.00000000000E+00  0.39056092061E+03  0.39056092061E+03  0.00000000000E+00 0.  1.
         -2   -1    0    0    0  501 -0.00000000000E+00 -0.00000000000E+00 -0.61794499095E+02  0.61794499095E+02  0.00000000000E+00 0.  1.
         25    1    1    2    0    0  0.32693073651E+02 -0.92892220788E+02  0.15556154619E+03  0.21976623125E+03  0.12000000000E+03 0.  0.
         25    1    1    2    0    0 -0.32693073651E+02  0.92892220788E+02  0.17320487533E+03  0.23258918846E+03  0.12000000000E+03 0.  0.
<mgrwt>
<rscale>  0 0.31070575E+03</rscale>
<asrwt>0</asrwt>
<pdfrwt beam="1">  1        2 0.60086294E-01 0.31070575E+03</pdfrwt>
<pdfrwt beam="2">  1       -2 0.95068463E-02 0.31070575E+03</pdfrwt>
<totfact> 0.58920917E+03</totfact>
</mgrwt>
</event>
<event>
 4    1  0.1710914E-004  0.6793192E+03  0.7818608E-02  0.9753268E-01
          2   -1    0    0  501    0  0.00000000000E+00  0.00000000000E+00  0.10060977502E+04  0.10060977502E+04  0.00000000000E+00 0. -1.
         -2   -1    0    0    0  501 -0.00000000000E+00 -0.00000000000E+00 -0.11466941911E+03  0.11466941911E+03  0.00000000000E+00 0. -1.
         25    1    1    2    0    0  0.27866933474E+03 -0.54254297571E+02  0.21025195239E+03  0.37310321683E+03  0.12000000000E+03 0.  0.
         25    1    1    2    0    0 -0.27866933474E+03  0.54254297571E+02  0.68117637866E+03  0.74766395243E+03  0.12000000000E+03 0.  0.
<mgrwt>
<rscale>  0 0.67931920E+03</rscale>
<asrwt>0</asrwt>
<pdfrwt beam="1">  1        2 0.15478426E+00 0.67931920E+03</pdfrwt>
<pdfrwt beam="2">  1       -2 0.17641450E-01 0.67931920E+03</pdfrwt>
<totfact> 0.66765822E+02</totfact>
</mgrwt>
</event>
<event>
 4    1  0.1710914E-004  0.2491594E+03  0.7818608E-02  0.1113837E+00
         -2   -1    0    0    0  501 -0.00000000000E+00  0.00000000000E+00  0.11487619738E+02  0.11487619738E+02  0.00000000000E+00 0. -1.
          2   -1    0    0  501    0  0.00000000000E+00 -0.00000000000E+00 -0.13510280872E+04  0.13510280872E+04  0.00000000000E+00 0. -1.
         25    1    1    2    0    0  0.31592452485E+01 -0.30743024063E+02 -0.74001004379E+03  0.75031325409E+03  0.12000000000E+03 0.  0.
         25    1    1    2    0    0 -0.31592452485E+01  0.30743024063E+02 -0.59953042369E+03  0.61220245286E+03  0.12000000000E+03 0.  0.
<mgrwt>
<rscale>  0 0.24915936E+03</rscale>
<asrwt>0</asrwt>
<pdfrwt beam="1">  1        2 0.20785038E+00 0.24915936E+03</pdfrwt>
<pdfrwt beam="2">  1       -2 0.17673269E-02 0.24915936E+03</pdfrwt>
<totfact> 0.15181703E+04</totfact>
</mgrwt>
</event>
<event>
 4    1  0.1710914E-004  0.3075030E+03  0.7818608E-02  0.1081549E+00
          1   -1    0    0  501    0  0.00000000000E+00  0.00000000000E+00  0.14981423588E+04  0.14981423588E+04  0.00000000000E+00 0.  1.
         -1   -1    0    0    0  501 -0.00000000000E+00 -0.00000000000E+00 -0.15779223450E+02  0.15779223450E+02  0.00000000000E+00 0.  1.
         25    1    1    2    0    0 -0.74728161180E+02 -0.59731135801E+02  0.78721257149E+03  0.80203225581E+03  0.12000000000E+03 0.  0.
         25    1    1    2    0    0  0.74728161180E+02  0.59731135801E+02  0.69515056391E+03  0.71188932649E+03  0.12000000000E+03 0.  0.
<mgrwt>
<rscale>  0 0.30750300E+03</rscale>
<asrwt>0</asrwt>
<pdfrwt beam="1">  1        1 0.23048333E+00 0.30750300E+03</pdfrwt>
<pdfrwt beam="2">  1       -1 0.24275740E-02 0.30750300E+03</pdfrwt>
<totfact> 0.37050512E+03</totfact>
</mgrwt>
</event>
<event>
 4    1  0.1710914E-004  0.2684643E+03  0.7818608E-02  0.1102162E+00
          1   -1    0    0  501    0  0.00000000000E+00  0.00000000000E+00  0.52004726526E+03  0.52004726526E+03  0.00000000000E+00 0. -1.
         -1   -1    0    0    0  501 -0.00000000000E+00 -0.00000000000E+00 -0.34647360801E+02  0.34647360801E+02  0.00000000000E+00 0. -1.
         25    1    1    2    0    0 -0.71074391509E+01  0.30658673373E+02  0.34861635923E+03  0.37003220923E+03  0.12000000000E+03 0.  0.
         25    1    1    2    0    0  0.71074391509E+01 -0.30658673373E+02  0.13678354522E+03  0.18466241683E+03  0.12000000000E+03 0.  0.
<mgrwt>
<rscale>  0 0.26846426E+03</rscale>
<asrwt>0</asrwt>
<pdfrwt beam="1">  1        1 0.80007266E-01 0.26846426E+03</pdfrwt>
<pdfrwt beam="2">  1       -1 0.53303636E-02 0.26846426E+03</pdfrwt>
<totfact> 0.68052095E+03</totfact>
</mgrwt>
</event>
<event>
 4    1  0.1710914E-004  0.3464798E+03  0.7818608E-02  0.1064069E+00
          1   -1    0    0  501    0  0.00000000000E+00  0.00000000000E+00  0.22775421542E+04  0.22775421542E+04  0.00000000000E+00 0.  1.
         -1   -1    0    0    0  501 -0.00000000000E+00 -0.00000000000E+00 -0.13177390710E+02  0.13177390710E+02  0.00000000000E+00 0.  1.
         25    1    1    2    0    0  0.50811547322E+02 -0.19414062137E+02  0.38848431213E+03  0.41021796635E+03  0.12000000000E+03 0.  0.
         25    1    1    2    0    0 -0.50811547322E+02  0.19414062137E+02  0.18758804514E+04  0.18805015786E+04  0.12000000000E+03 0.  0.
<mgrwt>
<rscale>  0 0.34647980E+03</rscale>
<asrwt>0</asrwt>
<pdfrwt beam="1">  1        1 0.35039079E+00 0.34647980E+03</pdfrwt>
<pdfrwt beam="2">  1       -1 0.20272927E-02 0.34647980E+03</pdfrwt>
<totfact> 0.14863384E+03</totfact>
</mgrwt>
</event>
<event>
 4    1  0.1710914E-004  0.3369183E+03  0.7818608E-02  0.1068116E+00
          2   -1    0    0  501    0  0.00000000000E+00  0.00000000000E+00  0.20292526355E+03  0.20292526355E+03  0.00000000000E+00 0. -1.
         -2   -1    0    0    0  501 -0.00000000000E+00 -0.00000000000E+00 -0.13984697064E+03  0.13984697064E+03  0.00000000000E+00 0. -1.
         25    1    1    2    0    0 -0.80697457350E+01  0.22101560011E+02 -0.86339818389E+02  0.14969356696E+03  0.12000000000E+03 0.  0.
         25    1    1    2    0    0  0.80697457350E+01 -0.22101560011E+02  0.14941811131E+03  0.19307866723E+03  0.12000000000E+03 0.  0.
<mgrwt>
<rscale>  0 0.33691829E+03</rscale>
<asrwt>0</asrwt>
<pdfrwt beam="1">  1        2 0.31219271E-01 0.33691829E+03</pdfrwt>
<pdfrwt beam="2">  1       -2 0.21514918E-01 0.33691829E+03</pdfrwt>
<totfact> 0.31157439E+03</totfact>
</mgrwt>
</event>
<event>
 4    1  0.1710914E-004  0.2410701E+03  0.7818608E-02  0.1119082E+00
          1   -1    0    0  501    0  0.00000000000E+00  0.00000000000E+00  0.46887925727E+03  0.46887925727E+03  0.00000000000E+00 0.  1.
         -1   -1    0    0    0  501 -0.00000000000E+00 -0.00000000000E+00 -0.30986017925E+02  0.30986017925E+02  0.00000000000E+00 0.  1.
         25    1    1    2    0    0 -0.14161440592E+01  0.10803411323E+02  0.22549775257E+03  0.25567157757E+03  0.12000000000E+03 0.  0.
         25    1    1    2    0    0  0.14161440592E+01 -0.10803411323E+02  0.21239548678E+03  0.24419369763E+03  0.12000000000E+03 0.  0.
<mgrwt>
<rscale>  0 0.24107012E+03</rscale>
<asrwt>0</asrwt>
<pdfrwt beam="1">  1        1 0.72135265E-01 0.24107012E+03</pdfrwt>
<pdfrwt beam="2">  1       -1 0.47670800E-02 0.24107012E+03</pdfrwt>
<totfact> 0.91869358E+03</totfact>
</mgrwt>
</event>
<event>
 4    1  0.1710914E-004  0.2576949E+03  0.7818608E-02  0.1108536E+00
         -3   -1    0    0    0  501 -0.00000000000E+00  0.00000000000E+00  0.26573214490E+04  0.26573214490E+04  0.00000000000E+00 0. -1.
          3   -1    0    0  501    0  0.00000000000E+00 -0.00000000000E+00 -0.62475165104E+01  0.62475165104E+01  0.00000000000E+00 0. -1.
         25    1    1    2    0    0 -0.14094446849E+01  0.44207814977E+02  0.14874360212E+04  0.14929240552E+04  0.12000000000E+03 0.  0.
         25    1    1    2    0    0  0.14094446849E+01 -0.44207814977E+02  0.11636379113E+04  0.11706449103E+04  0.12000000000E+03 0.  0.
<mgrwt>
<rscale>  0 0.25769486E+03</rscale>
<asrwt>0</asrwt>
<pdfrwt beam="1">  1        3 0.96115851E-03 0.25769486E+03</pdfrwt>
<pdfrwt beam="2">  1       -3 0.40881778E+00 0.25769486E+03</pdfrwt>
<totfact> 0.84541775E+01</totfact>
</mgrwt>
</event>
<event>
 4    1  0.1710914E-004  0.2694067E+03  0.7818608E-02  0.1101620E+00
         -4   -1    0    0    0  501 -0.00000000000E+00  0.00000000000E+00  0.83689152805E+03  0.83689152805E+03  0.00000000000E+00 0. -1.
          4   -1    0    0  501    0  0.00000000000E+00 -0.00000000000E+00 -0.21681410145E+02  0.21681410145E+02  0.00000000000E+00 0. -1.
         25    1    1    2    0    0 -0.46843834334E+02  0.37320622714E-01  0.53309954936E+03  0.54844277344E+03  0.12000000000E+03 0.  0.
         25    1    1    2    0    0  0.46843834334E+02 -0.37320622714E-01  0.28211056854E+03  0.31013016475E+03  0.12000000000E+03 0.  0.
<mgrwt>
<rscale>  0 0.26940667E+03</rscale>
<asrwt>0</asrwt>
<pdfrwt beam="1">  1        4 0.33356022E-02 0.26940667E+03</pdfrwt>
<pdfrwt beam="2">  1       -4 0.12875252E+00 0.26940667E+03</pdfrwt>
<totfact> 0.39652921E+02</totfact>
</mgrwt>
</event>
<event>
 4    1  0.1710914E-004  0.2501072E+03  0.7818608E-02  0.1113237E+00
          1   -1    0    0  501    0  0.00000000000E+00  0.00000000000E+00  0.42457601255E+02  0.42457601255E+02  0.00000000000E+00 0. -1.
         -1   -1    0    0    0  501 -0.00000000000E+00 -0.00000000000E+00 -0.36832984581E+03  0.36832984581E+03  0.00000000000E+00 0. -1.
         25    1    1    2    0    0  0.13283407542E+02 -0.30554060054E+02 -0.14432479889E+03  0.19062960703E+03  0.12000000000E+03 0.  0.
         25    1    1    2    0    0 -0.13283407542E+02  0.30554060054E+02 -0.18154744567E+03  0.22015784004E+03  0.12000000000E+03 0.  0.
<mgrwt>
<rscale>  0 0.25010719E+03</rscale>
<asrwt>0</asrwt>
<pdfrwt beam="1">  1        1 0.65319386E-02 0.25010719E+03</pdfrwt>
<pdfrwt beam="2">  1       -1 0.56666130E-01 0.25010719E+03</pdfrwt>
<totfact> 0.36980039E+03</totfact>
</mgrwt>
</event>
<event>
 4    1  0.1710914E-004  0.3839317E+03  0.7818608E-02  0.1049490E+00
          1   -1    0    0  501    0  0.00000000000E+00  0.00000000000E+00  0.32566766889E+04  0.32566766889E+04  0.00000000000E+00 0. -1.
         -1   -1    0    0    0  501 -0.00000000000E+00 -0.00000000000E+00 -0.11315487653E+02  0.11315487653E+02  0.00000000000E+00 0. -1.
         25    1    1    2    0    0 -0.85371250652E+02  0.88879418996E+02  0.23480973265E+04  0.23543892746E+04  0.12000000000E+03 0.  0.
         25    1    1    2    0    0  0.85371250652E+02 -0.88879418996E+02  0.89726387472E+03  0.91360290194E+03  0.12000000000E+03 0.  0.
<mgrwt>
<rscale>  0 0.38393169E+03</rscale>
<asrwt>0</asrwt>
<pdfrwt beam="1">  1        1 0.50102644E+00 0.38393169E+03</pdfrwt>
<pdfrwt beam="2">  1       -1 0.17408468E-02 0.38393169E+03</pdfrwt>
<totfact> 0.39123501E+02</totfact>
</mgrwt>
</event>
<event>
 4    1  0.1710914E-004  0.2549657E+03  0.7818608E-02  0.1110206E+00
          2   -1    0    0  501    0  0.00000000000E+00  0.00000000000E+00  0.27976894159E+03  0.27976894159E+03  0.00000000000E+00 0.  1.
         -2   -1    0    0    0  501 -0.00000000000E+00 -0.00000000000E+00 -0.58090336965E+02  0.58090336965E+02  0.00000000000E+00 0.  1.
         25    1    1    2    0    0 -0.34342116054E+02 -0.25878870515E+02  0.11304681121E+03  0.17037804553E+03  0.12000000000E+03 0.  0.
         25    1    1    2    0    0  0.34342116054E+02  0.25878870515E+02  0.10863179341E+03  0.16748123302E+03  0.12000000000E+03 0.  0.
<mgrwt>
<rscale>  0 0.25496566E+03</rscale>
<asrwt>0</asrwt>
<pdfrwt beam="1">  1        2 0.43041375E-01 0.25496566E+03</pdfrwt>
<pdfrwt beam="2">  1       -2 0.89369751E-02 0.25496566E+03</pdfrwt>
<totfact> 0.92464368E+03</totfact>
</mgrwt>
</event>
<event>
 4    1  0.1710914E-004  0.3348937E+03  0.7818608E-02  0.1068992E+00
          2   -1    0    0  501    0  0.00000000000E+00  0.00000000000E+00  0.22431496158E+04  0.22431496158E+04  0.00000000000E+00 0.  1.
         -2   -1    0    0    0  501 -0.00000000000E+00 -0.00000000000E+00 -0.12499590640E+02  0.12499590640E+02  0.00000000000E+00 0.  1.
         25    1    1    2    0    0 -0.98804941552E+02  0.41030539097E+02  0.14307073396E+04  0.14397115730E+04  0.12000000000E+03 0.  0.
         25    1    1    2    0    0  0.98804941552E+02 -0.41030539097E+02  0.79994268553E+03  0.81593763349E+03  0.12000000000E+03 0.  0.
<mgrwt>
<rscale>  0 0.33489373E+03</rscale>
<asrwt>0</asrwt>
<pdfrwt beam="1">  1        2 0.34509962E+00 0.33489373E+03</pdfrwt>
<pdfrwt beam="2">  1       -2 0.19230157E-02 0.33489373E+03</pdfrwt>
<totfact> 0.45161626E+03</totfact>
</mgrwt>
</event>
<event>
 4    1  0.1710914E-004  0.3068500E+03  0.7818608E-02  0.1081866E+00
          2   -1    0    0  501    0  0.00000000000E+00  0.00000000000E+00  0.15154299874E+03  0.15154299874E+03  0.00000000000E+00 0. -1.
         -2   -1    0    0    0  501 -0.00000000000E+00 -0.00000000000E+00 -0.15533038068E+03  0.15533038068E+03  0.00000000000E+00 0. -1.
         25    1    1    2    0    0 -0.21758595234E+02 -0.51771843550E+02  0.75478030511E+02  0.15248178036E+03  0.12000000000E+03 0.  0.
         25    1    1    2    0    0  0.21758595234E+02  0.51771843550E+02 -0.79265412444E+02  0.15439159906E+03  0.12000000000E+03 0.  0.
<mgrwt>
<rscale>  0 0.30685001E+03</rscale>
<asrwt>0</asrwt>
<pdfrwt beam="1">  1        2 0.23314308E-01 0.30685001E+03</pdfrwt>
<pdfrwt beam="2">  1       -2 0.23896981E-01 0.30685001E+03</pdfrwt>
<totfact> 0.35831942E+03</totfact>
</mgrwt>
</event>
<event>
 4    1  0.1710914E-004  0.2485825E+03  0.7818608E-02  0.1114204E+00
          2   -1    0    0  501    0  0.00000000000E+00  0.00000000000E+00  0.30548162448E+03  0.30548162448E+03  0.00000000000E+00 0. -1.
         -2   -1    0    0    0  501 -0.00000000000E+00 -0.00000000000E+00 -0.50570363544E+02  0.50570363544E+02  0.00000000000E+00 0. -1.
         25    1    1    2    0    0 -0.12200004530E+02  0.29912365986E+02  0.13056977118E+03  0.18025552667E+03  0.12000000000E+03 0.  0.
         25    1    1    2    0    0  0.12200004530E+02 -0.29912365986E+02  0.12434148976E+03  0.17579646136E+03  0.12000000000E+03 0.  0.
<mgrwt>
<rscale>  0 0.24858252E+03</rscale>
<asrwt>0</asrwt>
<pdfrwt beam="1">  1        2 0.46997172E-01 0.24858252E+03</pdfrwt>
<pdfrwt beam="2">  1       -2 0.77800561E-02 0.24858252E+03</pdfrwt>
<totfact> 0.10439576E+04</totfact>
</mgrwt>
</event>
<event>
 4    1  0.1710914E-004  0.2424046E+03  0.7818608E-02  0.1118201E+00
          2   -1    0    0  501    0  0.00000000000E+00  0.00000000000E+00  0.19300788746E+03  0.19300788746E+03  0.00000000000E+00 0. -1.
         -2   -1    0    0    0  501 -0.00000000000E+00 -0.00000000000E+00 -0.76110854032E+02  0.76110854032E+02  0.00000000000E+00 0. -1.
         25    1    1    2    0    0  0.12763284427E+02  0.10495207803E+02  0.53878525529E+02  0.13257430494E+03  0.12000000000E+03 0.  0.
         25    1    1    2    0    0 -0.12763284427E+02 -0.10495207803E+02  0.63018507895E+02  0.13654443655E+03  0.12000000000E+03 0.  0.
<mgrwt>
<rscale>  0 0.24240458E+03</rscale>
<asrwt>0</asrwt>
<pdfrwt beam="1">  1        2 0.29693521E-01 0.24240458E+03</pdfrwt>
<pdfrwt beam="2">  1       -2 0.11709362E-01 0.24240458E+03</pdfrwt>
<totfact> 0.89745338E+03</totfact>
</mgrwt>
</event>
<event>
 4    1  0.1710914E-004  0.2716228E+03  0.7818608E-02  0.1100354E+00
         -2   -1    0    0    0  501 -0.00000000000E+00  0.00000000000E+00  0.10630657847E+03  0.10630657847E+03  0.00000000000E+00 0. -1.
          2   -1    0    0  501    0  0.00000000000E+00 -0.00000000000E+00 -0.17350515022E+03  0.17350515022E+03  0.00000000000E+00 0. -1.
         25    1    1    2    0    0 -0.23121579966E+02 -0.12051423643E+01 -0.94619184889E+02  0.15456018238E+03  0.12000000000E+03 0.  0.
         25    1    1    2    0    0  0.23121579966E+02  0.12051423643E+01  0.27420613145E+02  0.12525154631E+03  0.12000000000E+03 0.  0.
<mgrwt>
<rscale>  0 0.27162282E+03</rscale>
<asrwt>0</asrwt>
<pdfrwt beam="1">  1        2 0.26693100E-01 0.27162282E+03</pdfrwt>
<pdfrwt beam="2">  1       -2 0.16354858E-01 0.27162282E+03</pdfrwt>
<totfact> 0.58692867E+03</totfact>
</mgrwt>
</event>
<event>
 4    1  0.1710914E-004  0.2905496E+03  0.7818608E-02  0.1090063E+00
          3   -1    0    0  501    0  0.00000000000E+00  0.00000000000E+00  0.54976161850E+03  0.54976161850E+03  0.00000000000E+00 0.  1.
         -3   -1    0    0    0  501 -0.00000000000E+00 -0.00000000000E+00 -0.38388949714E+02  0.38388949714E+02  0.00000000000E+00 0.  1.
         25    1    1    2    0    0  0.11647795953E+02  0.53398940406E+02  0.37911119219E+03  0.40138810898E+03  0.12000000000E+03 0.  0.
         25    1    1    2    0    0 -0.11647795953E+02 -0.53398940406E+02  0.13226147659E+03  0.18676245923E+03  0.12000000000E+03 0.  0.
<mgrwt>
<rscale>  0 0.29054962E+03</rscale>
<asrwt>0</asrwt>
<pdfrwt beam="1">  1        3 0.84578704E-01 0.29054962E+03</pdfrwt>
<pdfrwt beam="2">  1       -3 0.59059927E-02 0.29054962E+03</pdfrwt>
<totfact> 0.58855179E+02</totfact>
</mgrwt>
</event>
<event>
 4    1  0.1710914E-004  0.3166966E+03  0.7818608E-02  0.1077180E+00
         -1   -1    0    0    0  501 -0.00000000000E+00  0.00000000000E+00  0.38151980672E+02  0.38151980672E+02  0.00000000000E+00 0.  1.
          1   -1    0    0  501    0  0.00000000000E+00 -0.00000000000E+00 -0.65721861549E+03  0.65721861549E+03  0.00000000000E+00 0.  1.
         25    1    1    2    0    0  0.65424854847E+02  0.55860020785E+02 -0.43515798856E+03  0.45952500319E+03  0.12000000000E+03 0.  0.
         25    1    1    2    0    0 -0.65424854847E+02 -0.55860020785E+02 -0.18390864626E+03  0.23584559297E+03  0.12000000000E+03 0.  0.
<mgrwt>
<rscale>  0 0.31669665E+03</rscale>
<asrwt>0</asrwt>
<pdfrwt beam="1">  1        1 0.10111055E+00 0.31669665E+03</pdfrwt>
<pdfrwt beam="2">  1       -1 0.58695359E-02 0.31669665E+03</pdfrwt>
<totfact> 0.42742723E+03</totfact>
</mgrwt>
</event>
<event>
 4    1  0.1710914E-004  0.4103861E+03  0.7818608E-02  0.1040242E+00
          3   -1    0    0  501    0  0.00000000000E+00  0.00000000000E+00  0.23790191835E+04  0.23790191835E+04  0.00000000000E+00 0. -1.
         -3   -1    0    0    0  501 -0.00000000000E+00 -0.00000000000E+00 -0.17698129901E+02  0.17698129901E+02  0.00000000000E+00 0. -1.
         25    1    1    2    0    0 -0.11368599688E+03 -0.76551186918E+02  0.17322257256E+04  0.17417779866E+04  0.12000000000E+03 0.  0.
         25    1    1    2    0    0  0.11368599688E+03  0.76551186918E+02  0.62909532797E+03  0.65493932679E+03  0.12000000000E+03 0.  0.
<mgrwt>
<rscale>  0 0.41038611E+03</rscale>
<asrwt>0</asrwt>
<pdfrwt beam="1">  1        3 0.36600270E+00 0.41038611E+03</pdfrwt>
<pdfrwt beam="2">  1       -3 0.27227911E-02 0.41038611E+03</pdfrwt>
<totfact> 0.30113354E+01</totfact>
</mgrwt>
</event>
<event>
 4    1  0.1710914E-004  0.3165959E+03  0.7818608E-02  0.1077227E+00
         -2   -1    0    0    0  501 -0.00000000000E+00  0.00000000000E+00  0.17840154331E+02  0.17840154331E+02  0.00000000000E+00 0. -1.
          2   -1    0    0  501    0  0.00000000000E+00 -0.00000000000E+00 -0.14045976238E+04  0.14045976238E+04  0.00000000000E+00 0. -1.
         25    1    1    2    0    0  0.31987993541E+02 -0.38471482209E+02 -0.10991102202E+04  0.11067730403E+04  0.12000000000E+03 0.  0.
         25    1    1    2    0    0 -0.31987993541E+02  0.38471482209E+02 -0.28764724928E+03  0.31566473781E+03  0.12000000000E+03 0.  0.
<mgrwt>
<rscale>  0 0.31659588E+03</rscale>
<asrwt>0</asrwt>
<pdfrwt beam="1">  1        2 0.21609194E+00 0.31659588E+03</pdfrwt>
<pdfrwt beam="2">  1       -2 0.27446392E-02 0.31659588E+03</pdfrwt>
<totfact> 0.74510736E+03</totfact>
</mgrwt>
</event>
<event>
 4    1  0.1710914E-004  0.2974141E+03  0.7818608E-02  0.1086540E+00
          2   -1    0    0  501    0  0.00000000000E+00  0.00000000000E+00  0.36381021072E+03  0.36381021072E+03  0.00000000000E+00 0.  1.
         -2   -1    0    0    0  501 -0.00000000000E+00 -0.00000000000E+00 -0.60783837334E+02  0.60783837334E+02  0.00000000000E+00 0.  1.
         25    1    1    2    0    0  0.57873163454E+02 -0.65701423078E+02  0.16138346049E+03  0.21934128969E+03  0.12000000000E+03 0.  0.
         25    1    1    2    0    0 -0.57873163454E+02  0.65701423078E+02  0.14164291289E+03  0.20525275836E+03  0.12000000000E+03 0.  0.
<mgrwt>
<rscale>  0 0.29741406E+03</rscale>
<asrwt>0</asrwt>
<pdfrwt beam="1">  1        2 0.55970800E-01 0.29741406E+03</pdfrwt>
<pdfrwt beam="2">  1       -2 0.93513598E-02 0.29741406E+03</pdfrwt>
<totfact> 0.65243880E+03</totfact>
</mgrwt>
</event>
<event>
 4    1  0.1710914E-004  0.3255859E+03  0.7818608E-02  0.1073107E+00
          2   -1    0    0  501    0  0.00000000000E+00  0.00000000000E+00  0.25680772303E+03  0.25680772303E+03  0.00000000000E+00 0. -1.
         -2   -1    0    0    0  501 -0.00000000000E+00 -0.00000000000E+00 -0.10319608112E+03  0.10319608112E+03  0.00000000000E+00 0. -1.
         25    1    1    2    0    0  0.46167004124E+02  0.48593167895E+02 -0.19643975672E+02  0.13884730468E+03  0.12000000000E+03 0.  0.
         25    1    1    2    0    0 -0.46167004124E+02 -0.48593167895E+02  0.17325561758E+03  0.22115649947E+03  0.12000000000E+03 0.  0.
<mgrwt>
<rscale>  0 0.32558594E+03</rscale>
<asrwt>0</asrwt>
<pdfrwt beam="1">  1        2 0.39508880E-01 0.32558594E+03</pdfrwt>
<pdfrwt beam="2">  1       -2 0.15876320E-01 0.32558594E+03</pdfrwt>
<totfact> 0.40362793E+03</totfact>
</mgrwt>
</event>
<event>
 4    1  0.1710914E-004  0.2770068E+03  0.7818608E-02  0.1097335E+00
          1   -1    0    0  501    0  0.00000000000E+00  0.00000000000E+00  0.12134382312E+04  0.12134382312E+04  0.00000000000E+00 0.  1.
         -1   -1    0    0    0  501 -0.00000000000E+00 -0.00000000000E+00 -0.15808950495E+02  0.15808950495E+02  0.00000000000E+00 0.  1.
         25    1    1    2    0    0 -0.66280312043E+02  0.14121926498E+02  0.53753766952E+03  0.55492274663E+03  0.12000000000E+03 0.  0.
         25    1    1    2    0    0  0.66280312043E+02 -0.14121926498E+02  0.66009161123E+03  0.67432443511E+03  0.12000000000E+03 0.  0.
<mgrwt>
<rscale>  0 0.27700675E+03</rscale>
<asrwt>0</asrwt>
<pdfrwt beam="1">  1        1 0.18668273E+00 0.27700675E+03</pdfrwt>
<pdfrwt beam="2">  1       -1 0.24321472E-02 0.27700675E+03</pdfrwt>
<totfact> 0.57626271E+03</totfact>
</mgrwt>
</event>
<event>
 4    1  0.1710914E-004  0.3890626E+03  0.7818608E-02  0.1047634E+00
          2   -1    0    0  501    0  0.00000000000E+00  0.00000000000E+00  0.23663560128E+04  0.23663560128E+04  0.00000000000E+00 0.  1.
         -2   -1    0    0    0  501 -0.00000000000E+00 -0.00000000000E+00 -0.15991857713E+02  0.15991857713E+02  0.00000000000E+00 0.  1.
         25    1    1    2    0    0 -0.14992420965E+03  0.30824192109E+02  0.11989205935E+04  0.12145937547E+04  0.12000000000E+03 0.  0.
         25    1    1    2    0    0  0.14992420965E+03 -0.30824192109E+02  0.11514435616E+04  0.11677541158E+04  0.12000000000E+03 0.  0.
<mgrwt>
<rscale>  0 0.38906261E+03</rscale>
<asrwt>0</asrwt>
<pdfrwt beam="1">  1        2 0.36405449E+00 0.38906261E+03</pdfrwt>
<pdfrwt beam="2">  1       -2 0.24602877E-02 0.38906261E+03</pdfrwt>
<totfact> 0.26777283E+03</totfact>
</mgrwt>
</event>
<event>
 4    1  0.1710914E-004  0.2776989E+03  0.7818608E-02  0.1096952E+00
          2   -1    0    0  501    0  0.00000000000E+00  0.00000000000E+00  0.18088618402E+03  0.18088618402E+03  0.00000000000E+00 0.  1.
         -2   -1    0    0    0  501 -0.00000000000E+00 -0.00000000000E+00 -0.10658179699E+03  0.10658179699E+03  0.00000000000E+00 0.  1.
         25    1    1    2    0    0 -0.59744278231E+02  0.33424424934E+02  0.51518576559E+02  0.14744739636E+03  0.12000000000E+03 0.  0.
         25    1    1    2    0    0  0.59744278231E+02 -0.33424424934E+02  0.22785810472E+02  0.14002058464E+03  0.12000000000E+03 0.  0.
<mgrwt>
<rscale>  0 0.27769893E+03</rscale>
<asrwt>0</asrwt>
<pdfrwt beam="1">  1        2 0.27828644E-01 0.27769893E+03</pdfrwt>
<pdfrwt beam="2">  1       -2 0.16397200E-01 0.27769893E+03</pdfrwt>
<totfact> 0.55849996E+03</totfact>
</mgrwt>
</event>
<event>
 4    1  0.1710914E-004  0.2759997E+03  0.7818608E-02  0.1097894E+00
         -2   -1    0    0    0  501 -0.00000000000E+00  0.00000000000E+00  0.10039818628E+02  0.10039818628E+02  0.00000000000E+00 0. -1.
          2   -1    0    0  501    0  0.00000000000E+00 -0.00000000000E+00 -0.18968425147E+04  0.18968425147E+04  0.00000000000E+00 0. -1.
         25    1    1    2    0    0  0.91709104182E+01 -0.52641434396E+02 -0.12356062882E+04  0.12425691633E+04  0.12000000000E+03 0.  0.
         25    1    1    2    0    0 -0.91709104182E+01  0.52641434396E+02 -0.65119640795E+03  0.66431317008E+03  0.12000000000E+03 0.  0.
<mgrwt>
<rscale>  0 0.27599967E+03</rscale>
<asrwt>0</asrwt>
<pdfrwt beam="1">  1        2 0.29182184E+00 0.27599967E+03</pdfrwt>
<pdfrwt beam="2">  1       -2 0.15445880E-02 0.27599967E+03</pdfrwt>
<totfact> 0.95146163E+03</totfact>
</mgrwt>
</event>
<event>
 4    1  0.1710914E-004  0.2893216E+03  0.7818608E-02  0.1090704E+00
         -2   -1    0    0    0  501 -0.00000000000E+00  0.00000000000E+00  0.82531687230E+02  0.82531687230E+02  0.00000000000E+00 0. -1.
          2   -1    0    0  501    0  0.00000000000E+00 -0.00000000000E+00 -0.25356021359E+03  0.25356021359E+03  0.00000000000E+00 0. -1.
         25    1    1    2    0    0 -0.17651601327E+02 -0.78051623437E+02 -0.72624745658E+02  0.16148680637E+03  0.12000000000E+03 0.  0.
         25    1    1    2    0    0  0.17651601327E+02  0.78051623437E+02 -0.98403780700E+02  0.17460509445E+03  0.12000000000E+03 0.  0.
<mgrwt>
<rscale>  0 0.28932164E+03</rscale>
<asrwt>0</asrwt>
<pdfrwt beam="1">  1        2 0.39009264E-01 0.28932164E+03</pdfrwt>
<pdfrwt beam="2">  1       -2 0.12697183E-01 0.28932164E+03</pdfrwt>
<totfact> 0.58932905E+03</totfact>
</mgrwt>
</event>
<event>
 4    1  0.1710914E-004  0.3728414E+03  0.7818608E-02  0.1053612E+00
         -2   -1    0    0    0  501 -0.00000000000E+00  0.00000000000E+00  0.36017704129E+02  0.36017704129E+02  0.00000000000E+00 0. -1.
          2   -1    0    0  501    0  0.00000000000E+00 -0.00000000000E+00 -0.96487783448E+03  0.96487783448E+03  0.00000000000E+00 0. -1.
         25    1    1    2    0    0 -0.10031713017E+03  0.84085131253E+02 -0.31212482519E+03  0.35910408297E+03  0.12000000000E+03 0.  0.
         25    1    1    2    0    0  0.10031713017E+03 -0.84085131253E+02 -0.61673530517E+03  0.64179145565E+03  0.12000000000E+03 0.  0.
<mgrwt>
<rscale>  0 0.37284144E+03</rscale>
<asrwt>0</asrwt>
<pdfrwt beam="1">  1        2 0.14844273E+00 0.37284144E+03</pdfrwt>
<pdfrwt beam="2">  1       -2 0.55411857E-02 0.37284144E+03</pdfrwt>
<totfact> 0.46399187E+03</totfact>
</mgrwt>
</event>
<event>
 4    1  0.1710914E-004  0.3771037E+03  0.7818608E-02  0.1052009E+00
          1   -1    0    0  501    0  0.00000000000E+00  0.00000000000E+00  0.29230647611E+03  0.29230647611E+03  0.00000000000E+00 0.  1.
         -1   -1    0    0    0  501 -0.00000000000E+00 -0.00000000000E+00 -0.12162505814E+03  0.12162505814E+03  0.00000000000E+00 0.  1.
         25    1    1    2    0    0  0.29555875596E+02  0.14123901543E+03  0.10527412942E+03  0.21518515652E+03  0.12000000000E+03 0.  0.
         25    1    1    2    0    0 -0.29555875596E+02 -0.14123901543E+03  0.65407288549E+02  0.19874637772E+03  0.12000000000E+03 0.  0.
<mgrwt>
<rscale>  0 0.37710366E+03</rscale>
<asrwt>0</asrwt>
<pdfrwt beam="1">  1        1 0.44970227E-01 0.37710366E+03</pdfrwt>
<pdfrwt beam="2">  1       -1 0.18711548E-01 0.37710366E+03</pdfrwt>
<totfact> 0.20452347E+03</totfact>
</mgrwt>
</event>
<event>
 4    1  0.1710914E-004  0.2649410E+03  0.7818608E-02  0.1104210E+00
          1   -1    0    0  501    0  0.00000000000E+00  0.00000000000E+00  0.47954846102E+03  0.47954846102E+03  0.00000000000E+00 0.  1.
         -1   -1    0    0    0  501 -0.00000000000E+00 -0.00000000000E+00 -0.36593658164E+02  0.36593658164E+02  0.00000000000E+00 0.  1.
         25    1    1    2    0    0 -0.41433132292E+01 -0.43955923649E+02  0.15401598090E+03  0.20017545464E+03  0.12000000000E+03 0.  0.
         25    1    1    2    0    0  0.41433132292E+01  0.43955923649E+02  0.28893882195E+03  0.31596666454E+03  0.12000000000E+03 0.  0.
<mgrwt>
<rscale>  0 0.26494099E+03</rscale>
<asrwt>0</asrwt>
<pdfrwt beam="1">  1        1 0.73776682E-01 0.26494099E+03</pdfrwt>
<pdfrwt beam="2">  1       -1 0.56297939E-02 0.26494099E+03</pdfrwt>
<totfact> 0.69780357E+03</totfact>
</mgrwt>
</event>
<event>
 4    1  0.1710914E-004  0.2537692E+03  0.7818608E-02  0.1110946E+00
          2   -1    0    0  501    0  0.00000000000E+00  0.00000000000E+00  0.36806043170E+03  0.36806043170E+03  0.00000000000E+00 0.  1.
         -2   -1    0    0    0  501 -0.00000000000E+00 -0.00000000000E+00 -0.43742007833E+02  0.43742007833E+02  0.00000000000E+00 0.  1.
         25    1    1    2    0    0 -0.14776035740E+02 -0.37279243267E+02  0.17769261639E+03  0.21813468117E+03  0.12000000000E+03 0.  0.
         25    1    1    2    0    0  0.14776035740E+02  0.37279243267E+02  0.14662580748E+03  0.19366775837E+03  0.12000000000E+03 0.  0.
<mgrwt>
<rscale>  0 0.25376920E+03</rscale>
<asrwt>0</asrwt>
<pdfrwt beam="1">  1        2 0.56624680E-01 0.25376920E+03</pdfrwt>
<pdfrwt beam="2">  1       -2 0.67295399E-02 0.25376920E+03</pdfrwt>
<totfact> 0.10706492E+04</totfact>
</mgrwt>
</event>
<event>
 4    1  0.1710914E-004  0.2517311E+03  0.7818608E-02  0.1112216E+00
          2   -1    0    0  501    0  0.00000000000E+00  0.00000000000E+00  0.81952825156E+02  0.81952825156E+02  0.00000000000E+00 0. -1.
         -2   -1    0    0    0  501 -0.00000000000E+00 -0.00000000000E+00 -0.19330802358E+03  0.19330802358E+03  0.00000000000E+00 0. -1.
         25    1    1    2    0    0  0.18539775557E+02  0.11764709294E+02 -0.89557703828E+02  0.15133642647E+03  0.12000000000E+03 0.  0.
         25    1    1    2    0    0 -0.18539775557E+02 -0.11764709294E+02 -0.21797494595E+02  0.12392442226E+03  0.12000000000E+03 0.  0.
<mgrwt>
<rscale>  0 0.25173112E+03</rscale>
<asrwt>0</asrwt>
<pdfrwt beam="1">  1        2 0.12608127E-01 0.25173112E+03</pdfrwt>
<pdfrwt beam="2">  1       -2 0.29739696E-01 0.25173112E+03</pdfrwt>
<totfact> 0.49414495E+03</totfact>
</mgrwt>
</event>
<event>
 4    1  0.1710914E-004  0.3281463E+03  0.7818608E-02  0.1071960E+00
          2   -1    0    0  501    0  0.00000000000E+00  0.00000000000E+00  0.23421596411E+04  0.23421596411E+04  0.00000000000E+00 0.  1.
         -2   -1    0    0    0  501 -0.00000000000E+00 -0.00000000000E+00 -0.11493661894E+02  0.11493661894E+02  0.00000000000E+00 0.  1.
         25    1    1    2    0    0 -0.38597785152E+02 -0.85979925076E+01  0.19161023361E+04  0.19202634915E+04  0.12000000000E+03 0.  0.
         25    1    1    2    0    0  0.38597785152E+02  0.85979925076E+01  0.41456364307E+03  0.43338981143E+03  0.12000000000E+03 0.  0.
<mgrwt>
<rscale>  0 0.32814625E+03</rscale>
<asrwt>0</asrwt>
<pdfrwt beam="1">  1        2 0.36033187E+00 0.32814625E+03</pdfrwt>
<pdfrwt beam="2">  1       -2 0.17682575E-02 0.32814625E+03</pdfrwt>
<totfact> 0.45211780E+03</totfact>
</mgrwt>
</event>
<event>
 4    1  0.1710914E-004  0.3020774E+03  0.7818608E-02  0.1084207E+00
         -1   -1    0    0    0  501 -0.00000000000E+00  0.00000000000E+00  0.97049751356E+02  0.97049751356E+02  0.00000000000E+00 0. -1.
          1   -1    0    0  501    0  0.00000000000E+00 -0.00000000000E+00 -0.23506176062E+03  0.23506176062E+03  0.00000000000E+00 0. -1.
         25    1    1    2    0    0 -0.73836144764E+02  0.51855170124E+02 -0.50875468691E+02  0.15852144415E+03  0.12000000000E+03 0.  0.
         25    1    1    2    0    0  0.73836144764E+02 -0.51855170124E+02 -0.87136540569E+02  0.17359006782E+03  0.12000000000E+03 0.  0.
<mgrwt>
<rscale>  0 0.30207738E+03</rscale>
<asrwt>0</asrwt>
<pdfrwt beam="1">  1        1 0.36163347E-01 0.30207738E+03</pdfrwt>
<pdfrwt beam="2">  1       -1 0.14930731E-01 0.30207738E+03</pdfrwt>
<totfact> 0.38590182E+03</totfact>
</mgrwt>
</event>
<event>
 4    1  0.1710914E-004  0.4648061E+03  0.7818608E-02  0.1023396E+00
          2   -1    0    0  501    0  0.00000000000E+00  0.00000000000E+00  0.60222111456E+03  0.60222111456E+03  0.00000000000E+00 0.  1.
         -2   -1    0    0    0  501 -0.00000000000E+00 -0.00000000000E+00 -0.89686611851E+02  0.89686611851E+02  0.00000000000E+00 0.  1.
         25    1    1    2    0    0 -0.55882954409E+02 -0.18569733669E+03  0.32291848930E+03  0.39532613900E+03  0.12000000000E+03 0.  0.
         25    1    1    2    0    0  0.55882954409E+02  0.18569733669E+03  0.18961601341E+03  0.29658158741E+03  0.12000000000E+03 0.  0.
<mgrwt>
<rscale>  0 0.46480607E+03</rscale>
<asrwt>0</asrwt>
<pdfrwt beam="1">  1        2 0.92649400E-01 0.46480607E+03</pdfrwt>
<pdfrwt beam="2">  1       -2 0.13797941E-01 0.46480607E+03</pdfrwt>
<totfact> 0.19856988E+03</totfact>
</mgrwt>
</event>
<event>
 4    1  0.1710914E-004  0.3075871E+03  0.7818608E-02  0.1081508E+00
          2   -1    0    0  501    0  0.00000000000E+00  0.00000000000E+00  0.77677352674E+02  0.77677352674E+02  0.00000000000E+00 0. -1.
         -2   -1    0    0    0  501 -0.00000000000E+00 -0.00000000000E+00 -0.30449617819E+03  0.30449617819E+03  0.00000000000E+00 0. -1.
         25    1    1    2    0    0  0.51597912146E+02  0.79244457814E+02 -0.13530079547E+03  0.20407923434E+03  0.12000000000E+03 0.  0.
         25    1    1    2    0    0 -0.51597912146E+02 -0.79244457814E+02 -0.91518030041E+02  0.17809429652E+03  0.12000000000E+03 0.  0.
<mgrwt>
<rscale>  0 0.30758711E+03</rscale>
<asrwt>0</asrwt>
<pdfrwt beam="1">  1        2 0.11950362E-01 0.30758711E+03</pdfrwt>
<pdfrwt beam="2">  1       -2 0.46845565E-01 0.30758711E+03</pdfrwt>
<totfact> 0.22494388E+03</totfact>
</mgrwt>
</event>
<event>
 4    1  0.1710914E-004  0.2842215E+03  0.7818608E-02  0.1093405E+00
         -2   -1    0    0    0  501 -0.00000000000E+00  0.00000000000E+00  0.61627458044E+02  0.61627458044E+02  0.00000000000E+00 0. -1.
          2   -1    0    0  501    0  0.00000000000E+00 -0.00000000000E+00 -0.32770233325E+03  0.32770233325E+03  0.00000000000E+00 0. -1.
         25    1    1    2    0    0  0.68149525147E+02 -0.33855199413E+02 -0.13607875441E+03  0.19674338542E+03  0.12000000000E+03 0.  0.
         25    1    1    2    0    0 -0.68149525147E+02  0.33855199413E+02 -0.12999612080E+03  0.19258640588E+03  0.12000000000E+03 0.  0.
<mgrwt>
<rscale>  0 0.28422148E+03</rscale>
<asrwt>0</asrwt>
<pdfrwt beam="1">  1        2 0.50415743E-01 0.28422148E+03</pdfrwt>
<pdfrwt beam="2">  1       -2 0.94811476E-02 0.28422148E+03</pdfrwt>
<totfact> 0.71366213E+03</totfact>
</mgrwt>
</event>
<event>
 4    1  0.1710914E-004  0.4542370E+03  0.7818608E-02  0.1026466E+00
          2   -1    0    0  501    0  0.00000000000E+00  0.00000000000E+00  0.18820298583E+04  0.18820298583E+04  0.00000000000E+00 0. -1.
         -2   -1    0    0    0  501 -0.00000000000E+00 -0.00000000000E+00 -0.27408078836E+02  0.27408078836E+02  0.00000000000E+00 0. -1.
         25    1    1    2    0    0  0.19907432167E+02 -0.16544781270E+03  0.51946185137E+03  0.55857846325E+03  0.12000000000E+03 0.  0.
         25    1    1    2    0    0 -0.19907432167E+02  0.16544781270E+03  0.13351599281E+04  0.13508594739E+04  0.12000000000E+03 0.  0.
<mgrwt>
<rscale>  0 0.45423704E+03</rscale>
<asrwt>0</asrwt>
<pdfrwt beam="1">  1        2 0.28954295E+00 0.45423704E+03</pdfrwt>
<pdfrwt beam="2">  1       -2 0.42166290E-02 0.45423704E+03</pdfrwt>
<totfact> 0.21562701E+03</totfact>
</mgrwt>
</event>
<event>
 4    1  0.1710914E-004  0.3627834E+03  0.7818608E-02  0.1057487E+00
          2   -1    0    0  501    0  0.00000000000E+00  0.00000000000E+00  0.14852232526E+03  0.14852232526E+03  0.00000000000E+00 0.  1.
         -2   -1    0    0    0  501 -0.00000000000E+00 -0.00000000000E+00 -0.22153540886E+03  0.22153540886E+03  0.00000000000E+00 0.  1.
         25    1    1    2    0    0  0.94694584206E+02 -0.83839678626E+02  0.14565323427E+02  0.17495229246E+03  0.12000000000E+03 0.  0.
         25    1    1    2    0    0 -0.94694584206E+02  0.83839678626E+02 -0.87578407018E+02  0.19510544166E+03  0.12000000000E+03 0.  0.
<mgrwt>
<rscale>  0 0.36278343E+03</rscale>
<asrwt>0</asrwt>
<pdfrwt beam="1">  1        2 0.22849589E-01 0.36278343E+03</pdfrwt>
<pdfrwt beam="2">  1       -2 0.34082371E-01 0.36278343E+03</pdfrwt>
<totfact> 0.19343093E+03</totfact>
</mgrwt>
</event>
<event>
 4    1  0.1710914E-004  0.2890894E+03  0.7818608E-02  0.1090826E+00
          1   -1    0    0  501    0  0.00000000000E+00  0.00000000000E+00  0.28208772111E+02  0.28208772111E+02  0.00000000000E+00 0.  1.
         -1   -1    0    0    0  501 -0.00000000000E+00 -0.00000000000E+00 -0.74066226667E+03  0.74066226667E+03  0.00000000000E+00 0.  1.
         25    1    1    2    0    0 -0.16402530396E+02  0.70985656899E+02 -0.26466564588E+03  0.29959290812E+03  0.12000000000E+03 0.  0.
         25    1    1    2    0    0  0.16402530396E+02 -0.70985656899E+02 -0.44778784868E+03  0.46927813066E+03  0.12000000000E+03 0.  0.
<mgrwt>
<rscale>  0 0.28908942E+03</rscale>
<asrwt>0</asrwt>
<pdfrwt beam="1">  1        1 0.43398114E-02 0.28908942E+03</pdfrwt>
<pdfrwt beam="2">  1       -1 0.11394803E+00 0.28908942E+03</pdfrwt>
<totfact> 0.15170690E+03</totfact>
</mgrwt>
</event>
<event>
 4    1  0.1710914E-004  0.3196542E+03  0.7818608E-02  0.1075809E+00
         -2   -1    0    0    0  501 -0.00000000000E+00  0.00000000000E+00  0.20481437843E+02  0.20481437843E+02  0.00000000000E+00 0.  1.
          2   -1    0    0  501    0  0.00000000000E+00 -0.00000000000E+00 -0.12472124458E+04  0.12472124458E+04  0.00000000000E+00 0.  1.
         25    1    1    2    0    0  0.22418136824E+02 -0.80920986297E+02 -0.86711425748E+03  0.87939633522E+03  0.12000000000E+03 0.  0.
         25    1    1    2    0    0 -0.22418136824E+02  0.80920986297E+02 -0.35961675044E+03  0.38829754838E+03  0.12000000000E+03 0.  0.
<mgrwt>
<rscale>  0 0.31965421E+03</rscale>
<asrwt>0</asrwt>
<pdfrwt beam="1">  1        2 0.19187880E+00 0.31965421E+03</pdfrwt>
<pdfrwt beam="2">  1       -2 0.31509910E-02 0.31965421E+03</pdfrwt>
<totfact> 0.74128665E+03</totfact>
</mgrwt>
</event>
<event>
 4    1  0.1710914E-004  0.2792588E+03  0.7818608E-02  0.1096094E+00
         -1   -1    0    0    0  501 -0.00000000000E+00  0.00000000000E+00  0.12183390299E+03  0.12183390299E+03  0.00000000000E+00 0. -1.
          1   -1    0    0  501    0  0.00000000000E+00 -0.00000000000E+00 -0.16002411938E+03  0.16002411938E+03  0.00000000000E+00 0. -1.
         25    1    1    2    0    0 -0.10871473083E+02  0.23619328831E+02  0.48009067424E+02  0.13183676337E+03  0.12000000000E+03 0.  0.
         25    1    1    2    0    0  0.10871473083E+02 -0.23619328831E+02 -0.86199283809E+02  0.15002125900E+03  0.12000000000E+03 0.  0.
<mgrwt>
<rscale>  0 0.27925875E+03</rscale>
<asrwt>0</asrwt>
<pdfrwt beam="1">  1        1 0.24619095E-01 0.27925875E+03</pdfrwt>
<pdfrwt beam="2">  1       -1 0.18743677E-01 0.27925875E+03</pdfrwt>
<totfact> 0.43508450E+03</totfact>
</mgrwt>
</event>
<event>
 4    1  0.1710914E-004  0.4368361E+03  0.7818608E-02  0.1031722E+00
         -3   -1    0    0    0  501 -0.00000000000E+00  0.00000000000E+00  0.65114578718E+02  0.65114578718E+02  0.00000000000E+00 0.  1.
          3   -1    0    0  501    0  0.00000000000E+00 -0.00000000000E+00 -0.73265380655E+03  0.73265380655E+03  0.00000000000E+00 0.  1.
         25    1    1    2    0    0  0.13248791431E+03 -0.91020895201E+02 -0.17594392106E+03  0.26682225199E+03  0.12000000000E+03 0.  0.
         25    1    1    2    0    0 -0.13248791431E+03  0.91020895201E+02 -0.49159530678E+03  0.53094613328E+03  0.12000000000E+03 0.  0.
<mgrwt>
<rscale>  0 0.43683610E+03</rscale>
<asrwt>0</asrwt>
<pdfrwt beam="1">  1        3 0.11271599E+00 0.43683610E+03</pdfrwt>
<pdfrwt beam="2">  1       -3 0.10017626E-01 0.43683610E+03</pdfrwt>
<totfact> 0.13121069E+02</totfact>
</mgrwt>
</event>
<event>
 4    1  0.1710914E-004  0.3795541E+03  0.7818608E-02  0.1051099E+00
          3   -1    0    0  501    0  0.00000000000E+00  0.00000000000E+00  0.35041912395E+03  0.35041912395E+03  0.00000000000E+00 0. -1.
         -3   -1    0    0    0  501 -0.00000000000E+00 -0.00000000000E+00 -0.10277786911E+03  0.10277786911E+03  0.00000000000E+00 0. -1.
         25    1    1    2    0    0  0.93403627806E+02  0.56317896748E+02  0.24153588903E+03  0.29092186042E+03  0.12000000000E+03 0.  0.
         25    1    1    2    0    0 -0.93403627806E+02 -0.56317896748E+02  0.61053658108E+01  0.16227513264E+03  0.12000000000E+03 0.  0.
<mgrwt>
<rscale>  0 0.37955411E+03</rscale>
<asrwt>0</asrwt>
<pdfrwt beam="1">  1        3 0.53910634E-01 0.37955411E+03</pdfrwt>
<pdfrwt beam="2">  1       -3 0.15811980E-01 0.37955411E+03</pdfrwt>
<totfact> 0.30228425E+02</totfact>
</mgrwt>
</event>
<event>
 4    1  0.1710914E-004  0.2821743E+03  0.7818608E-02  0.1094507E+00
         -2   -1    0    0    0  501 -0.00000000000E+00  0.00000000000E+00  0.74344449534E+02  0.74344449534E+02  0.00000000000E+00 0. -1.
          2   -1    0    0  501    0  0.00000000000E+00 -0.00000000000E+00 -0.26774811325E+03  0.26774811325E+03  0.00000000000E+00 0. -1.
         25    1    1    2    0    0  0.52928900790E+02 -0.66980554904E+01 -0.15921996927E+03  0.20639120887E+03  0.12000000000E+03 0.  0.
         25    1    1    2    0    0 -0.52928900790E+02  0.66980554904E+01 -0.34183694443E+02  0.13570135391E+03  0.12000000000E+03 0.  0.
<mgrwt>
<rscale>  0 0.28217432E+03</rscale>
<asrwt>0</asrwt>
<pdfrwt beam="1">  1        2 0.41192017E-01 0.28217432E+03</pdfrwt>
<pdfrwt beam="2">  1       -2 0.11437608E-01 0.28217432E+03</pdfrwt>
<totfact> 0.65743182E+03</totfact>
</mgrwt>
</event>
<event>
 4    1  0.1710914E-004  0.2718200E+03  0.7818608E-02  0.1100242E+00
         -2   -1    0    0    0  501 -0.00000000000E+00  0.00000000000E+00  0.26386446852E+02  0.26386446852E+02  0.00000000000E+00 0. -1.
          2   -1    0    0  501    0  0.00000000000E+00 -0.00000000000E+00 -0.70003858938E+03  0.70003858938E+03  0.00000000000E+00 0. -1.
         25    1    1    2    0    0  0.35372414290E+02 -0.49999880211E+02 -0.28899481652E+03  0.31885607990E+03  0.12000000000E+03 0.  0.
         25    1    1    2    0    0 -0.35372414290E+02  0.49999880211E+02 -0.38465732601E+03  0.40756895633E+03  0.12000000000E+03 0.  0.
<mgrwt>
<rscale>  0 0.27182002E+03</rscale>
<asrwt>0</asrwt>
<pdfrwt beam="1">  1        2 0.10769825E+00 0.27182002E+03</pdfrwt>
<pdfrwt beam="2">  1       -2 0.40594533E-02 0.27182002E+03</pdfrwt>
<totfact> 0.11220148E+04</totfact>
</mgrwt>
</event>
<event>
 4    1  0.1710914E-004  0.3269922E+03  0.7818608E-02  0.1072476E+00
         -2   -1    0    0    0  501 -0.00000000000E+00  0.00000000000E+00  0.57440841177E+02  0.57440841177E+02  0.00000000000E+00 0. -1.
          2   -1    0    0  501    0  0.00000000000E+00 -0.00000000000E+00 -0.46536532812E+03  0.46536532812E+03  0.00000000000E+00 0. -1.
         25    1    1    2    0    0  0.53590690175E+02  0.68930281693E+02 -0.31366169752E+03  0.34699712722E+03  0.12000000000E+03 0.  0.
         25    1    1    2    0    0 -0.53590690175E+02 -0.68930281693E+02 -0.94262789431E+02  0.17580904209E+03  0.12000000000E+03 0.  0.
<mgrwt>
<rscale>  0 0.32699221E+03</rscale>
<asrwt>0</asrwt>
<pdfrwt beam="1">  1        2 0.71594666E-01 0.32699221E+03</pdfrwt>
<pdfrwt beam="2">  1       -2 0.88370525E-02 0.32699221E+03</pdfrwt>
<totfact> 0.54625279E+03</totfact>
</mgrwt>
</event>
<event>
 4    1  0.1710914E-004  0.2842563E+03  0.7818608E-02  0.1093387E+00
          2   -1    0    0  501    0  0.00000000000E+00  0.00000000000E+00  0.32151267997E+03  0.32151267997E+03  0.00000000000E+00 0. -1.
         -2   -1    0    0    0  501 -0.00000000000E+00 -0.00000000000E+00 -0.62829290872E+02  0.62829290872E+02  0.00000000000E+00 0. -1.
         25    1    1    2    0    0  0.47860180565E+02  0.12703483557E+02  0.20758169359E+03  0.24483082913E+03  0.12000000000E+03 0.  0.
         25    1    1    2    0    0 -0.47860180565E+02 -0.12703483557E+02  0.51101695507E+02  0.13951114171E+03  0.12000000000E+03 0.  0.
<mgrwt>
<rscale>  0 0.28425632E+03</rscale>
<asrwt>0</asrwt>
<pdfrwt beam="1">  1        2 0.49463488E-01 0.28425632E+03</pdfrwt>
<pdfrwt beam="2">  1       -2 0.96660449E-02 0.28425632E+03</pdfrwt>
<totfact> 0.70651963E+03</totfact>
</mgrwt>
</event>
<event>
 4    1  0.1710914E-004  0.3142577E+03  0.7818608E-02  0.1078323E+00
          2   -1    0    0  501    0  0.00000000000E+00  0.00000000000E+00  0.41750684510E+03  0.41750684510E+03  0.00000000000E+00 0.  1.
         -2   -1    0    0    0  501 -0.00000000000E+00 -0.00000000000E+00 -0.59135499149E+02  0.59135499149E+02  0.00000000000E+00 0.  1.
         25    1    1    2    0    0 -0.73196007991E+01  0.99413979340E+02  0.20767264312E+03  0.25973956677E+03  0.12000000000E+03 0.  0.
         25    1    1    2    0    0  0.73196007991E+01 -0.99413979340E+02  0.15069870283E+03  0.21690277748E+03  0.12000000000E+03 0.  0.
<mgrwt>
<rscale>  0 0.31425770E+03</rscale>
<asrwt>0</asrwt>
<pdfrwt beam="1">  1        2 0.64231820E-01 0.31425770E+03</pdfrwt>
<pdfrwt beam="2">  1       -2 0.90977694E-02 0.31425770E+03</pdfrwt>
<totfact> 0.58751691E+03</totfact>
</mgrwt>
</event>
<event>
 4    1  0.1710914E-004  0.3160052E+03  0.7818608E-02  0.1077503E+00
          2   -1    0    0  501    0  0.00000000000E+00  0.00000000000E+00  0.10793606249E+04  0.10793606249E+04  0.00000000000E+00 0.  1.
         -2   -1    0    0    0  501 -0.00000000000E+00 -0.00000000000E+00 -0.23129272779E+02  0.23129272779E+02  0.00000000000E+00 0.  1.
         25    1    1    2    0    0  0.60541305494E+01  0.88675447289E+02  0.34801479981E+03  0.37870078999E+03  0.12000000000E+03 0.  0.
         25    1    1    2    0    0 -0.60541305494E+01 -0.88675447289E+02  0.70821655232E+03  0.72378910771E+03  0.12000000000E+03 0.  0.
<mgrwt>
<rscale>  0 0.31600523E+03</rscale>
<asrwt>0</asrwt>
<pdfrwt beam="1">  1        2 0.16605544E+00 0.31600523E+03</pdfrwt>
<pdfrwt beam="2">  1       -2 0.35583505E-02 0.31600523E+03</pdfrwt>
<totfact> 0.77240625E+03</totfact>
</mgrwt>
</event>
<event>
 4    1  0.1710914E-004  0.2596942E+03  0.7818608E-02  0.1107327E+00
          1   -1    0    0  501    0  0.00000000000E+00  0.00000000000E+00  0.12908504945E+03  0.12908504945E+03  0.00000000000E+00 0. -1.
         -1   -1    0    0    0  501 -0.00000000000E+00 -0.00000000000E+00 -0.13061366094E+03  0.13061366094E+03  0.00000000000E+00 0. -1.
         25    1    1    2    0    0 -0.46616206120E+02  0.12570606065E+02  0.10601632275E+02  0.12978245419E+03  0.12000000000E+03 0.  0.
         25    1    1    2    0    0  0.46616206120E+02 -0.12570606065E+02 -0.12130243767E+02  0.12991625620E+03  0.12000000000E+03 0.  0.
<mgrwt>
<rscale>  0 0.25969421E+03</rscale>
<asrwt>0</asrwt>
<pdfrwt beam="1">  1        1 0.19859238E-01 0.25969421E+03</pdfrwt>
<pdfrwt beam="2">  1       -1 0.20094409E-01 0.25969421E+03</pdfrwt>
<totfact> 0.51057803E+03</totfact>
</mgrwt>
</event>
<event>
 4    1  0.1710914E-004  0.2464021E+03  0.7818608E-02  0.1115600E+00
         -1   -1    0    0    0  501 -0.00000000000E+00  0.00000000000E+00  0.44527587286E+02  0.44527587286E+02  0.00000000000E+00 0. -1.
          1   -1    0    0  501    0  0.00000000000E+00 -0.00000000000E+00 -0.34087856978E+03  0.34087856978E+03  0.00000000000E+00 0. -1.
         25    1    1    2    0    0 -0.16801161769E+02 -0.12592470926E+02 -0.11943407377E+03  0.17060289370E+03  0.12000000000E+03 0.  0.
         25    1    1    2    0    0  0.16801161769E+02  0.12592470926E+02 -0.17691690872E+03  0.21480326337E+03  0.12000000000E+03 0.  0.
<mgrwt>
<rscale>  0 0.24640211E+03</rscale>
<asrwt>0</asrwt>
<pdfrwt beam="1">  1        1 0.52442859E-01 0.24640211E+03</pdfrwt>
<pdfrwt beam="2">  1       -1 0.68503978E-02 0.24640211E+03</pdfrwt>
<totfact> 0.80243309E+03</totfact>
</mgrwt>
</event>
<event>
 4    1  0.1710914E-004  0.3333463E+03  0.7818608E-02  0.1069666E+00
          1   -1    0    0  501    0  0.00000000000E+00  0.00000000000E+00  0.97188443822E+02  0.97188443822E+02  0.00000000000E+00 0. -1.
         -1   -1    0    0    0  501 -0.00000000000E+00 -0.00000000000E+00 -0.28583577665E+03  0.28583577665E+03  0.00000000000E+00 0. -1.
         25    1    1    2    0    0  0.10183983795E+03  0.42338087941E+02 -0.13439276490E+03  0.21124696812E+03  0.12000000000E+03 0.  0.
         25    1    1    2    0    0 -0.10183983795E+03 -0.42338087941E+02 -0.54254567934E+02  0.17177725235E+03  0.12000000000E+03 0.  0.
<mgrwt>
<rscale>  0 0.33334627E+03</rscale>
<asrwt>0</asrwt>
<pdfrwt beam="1">  1        1 0.14952068E-01 0.33334627E+03</pdfrwt>
<pdfrwt beam="2">  1       -1 0.43974734E-01 0.33334627E+03</pdfrwt>
<totfact> 0.19522831E+03</totfact>
</mgrwt>
</event>
<event>
 4    1  0.1710914E-004  0.2898245E+03  0.7818608E-02  0.1090441E+00
          1   -1    0    0  501    0  0.00000000000E+00  0.00000000000E+00  0.49352462590E+03  0.49352462590E+03  0.00000000000E+00 0.  1.
         -1   -1    0    0    0  501 -0.00000000000E+00 -0.00000000000E+00 -0.42550180378E+02  0.42550180378E+02  0.00000000000E+00 0.  1.
         25    1    1    2    0    0  0.11651934269E+02 -0.46729389970E+02  0.10447751686E+03  0.16623764612E+03  0.12000000000E+03 0.  0.
         25    1    1    2    0    0 -0.11651934269E+02  0.46729389970E+02  0.34649692867E+03  0.36983716016E+03  0.12000000000E+03 0.  0.
<mgrwt>
<rscale>  0 0.28982451E+03</rscale>
<asrwt>0</asrwt>
<pdfrwt beam="1">  1        1 0.75926861E-01 0.28982451E+03</pdfrwt>
<pdfrwt beam="2">  1       -1 0.65461820E-02 0.28982451E+03</pdfrwt>
<totfact> 0.53645501E+03</totfact>
</mgrwt>
</event>
<event>
 4    1  0.1710914E-004  0.2877214E+03  0.7818608E-02  0.1091545E+00
         -2   -1    0    0    0  501 -0.00000000000E+00  0.00000000000E+00  0.10449716807E+03  0.10449716807E+03  0.00000000000E+00 0. -1.
          2   -1    0    0  501    0  0.00000000000E+00 -0.00000000000E+00 -0.19805225718E+03  0.19805225718E+03  0.00000000000E+00 0. -1.
         25    1    1    2    0    0  0.87776486301E+01  0.47326230753E+02 -0.11310839346E+03  0.17178570343E+03  0.12000000000E+03 0.  0.
         25    1    1    2    0    0 -0.87776486301E+01 -0.47326230753E+02  0.19553304343E+02  0.13076372182E+03  0.12000000000E+03 0.  0.
<mgrwt>
<rscale>  0 0.28772139E+03</rscale>
<asrwt>0</asrwt>
<pdfrwt beam="1">  1        2 0.30469578E-01 0.28772139E+03</pdfrwt>
<pdfrwt beam="2">  1       -2 0.16076487E-01 0.28772139E+03</pdfrwt>
<totfact> 0.52296348E+03</totfact>
</mgrwt>
</event>
<event>
 4    1  0.1710914E-004  0.3136611E+03  0.7818608E-02  0.1078604E+00
         -2   -1    0    0    0  501 -0.00000000000E+00  0.00000000000E+00  0.49840765870E+02  0.49840765870E+02  0.00000000000E+00 0.  1.
          2   -1    0    0  501    0  0.00000000000E+00 -0.00000000000E+00 -0.49348795385E+03  0.49348795385E+03  0.00000000000E+00 0.  1.
         25    1    1    2    0    0  0.55992361450E+02  0.79145939277E+02 -0.17293355703E+03  0.23174390907E+03  0.12000000000E+03 0.  0.
         25    1    1    2    0    0 -0.55992361450E+02 -0.79145939277E+02 -0.27071363095E+03  0.31158481065E+03  0.12000000000E+03 0.  0.
<mgrwt>
<rscale>  0 0.31366108E+03</rscale>
<asrwt>0</asrwt>
<pdfrwt beam="1">  1        2 0.75921222E-01 0.31366108E+03</pdfrwt>
<pdfrwt beam="2">  1       -2 0.76678103E-02 0.31366108E+03</pdfrwt>
<totfact> 0.63870122E+03</totfact>
</mgrwt>
</event>
<event>
 4    1  0.1710914E-004  0.4329892E+03  0.7818608E-02  0.1032920E+00
         -2   -1    0    0    0  501 -0.00000000000E+00  0.00000000000E+00  0.54066478308E+02  0.54066478308E+02  0.00000000000E+00 0.  1.
          2   -1    0    0  501    0  0.00000000000E+00 -0.00000000000E+00 -0.86689431203E+03  0.86689431203E+03  0.00000000000E+00 0.  1.
         25    1    1    2    0    0 -0.34766594953E+02 -0.16023222934E+03 -0.56539560644E+03  0.60079553529E+03  0.12000000000E+03 0.  0.
         25    1    1    2    0    0  0.34766594953E+02  0.16023222934E+03 -0.24743222729E+03  0.32016525505E+03  0.12000000000E+03 0.  0.
<mgrwt>
<rscale>  0 0.43298925E+03</rscale>
<asrwt>0</asrwt>
<pdfrwt beam="1">  1        2 0.13336835E+00 0.43298925E+03</pdfrwt>
<pdfrwt beam="2">  1       -2 0.83179202E-02 0.43298925E+03</pdfrwt>
<totfact> 0.28523443E+03</totfact>
</mgrwt>
</event>
<event>
 4    1  0.1710914E-004  0.2501778E+03  0.7818608E-02  0.1113193E+00
         -1   -1    0    0    0  501 -0.00000000000E+00  0.00000000000E+00  0.79635093848E+03  0.79635093848E+03  0.00000000000E+00 0.  1.
          1   -1    0    0  501    0  0.00000000000E+00 -0.00000000000E+00 -0.19648659434E+02  0.19648659434E+02  0.00000000000E+00 0.  1.
         25    1    1    2    0    0 -0.16065493888E+02  0.30565988648E+02  0.36419519039E+03  0.38500716417E+03  0.12000000000E+03 0.  0.
         25    1    1    2    0    0  0.16065493888E+02 -0.30565988648E+02  0.41250708866E+03  0.43099243375E+03  0.12000000000E+03 0.  0.
<mgrwt>
<rscale>  0 0.25017776E+03</rscale>
<asrwt>0</asrwt>
<pdfrwt beam="1">  1        1 0.30228713E-02 0.25017776E+03</pdfrwt>
<pdfrwt beam="2">  1       -1 0.12251550E+00 0.25017776E+03</pdfrwt>
<totfact> 0.21129132E+03</totfact>
</mgrwt>
</event>
<event>
 4    1  0.1710914E-004  0.3385529E+03  0.7818608E-02  0.1067414E+00
         -2   -1    0    0    0  501 -0.00000000000E+00  0.00000000000E+00  0.33555324927E+04  0.33555324927E+04  0.00000000000E+00 0.  1.
          2   -1    0    0  501    0  0.00000000000E+00 -0.00000000000E+00 -0.85394861031E+01  0.85394861031E+01  0.00000000000E+00 0.  1.
         25    1    1    2    0    0  0.10157149680E+03  0.14147649532E+02  0.10660122934E+04  0.10776359008E+04  0.12000000000E+03 0.  0.
         25    1    1    2    0    0 -0.10157149680E+03 -0.14147649532E+02  0.22809807132E+04  0.22864360780E+04  0.12000000000E+03 0.  0.
<mgrwt>
<rscale>  0 0.33855294E+03</rscale>
<asrwt>0</asrwt>
<pdfrwt beam="1">  1        2 0.13137698E-02 0.33855294E+03</pdfrwt>
<pdfrwt beam="2">  1       -2 0.51623472E+00 0.33855294E+03</pdfrwt>
<totfact> 0.15533854E+01</totfact>
</mgrwt>
</event>
<event>
 4    1  0.1710914E-004  0.2514930E+03  0.7818608E-02  0.1112365E+00
          2   -1    0    0  501    0  0.00000000000E+00  0.00000000000E+00  0.13835361589E+04  0.13835361589E+04  0.00000000000E+00 0.  1.
         -2   -1    0    0    0  501 -0.00000000000E+00 -0.00000000000E+00 -0.11428819422E+02  0.11428819422E+02  0.00000000000E+00 0.  1.
         25    1    1    2    0    0  0.27608141125E+02  0.19245541378E+02  0.59330792509E+03  0.60625645918E+03  0.12000000000E+03 0.  0.
         25    1    1    2    0    0 -0.27608141125E+02 -0.19245541378E+02  0.77879941436E+03  0.78870851912E+03  0.12000000000E+03 0.  0.
<mgrwt>
<rscale>  0 0.25149302E+03</rscale>
<asrwt>0</asrwt>
<pdfrwt beam="1">  1        2 0.21285158E+00 0.25149302E+03</pdfrwt>
<pdfrwt beam="2">  1       -2 0.17582810E-02 0.25149302E+03</pdfrwt>
<totfact> 0.14689946E+04</totfact>
</mgrwt>
</event>
<event>
 4    1  0.1710914E-004  0.2605002E+03  0.7818608E-02  0.1106843E+00
         -2   -1    0    0    0  501 -0.00000000000E+00  0.00000000000E+00  0.31678314311E+02  0.31678314311E+02  0.00000000000E+00 0.  1.
          2   -1    0    0  501    0  0.00000000000E+00 -0.00000000000E+00 -0.53554265574E+03  0.53554265574E+03  0.00000000000E+00 0.  1.
         25    1    1    2    0    0  0.67198074098E+00  0.37771320150E+02 -0.17847933731E+03  0.21836208011E+03  0.12000000000E+03 0.  0.
         25    1    1    2    0    0 -0.67198074098E+00 -0.37771320150E+02 -0.32538500412E+03  0.34885888994E+03  0.12000000000E+03 0.  0.
<mgrwt>
<rscale>  0 0.26050020E+03</rscale>
<asrwt>0</asrwt>
<pdfrwt beam="1">  1        2 0.82391177E-01 0.26050020E+03</pdfrwt>
<pdfrwt beam="2">  1       -2 0.48735868E-02 0.26050020E+03</pdfrwt>
<totfact> 0.11621086E+04</totfact>
</mgrwt>
</event>
<event>
 4    1  0.1710914E-004  0.2588567E+03  0.7818608E-02  0.1107832E+00
         -2   -1    0    0    0  501 -0.00000000000E+00  0.00000000000E+00  0.14548535934E+02  0.14548535934E+02  0.00000000000E+00 0.  1.
          2   -1    0    0  501    0  0.00000000000E+00 -0.00000000000E+00 -0.11514348868E+04  0.11514348868E+04  0.00000000000E+00 0.  1.
         25    1    1    2    0    0  0.21286458711E+02  0.33355157323E+02 -0.44215938006E+03  0.45985932329E+03  0.12000000000E+03 0.  0.
         25    1    1    2    0    0 -0.21286458711E+02 -0.33355157323E+02 -0.69472697076E+03  0.70612409940E+03  0.12000000000E+03 0.  0.
<mgrwt>
<rscale>  0 0.25885665E+03</rscale>
<asrwt>0</asrwt>
<pdfrwt beam="1">  1        2 0.17714381E+00 0.25885665E+03</pdfrwt>
<pdfrwt beam="2">  1       -2 0.22382365E-02 0.25885665E+03</pdfrwt>
<totfact> 0.13895697E+04</totfact>
</mgrwt>
</event>
<event>
 4    1  0.1710914E-004  0.2667686E+03  0.7818608E-02  0.1103143E+00
          1   -1    0    0  501    0  0.00000000000E+00  0.00000000000E+00  0.18119216930E+04  0.18119216930E+04  0.00000000000E+00 0. -1.
         -1   -1    0    0    0  501 -0.00000000000E+00 -0.00000000000E+00 -0.98190615696E+01  0.98190615696E+01  0.00000000000E+00 0. -1.
         25    1    1    2    0    0 -0.55750935333E+02 -0.15177734714E+02  0.95069160125E+03  0.95997554714E+03  0.12000000000E+03 0.  0.
         25    1    1    2    0    0  0.55750935333E+02  0.15177734714E+02  0.85141103018E+03  0.86176520743E+03  0.12000000000E+03 0.  0.
<mgrwt>
<rscale>  0 0.26676859E+03</rscale>
<asrwt>0</asrwt>
<pdfrwt beam="1">  1        1 0.27875692E+00 0.26676859E+03</pdfrwt>
<pdfrwt beam="2">  1       -1 0.15106263E-02 0.26676859E+03</pdfrwt>
<totfact> 0.46166183E+03</totfact>
</mgrwt>
</event>
<event>
 4    1  0.1710914E-004  0.3000968E+03  0.7818608E-02  0.1085192E+00
         -1   -1    0    0    0  501 -0.00000000000E+00  0.00000000000E+00  0.38222587312E+02  0.38222587312E+02  0.00000000000E+00 0.  1.
          1   -1    0    0  501    0  0.00000000000E+00 -0.00000000000E+00 -0.58903713281E+03  0.58903713281E+03  0.00000000000E+00 0.  1.
         25    1    1    2    0    0 -0.46002993898E+02 -0.75355002058E+02 -0.23802430549E+03  0.28080281656E+03  0.12000000000E+03 0.  0.
         25    1    1    2    0    0  0.46002993898E+02  0.75355002058E+02 -0.31279024001E+03  0.34645690356E+03  0.12000000000E+03 0.  0.
<mgrwt>
<rscale>  0 0.30009681E+03</rscale>
<asrwt>0</asrwt>
<pdfrwt beam="1">  1        1 0.90621088E-01 0.30009681E+03</pdfrwt>
<pdfrwt beam="2">  1       -1 0.58803987E-02 0.30009681E+03</pdfrwt>
<totfact> 0.49688805E+03</totfact>
</mgrwt>
</event>
<event>
 4    1  0.1710914E-004  0.2722062E+03  0.7818608E-02  0.1100024E+00
         -2   -1    0    0    0  501 -0.00000000000E+00  0.00000000000E+00  0.11756497357E+03  0.11756497357E+03  0.00000000000E+00 0.  1.
          2   -1    0    0  501    0  0.00000000000E+00 -0.00000000000E+00 -0.15756439302E+03  0.15756439302E+03  0.00000000000E+00 0.  1.
         25    1    1    2    0    0  0.13061303216E+02 -0.21379887457E+02 -0.79764691228E+02  0.14625355789E+03  0.12000000000E+03 0.  0.
         25    1    1    2    0    0 -0.13061303216E+02  0.21379887457E+02  0.39765271778E+02  0.12887580870E+03  0.12000000000E+03 0.  0.
<mgrwt>
<rscale>  0 0.27220620E+03</rscale>
<asrwt>0</asrwt>
<pdfrwt beam="1">  1        2 0.24240676E-01 0.27220620E+03</pdfrwt>
<pdfrwt beam="2">  1       -2 0.18086919E-01 0.27220620E+03</pdfrwt>
<totfact> 0.55202510E+03</totfact>
</mgrwt>
</event>
<event>
 4    1  0.1710914E-004  0.3402909E+03  0.7818608E-02  0.1066672E+00
          2   -1    0    0  501    0  0.00000000000E+00  0.00000000000E+00  0.98142433552E+03  0.98142433552E+03  0.00000000000E+00 0. -1.
         -2   -1    0    0    0  501 -0.00000000000E+00 -0.00000000000E+00 -0.29497401705E+02  0.29497401705E+02  0.00000000000E+00 0. -1.
         25    1    1    2    0    0  0.41474312401E+02  0.52833536501E+02  0.17832427137E+03  0.22519113422E+03  0.12000000000E+03 0.  0.
         25    1    1    2    0    0 -0.41474312401E+02 -0.52833536501E+02  0.77360266245E+03  0.78573060301E+03  0.12000000000E+03 0.  0.
<mgrwt>
<rscale>  0 0.34029086E+03</rscale>
<asrwt>0</asrwt>
<pdfrwt beam="1">  1        2 0.15098833E+00 0.34029086E+03</pdfrwt>
<pdfrwt beam="2">  1       -2 0.45380625E-02 0.34029086E+03</pdfrwt>
<totfact> 0.61428475E+03</totfact>
</mgrwt>
</event>
<event>
 4    1  0.1710914E-004  0.2724432E+03  0.7818608E-02  0.1099889E+00
          2   -1    0    0  501    0  0.00000000000E+00  0.00000000000E+00  0.36214376286E+03  0.36214376286E+03  0.00000000000E+00 0.  1.
         -2   -1    0    0    0  501 -0.00000000000E+00 -0.00000000000E+00 -0.51240197511E+02  0.51240197511E+02  0.00000000000E+00 0.  1.
         25    1    1    2    0    0  0.46226627309E+02  0.30441081867E+00  0.22363551152E+03  0.25797254845E+03  0.12000000000E+03 0.  0.
         25    1    1    2    0    0 -0.46226627309E+02 -0.30441081867E+00  0.87268053833E+02  0.15541141193E+03  0.12000000000E+03 0.  0.
<mgrwt>
<rscale>  0 0.27244315E+03</rscale>
<asrwt>0</asrwt>
<pdfrwt beam="1">  1        2 0.55714423E-01 0.27244315E+03</pdfrwt>
<pdfrwt beam="2">  1       -2 0.78831075E-02 0.27244315E+03</pdfrwt>
<totfact> 0.85500165E+03</totfact>
</mgrwt>
</event>
<event>
 4    1  0.1710914E-004  0.2518051E+03  0.7818608E-02  0.1112169E+00
         -2   -1    0    0    0  501 -0.00000000000E+00  0.00000000000E+00  0.24854979720E+02  0.24854979720E+02  0.00000000000E+00 0.  1.
          2   -1    0    0  501    0  0.00000000000E+00 -0.00000000000E+00 -0.63775768687E+03  0.63775768687E+03  0.00000000000E+00 0.  1.
         25    1    1    2    0    0 -0.34195325272E+02 -0.16476335096E+02 -0.29785795174E+03  0.32335761829E+03  0.12000000000E+03 0.  0.
         25    1    1    2    0    0  0.34195325272E+02  0.16476335096E+02 -0.31504475541E+03  0.33925504830E+03  0.12000000000E+03 0.  0.
<mgrwt>
<rscale>  0 0.25180512E+03</rscale>
<asrwt>0</asrwt>
<pdfrwt beam="1">  1        2 0.98116572E-01 0.25180512E+03</pdfrwt>
<pdfrwt beam="2">  1       -2 0.38238429E-02 0.25180512E+03</pdfrwt>
<totfact> 0.13676168E+04</totfact>
</mgrwt>
</event>
<event>
 4    1  0.1710914E-004  0.3502584E+03  0.7818608E-02  0.1062509E+00
          2   -1    0    0  501    0  0.00000000000E+00  0.00000000000E+00  0.35387498470E+03  0.35387498470E+03  0.00000000000E+00 0.  1.
         -2   -1    0    0    0  501 -0.00000000000E+00 -0.00000000000E+00 -0.86669669568E+02  0.86669669568E+02  0.00000000000E+00 0.  1.
         25    1    1    2    0    0 -0.75849094203E+02 -0.10104348707E+03  0.15565337507E+03  0.23364683722E+03  0.12000000000E+03 0.  0.
         25    1    1    2    0    0  0.75849094203E+02  0.10104348707E+03  0.11155194006E+03  0.20689781705E+03  0.12000000000E+03 0.  0.
<mgrwt>
<rscale>  0 0.35025835E+03</rscale>
<asrwt>0</asrwt>
<pdfrwt beam="1">  1        2 0.54442305E-01 0.35025835E+03</pdfrwt>
<pdfrwt beam="2">  1       -2 0.13333796E-01 0.35025835E+03</pdfrwt>
<totfact> 0.38122399E+03</totfact>
</mgrwt>
</event>
<event>
 4    1  0.1710914E-004  0.2447252E+03  0.7818608E-02  0.1116684E+00
         -3   -1    0    0    0  501 -0.00000000000E+00  0.00000000000E+00  0.18156069544E+03  0.18156069544E+03  0.00000000000E+00 0. -1.
          3   -1    0    0  501    0  0.00000000000E+00 -0.00000000000E+00 -0.82466092986E+02  0.82466092986E+02  0.00000000000E+00 0. -1.
         25    1    1    2    0    0  0.19234181199E+02  0.14235010546E+02  0.49665194381E+02  0.13205764190E+03  0.12000000000E+03 0.  0.
         25    1    1    2    0    0 -0.19234181199E+02 -0.14235010546E+02  0.49429408072E+02  0.13196914652E+03  0.12000000000E+03 0.  0.
<mgrwt>
<rscale>  0 0.24472516E+03</rscale>
<asrwt>0</asrwt>
<pdfrwt beam="1">  1        3 0.12687091E-01 0.24472516E+03</pdfrwt>
<pdfrwt beam="2">  1       -3 0.27932415E-01 0.24472516E+03</pdfrwt>
<totfact> 0.15215466E+03</totfact>
</mgrwt>
</event>
<event>
 4    1  0.1710914E-004  0.2447169E+03  0.7818608E-02  0.1116690E+00
          1   -1    0    0  501    0  0.00000000000E+00  0.00000000000E+00  0.53399010814E+02  0.53399010814E+02  0.00000000000E+00 0.  1.
         -1   -1    0    0    0  501 -0.00000000000E+00 -0.00000000000E+00 -0.28037216191E+03  0.28037216191E+03  0.00000000000E+00 0.  1.
         25    1    1    2    0    0 -0.22030620827E+02 -0.89350290785E+01 -0.11694054915E+03  0.16923437900E+03  0.12000000000E+03 0.  0.
         25    1    1    2    0    0  0.22030620827E+02  0.89350290785E+01 -0.11003260194E+03  0.16453679372E+03  0.12000000000E+03 0.  0.
<mgrwt>
<rscale>  0 0.24471695E+03</rscale>
<asrwt>0</asrwt>
<pdfrwt beam="1">  1        1 0.82152326E-02 0.24471695E+03</pdfrwt>
<pdfrwt beam="2">  1       -1 0.43134178E-01 0.24471695E+03</pdfrwt>
<totfact> 0.44700556E+03</totfact>
</mgrwt>
</event>
<event>
 4    1  0.1710914E-004  0.2818932E+03  0.7818608E-02  0.1094659E+00
          1   -1    0    0  501    0  0.00000000000E+00  0.00000000000E+00  0.32055939946E+03  0.32055939946E+03  0.00000000000E+00 0. -1.
         -1   -1    0    0    0  501 -0.00000000000E+00 -0.00000000000E+00 -0.61972742827E+02  0.61972742827E+02  0.00000000000E+00 0. -1.
         25    1    1    2    0    0  0.50151487462E+02  0.88000162433E+01  0.56552822131E+02  0.14209445335E+03  0.12000000000E+03 0.  0.
         25    1    1    2    0    0 -0.50151487462E+02 -0.88000162433E+01  0.20203383451E+03  0.24043768895E+03  0.12000000000E+03 0.  0.
<mgrwt>
<rscale>  0 0.28189321E+03</rscale>
<asrwt>0</asrwt>
<pdfrwt beam="1">  1        1 0.49316830E-01 0.28189321E+03</pdfrwt>
<pdfrwt beam="2">  1       -1 0.95342683E-02 0.28189321E+03</pdfrwt>
<totfact> 0.52593276E+03</totfact>
</mgrwt>
</event>
<event>
 4    1  0.1710914E-004  0.2607662E+03  0.7818608E-02  0.1106684E+00
          2   -1    0    0  501    0  0.00000000000E+00  0.00000000000E+00  0.26001889083E+04  0.26001889083E+04  0.00000000000E+00 0.  1.
         -2   -1    0    0    0  501 -0.00000000000E+00 -0.00000000000E+00 -0.65378906211E+01  0.65378906211E+01  0.00000000000E+00 0.  1.
         25    1    1    2    0    0  0.37490854373E+02  0.20932720210E+02  0.15716828658E+04  0.15768420255E+04  0.12000000000E+03 0.  0.
         25    1    1    2    0    0 -0.37490854373E+02 -0.20932720210E+02  0.10219681519E+04  0.10298847734E+04  0.12000000000E+03 0.  0.
<mgrwt>
<rscale>  0 0.26076618E+03</rscale>
<asrwt>0</asrwt>
<pdfrwt beam="1">  1        2 0.40002824E+00 0.26076618E+03</pdfrwt>
<pdfrwt beam="2">  1       -2 0.10058314E-02 0.26076618E+03</pdfrwt>
<totfact> 0.74658994E+03</totfact>
</mgrwt>
</event>
<event>
 4    1  0.1710914E-004  0.2911606E+03  0.7818608E-02  0.1089745E+00
         -2   -1    0    0    0  501 -0.00000000000E+00  0.00000000000E+00  0.30779039527E+02  0.30779039527E+02  0.00000000000E+00 0. -1.
          2   -1    0    0  501    0  0.00000000000E+00 -0.00000000000E+00 -0.68857337317E+03  0.68857337317E+03  0.00000000000E+00 0. -1.
         25    1    1    2    0    0 -0.40836128694E+02  0.65288682120E+02 -0.40149464554E+03  0.42606120665E+03  0.12000000000E+03 0.  0.
         25    1    1    2    0    0  0.40836128694E+02 -0.65288682120E+02 -0.25629968811E+03  0.29329120604E+03  0.12000000000E+03 0.  0.
<mgrwt>
<rscale>  0 0.29116062E+03</rscale>
<asrwt>0</asrwt>
<pdfrwt beam="1">  1        2 0.10593436E+00 0.29116062E+03</pdfrwt>
<pdfrwt beam="2">  1       -2 0.47352371E-02 0.29116062E+03</pdfrwt>
<totfact> 0.90915572E+03</totfact>
</mgrwt>
</event>
<event>
 4    1  0.1710914E-004  0.3058621E+03  0.7818608E-02  0.1082346E+00
         -1   -1    0    0    0  501 -0.00000000000E+00  0.00000000000E+00  0.12512224126E+03  0.12512224126E+03  0.00000000000E+00 0. -1.
          1   -1    0    0  501    0  0.00000000000E+00 -0.00000000000E+00 -0.18692047989E+03  0.18692047989E+03  0.00000000000E+00 0. -1.
         25    1    1    2    0    0 -0.70626866735E+02 -0.38791282125E+02 -0.81858353810E+02  0.16611353937E+03  0.12000000000E+03 0.  0.
         25    1    1    2    0    0  0.70626866735E+02  0.38791282125E+02  0.20060115178E+02  0.14592918178E+03  0.12000000000E+03 0.  0.
<mgrwt>
<rscale>  0 0.30586212E+03</rscale>
<asrwt>0</asrwt>
<pdfrwt beam="1">  1        1 0.28756997E-01 0.30586212E+03</pdfrwt>
<pdfrwt beam="2">  1       -1 0.19249576E-01 0.30586212E+03</pdfrwt>
<totfact> 0.34281451E+03</totfact>
</mgrwt>
</event>
<event>
 4    1  0.1710914E-004  0.2464647E+03  0.7818608E-02  0.1115560E+00
          2   -1    0    0  501    0  0.00000000000E+00  0.00000000000E+00  0.12922361642E+03  0.12922361642E+03  0.00000000000E+00 0.  1.
         -2   -1    0    0    0  501 -0.00000000000E+00 -0.00000000000E+00 -0.11751890463E+03  0.11751890463E+03  0.00000000000E+00 0.  1.
         25    1    1    2    0    0 -0.34490231833E+01 -0.65860589468E+01 -0.21214126177E+02  0.12208730926E+03  0.12000000000E+03 0.  0.
         25    1    1    2    0    0  0.34490231833E+01  0.65860589468E+01  0.32918837971E+02  0.12465521179E+03  0.12000000000E+03 0.  0.
<mgrwt>
<rscale>  0 0.24646475E+03</rscale>
<asrwt>0</asrwt>
<pdfrwt beam="1">  1        2 0.19880556E-01 0.24646475E+03</pdfrwt>
<pdfrwt beam="2">  1       -2 0.18079831E-01 0.24646475E+03</pdfrwt>
<totfact> 0.68863754E+03</totfact>
</mgrwt>
</event>
<event>
 4    1  0.1710914E-004  0.2910696E+03  0.7818608E-02  0.1089792E+00
         -4   -1    0    0    0  501 -0.00000000000E+00  0.00000000000E+00  0.20732753613E+03  0.20732753613E+03  0.00000000000E+00 0. -1.
          4   -1    0    0  501    0  0.00000000000E+00 -0.00000000000E+00 -0.10215900117E+03  0.10215900117E+03  0.00000000000E+00 0. -1.
         25    1    1    2    0    0  0.10812590710E+02  0.72049577824E+02  0.93382945646E+02  0.16860731989E+03  0.12000000000E+03 0.  0.
         25    1    1    2    0    0 -0.10812590710E+02 -0.72049577824E+02  0.11785589312E+02  0.14087921741E+03  0.12000000000E+03 0.  0.
<mgrwt>
<rscale>  0 0.29106957E+03</rscale>
<asrwt>0</asrwt>
<pdfrwt beam="1">  1        4 0.15716769E-01 0.29106957E+03</pdfrwt>
<pdfrwt beam="2">  1       -4 0.31896544E-01 0.29106957E+03</pdfrwt>
<totfact> 0.62000917E+02</totfact>
</mgrwt>
</event>
<event>
 4    1  0.1710914E-004  0.3528756E+03  0.7818608E-02  0.1061441E+00
          2   -1    0    0  501    0  0.00000000000E+00  0.00000000000E+00  0.83427988017E+03  0.83427988017E+03  0.00000000000E+00 0. -1.
         -2   -1    0    0    0  501 -0.00000000000E+00 -0.00000000000E+00 -0.37313974531E+02  0.37313974531E+02  0.00000000000E+00 0. -1.
         25    1    1    2    0    0  0.90417582339E+02 -0.79540926597E+02  0.51507518268E+03  0.54240625182E+03  0.12000000000E+03 0.  0.
         25    1    1    2    0    0 -0.90417582339E+02  0.79540926597E+02  0.28189072296E+03  0.32918760288E+03  0.12000000000E+03 0.  0.
<mgrwt>
<rscale>  0 0.35287561E+03</rscale>
<asrwt>0</asrwt>
<pdfrwt beam="1">  1        2 0.12835074E+00 0.35287561E+03</pdfrwt>
<pdfrwt beam="2">  1       -2 0.57406121E-02 0.35287561E+03</pdfrwt>
<totfact> 0.53460541E+03</totfact>
</mgrwt>
</event>
<event>
 4    1  0.1710914E-004  0.3084919E+03  0.7818608E-02  0.1081071E+00
         -1   -1    0    0    0  501 -0.00000000000E+00  0.00000000000E+00  0.18345179879E+02  0.18345179879E+02  0.00000000000E+00 0. -1.
          1   -1    0    0  501    0  0.00000000000E+00 -0.00000000000E+00 -0.12968974484E+04  0.12968974484E+04  0.00000000000E+00 0. -1.
         25    1    1    2    0    0 -0.50638759798E+02 -0.53080716756E+02 -0.90925679994E+03  0.92007052704E+03  0.12000000000E+03 0.  0.
         25    1    1    2    0    0  0.50638759798E+02  0.53080716756E+02 -0.36929546858E+03  0.39517210124E+03  0.12000000000E+03 0.  0.
<mgrwt>
<rscale>  0 0.30849193E+03</rscale>
<asrwt>0</asrwt>
<pdfrwt beam="1">  1        1 0.19952279E+00 0.30849193E+03</pdfrwt>
<pdfrwt beam="2">  1       -1 0.28223338E-02 0.30849193E+03</pdfrwt>
<totfact> 0.40564324E+03</totfact>
</mgrwt>
</event>
<event>
 4    1  0.1710914E-004  0.2849550E+03  0.7818608E-02  0.1093013E+00
          2   -1    0    0  501    0  0.00000000000E+00  0.00000000000E+00  0.18444498223E+04  0.18444498223E+04  0.00000000000E+00 0.  1.
         -2   -1    0    0    0  501 -0.00000000000E+00 -0.00000000000E+00 -0.11005906564E+02  0.11005906564E+02  0.00000000000E+00 0.  1.
         25    1    1    2    0    0  0.52455597058E+02  0.26238724015E+02  0.12396625124E+04  0.12468372809E+04  0.12000000000E+03 0.  0.
         25    1    1    2    0    0 -0.52455597058E+02 -0.26238724015E+02  0.59378140335E+03  0.60861844801E+03  0.12000000000E+03 0.  0.
<mgrwt>
<rscale>  0 0.28495503E+03</rscale>
<asrwt>0</asrwt>
<pdfrwt beam="1">  1        2 0.28376127E+00 0.28495503E+03</pdfrwt>
<pdfrwt beam="2">  1       -2 0.16932179E-02 0.28495503E+03</pdfrwt>
<totfact> 0.88630482E+03</totfact>
</mgrwt>
</event>
<event>
 4    1  0.1710914E-004  0.4163228E+03  0.7818608E-02  0.1038270E+00
          2   -1    0    0  501    0  0.00000000000E+00  0.00000000000E+00  0.20620664377E+04  0.20620664377E+04  0.00000000000E+00 0.  1.
         -2   -1    0    0    0  501 -0.00000000000E+00 -0.00000000000E+00 -0.21013466457E+02  0.21013466457E+02  0.00000000000E+00 0.  1.
         25    1    1    2    0    0 -0.10704267481E+03  0.12454079221E+03  0.79886310578E+03  0.82434871562E+03  0.12000000000E+03 0.  0.
         25    1    1    2    0    0  0.10704267481E+03 -0.12454079221E+03  0.12421898654E+04  0.12587311885E+04  0.12000000000E+03 0.  0.
<mgrwt>
<rscale>  0 0.41632278E+03</rscale>
<asrwt>0</asrwt>
<pdfrwt beam="1">  1        2 0.31724083E+00 0.41632278E+03</pdfrwt>
<pdfrwt beam="2">  1       -2 0.32328426E-02 0.41632278E+03</pdfrwt>
<totfact> 0.25907394E+03</totfact>
</mgrwt>
</event>
<event>
 4    1  0.1710914E-004  0.2705485E+03  0.7818608E-02  0.1100966E+00
         -2   -1    0    0    0  501 -0.00000000000E+00  0.00000000000E+00  0.18577670319E+02  0.18577670319E+02  0.00000000000E+00 0. -1.
          2   -1    0    0  501    0  0.00000000000E+00 -0.00000000000E+00 -0.98500662402E+03  0.98500662402E+03  0.00000000000E+00 0. -1.
         25    1    1    2    0    0  0.18894791787E+01  0.36195995180E+02 -0.67182816779E+03  0.68342286122E+03  0.12000000000E+03 0.  0.
         25    1    1    2    0    0 -0.18894791787E+01 -0.36195995180E+02 -0.29460078591E+03  0.32016143312E+03  0.12000000000E+03 0.  0.
<mgrwt>
<rscale>  0 0.27054854E+03</rscale>
<asrwt>0</asrwt>
<pdfrwt beam="1">  1        2 0.15153952E+00 0.27054854E+03</pdfrwt>
<pdfrwt beam="2">  1       -2 0.28581024E-02 0.27054854E+03</pdfrwt>
<totfact> 0.12173890E+04</totfact>
</mgrwt>
</event>
<event>
 4    1  0.1710914E-004  0.2557790E+03  0.7818608E-02  0.1109706E+00
          1   -1    0    0  501    0  0.00000000000E+00  0.00000000000E+00  0.77228600113E+03  0.77228600113E+03  0.00000000000E+00 0.  1.
         -1   -1    0    0    0  501 -0.00000000000E+00 -0.00000000000E+00 -0.21178331488E+02  0.21178331488E+02  0.00000000000E+00 0.  1.
         25    1    1    2    0    0  0.16418121238E+02 -0.25238797871E+02  0.27507215035E+03  0.30161438878E+03  0.12000000000E+03 0.  0.
         25    1    1    2    0    0 -0.16418121238E+02  0.25238797871E+02  0.47603551930E+03  0.49184994384E+03  0.12000000000E+03 0.  0.
<mgrwt>
<rscale>  0 0.25577904E+03</rscale>
<asrwt>0</asrwt>
<pdfrwt beam="1">  1        1 0.11881321E+00 0.25577904E+03</pdfrwt>
<pdfrwt beam="2">  1       -1 0.32582054E-02 0.25577904E+03</pdfrwt>
<totfact> 0.80769675E+03</totfact>
</mgrwt>
</event>
<event>
 4    1  0.1710914E-004  0.2646944E+03  0.7818608E-02  0.1104355E+00
         -2   -1    0    0    0  501 -0.00000000000E+00  0.00000000000E+00  0.13024272956E+02  0.13024272956E+02  0.00000000000E+00 0.  1.
          2   -1    0    0  501    0  0.00000000000E+00 -0.00000000000E+00 -0.13448569113E+04  0.13448569113E+04  0.00000000000E+00 0.  1.
         25    1    1    2    0    0  0.43363068334E+02 -0.83358594145E+01 -0.49074809596E+03  0.50713266108E+03  0.12000000000E+03 0.  0.
         25    1    1    2    0    0 -0.43363068334E+02  0.83358594145E+01 -0.84108454240E+03  0.85074852319E+03  0.12000000000E+03 0.  0.
<mgrwt>
<rscale>  0 0.26469442E+03</rscale>
<asrwt>0</asrwt>
<pdfrwt beam="1">  1        2 0.20690106E+00 0.26469442E+03</pdfrwt>
<pdfrwt beam="2">  1       -2 0.20037343E-02 0.26469442E+03</pdfrwt>
<totfact> 0.12750515E+04</totfact>
</mgrwt>
</event>
<event>
 4    1  0.1710914E-004  0.5522836E+03  0.7818608E-02  0.1000967E+00
          1   -1    0    0  501    0  0.00000000000E+00  0.00000000000E+00  0.29485485706E+03  0.29485485706E+03  0.00000000000E+00 0. -1.
         -1   -1    0    0    0  501 -0.00000000000E+00 -0.00000000000E+00 -0.25861636648E+03  0.25861636648E+03  0.00000000000E+00 0. -1.
         25    1    1    2    0    0  0.60783011056E+02  0.23511171511E+03  0.71920805155E+02  0.28025826523E+03  0.12000000000E+03 0.  0.
         25    1    1    2    0    0 -0.60783011056E+02 -0.23511171511E+03 -0.35682314572E+02  0.27321295831E+03  0.12000000000E+03 0.  0.
<mgrwt>
<rscale>  0 0.55228359E+03</rscale>
<asrwt>0</asrwt>
<pdfrwt beam="1">  1        1 0.45362286E-01 0.55228359E+03</pdfrwt>
<pdfrwt beam="2">  1       -1 0.39787133E-01 0.55228359E+03</pdfrwt>
<totfact> 0.55717033E+02</totfact>
</mgrwt>
</event>
<event>
 4    1  0.1710914E-004  0.2737566E+03  0.7818608E-02  0.1099149E+00
         -2   -1    0    0    0  501 -0.00000000000E+00  0.00000000000E+00  0.28708566132E+03  0.28708566132E+03  0.00000000000E+00 0. -1.
          2   -1    0    0  501    0  0.00000000000E+00 -0.00000000000E+00 -0.65261575146E+02  0.65261575146E+02  0.00000000000E+00 0. -1.
         25    1    1    2    0    0 -0.56311381623E+02  0.36415078394E+01  0.15458626248E+03  0.20366920441E+03  0.12000000000E+03 0.  0.
         25    1    1    2    0    0  0.56311381623E+02 -0.36415078394E+01  0.67237823695E+02  0.14867803205E+03  0.12000000000E+03 0.  0.
<mgrwt>
<rscale>  0 0.27375655E+03</rscale>
<asrwt>0</asrwt>
<pdfrwt beam="1">  1        2 0.10040242E-01 0.27375655E+03</pdfrwt>
<pdfrwt beam="2">  1       -2 0.44167024E-01 0.27375655E+03</pdfrwt>
<totfact> 0.31195350E+03</totfact>
</mgrwt>
</event>
<event>
 4    1  0.1710914E-004  0.2839331E+03  0.7818608E-02  0.1093560E+00
          1   -1    0    0  501    0  0.00000000000E+00  0.00000000000E+00  0.11826956219E+03  0.11826956219E+03  0.00000000000E+00 0.  1.
         -1   -1    0    0    0  501 -0.00000000000E+00 -0.00000000000E+00 -0.17041153340E+03  0.17041153340E+03  0.00000000000E+00 0.  1.
         25    1    1    2    0    0 -0.42795072649E+02 -0.35796618248E+02 -0.78327757183E+02  0.15377923679E+03  0.12000000000E+03 0.  0.
         25    1    1    2    0    0  0.42795072649E+02  0.35796618248E+02  0.26185785971E+02  0.13490185880E+03  0.12000000000E+03 0.  0.
<mgrwt>
<rscale>  0 0.28393307E+03</rscale>
<asrwt>0</asrwt>
<pdfrwt beam="1">  1        1 0.18195317E-01 0.28393307E+03</pdfrwt>
<pdfrwt beam="2">  1       -1 0.26217159E-01 0.28393307E+03</pdfrwt>
<totfact> 0.36983222E+03</totfact>
</mgrwt>
</event>
<event>
 4    1  0.1710914E-004  0.2985832E+03  0.7818608E-02  0.1085951E+00
         -1   -1    0    0    0  501 -0.00000000000E+00  0.00000000000E+00  0.34914184253E+02  0.34914184253E+02  0.00000000000E+00 0. -1.
          1   -1    0    0  501    0  0.00000000000E+00 -0.00000000000E+00 -0.63836457691E+03  0.63836457691E+03  0.00000000000E+00 0. -1.
         25    1    1    2    0    0  0.34900051642E+01  0.58342359821E+02 -0.15093299109E+03  0.20148642357E+03  0.12000000000E+03 0.  0.
         25    1    1    2    0    0 -0.34900051642E+01 -0.58342359821E+02 -0.45251740157E+03  0.47179233759E+03  0.12000000000E+03 0.  0.
<mgrwt>
<rscale>  0 0.29858318E+03</rscale>
<asrwt>0</asrwt>
<pdfrwt beam="1">  1        1 0.98209929E-01 0.29858318E+03</pdfrwt>
<pdfrwt beam="2">  1       -1 0.53714133E-02 0.29858318E+03</pdfrwt>
<totfact> 0.50878296E+03</totfact>
</mgrwt>
</event>
<event>
 4    1  0.1710914E-004  0.2540053E+03  0.7818608E-02  0.1110799E+00
         -2   -1    0    0    0  501 -0.00000000000E+00  0.00000000000E+00  0.34303032441E+02  0.34303032441E+02  0.00000000000E+00 0.  1.
          2   -1    0    0  501    0  0.00000000000E+00 -0.00000000000E+00 -0.47021145739E+03  0.47021145739E+03  0.00000000000E+00 0.  1.
         25    1    1    2    0    0  0.23322936051E+02  0.24114995718E+02 -0.16913212995E+03  0.21007420057E+03  0.12000000000E+03 0.  0.
         25    1    1    2    0    0 -0.23322936051E+02 -0.24114995718E+02 -0.26677629500E+03  0.29444028926E+03  0.12000000000E+03 0.  0.
<mgrwt>
<rscale>  0 0.25400535E+03</rscale>
<asrwt>0</asrwt>
<pdfrwt beam="1">  1        2 0.72340228E-01 0.25400535E+03</pdfrwt>
<pdfrwt beam="2">  1       -2 0.52773893E-02 0.25400535E+03</pdfrwt>
<totfact> 0.11896236E+04</totfact>
</mgrwt>
</event>
<event>
 4    1  0.1710914E-004  0.3128124E+03  0.7818608E-02  0.1079006E+00
         -2   -1    0    0    0  501 -0.00000000000E+00  0.00000000000E+00  0.47636120328E+02  0.47636120328E+02  0.00000000000E+00 0. -1.
          2   -1    0    0  501    0  0.00000000000E+00 -0.00000000000E+00 -0.51353690707E+03  0.51353690707E+03  0.00000000000E+00 0. -1.
         25    1    1    2    0    0  0.35404187105E+02 -0.82455591114E+02 -0.31338954872E+03  0.34736924190E+03  0.12000000000E+03 0.  0.
         25    1    1    2    0    0 -0.35404187105E+02  0.82455591114E+02 -0.15251123803E+03  0.21380378550E+03  0.12000000000E+03 0.  0.
<mgrwt>
<rscale>  0 0.31281244E+03</rscale>
<asrwt>0</asrwt>
<pdfrwt beam="1">  1        2 0.79005681E-01 0.31281244E+03</pdfrwt>
<pdfrwt beam="2">  1       -2 0.73286337E-02 0.31281244E+03</pdfrwt>
<totfact> 0.65533161E+03</totfact>
</mgrwt>
</event>
<event>
 4    1  0.1710914E-004  0.5475667E+03  0.7818608E-02  0.1002059E+00
         -1   -1    0    0    0  501 -0.00000000000E+00  0.00000000000E+00  0.63032450868E+03  0.63032450868E+03  0.00000000000E+00 0.  1.
          1   -1    0    0  501    0  0.00000000000E+00 -0.00000000000E+00 -0.11891861431E+03  0.11891861431E+03  0.00000000000E+00 0.  1.
         25    1    1    2    0    0 -0.16094839083E+03  0.13181244684E+03  0.75841675791E+02  0.25185484994E+03  0.12000000000E+03 0.  0.
         25    1    1    2    0    0  0.16094839083E+03 -0.13181244684E+03  0.43556421859E+03  0.49738827305E+03  0.12000000000E+03 0.  0.
<mgrwt>
<rscale>  0 0.54756668E+03</rscale>
<asrwt>0</asrwt>
<pdfrwt beam="1">  1        1 0.18295172E-01 0.54756668E+03</pdfrwt>
<pdfrwt beam="2">  1       -1 0.96972999E-01 0.54756668E+03</pdfrwt>
<totfact> 0.30714360E+02</totfact>
</mgrwt>
</event>
<event>
 4    1  0.1710914E-004  0.2779524E+03  0.7818608E-02  0.1096813E+00
          1   -1    0    0  501    0  0.00000000000E+00  0.00000000000E+00  0.72521285229E+03  0.72521285229E+03  0.00000000000E+00 0.  1.
         -1   -1    0    0    0  501 -0.00000000000E+00 -0.00000000000E+00 -0.26632701816E+02  0.26632701816E+02  0.00000000000E+00 0.  1.
         25    1    1    2    0    0  0.24131087209E+02 -0.97740631675E+00  0.17127448605E+03  0.21051891665E+03  0.12000000000E+03 0.  0.
         25    1    1    2    0    0 -0.24131087209E+02  0.97740631675E+00  0.52730566442E+03  0.54132663746E+03  0.12000000000E+03 0.  0.
<mgrwt>
<rscale>  0 0.27795235E+03</rscale>
<asrwt>0</asrwt>
<pdfrwt beam="1">  1        1 0.11157119E+00 0.27795235E+03</pdfrwt>
<pdfrwt beam="2">  1       -1 0.40973393E-02 0.27795235E+03</pdfrwt>
<totfact> 0.63329975E+03</totfact>
</mgrwt>
</event>
<event>
 4    1  0.1710914E-004  0.2757771E+03  0.7818608E-02  0.1098018E+00
          1   -1    0    0  501    0  0.00000000000E+00  0.00000000000E+00  0.42973188550E+03  0.42973188550E+03  0.00000000000E+00 0. -1.
         -1   -1    0    0    0  501 -0.00000000000E+00 -0.00000000000E+00 -0.44244468589E+02  0.44244468589E+02  0.00000000000E+00 0. -1.
         25    1    1    2    0    0  0.51168771542E+02 -0.43466305638E+02  0.21041334762E+03  0.25135898584E+03  0.12000000000E+03 0.  0.
         25    1    1    2    0    0 -0.51168771542E+02  0.43466305638E+02  0.17507406929E+03  0.22261736825E+03  0.12000000000E+03 0.  0.
<mgrwt>
<rscale>  0 0.27577715E+03</rscale>
<asrwt>0</asrwt>
<pdfrwt beam="1">  1        1 0.66112595E-01 0.27577715E+03</pdfrwt>
<pdfrwt beam="2">  1       -1 0.68068416E-02 0.27577715E+03</pdfrwt>
<totfact> 0.60531884E+03</totfact>
</mgrwt>
</event>
<event>
 4    1  0.1710914E-004  0.2508135E+03  0.7818608E-02  0.1112792E+00
          2   -1    0    0  501    0  0.00000000000E+00  0.00000000000E+00  0.35122168486E+03  0.35122168486E+03  0.00000000000E+00 0. -1.
         -2   -1    0    0    0  501 -0.00000000000E+00 -0.00000000000E+00 -0.44777551989E+02  0.44777551989E+02  0.00000000000E+00 0. -1.
         25    1    1    2    0    0 -0.33602734808E+02  0.13258898917E+02  0.16061157921E+03  0.20371799519E+03  0.12000000000E+03 0.  0.
         25    1    1    2    0    0  0.33602734808E+02 -0.13258898917E+02  0.14583255366E+03  0.19228124166E+03  0.12000000000E+03 0.  0.
<mgrwt>
<rscale>  0 0.25081345E+03</rscale>
<asrwt>0</asrwt>
<pdfrwt beam="1">  1        2 0.54034104E-01 0.25081345E+03</pdfrwt>
<pdfrwt beam="2">  1       -2 0.68888544E-02 0.25081345E+03</pdfrwt>
<totfact> 0.10855865E+04</totfact>
</mgrwt>
</event>
<event>
 4    1  0.1710914E-004  0.2763610E+03  0.7818608E-02  0.1097693E+00
         -1   -1    0    0    0  501 -0.00000000000E+00  0.00000000000E+00  0.29706660050E+03  0.29706660050E+03  0.00000000000E+00 0. -1.
          1   -1    0    0  501    0  0.00000000000E+00 -0.00000000000E+00 -0.64274627206E+02  0.64274627206E+02  0.00000000000E+00 0. -1.
         25    1    1    2    0    0  0.57668094093E+02  0.87736633079E+01  0.69412259700E+02  0.15040162247E+03  0.12000000000E+03 0.  0.
         25    1    1    2    0    0 -0.57668094093E+02 -0.87736633079E+01  0.16337971360E+03  0.21093960524E+03  0.12000000000E+03 0.  0.
<mgrwt>
<rscale>  0 0.27636096E+03</rscale>
<asrwt>0</asrwt>
<pdfrwt beam="1">  1        1 0.98884044E-02 0.27636096E+03</pdfrwt>
<pdfrwt beam="2">  1       -1 0.45702553E-01 0.27636096E+03</pdfrwt>
<totfact> 0.31473937E+03</totfact>
</mgrwt>
</event>
<event>
 4    1  0.1710914E-004  0.3268107E+03  0.7818608E-02  0.1072557E+00
          1   -1    0    0  501    0  0.00000000000E+00  0.00000000000E+00  0.40435413022E+03  0.40435413022E+03  0.00000000000E+00 0. -1.
         -1   -1    0    0    0  501 -0.00000000000E+00 -0.00000000000E+00 -0.66034456198E+02  0.66034456198E+02  0.00000000000E+00 0. -1.
         25    1    1    2    0    0  0.20397755910E+02  0.10519636800E+03  0.12796980813E+03  0.20556900564E+03  0.12000000000E+03 0.  0.
         25    1    1    2    0    0 -0.20397755910E+02 -0.10519636800E+03  0.21034986589E+03  0.26481958078E+03  0.12000000000E+03 0.  0.
<mgrwt>
<rscale>  0 0.32681068E+03</rscale>
<asrwt>0</asrwt>
<pdfrwt beam="1">  1        1 0.62208327E-01 0.32681068E+03</pdfrwt>
<pdfrwt beam="2">  1       -1 0.10159147E-01 0.32681068E+03</pdfrwt>
<totfact> 0.35573382E+03</totfact>
</mgrwt>
</event>
<event>
 4    1  0.1710914E-004  0.2924509E+03  0.7818608E-02  0.1089076E+00
         -2   -1    0    0    0  501 -0.00000000000E+00  0.00000000000E+00  0.35831996506E+02  0.35831996506E+02  0.00000000000E+00 0.  1.
          2   -1    0    0  501    0  0.00000000000E+00 -0.00000000000E+00 -0.59672600341E+03  0.59672600341E+03  0.00000000000E+00 0.  1.
         25    1    1    2    0    0 -0.74783535528E+02  0.12171659508E+02 -0.20424597461E+03  0.24871096604E+03  0.12000000000E+03 0.  0.
         25    1    1    2    0    0  0.74783535528E+02 -0.12171659508E+02 -0.35664803229E+03  0.38384703388E+03  0.12000000000E+03 0.  0.
<mgrwt>
<rscale>  0 0.29245091E+03</rscale>
<asrwt>0</asrwt>
<pdfrwt beam="1">  1        2 0.91804001E-01 0.29245091E+03</pdfrwt>
<pdfrwt beam="2">  1       -2 0.55126148E-02 0.29245091E+03</pdfrwt>
<totfact> 0.85469075E+03</totfact>
</mgrwt>
</event>
<event>
 4    1  0.1710914E-004  0.2557761E+03  0.7818608E-02  0.1109708E+00
          2   -1    0    0  501    0  0.00000000000E+00  0.00000000000E+00  0.13757468230E+04  0.13757468230E+04  0.00000000000E+00 0.  1.
         -2   -1    0    0    0  501 -0.00000000000E+00 -0.00000000000E+00 -0.11888341184E+02  0.11888341184E+02  0.00000000000E+00 0.  1.
         25    1    1    2    0    0 -0.66116694765E+01  0.14070946241E+01  0.44485045134E+03  0.46080106136E+03  0.12000000000E+03 0.  0.
         25    1    1    2    0    0  0.66116694765E+01 -0.14070946241E+01  0.91900803048E+03  0.92683410283E+03  0.12000000000E+03 0.  0.
<mgrwt>
<rscale>  0 0.25577606E+03</rscale>
<asrwt>0</asrwt>
<pdfrwt beam="1">  1        2 0.21165323E+00 0.25577606E+03</pdfrwt>
<pdfrwt beam="2">  1       -2 0.18289767E-02 0.25577606E+03</pdfrwt>
<totfact> 0.14008903E+04</totfact>
</mgrwt>
</event>
<event>
 4    1  0.1710914E-004  0.2969815E+03  0.7818608E-02  0.1086759E+00
         -2   -1    0    0    0  501 -0.00000000000E+00  0.00000000000E+00  0.28802887776E+02  0.28802887776E+02  0.00000000000E+00 0.  1.
          2   -1    0    0  501    0  0.00000000000E+00 -0.00000000000E+00 -0.76553101294E+03  0.76553101294E+03  0.00000000000E+00 0.  1.
         25    1    1    2    0    0 -0.49360195504E+02 -0.58620996821E+02 -0.48110329718E+03  0.50173023900E+03  0.12000000000E+03 0.  0.
         25    1    1    2    0    0  0.49360195504E+02  0.58620996821E+02 -0.25562482799E+03  0.29260366172E+03  0.12000000000E+03 0.  0.
<mgrwt>
<rscale>  0 0.29698151E+03</rscale>
<asrwt>0</asrwt>
<pdfrwt beam="1">  1        2 0.11777399E+00 0.29698151E+03</pdfrwt>
<pdfrwt beam="2">  1       -2 0.44312140E-02 0.29698151E+03</pdfrwt>
<totfact> 0.88287960E+03</totfact>
</mgrwt>
</event>
<event>
 4    1  0.1710914E-004  0.2557802E+03  0.7818608E-02  0.1109705E+00
          2   -1    0    0  501    0  0.00000000000E+00  0.00000000000E+00  0.18053062654E+03  0.18053062654E+03  0.00000000000E+00 0.  1.
         -2   -1    0    0    0  501 -0.00000000000E+00 -0.00000000000E+00 -0.90598908377E+02  0.90598908377E+02  0.00000000000E+00 0.  1.
         25    1    1    2    0    0  0.27277763351E+02  0.11135794769E+02  0.79926832343E+02  0.14716107103E+03  0.12000000000E+03 0.  0.
         25    1    1    2    0    0 -0.27277763351E+02 -0.11135794769E+02  0.10004885823E+02  0.12396846389E+03  0.12000000000E+03 0.  0.
<mgrwt>
<rscale>  0 0.25578020E+03</rscale>
<asrwt>0</asrwt>
<pdfrwt beam="1">  1        2 0.27773942E-01 0.25578020E+03</pdfrwt>
<pdfrwt beam="2">  1       -2 0.13938294E-01 0.25578020E+03</pdfrwt>
<totfact> 0.72980361E+03</totfact>
</mgrwt>
</event>
<event>
 4    1  0.1710914E-004  0.2694696E+03  0.7818608E-02  0.1101584E+00
         -1   -1    0    0    0  501 -0.00000000000E+00  0.00000000000E+00  0.10804695580E+02  0.10804695580E+02  0.00000000000E+00 0.  1.
          1   -1    0    0  501    0  0.00000000000E+00 -0.00000000000E+00 -0.16801456339E+04  0.16801456339E+04  0.00000000000E+00 0.  1.
         25    1    1    2    0    0 -0.34272566713E+02 -0.41477526263E+02 -0.10185287530E+04  0.10269838434E+04  0.12000000000E+03 0.  0.
         25    1    1    2    0    0  0.34272566713E+02  0.41477526263E+02 -0.65081218534E+03  0.66396648605E+03  0.12000000000E+03 0.  0.
<mgrwt>
<rscale>  0 0.26946957E+03</rscale>
<asrwt>0</asrwt>
<pdfrwt beam="1">  1        1 0.25848403E+00 0.26946957E+03</pdfrwt>
<pdfrwt beam="2">  1       -1 0.16622603E-02 0.26946957E+03</pdfrwt>
<totfact> 0.48936201E+03</totfact>
</mgrwt>
</event>
<event>
 4    1  0.1710914E-004  0.2754568E+03  0.7818608E-02  0.1098197E+00
         -1   -1    0    0    0  501 -0.00000000000E+00  0.00000000000E+00  0.11092292557E+02  0.11092292557E+02  0.00000000000E+00 0.  1.
          1   -1    0    0  501    0  0.00000000000E+00 -0.00000000000E+00 -0.17101167996E+04  0.17101167996E+04  0.00000000000E+00 0.  1.
         25    1    1    2    0    0  0.21771320463E+00  0.62782653314E+02 -0.10060268098E+04  0.10151017934E+04  0.12000000000E+03 0.  0.
         25    1    1    2    0    0 -0.21771320463E+00 -0.62782653314E+02 -0.69299769733E+03  0.70610729883E+03  0.12000000000E+03 0.  0.
<mgrwt>
<rscale>  0 0.27545683E+03</rscale>
<asrwt>0</asrwt>
<pdfrwt beam="1">  1        1 0.26309493E+00 0.27545683E+03</pdfrwt>
<pdfrwt beam="2">  1       -1 0.17065063E-02 0.27545683E+03</pdfrwt>
<totfact> 0.45028275E+03</totfact>
</mgrwt>
</event>
<event>
 4    1  0.1710914E-004  0.3630808E+03  0.7818608E-02  0.1057371E+00
         -2   -1    0    0    0  501 -0.00000000000E+00  0.00000000000E+00  0.19408003071E+02  0.19408003071E+02  0.00000000000E+00 0.  1.
          2   -1    0    0  501    0  0.00000000000E+00 -0.00000000000E+00 -0.16981093899E+04  0.16981093899E+04  0.00000000000E+00 0.  1.
         25    1    1    2    0    0 -0.13577565433E+03 -0.62567903383E+01 -0.79632315417E+03  0.81670358246E+03  0.12000000000E+03 0.  0.
         25    1    1    2    0    0  0.13577565433E+03  0.62567903383E+01 -0.88237823262E+03  0.90081381047E+03  0.12000000000E+03 0.  0.
<mgrwt>
<rscale>  0 0.36308077E+03</rscale>
<asrwt>0</asrwt>
<pdfrwt beam="1">  1        2 0.26124758E+00 0.36308077E+03</pdfrwt>
<pdfrwt beam="2">  1       -2 0.29858468E-02 0.36308077E+03</pdfrwt>
<totfact> 0.45707704E+03</totfact>
</mgrwt>
</event>
<event>
 4    1  0.1710914E-004  0.2956531E+03  0.7818608E-02  0.1087434E+00
          1   -1    0    0  501    0  0.00000000000E+00  0.00000000000E+00  0.31089756988E+02  0.31089756988E+02  0.00000000000E+00 0. -1.
         -1   -1    0    0    0  501 -0.00000000000E+00 -0.00000000000E+00 -0.70289047982E+03  0.70289047982E+03  0.00000000000E+00 0. -1.
         25    1    1    2    0    0 -0.38312144894E+02 -0.21284603270E+02 -0.15125574110E+03  0.19798776225E+03  0.12000000000E+03 0.  0.
         25    1    1    2    0    0  0.38312144894E+02  0.21284603270E+02 -0.52054498172E+03  0.53599247456E+03  0.12000000000E+03 0.  0.
<mgrwt>
<rscale>  0 0.29565314E+03</rscale>
<asrwt>0</asrwt>
<pdfrwt beam="1">  1        1 0.47830396E-02 0.29565314E+03</pdfrwt>
<pdfrwt beam="2">  1       -1 0.10813700E+00 0.29565314E+03</pdfrwt>
<totfact> 0.14959381E+03</totfact>
</mgrwt>
</event>
<event>
 4    1  0.1710914E-004  0.2511288E+03  0.7818608E-02  0.1112594E+00
         -1   -1    0    0    0  501 -0.00000000000E+00  0.00000000000E+00  0.15185726909E+03  0.15185726909E+03  0.00000000000E+00 0. -1.
          1   -1    0    0  501    0  0.00000000000E+00 -0.00000000000E+00 -0.10382392093E+03  0.10382392093E+03  0.00000000000E+00 0. -1.
         25    1    1    2    0    0 -0.30157173151E+02 -0.49191796027E+01  0.45196758121E+02  0.13181957504E+03  0.12000000000E+03 0.  0.
         25    1    1    2    0    0  0.30157173151E+02  0.49191796027E+01  0.28365900377E+01  0.12386161497E+03  0.12000000000E+03 0.  0.
<mgrwt>
<rscale>  0 0.25112879E+03</rscale>
<asrwt>0</asrwt>
<pdfrwt beam="1">  1        1 0.15972911E-01 0.25112879E+03</pdfrwt>
<pdfrwt beam="2">  1       -1 0.23362657E-01 0.25112879E+03</pdfrwt>
<totfact> 0.52847731E+03</totfact>
</mgrwt>
</event>
<event>
 4    1  0.1710914E-004  0.2427061E+03  0.7818608E-02  0.1118003E+00
          2   -1    0    0  501    0  0.00000000000E+00  0.00000000000E+00  0.44673995104E+03  0.44673995104E+03  0.00000000000E+00 0. -1.
         -2   -1    0    0    0  501 -0.00000000000E+00 -0.00000000000E+00 -0.32964506550E+02  0.32964506550E+02  0.00000000000E+00 0. -1.
         25    1    1    2    0    0 -0.12479023366E+02 -0.76973562768E+01  0.22776622432E+03  0.25786125777E+03  0.12000000000E+03 0.  0.
         25    1    1    2    0    0  0.12479023366E+02  0.76973562768E+01  0.18600922017E+03  0.22184319982E+03  0.12000000000E+03 0.  0.
<mgrwt>
<rscale>  0 0.24270609E+03</rscale>
<asrwt>0</asrwt>
<pdfrwt beam="1">  1        2 0.68729219E-01 0.24270609E+03</pdfrwt>
<pdfrwt beam="2">  1       -2 0.50714629E-02 0.24270609E+03</pdfrwt>
<totfact> 0.13341756E+04</totfact>
</mgrwt>
</event>
<event>
 4    1  0.1710914E-004  0.3695638E+03  0.7818608E-02  0.1054860E+00
          2   -1    0    0  501    0  0.00000000000E+00  0.00000000000E+00  0.53341263494E+03  0.53341263494E+03  0.00000000000E+00 0.  1.
         -2   -1    0    0    0  501 -0.00000000000E+00 -0.00000000000E+00 -0.64011138239E+02  0.64011138239E+02  0.00000000000E+00 0.  1.
         25    1    1    2    0    0 -0.45463789365E+02 -0.11177401653E+03  0.11830850817E+03  0.20726140504E+03  0.12000000000E+03 0.  0.
         25    1    1    2    0    0  0.45463789365E+02  0.11177401653E+03  0.35109298853E+03  0.39016236813E+03  0.12000000000E+03 0.  0.
<mgrwt>
<rscale>  0 0.36956380E+03</rscale>
<asrwt>0</asrwt>
<pdfrwt beam="1">  1        2 0.82063479E-01 0.36956380E+03</pdfrwt>
<pdfrwt beam="2">  1       -2 0.98478678E-02 0.36956380E+03</pdfrwt>
<totfact> 0.39519942E+03</totfact>
</mgrwt>
</event>
<event>
 4    1  0.1710914E-004  0.2757630E+03  0.7818608E-02  0.1098026E+00
         -4   -1    0    0    0  501 -0.00000000000E+00  0.00000000000E+00  0.74693913397E+02  0.74693913397E+02  0.00000000000E+00 0. -1.
          4   -1    0    0  501    0  0.00000000000E+00 -0.00000000000E+00 -0.25452291261E+03  0.25452291261E+03  0.00000000000E+00 0. -1.
         25    1    1    2    0    0 -0.28294446251E+02  0.53239872084E+02 -0.52612929886E+02  0.14423307547E+03  0.12000000000E+03 0.  0.
         25    1    1    2    0    0  0.28294446251E+02 -0.53239872084E+02 -0.12721606933E+03  0.18498375054E+03  0.12000000000E+03 0.  0.
<mgrwt>
<rscale>  0 0.27576303E+03</rscale>
<asrwt>0</asrwt>
<pdfrwt beam="1">  1        4 0.39157371E-01 0.27576303E+03</pdfrwt>
<pdfrwt beam="2">  1       -4 0.11491371E-01 0.27576303E+03</pdfrwt>
<totfact> 0.71234032E+02</totfact>
</mgrwt>
</event>
<event>
 4    1  0.1710914E-004  0.3003517E+03  0.7818608E-02  0.1085065E+00
          2   -1    0    0  501    0  0.00000000000E+00  0.00000000000E+00  0.15004911139E+04  0.15004911139E+04  0.00000000000E+00 0.  1.
         -2   -1    0    0    0  501 -0.00000000000E+00 -0.00000000000E+00 -0.15030268848E+02  0.15030268848E+02  0.00000000000E+00 0.  1.
         25    1    1    2    0    0  0.64610695652E+02 -0.26077212361E+02  0.45294808161E+03  0.47372621590E+03  0.12000000000E+03 0.  0.
         25    1    1    2    0    0 -0.64610695652E+02  0.26077212361E+02  0.10325127635E+04  0.10417951669E+04  0.12000000000E+03 0.  0.
<mgrwt>
<rscale>  0 0.30035169E+03</rscale>
<asrwt>0</asrwt>
<pdfrwt beam="1">  1        2 0.23084467E+00 0.30035169E+03</pdfrwt>
<pdfrwt beam="2">  1       -2 0.23123502E-02 0.30035169E+03</pdfrwt>
<totfact> 0.85221065E+03</totfact>
</mgrwt>
</event>
<event>
 4    1  0.1710914E-004  0.2975426E+03  0.7818608E-02  0.1086476E+00
         -3   -1    0    0    0  501 -0.00000000000E+00  0.00000000000E+00  0.10394547293E+03  0.10394547293E+03  0.00000000000E+00 0. -1.
          3   -1    0    0  501    0  0.00000000000E+00 -0.00000000000E+00 -0.21292798203E+03  0.21292798203E+03  0.00000000000E+00 0. -1.
         25    1    1    2    0    0 -0.33137930577E+02 -0.48035531044E+02 -0.12454776063E+03  0.18253131064E+03  0.12000000000E+03 0.  0.
         25    1    1    2    0    0  0.33137930577E+02  0.48035531044E+02  0.15565251529E+02  0.13434214432E+03  0.12000000000E+03 0.  0.
<mgrwt>
<rscale>  0 0.29754260E+03</rscale>
<asrwt>0</asrwt>
<pdfrwt beam="1">  1        3 0.32758151E-01 0.29754260E+03</pdfrwt>
<pdfrwt beam="2">  1       -3 0.15991611E-01 0.29754260E+03</pdfrwt>
<totfact> 0.77488309E+02</totfact>
</mgrwt>
</event>
<event>
 4    1  0.1710914E-004  0.2593167E+03  0.7818608E-02  0.1107554E+00
         -2   -1    0    0    0  501 -0.00000000000E+00  0.00000000000E+00  0.21433822907E+02  0.21433822907E+02  0.00000000000E+00 0.  1.
          2   -1    0    0  501    0  0.00000000000E+00 -0.00000000000E+00 -0.78433435317E+03  0.78433435317E+03  0.00000000000E+00 0.  1.
         25    1    1    2    0    0 -0.46901464668E+01 -0.48782810403E+02 -0.39103939835E+03  0.41196307010E+03  0.12000000000E+03 0.  0.
         25    1    1    2    0    0  0.46901464668E+01  0.48782810403E+02 -0.37186113191E+03  0.39380510597E+03  0.12000000000E+03 0.  0.
<mgrwt>
<rscale>  0 0.25931667E+03</rscale>
<asrwt>0</asrwt>
<pdfrwt beam="1">  1        2 0.12066681E+00 0.25931667E+03</pdfrwt>
<pdfrwt beam="2">  1       -2 0.32975117E-02 0.25931667E+03</pdfrwt>
<totfact> 0.13286244E+04</totfact>
</mgrwt>
</event>
<event>
 4    1  0.1710914E-004  0.2509473E+03  0.7818608E-02  0.1112708E+00
         -1   -1    0    0    0  501 -0.00000000000E+00  0.00000000000E+00  0.11693715914E+04  0.11693715914E+04  0.00000000000E+00 0.  1.
          1   -1    0    0  501    0  0.00000000000E+00 -0.00000000000E+00 -0.13463331223E+02  0.13463331223E+02  0.00000000000E+00 0.  1.
         25    1    1    2    0    0  0.25456918489E+02  0.48307106063E+01  0.70016389641E+03  0.71084518167E+03  0.12000000000E+03 0.  0.
         25    1    1    2    0    0 -0.25456918489E+02 -0.48307106063E+01  0.45574436381E+03  0.47198974100E+03  0.12000000000E+03 0.  0.
<mgrwt>
<rscale>  0 0.25094730E+03</rscale>
<asrwt>0</asrwt>
<pdfrwt beam="1">  1        1 0.20712826E-02 0.25094730E+03</pdfrwt>
<pdfrwt beam="2">  1       -1 0.17990324E+00 0.25094730E+03</pdfrwt>
<totfact> 0.13152887E+03</totfact>
</mgrwt>
</event>
<event>
 4    1  0.1710914E-004  0.2689296E+03  0.7818608E-02  0.1101894E+00
          1   -1    0    0  501    0  0.00000000000E+00  0.00000000000E+00  0.40626444578E+03  0.40626444578E+03  0.00000000000E+00 0.  1.
         -1   -1    0    0    0  501 -0.00000000000E+00 -0.00000000000E+00 -0.44504967503E+02  0.44504967503E+02  0.00000000000E+00 0.  1.
         25    1    1    2    0    0 -0.15280278376E+02  0.71129912718E+00  0.27928615154E+03  0.30435956909E+03  0.12000000000E+03 0.  0.
         25    1    1    2    0    0  0.15280278376E+02 -0.71129912718E+00  0.82473326735E+02  0.14640984419E+03  0.12000000000E+03 0.  0.
<mgrwt>
<rscale>  0 0.26892963E+03</rscale>
<asrwt>0</asrwt>
<pdfrwt beam="1">  1        1 0.62502220E-01 0.26892963E+03</pdfrwt>
<pdfrwt beam="2">  1       -1 0.68469183E-02 0.26892963E+03</pdfrwt>
<totfact> 0.64448469E+03</totfact>
</mgrwt>
</event>
<event>
 4    1  0.1710914E-004  0.2585394E+03  0.7818608E-02  0.1108024E+00
          1   -1    0    0  501    0  0.00000000000E+00  0.00000000000E+00  0.13134175064E+04  0.13134175064E+04  0.00000000000E+00 0. -1.
         -1   -1    0    0    0  501 -0.00000000000E+00 -0.00000000000E+00 -0.12723030680E+02  0.12723030680E+02  0.00000000000E+00 0. -1.
         25    1    1    2    0    0  0.20582578141E+02  0.29796923589E+02  0.81248294111E+03  0.82209490253E+03  0.12000000000E+03 0.  0.
         25    1    1    2    0    0 -0.20582578141E+02 -0.29796923589E+02  0.48821153462E+03  0.50404563456E+03  0.12000000000E+03 0.  0.
<mgrwt>
<rscale>  0 0.25853937E+03</rscale>
<asrwt>0</asrwt>
<pdfrwt beam="1">  1        1 0.20206412E+00 0.25853937E+03</pdfrwt>
<pdfrwt beam="2">  1       -1 0.19573904E-02 0.25853937E+03</pdfrwt>
<totfact> 0.67505838E+03</totfact>
</mgrwt>
</event>
<event>
 4    1  0.1710914E-004  0.2547845E+03  0.7818608E-02  0.1110318E+00
          2   -1    0    0  501    0  0.00000000000E+00  0.00000000000E+00  0.57736702878E+03  0.57736702878E+03  0.00000000000E+00 0. -1.
         -2   -1    0    0    0  501 -0.00000000000E+00 -0.00000000000E+00 -0.28108272756E+02  0.28108272756E+02  0.00000000000E+00 0. -1.
         25    1    1    2    0    0 -0.14616439184E+02 -0.35075405674E+02  0.32124998084E+03  0.34502967201E+03  0.12000000000E+03 0.  0.
         25    1    1    2    0    0  0.14616439184E+02  0.35075405674E+02  0.22800877518E+03  0.26044562952E+03  0.12000000000E+03 0.  0.
<mgrwt>
<rscale>  0 0.25478454E+03</rscale>
<asrwt>0</asrwt>
<pdfrwt beam="1">  1        2 0.88825688E-01 0.25478454E+03</pdfrwt>
<pdfrwt beam="2">  1       -2 0.43243501E-02 0.25478454E+03</pdfrwt>
<totfact> 0.12767861E+04</totfact>
</mgrwt>
</event>
<event>
 4    1  0.1710914E-004  0.2418106E+03  0.7818608E-02  0.1118592E+00
         -1   -1    0    0    0  501 -0.00000000000E+00  0.00000000000E+00  0.11504521273E+03  0.11504521273E+03  0.00000000000E+00 0. -1.
          1   -1    0    0  501    0  0.00000000000E+00 -0.00000000000E+00 -0.12706393072E+03  0.12706393072E+03  0.00000000000E+00 0. -1.
         25    1    1    2    0    0  0.12986582419E+02 -0.55724403903E+01 -0.17152974516E+01  0.12084140706E+03  0.12000000000E+03 0.  0.
         25    1    1    2    0    0 -0.12986582419E+02  0.55724403903E+01 -0.10303420546E+02  0.12126773639E+03  0.12000000000E+03 0.  0.
<mgrwt>
<rscale>  0 0.24181064E+03</rscale>
<asrwt>0</asrwt>
<pdfrwt beam="1">  1        1 0.19548297E-01 0.24181064E+03</pdfrwt>
<pdfrwt beam="2">  1       -1 0.17699264E-01 0.24181064E+03</pdfrwt>
<totfact> 0.63775992E+03</totfact>
</mgrwt>
</event>
<event>
 4    1  0.1710914E-004  0.2570187E+03  0.7818608E-02  0.1108948E+00
         -2   -1    0    0    0  501 -0.00000000000E+00  0.00000000000E+00  0.11530692793E+02  0.11530692793E+02  0.00000000000E+00 0. -1.
          2   -1    0    0  501    0  0.00000000000E+00 -0.00000000000E+00 -0.14322347238E+04  0.14322347238E+04  0.00000000000E+00 0. -1.
         25    1    1    2    0    0  0.23849128516E+02 -0.38000609524E+02 -0.65366643537E+03  0.66610257167E+03  0.12000000000E+03 0.  0.
         25    1    1    2    0    0 -0.23849128516E+02  0.38000609524E+02 -0.76703759562E+03  0.77766284491E+03  0.12000000000E+03 0.  0.
<mgrwt>
<rscale>  0 0.25701874E+03</rscale>
<asrwt>0</asrwt>
<pdfrwt beam="1">  1        2 0.22034374E+00 0.25701874E+03</pdfrwt>
<pdfrwt beam="2">  1       -2 0.17739532E-02 0.25701874E+03</pdfrwt>
<totfact> 0.13656125E+04</totfact>
</mgrwt>
</event>
<event>
 4    1  0.1710914E-004  0.2979623E+03  0.7818608E-02  0.1086264E+00
          1   -1    0    0  501    0  0.00000000000E+00  0.00000000000E+00  0.22176059599E+03  0.22176059599E+03  0.00000000000E+00 0.  1.
         -1   -1    0    0    0  501 -0.00000000000E+00 -0.00000000000E+00 -0.10008712525E+03  0.10008712525E+03  0.00000000000E+00 0.  1.
         25    1    1    2    0    0 -0.86707758450E+02 -0.14656053525E+02  0.52307877333E+02  0.15769955394E+03  0.12000000000E+03 0.  0.
         25    1    1    2    0    0  0.86707758450E+02  0.14656053525E+02  0.69365593407E+02  0.16414816730E+03  0.12000000000E+03 0.  0.
<mgrwt>
<rscale>  0 0.29796228E+03</rscale>
<asrwt>0</asrwt>
<pdfrwt beam="1">  1        1 0.34117014E-01 0.29796228E+03</pdfrwt>
<pdfrwt beam="2">  1       -1 0.15398019E-01 0.29796228E+03</pdfrwt>
<totfact> 0.39528282E+03</totfact>
</mgrwt>
</event>
<event>
 4    1  0.1710914E-004  0.2825203E+03  0.7818608E-02  0.1094320E+00
         -2   -1    0    0    0  501 -0.00000000000E+00  0.00000000000E+00  0.33532219430E+02  0.33532219430E+02  0.00000000000E+00 0. -1.
          2   -1    0    0  501    0  0.00000000000E+00 -0.00000000000E+00 -0.59508224381E+03  0.59508224381E+03  0.00000000000E+00 0. -1.
         25    1    1    2    0    0 -0.42972718914E+00 -0.73958636062E+02 -0.30121181527E+03  0.33256371145E+03  0.12000000000E+03 0.  0.
         25    1    1    2    0    0  0.42972718914E+00  0.73958636062E+02 -0.26033820911E+03  0.29605075179E+03  0.12000000000E+03 0.  0.
<mgrwt>
<rscale>  0 0.28252029E+03</rscale>
<asrwt>0</asrwt>
<pdfrwt beam="1">  1        2 0.91551105E-01 0.28252029E+03</pdfrwt>
<pdfrwt beam="2">  1       -2 0.51588035E-02 0.28252029E+03</pdfrwt>
<totfact> 0.94772289E+03</totfact>
</mgrwt>
</event>
<event>
 4    1  0.1710914E-004  0.2946663E+03  0.7818608E-02  0.1087938E+00
          2   -1    0    0  501    0  0.00000000000E+00  0.00000000000E+00  0.11168331660E+04  0.11168331660E+04  0.00000000000E+00 0. -1.
         -2   -1    0    0    0  501 -0.00000000000E+00 -0.00000000000E+00 -0.19436251327E+02  0.19436251327E+02  0.00000000000E+00 0. -1.
         25    1    1    2    0    0 -0.46334437671E+02 -0.48015208887E+02  0.34266777842E+03  0.36915247089E+03  0.12000000000E+03 0.  0.
         25    1    1    2    0    0  0.46334437671E+02  0.48015208887E+02  0.75472913626E+03  0.76711694644E+03  0.12000000000E+03 0.  0.
<mgrwt>
<rscale>  0 0.29466625E+03</rscale>
<asrwt>0</asrwt>
<pdfrwt beam="1">  1        2 0.17182044E+00 0.29466625E+03</pdfrwt>
<pdfrwt beam="2">  1       -2 0.29901934E-02 0.29466625E+03</pdfrwt>
<totfact> 0.95097621E+03</totfact>
</mgrwt>
</event>
<event>
 4    1  0.1710914E-004  0.2650941E+03  0.7818608E-02  0.1104121E+00
          2   -1    0    0  501    0  0.00000000000E+00  0.00000000000E+00  0.18816769451E+03  0.18816769451E+03  0.00000000000E+00 0.  1.
         -2   -1    0    0    0  501 -0.00000000000E+00 -0.00000000000E+00 -0.93367324543E+02  0.93367324543E+02  0.00000000000E+00 0.  1.
         25    1    1    2    0    0 -0.72034048385E+01 -0.35383398173E+02  0.93262213536E+02  0.15621048102E+03  0.12000000000E+03 0.  0.
         25    1    1    2    0    0  0.72034048385E+01  0.35383398173E+02  0.15381564306E+01  0.12532453803E+03  0.12000000000E+03 0.  0.
<mgrwt>
<rscale>  0 0.26509405E+03</rscale>
<asrwt>0</asrwt>
<pdfrwt beam="1">  1        2 0.28948876E-01 0.26509405E+03</pdfrwt>
<pdfrwt beam="2">  1       -2 0.14364204E-01 0.26509405E+03</pdfrwt>
<totfact> 0.66462082E+03</totfact>
</mgrwt>
</event>
<event>
 4    1  0.1710914E-004  0.2577450E+03  0.7818608E-02  0.1108506E+00
         -2   -1    0    0    0  501 -0.00000000000E+00  0.00000000000E+00  0.53583930602E+02  0.53583930602E+02  0.00000000000E+00 0. -1.
          2   -1    0    0  501    0  0.00000000000E+00 -0.00000000000E+00 -0.30994597244E+03  0.30994597244E+03  0.00000000000E+00 0. -1.
         25    1    1    2    0    0 -0.20436513755E+02 -0.27948060088E+02 -0.17299121745E+03  0.21336519508E+03  0.12000000000E+03 0.  0.
         25    1    1    2    0    0  0.20436513755E+02  0.27948060088E+02 -0.83370824383E+02  0.15016470796E+03  0.12000000000E+03 0.  0.
<mgrwt>
<rscale>  0 0.25774502E+03</rscale>
<asrwt>0</asrwt>
<pdfrwt beam="1">  1        2 0.47683995E-01 0.25774502E+03</pdfrwt>
<pdfrwt beam="2">  1       -2 0.82436817E-02 0.25774502E+03</pdfrwt>
<totfact> 0.94062030E+03</totfact>
</mgrwt>
</event>
<event>
 4    1  0.1710914E-004  0.2554904E+03  0.7818608E-02  0.1109883E+00
         -4   -1    0    0    0  501 -0.00000000000E+00  0.00000000000E+00  0.13357253614E+03  0.13357253614E+03  0.00000000000E+00 0. -1.
          4   -1    0    0  501    0  0.00000000000E+00 -0.00000000000E+00 -0.12217209229E+03  0.12217209229E+03  0.00000000000E+00 0. -1.
         25    1    1    2    0    0 -0.22577225977E+02 -0.24435306497E+01  0.43195928692E+02  0.12954377727E+03  0.12000000000E+03 0.  0.
         25    1    1    2    0    0  0.22577225977E+02  0.24435306497E+01 -0.31795484846E+02  0.12620085115E+03  0.12000000000E+03 0.  0.
<mgrwt>
<rscale>  0 0.25549040E+03</rscale>
<asrwt>0</asrwt>
<pdfrwt beam="1">  1        4 0.18795706E-01 0.25549040E+03</pdfrwt>
<pdfrwt beam="2">  1       -4 0.20549621E-01 0.25549040E+03</pdfrwt>
<totfact> 0.10064199E+03</totfact>
</mgrwt>
</event>
<event>
 4    1  0.1710914E-004  0.5346065E+03  0.7818608E-02  0.1005121E+00
          2   -1    0    0  501    0  0.00000000000E+00  0.00000000000E+00  0.69065480432E+03  0.69065480432E+03  0.00000000000E+00 0.  1.
         -2   -1    0    0    0  501 -0.00000000000E+00 -0.00000000000E+00 -0.10345404311E+03  0.10345404311E+03  0.00000000000E+00 0.  1.
         25    1    1    2    0    0  0.15070368551E+03  0.17575098340E+03  0.38086128449E+03  0.46157916657E+03  0.12000000000E+03 0.  0.
         25    1    1    2    0    0 -0.15070368551E+03 -0.17575098340E+03  0.20633947672E+03  0.33252968085E+03  0.12000000000E+03 0.  0.
<mgrwt>
<rscale>  0 0.53460652E+03</rscale>
<asrwt>0</asrwt>
<pdfrwt beam="1">  1        2 0.10625458E+00 0.53460652E+03</pdfrwt>
<pdfrwt beam="2">  1       -2 0.15916007E-01 0.53460652E+03</pdfrwt>
<totfact> 0.13235601E+03</totfact>
</mgrwt>
</event>
<event>
 4    1  0.1710914E-004  0.2856861E+03  0.7818608E-02  0.1092623E+00
          4   -1    0    0  501    0  0.00000000000E+00  0.00000000000E+00  0.34564649585E+03  0.34564649585E+03  0.00000000000E+00 0.  1.
         -4   -1    0    0    0  501 -0.00000000000E+00 -0.00000000000E+00 -0.59031826224E+02  0.59031826224E+02  0.00000000000E+00 0.  1.
         25    1    1    2    0    0  0.16954942515E+02 -0.75590117290E+02  0.14093368295E+03  0.20065801479E+03  0.12000000000E+03 0.  0.
         25    1    1    2    0    0 -0.16954942515E+02  0.75590117290E+02  0.14568098667E+03  0.20402030729E+03  0.12000000000E+03 0.  0.
<mgrwt>
<rscale>  0 0.28568615E+03</rscale>
<asrwt>0</asrwt>
<pdfrwt beam="1">  1        4 0.53176383E-01 0.28568615E+03</pdfrwt>
<pdfrwt beam="2">  1       -4 0.90818196E-02 0.28568615E+03</pdfrwt>
<totfact> 0.57439254E+02</totfact>
</mgrwt>
</event>
<event>
 4    1  0.1710914E-004  0.3341819E+03  0.7818608E-02  0.1069301E+00
         -2   -1    0    0    0  501 -0.00000000000E+00  0.00000000000E+00  0.16599867691E+02  0.16599867691E+02  0.00000000000E+00 0. -1.
          2   -1    0    0  501    0  0.00000000000E+00 -0.00000000000E+00 -0.16819044932E+04  0.16819044932E+04  0.00000000000E+00 0. -1.
         25    1    1    2    0    0 -0.14483138087E+02  0.89279222957E+02 -0.46128164646E+03  0.48514049336E+03  0.12000000000E+03 0.  0.
         25    1    1    2    0    0  0.14483138087E+02 -0.89279222957E+02 -0.12040229791E+04  0.12133638676E+04  0.12000000000E+03 0.  0.
<mgrwt>
<rscale>  0 0.33418194E+03</rscale>
<asrwt>0</asrwt>
<pdfrwt beam="1">  1        2 0.25875460E+00 0.33418194E+03</pdfrwt>
<pdfrwt beam="2">  1       -2 0.25538252E-02 0.33418194E+03</pdfrwt>
<totfact> 0.58892697E+03</totfact>
</mgrwt>
</event>
<event>
 4    1  0.1710914E-004  0.3146530E+03  0.7818608E-02  0.1078137E+00
          2   -1    0    0  501    0  0.00000000000E+00  0.00000000000E+00  0.30438841941E+04  0.30438841941E+04  0.00000000000E+00 0.  1.
         -2   -1    0    0    0  501 -0.00000000000E+00 -0.00000000000E+00 -0.81315915846E+01  0.81315915846E+01  0.00000000000E+00 0.  1.
         25    1    1    2    0    0 -0.62130876677E+02 -0.58675210380E+02  0.98232023432E+03  0.99330562714E+03  0.12000000000E+03 0.  0.
         25    1    1    2    0    0  0.62130876677E+02  0.58675210380E+02  0.20534323682E+04  0.20587101585E+04  0.12000000000E+03 0.  0.
<mgrwt>
<rscale>  0 0.31465297E+03</rscale>
<asrwt>0</asrwt>
<pdfrwt beam="1">  1        2 0.46828897E+00 0.31465297E+03</pdfrwt>
<pdfrwt beam="2">  1       -2 0.12510165E-02 0.31465297E+03</pdfrwt>
<totfact> 0.30071094E+03</totfact>
</mgrwt>
</event>
<event>
 4    1  0.1710914E-004  0.3379648E+03  0.7818608E-02  0.1067666E+00
          2   -1    0    0  501    0  0.00000000000E+00  0.00000000000E+00  0.36471994090E+03  0.36471994090E+03  0.00000000000E+00 0.  1.
         -2   -1    0    0    0  501 -0.00000000000E+00 -0.00000000000E+00 -0.78293106088E+02  0.78293106088E+02  0.00000000000E+00 0.  1.
         25    1    1    2    0    0  0.81864898011E+01  0.44821147591E+01  0.29868835765E+03  0.32202770527E+03  0.12000000000E+03 0.  0.
         25    1    1    2    0    0 -0.81864898011E+01 -0.44821147591E+01 -0.12261522836E+02  0.12098534172E+03  0.12000000000E+03 0.  0.
<mgrwt>
<rscale>  0 0.33796483E+03</rscale>
<asrwt>0</asrwt>
<pdfrwt beam="1">  1        2 0.56110759E-01 0.33796483E+03</pdfrwt>
<pdfrwt beam="2">  1       -2 0.12045093E-01 0.33796483E+03</pdfrwt>
<totfact> 0.43514737E+03</totfact>
</mgrwt>
</event>
<event>
 4    1  0.1710914E-004  0.3133091E+03  0.7818608E-02  0.1078771E+00
         -4   -1    0    0    0  501 -0.00000000000E+00  0.00000000000E+00  0.51713745994E+03  0.51713745994E+03  0.00000000000E+00 0.  1.
          4   -1    0    0  501    0  0.00000000000E+00 -0.00000000000E+00 -0.47454788495E+02  0.47454788495E+02  0.00000000000E+00 0.  1.
         25    1    1    2    0    0  0.85640920246E+02  0.13692593605E+01  0.13941189184E+03  0.20290864368E+03  0.12000000000E+03 0.  0.
         25    1    1    2    0    0 -0.85640920246E+02 -0.13692593605E+01  0.33027077960E+03  0.36168360475E+03  0.12000000000E+03 0.  0.
<mgrwt>
<rscale>  0 0.31330910E+03</rscale>
<asrwt>0</asrwt>
<pdfrwt beam="1">  1        4 0.73007371E-02 0.31330910E+03</pdfrwt>
<pdfrwt beam="2">  1       -4 0.79559605E-01 0.31330910E+03</pdfrwt>
<totfact> 0.35124578E+02</totfact>
</mgrwt>
</event>
<event>
 4    1  0.1710914E-004  0.3082958E+03  0.7818608E-02  0.1081166E+00
          1   -1    0    0  501    0  0.00000000000E+00  0.00000000000E+00  0.40313398431E+03  0.40313398431E+03  0.00000000000E+00 0. -1.
         -1   -1    0    0    0  501 -0.00000000000E+00 -0.00000000000E+00 -0.58942127045E+02  0.58942127045E+02  0.00000000000E+00 0. -1.
         25    1    1    2    0    0  0.20434198881E+02  0.71371035954E+02  0.79095022853E+02  0.16176341953E+03  0.12000000000E+03 0.  0.
         25    1    1    2    0    0 -0.20434198881E+02 -0.71371035954E+02  0.26509683441E+03  0.30031269183E+03  0.12000000000E+03 0.  0.
<mgrwt>
<rscale>  0 0.30829580E+03</rscale>
<asrwt>0</asrwt>
<pdfrwt beam="1">  1        1 0.62020611E-01 0.30829580E+03</pdfrwt>
<pdfrwt beam="2">  1       -1 0.90680198E-02 0.30829580E+03</pdfrwt>
<totfact> 0.42527319E+03</totfact>
</mgrwt>
</event>
<event>
 4    1  0.1710914E-004  0.3063738E+03  0.7818608E-02  0.1082097E+00
         -1   -1    0    0    0  501 -0.00000000000E+00  0.00000000000E+00  0.97890117427E+01  0.97890117427E+01  0.00000000000E+00 0. -1.
          1   -1    0    0  501    0  0.00000000000E+00 -0.00000000000E+00 -0.23972008375E+04  0.23972008375E+04  0.00000000000E+00 0. -1.
         25    1    1    2    0    0 -0.27406493094E+02  0.77093066900E+02 -0.81109359909E+03  0.82399471073E+03  0.12000000000E+03 0.  0.
         25    1    1    2    0    0  0.27406493094E+02 -0.77093066900E+02 -0.15763182267E+04  0.15829951385E+04  0.12000000000E+03 0.  0.
<mgrwt>
<rscale>  0 0.30637381E+03</rscale>
<asrwt>0</asrwt>
<pdfrwt beam="1">  1        1 0.36879985E+00 0.30637381E+03</pdfrwt>
<pdfrwt beam="2">  1       -1 0.15060029E-02 0.30637381E+03</pdfrwt>
<totfact> 0.19212478E+03</totfact>
</mgrwt>
</event>
<event>
 4    1  0.1710914E-004  0.2686308E+03  0.7818608E-02  0.1102066E+00
          1   -1    0    0  501    0  0.00000000000E+00  0.00000000000E+00  0.14271534838E+03  0.14271534838E+03  0.00000000000E+00 0.  1.
         -1   -1    0    0    0  501 -0.00000000000E+00 -0.00000000000E+00 -0.12640985521E+03  0.12640985521E+03  0.00000000000E+00 0.  1.
         25    1    1    2    0    0  0.29266060029E+02  0.24065109359E+02  0.55196541635E+02  0.13741284498E+03  0.12000000000E+03 0.  0.
         25    1    1    2    0    0 -0.29266060029E+02 -0.24065109359E+02 -0.38891048463E+02  0.13171235860E+03  0.12000000000E+03 0.  0.
<mgrwt>
<rscale>  0 0.26863080E+03</rscale>
<asrwt>0</asrwt>
<pdfrwt beam="1">  1        1 0.21956207E-01 0.26863080E+03</pdfrwt>
<pdfrwt beam="2">  1       -1 0.19447670E-01 0.26863080E+03</pdfrwt>
<totfact> 0.47384305E+03</totfact>
</mgrwt>
</event>
<event>
 4    1  0.1710914E-004  0.3141453E+03  0.7818608E-02  0.1078376E+00
          2   -1    0    0  501    0  0.00000000000E+00  0.00000000000E+00  0.27509433254E+04  0.27509433254E+04  0.00000000000E+00 0.  1.
         -2   -1    0    0    0  501 -0.00000000000E+00 -0.00000000000E+00 -0.89684938906E+01  0.89684938906E+01  0.00000000000E+00 0.  1.
         25    1    1    2    0    0  0.28935490213E+02 -0.37292475255E+02  0.21589325796E+04  0.21627801263E+04  0.12000000000E+03 0.  0.
         25    1    1    2    0    0 -0.28935490213E+02  0.37292475255E+02  0.58304225188E+03  0.59713169300E+03  0.12000000000E+03 0.  0.
<mgrwt>
<rscale>  0 0.31414531E+03</rscale>
<asrwt>0</asrwt>
<pdfrwt beam="1">  1        2 0.42322138E+00 0.31414531E+03</pdfrwt>
<pdfrwt beam="2">  1       -2 0.13797705E-02 0.31414531E+03</pdfrwt>
<totfact> 0.38651080E+03</totfact>
</mgrwt>
</event>
<event>
 4    1  0.1710914E-004  0.2771625E+03  0.7818608E-02  0.1097249E+00
         -4   -1    0    0    0  501 -0.00000000000E+00  0.00000000000E+00  0.74024497207E+03  0.74024497207E+03  0.00000000000E+00 0. -1.
          4   -1    0    0  501    0  0.00000000000E+00 -0.00000000000E+00 -0.25943800400E+02  0.25943800400E+02  0.00000000000E+00 0. -1.
         25    1    1    2    0    0  0.49514051861E+02  0.19967950524E+02  0.47936116698E+03  0.49702865993E+03  0.12000000000E+03 0.  0.
         25    1    1    2    0    0 -0.49514051861E+02 -0.19967950524E+02  0.23494000468E+03  0.26916011253E+03  0.12000000000E+03 0.  0.
<mgrwt>
<rscale>  0 0.27716254E+03</rscale>
<asrwt>0</asrwt>
<pdfrwt beam="1">  1        4 0.39913545E-02 0.27716254E+03</pdfrwt>
<pdfrwt beam="2">  1       -4 0.11388383E+00 0.27716254E+03</pdfrwt>
<totfact> 0.40341213E+02</totfact>
</mgrwt>
</event>
<event>
 4    1  0.1710914E-004  0.2570077E+03  0.7818608E-02  0.1108955E+00
         -1   -1    0    0    0  501 -0.00000000000E+00  0.00000000000E+00  0.81373753931E+01  0.81373753931E+01  0.00000000000E+00 0. -1.
          1   -1    0    0  501    0  0.00000000000E+00 -0.00000000000E+00 -0.20293073440E+04  0.20293073440E+04  0.00000000000E+00 0. -1.
         25    1    1    2    0    0  0.13722328112E+02 -0.17183618931E+02 -0.13306128528E+04  0.13361939018E+04  0.12000000000E+03 0.  0.
         25    1    1    2    0    0 -0.13722328112E+02  0.17183618931E+02 -0.69055711583E+03  0.70125081766E+03  0.12000000000E+03 0.  0.
<mgrwt>
<rscale>  0 0.25700767E+03</rscale>
<asrwt>0</asrwt>
<pdfrwt beam="1">  1        1 0.31220163E+00 0.25700767E+03</pdfrwt>
<pdfrwt beam="2">  1       -1 0.12519019E-02 0.25700767E+03</pdfrwt>
<totfact> 0.43831708E+03</totfact>
</mgrwt>
</event>
<event>
 4    1  0.1710914E-004  0.3119700E+03  0.7818608E-02  0.1079405E+00
         -2   -1    0    0    0  501 -0.00000000000E+00  0.00000000000E+00  0.17658451461E+02  0.17658451461E+02  0.00000000000E+00 0. -1.
          2   -1    0    0  501    0  0.00000000000E+00 -0.00000000000E+00 -0.13778850342E+04  0.13778850342E+04  0.00000000000E+00 0. -1.
         25    1    1    2    0    0  0.91686163981E+02  0.37694470344E+02 -0.63447434890E+03  0.65328778129E+03  0.12000000000E+03 0.  0.
         25    1    1    2    0    0 -0.91686163981E+02 -0.37694470344E+02 -0.72575223382E+03  0.74225570436E+03  0.12000000000E+03 0.  0.
<mgrwt>
<rscale>  0 0.31196997E+03</rscale>
<asrwt>0</asrwt>
<pdfrwt beam="1">  1        2 0.21198245E+00 0.31196997E+03</pdfrwt>
<pdfrwt beam="2">  1       -2 0.27166830E-02 0.31196997E+03</pdfrwt>
<totfact> 0.78228399E+03</totfact>
</mgrwt>
</event>
<event>
 4    1  0.1710914E-004  0.2566598E+03  0.7818608E-02  0.1109167E+00
         -1   -1    0    0    0  501 -0.00000000000E+00  0.00000000000E+00  0.12367440796E+04  0.12367440796E+04  0.00000000000E+00 0.  1.
          1   -1    0    0  501    0  0.00000000000E+00 -0.00000000000E+00 -0.13316067643E+02  0.13316067643E+02  0.00000000000E+00 0.  1.
         25    1    1    2    0    0  0.78569263747E+01 -0.86968331846E-01  0.82990065798E+03  0.83856832815E+03  0.12000000000E+03 0.  0.
         25    1    1    2    0    0 -0.78569263747E+01  0.86968331846E-01  0.39352735400E+03  0.41149181912E+03  0.12000000000E+03 0.  0.
<mgrwt>
<rscale>  0 0.25665984E+03</rscale>
<asrwt>0</asrwt>
<pdfrwt beam="1">  1        1 0.20486268E-02 0.25665984E+03</pdfrwt>
<pdfrwt beam="2">  1       -1 0.19026823E+00 0.25665984E+03</pdfrwt>
<totfact> 0.11341379E+03</totfact>
</mgrwt>
</event>
<event>
 4    1  0.1710914E-004  0.3265942E+03  0.7818608E-02  0.1072654E+00
         -1   -1    0    0    0  501 -0.00000000000E+00  0.00000000000E+00  0.31416266289E+02  0.31416266289E+02  0.00000000000E+00 0.  1.
          1   -1    0    0  501    0  0.00000000000E+00 -0.00000000000E+00 -0.84879427247E+03  0.84879427247E+03  0.00000000000E+00 0.  1.
         25    1    1    2    0    0 -0.81397250889E+02  0.74386871713E+02 -0.43657115362E+03  0.46599709367E+03  0.12000000000E+03 0.  0.
         25    1    1    2    0    0  0.81397250889E+02 -0.74386871713E+02 -0.38080685256E+03  0.41421344509E+03  0.12000000000E+03 0.  0.
<mgrwt>
<rscale>  0 0.32659422E+03</rscale>
<asrwt>0</asrwt>
<pdfrwt beam="1">  1        1 0.13058372E+00 0.32659422E+03</pdfrwt>
<pdfrwt beam="2">  1       -1 0.48332723E-02 0.32659422E+03</pdfrwt>
<totfact> 0.38974800E+03</totfact>
</mgrwt>
</event>
<event>
 4    1  0.1710914E-004  0.2900956E+03  0.7818608E-02  0.1090299E+00
          2   -1    0    0  501    0  0.00000000000E+00  0.00000000000E+00  0.68082956866E+03  0.68082956866E+03  0.00000000000E+00 0. -1.
         -2   -1    0    0    0  501 -0.00000000000E+00 -0.00000000000E+00 -0.30901806726E+02  0.30901806726E+02  0.00000000000E+00 0. -1.
         25    1    1    2    0    0 -0.35528973693E+02 -0.73003640208E+02  0.30813961624E+03  0.34050236791E+03  0.12000000000E+03 0.  0.
         25    1    1    2    0    0  0.35528973693E+02  0.73003640208E+02  0.34178814570E+03  0.37122900748E+03  0.12000000000E+03 0.  0.
<mgrwt>
<rscale>  0 0.29009560E+03</rscale>
<asrwt>0</asrwt>
<pdfrwt beam="1">  1        2 0.10474300E+00 0.29009560E+03</pdfrwt>
<pdfrwt beam="2">  1       -2 0.47541246E-02 0.29009560E+03</pdfrwt>
<totfact> 0.91600316E+03</totfact>
</mgrwt>
</event>
<event>
 4    1  0.1710914E-004  0.2919626E+03  0.7818608E-02  0.1089329E+00
         -2   -1    0    0    0  501 -0.00000000000E+00  0.00000000000E+00  0.53189238184E+02  0.53189238184E+02  0.00000000000E+00 0. -1.
          2   -1    0    0  501    0  0.00000000000E+00 -0.00000000000E+00 -0.40065514262E+03  0.40065514262E+03  0.00000000000E+00 0. -1.
         25    1    1    2    0    0  0.20376824947E+02 -0.34363705312E+02 -0.60412213318E+02  0.14016317189E+03  0.12000000000E+03 0.  0.
         25    1    1    2    0    0 -0.20376824947E+02  0.34363705312E+02 -0.28705369112E+03  0.31368120891E+03  0.12000000000E+03 0.  0.
<mgrwt>
<rscale>  0 0.29196261E+03</rscale>
<asrwt>0</asrwt>
<pdfrwt beam="1">  1        2 0.61639252E-01 0.29196261E+03</pdfrwt>
<pdfrwt beam="2">  1       -2 0.81829599E-02 0.29196261E+03</pdfrwt>
<totfact> 0.72458650E+03</totfact>
</mgrwt>
</event>
<event>
 4    1  0.1710914E-004  0.2435793E+03  0.7818608E-02  0.1117431E+00
          2   -1    0    0  501    0  0.00000000000E+00  0.00000000000E+00  0.10938475462E+04  0.10938475462E+04  0.00000000000E+00 0.  1.
         -2   -1    0    0    0  501 -0.00000000000E+00 -0.00000000000E+00 -0.13560138866E+02  0.13560138866E+02  0.00000000000E+00 0.  1.
         25    1    1    2    0    0  0.52539559327E+01  0.11039529839E+02  0.46362783134E+03  0.47906183449E+03  0.12000000000E+03 0.  0.
         25    1    1    2    0    0 -0.52539559327E+01 -0.11039529839E+02  0.61665957601E+03  0.62834585060E+03  0.12000000000E+03 0.  0.
<mgrwt>
<rscale>  0 0.24357935E+03</rscale>
<asrwt>0</asrwt>
<pdfrwt beam="1">  1        2 0.16828417E+00 0.24357935E+03</pdfrwt>
<pdfrwt beam="2">  1       -2 0.20861761E-02 0.24357935E+03</pdfrwt>
<totfact> 0.16606745E+04</totfact>
</mgrwt>
</event>
<event>
 4    1  0.1710914E-004  0.6604001E+03  0.7818608E-02  0.9787457E-01
         -2   -1    0    0    0  501 -0.00000000000E+00  0.00000000000E+00  0.22717447536E+03  0.22717447536E+03  0.00000000000E+00 0. -1.
          2   -1    0    0  501    0  0.00000000000E+00 -0.00000000000E+00 -0.47994864866E+03  0.47994864866E+03  0.00000000000E+00 0. -1.
         25    1    1    2    0    0 -0.17633983971E+03  0.24828941321E+03 -0.17292111051E+03  0.37019600517E+03  0.12000000000E+03 0.  0.
         25    1    1    2    0    0  0.17633983971E+03 -0.24828941321E+03 -0.79853062794E+02  0.33692711885E+03  0.12000000000E+03 0.  0.
<mgrwt>
<rscale>  0 0.66040013E+03</rscale>
<asrwt>0</asrwt>
<pdfrwt beam="1">  1        2 0.73838253E-01 0.66040013E+03</pdfrwt>
<pdfrwt beam="2">  1       -2 0.34949920E-01 0.66040013E+03</pdfrwt>
<totfact> 0.49962791E+02</totfact>
</mgrwt>
</event>
<event>
 4    1  0.1710914E-004  0.2788247E+03  0.7818608E-02  0.1096333E+00
          2   -1    0    0  501    0  0.00000000000E+00  0.00000000000E+00  0.19497454241E+04  0.19497454241E+04  0.00000000000E+00 0. -1.
         -2   -1    0    0    0  501 -0.00000000000E+00 -0.00000000000E+00 -0.99683800743E+01  0.99683800743E+01  0.00000000000E+00 0. -1.
         25    1    1    2    0    0  0.42457789917E+02 -0.87003353134E+00  0.13694860418E+04  0.13753891957E+04  0.12000000000E+03 0.  0.
         25    1    1    2    0    0 -0.42457789917E+02  0.87003353134E+00  0.57029100222E+03  0.58432460850E+03  0.12000000000E+03 0.  0.
<mgrwt>
<rscale>  0 0.27882470E+03</rscale>
<asrwt>0</asrwt>
<pdfrwt beam="1">  1        2 0.29996053E+00 0.27882470E+03</pdfrwt>
<pdfrwt beam="2">  1       -2 0.15335985E-02 0.27882470E+03</pdfrwt>
<totfact> 0.90195958E+03</totfact>
</mgrwt>
</event>
<event>
 4    1  0.1710914E-004  0.3625439E+03  0.7818608E-02  0.1057581E+00
          1   -1    0    0  501    0  0.00000000000E+00  0.00000000000E+00  0.39607912222E+03  0.39607912222E+03  0.00000000000E+00 0.  1.
         -1   -1    0    0    0  501 -0.00000000000E+00 -0.00000000000E+00 -0.82962019903E+02  0.82962019903E+02  0.00000000000E+00 0.  1.
         25    1    1    2    0    0  0.50140281568E+02 -0.58402244435E+02  0.30449267368E+03  0.33621519644E+03  0.12000000000E+03 0.  0.
         25    1    1    2    0    0 -0.50140281568E+02  0.58402244435E+02  0.86244286327E+01  0.14282594568E+03  0.12000000000E+03 0.  0.
<mgrwt>
<rscale>  0 0.36254392E+03</rscale>
<asrwt>0</asrwt>
<pdfrwt beam="1">  1        1 0.60935248E-01 0.36254392E+03</pdfrwt>
<pdfrwt beam="2">  1       -1 0.12763388E-01 0.36254392E+03</pdfrwt>
<totfact> 0.25594807E+03</totfact>
</mgrwt>
</event>
<event>
 4    1  0.1710914E-004  0.4071239E+03  0.7818608E-02  0.1041340E+00
         -2   -1    0    0    0  501 -0.00000000000E+00  0.00000000000E+00  0.31734210062E+02  0.31734210062E+02  0.00000000000E+00 0. -1.
          2   -1    0    0  501    0  0.00000000000E+00 -0.00000000000E+00 -0.13057661857E+04  0.13057661857E+04  0.00000000000E+00 0. -1.
         25    1    1    2    0    0  0.42772080026E+02  0.67238242506E+02 -0.11095318609E+04  0.11188437704E+04  0.12000000000E+03 0.  0.
         25    1    1    2    0    0 -0.42772080026E+02 -0.67238242506E+02 -0.16450011469E+03  0.21865662537E+03  0.12000000000E+03 0.  0.
<mgrwt>
<rscale>  0 0.40712386E+03</rscale>
<asrwt>0</asrwt>
<pdfrwt beam="1">  1        2 0.20088715E+00 0.40712386E+03</pdfrwt>
<pdfrwt beam="2">  1       -2 0.48821850E-02 0.40712386E+03</pdfrwt>
<totfact> 0.35449906E+03</totfact>
</mgrwt>
</event>
<event>
 4    1  0.1710914E-004  0.2511929E+03  0.7818608E-02  0.1112553E+00
          1   -1    0    0  501    0  0.00000000000E+00  0.00000000000E+00  0.14353901552E+03  0.14353901552E+03  0.00000000000E+00 0.  1.
         -1   -1    0    0    0  501 -0.00000000000E+00 -0.00000000000E+00 -0.10989670596E+03  0.10989670596E+03  0.00000000000E+00 0.  1.
         25    1    1    2    0    0 -0.11333746450E+02  0.14204918282E+02 -0.15781945675E+02  0.12238996414E+03  0.12000000000E+03 0.  0.
         25    1    1    2    0    0  0.11333746450E+02 -0.14204918282E+02  0.49424255241E+02  0.13104575734E+03  0.12000000000E+03 0.  0.
<mgrwt>
<rscale>  0 0.25119287E+03</rscale>
<asrwt>0</asrwt>
<pdfrwt beam="1">  1        1 0.22082925E-01 0.25119287E+03</pdfrwt>
<pdfrwt beam="2">  1       -1 0.16907186E-01 0.25119287E+03</pdfrwt>
<totfact> 0.58781694E+03</totfact>
</mgrwt>
</event>
<event>
 4    1  0.1710914E-004  0.2739665E+03  0.7818608E-02  0.1099031E+00
         -4   -1    0    0    0  501 -0.00000000000E+00  0.00000000000E+00  0.70741199866E+02  0.70741199866E+02  0.00000000000E+00 0. -1.
          4   -1    0    0  501    0  0.00000000000E+00 -0.00000000000E+00 -0.26525438005E+03  0.26525438005E+03  0.00000000000E+00 0. -1.
         25    1    1    2    0    0 -0.52208947945E+02 -0.15218400097E+02 -0.14325990944E+03  0.19462984252E+03  0.12000000000E+03 0.  0.
         25    1    1    2    0    0  0.52208947945E+02  0.15218400097E+02 -0.51253270740E+02  0.14136573739E+03  0.12000000000E+03 0.  0.
<mgrwt>
<rscale>  0 0.27396652E+03</rscale>
<asrwt>0</asrwt>
<pdfrwt beam="1">  1        4 0.40808366E-01 0.27396652E+03</pdfrwt>
<pdfrwt beam="2">  1       -4 0.10883262E-01 0.27396652E+03</pdfrwt>
<totfact> 0.71972602E+02</totfact>
</mgrwt>
</event>
<event>
 4    1  0.1710914E-004  0.3075556E+03  0.7818608E-02  0.1081523E+00
          2   -1    0    0  501    0  0.00000000000E+00  0.00000000000E+00  0.75902712440E+02  0.75902712440E+02  0.00000000000E+00 0.  1.
         -2   -1    0    0    0  501 -0.00000000000E+00 -0.00000000000E+00 -0.31155161001E+03  0.31155161001E+03  0.00000000000E+00 0.  1.
         25    1    1    2    0    0  0.65275015190E+02 -0.30495977552E+01 -0.28944902363E+02  0.13967080950E+03  0.12000000000E+03 0.  0.
         25    1    1    2    0    0 -0.65275015190E+02  0.30495977552E+01 -0.20670399521E+03  0.24778351295E+03  0.12000000000E+03 0.  0.
<mgrwt>
<rscale>  0 0.30755560E+03</rscale>
<asrwt>0</asrwt>
<pdfrwt beam="1">  1        2 0.11677340E-01 0.30755560E+03</pdfrwt>
<pdfrwt beam="2">  1       -2 0.47931017E-01 0.30755560E+03</pdfrwt>
<totfact> 0.22114378E+03</totfact>
</mgrwt>
</event>
<event>
 4    1  0.1710914E-004  0.2523241E+03  0.7818608E-02  0.1111845E+00
          1   -1    0    0  501    0  0.00000000000E+00  0.00000000000E+00  0.26587100811E+04  0.26587100811E+04  0.00000000000E+00 0.  1.
         -1   -1    0    0    0  501 -0.00000000000E+00 -0.00000000000E+00 -0.59866874360E+01  0.59866874360E+01  0.00000000000E+00 0.  1.
         25    1    1    2    0    0 -0.19716381755E+02 -0.33407382067E+02  0.12896609510E+04  0.12958125472E+04  0.12000000000E+03 0.  0.
         25    1    1    2    0    0  0.19716381755E+02  0.33407382067E+02  0.13630624426E+04  0.13688842213E+04  0.12000000000E+03 0.  0.
<mgrwt>
<rscale>  0 0.25232413E+03</rscale>
<asrwt>0</asrwt>
<pdfrwt beam="1">  1        1 0.40903138E+00 0.25232413E+03</pdfrwt>
<pdfrwt beam="2">  1       -1 0.92103096E-03 0.25232413E+03</pdfrwt>
<totfact> 0.26333787E+03</totfact>
</mgrwt>
</event>
<event>
 4    1  0.1710914E-004  0.2982569E+03  0.7818608E-02  0.1086115E+00
          1   -1    0    0  501    0  0.00000000000E+00  0.00000000000E+00  0.12681191405E+03  0.12681191405E+03  0.00000000000E+00 0.  1.
         -1   -1    0    0    0  501 -0.00000000000E+00 -0.00000000000E+00 -0.17537225564E+03  0.17537225564E+03  0.00000000000E+00 0.  1.
         25    1    1    2    0    0 -0.65687948807E+02  0.45458939964E+01  0.35691467748E+02  0.14145477242E+03  0.12000000000E+03 0.  0.
         25    1    1    2    0    0  0.65687948807E+02 -0.45458939964E+01 -0.84251809332E+02  0.16072939727E+03  0.12000000000E+03 0.  0.
<mgrwt>
<rscale>  0 0.29825688E+03</rscale>
<asrwt>0</asrwt>
<pdfrwt beam="1">  1        1 0.19509525E-01 0.29825688E+03</pdfrwt>
<pdfrwt beam="2">  1       -1 0.26980347E-01 0.29825688E+03</pdfrwt>
<totfact> 0.32237608E+03</totfact>
</mgrwt>
</event>
<event>
 4    1  0.1710914E-004  0.2614566E+03  0.7818608E-02  0.1106271E+00
         -2   -1    0    0    0  501 -0.00000000000E+00  0.00000000000E+00  0.11701405733E+03  0.11701405733E+03  0.00000000000E+00 0.  1.
          2   -1    0    0  501    0  0.00000000000E+00 -0.00000000000E+00 -0.14604985781E+03  0.14604985781E+03  0.00000000000E+00 0.  1.
         25    1    1    2    0    0 -0.15647913370E+02 -0.42390943551E+02  0.11095170314E+02  0.12870490314E+03  0.12000000000E+03 0.  0.
         25    1    1    2    0    0  0.15647913370E+02  0.42390943551E+02 -0.40130970791E+02  0.13435901200E+03  0.12000000000E+03 0.  0.
<mgrwt>
<rscale>  0 0.26145658E+03</rscale>
<asrwt>0</asrwt>
<pdfrwt beam="1">  1        2 0.22469209E-01 0.26145658E+03</pdfrwt>
<pdfrwt beam="2">  1       -2 0.18002163E-01 0.26145658E+03</pdfrwt>
<totfact> 0.60507786E+03</totfact>
</mgrwt>
</event>
<event>
 4    1  0.1710914E-004  0.3121725E+03  0.7818608E-02  0.1079309E+00
         -1   -1    0    0    0  501 -0.00000000000E+00  0.00000000000E+00  0.30601392044E+02  0.30601392044E+02  0.00000000000E+00 0.  1.
          1   -1    0    0  501    0  0.00000000000E+00 -0.00000000000E+00 -0.79613755906E+03  0.79613755906E+03  0.00000000000E+00 0.  1.
         25    1    1    2    0    0 -0.42895238558E+02  0.52017586719E+02 -0.18784797202E+03  0.23287913477E+03  0.12000000000E+03 0.  0.
         25    1    1    2    0    0  0.42895238558E+02 -0.52017586719E+02 -0.57768819499E+03  0.59385981633E+03  0.12000000000E+03 0.  0.
<mgrwt>
<rscale>  0 0.31217250E+03</rscale>
<asrwt>0</asrwt>
<pdfrwt beam="1">  1        1 0.12248271E+00 0.31217250E+03</pdfrwt>
<pdfrwt beam="2">  1       -1 0.47079063E-02 0.31217250E+03</pdfrwt>
<totfact> 0.44798010E+03</totfact>
</mgrwt>
</event>
<event>
 4    1  0.1710914E-004  0.2524037E+03  0.7818608E-02  0.1111795E+00
          1   -1    0    0  501    0  0.00000000000E+00  0.00000000000E+00  0.43194925588E+03  0.43194925588E+03  0.00000000000E+00 0. -1.
         -1   -1    0    0    0  501 -0.00000000000E+00 -0.00000000000E+00 -0.36872163428E+02  0.36872163428E+02  0.00000000000E+00 0. -1.
         25    1    1    2    0    0 -0.13284791577E+02 -0.35650662146E+02  0.21409448024E+03  0.24836244053E+03  0.12000000000E+03 0.  0.
         25    1    1    2    0    0  0.13284791577E+02  0.35650662146E+02  0.18098261221E+03  0.22045897877E+03  0.12000000000E+03 0.  0.
<mgrwt>
<rscale>  0 0.25240367E+03</rscale>
<asrwt>0</asrwt>
<pdfrwt beam="1">  1        1 0.66453728E-01 0.25240367E+03</pdfrwt>
<pdfrwt beam="2">  1       -1 0.56726408E-02 0.25240367E+03</pdfrwt>
<totfact> 0.78926843E+03</totfact>
</mgrwt>
</event>
<event>
 4    1  0.1710914E-004  0.2439488E+03  0.7818608E-02  0.1117190E+00
         -2   -1    0    0    0  501 -0.00000000000E+00  0.00000000000E+00  0.91788903287E+02  0.91788903287E+02  0.00000000000E+00 0.  1.
          2   -1    0    0  501    0  0.00000000000E+00 -0.00000000000E+00 -0.16208657550E+03  0.16208657550E+03  0.00000000000E+00 0.  1.
         25    1    1    2    0    0 -0.10240501213E+02 -0.95071245820E+01 -0.52640377501E+02  0.13178111635E+03  0.12000000000E+03 0.  0.
         25    1    1    2    0    0  0.10240501213E+02  0.95071245820E+01 -0.17657294716E+02  0.12209436244E+03  0.12000000000E+03 0.  0.
<mgrwt>
<rscale>  0 0.24394876E+03</rscale>
<asrwt>0</asrwt>
<pdfrwt beam="1">  1        2 0.24936396E-01 0.24394876E+03</pdfrwt>
<pdfrwt beam="2">  1       -2 0.14121370E-01 0.24394876E+03</pdfrwt>
<totfact> 0.80342606E+03</totfact>
</mgrwt>
</event>
<event>
 4    1  0.1710914E-004  0.3403766E+03  0.7818608E-02  0.1066636E+00
          1   -1    0    0  501    0  0.00000000000E+00  0.00000000000E+00  0.19097851930E+03  0.19097851930E+03  0.00000000000E+00 0.  1.
         -1   -1    0    0    0  501 -0.00000000000E+00 -0.00000000000E+00 -0.15166134982E+03  0.15166134982E+03  0.00000000000E+00 0.  1.
         25    1    1    2    0    0 -0.60907640306E+02 -0.25311809317E+02  0.12139308984E+03  0.18299374470E+03  0.12000000000E+03 0.  0.
         25    1    1    2    0    0  0.60907640306E+02  0.25311809317E+02 -0.82075920363E+02  0.15964612442E+03  0.12000000000E+03 0.  0.
<mgrwt>
<rscale>  0 0.34037662E+03</rscale>
<asrwt>0</asrwt>
<pdfrwt beam="1">  1        1 0.29381311E-01 0.34037662E+03</pdfrwt>
<pdfrwt beam="2">  1       -1 0.23332515E-01 0.34037662E+03</pdfrwt>
<totfact> 0.24375099E+03</totfact>
</mgrwt>
</event>
<event>
 4    1  0.1710914E-004  0.3209542E+03  0.7818608E-02  0.1075211E+00
         -2   -1    0    0    0  501 -0.00000000000E+00  0.00000000000E+00  0.54846431025E+02  0.54846431025E+02  0.00000000000E+00 0. -1.
          2   -1    0    0  501    0  0.00000000000E+00 -0.00000000000E+00 -0.46954561175E+03  0.46954561175E+03  0.00000000000E+00 0. -1.
         25    1    1    2    0    0  0.93016983239E+02 -0.43664888927E+02 -0.16130740839E+03  0.22578498997E+03  0.12000000000E+03 0.  0.
         25    1    1    2    0    0 -0.93016983239E+02  0.43664888927E+02 -0.25339177234E+03  0.29860705280E+03  0.12000000000E+03 0.  0.
<mgrwt>
<rscale>  0 0.32095421E+03</rscale>
<asrwt>0</asrwt>
<pdfrwt beam="1">  1        2 0.72237787E-01 0.32095421E+03</pdfrwt>
<pdfrwt beam="2">  1       -2 0.84379124E-02 0.32095421E+03</pdfrwt>
<totfact> 0.58145716E+03</totfact>
</mgrwt>
</event>
<event>
 4    1  0.1710914E-004  0.3088430E+03  0.7818608E-02  0.1080902E+00
         -1   -1    0    0    0  501 -0.00000000000E+00  0.00000000000E+00  0.16374555172E+03  0.16374555172E+03  0.00000000000E+00 0. -1.
          1   -1    0    0  501    0  0.00000000000E+00 -0.00000000000E+00 -0.14562837538E+03  0.14562837538E+03  0.00000000000E+00 0. -1.
         25    1    1    2    0    0  0.99189390166E+01 -0.58671087409E+02 -0.67919577526E+02  0.15017906266E+03  0.12000000000E+03 0.  0.
         25    1    1    2    0    0 -0.99189390166E+01  0.58671087409E+02  0.86036753867E+02  0.15919486444E+03  0.12000000000E+03 0.  0.
<mgrwt>
<rscale>  0 0.30884299E+03</rscale>
<asrwt>0</asrwt>
<pdfrwt beam="1">  1        1 0.22404365E-01 0.30884299E+03</pdfrwt>
<pdfrwt beam="2">  1       -1 0.25191623E-01 0.30884299E+03</pdfrwt>
<totfact> 0.30279709E+03</totfact>
</mgrwt>
</event>
<event>
 4    1  0.1710914E-004  0.2604515E+03  0.7818608E-02  0.1106872E+00
         -2   -1    0    0    0  501 -0.00000000000E+00  0.00000000000E+00  0.14642276674E+02  0.14642276674E+02  0.00000000000E+00 0. -1.
          2   -1    0    0  501    0  0.00000000000E+00 -0.00000000000E+00 -0.11582045181E+04  0.11582045181E+04  0.00000000000E+00 0. -1.
         25    1    1    2    0    0 -0.40756564729E+02 -0.16492802655E+02 -0.45914519810E+03  0.47659985632E+03  0.12000000000E+03 0.  0.
         25    1    1    2    0    0  0.40756564729E+02  0.16492802655E+02 -0.68441704330E+03  0.69624693843E+03  0.12000000000E+03 0.  0.
<mgrwt>
<rscale>  0 0.26045154E+03</rscale>
<asrwt>0</asrwt>
<pdfrwt beam="1">  1        2 0.17818528E+00 0.26045154E+03</pdfrwt>
<pdfrwt beam="2">  1       -2 0.22526583E-02 0.26045154E+03</pdfrwt>
<totfact> 0.13644796E+04</totfact>
</mgrwt>
</event>
<event>
 4    1  0.1710914E-004  0.2511191E+03  0.7818608E-02  0.1112600E+00
         -2   -1    0    0    0  501 -0.00000000000E+00  0.00000000000E+00  0.15610139865E+02  0.15610139865E+02  0.00000000000E+00 0.  1.
          2   -1    0    0  501    0  0.00000000000E+00 -0.00000000000E+00 -0.10099335432E+04  0.10099335432E+04  0.00000000000E+00 0.  1.
         25    1    1    2    0    0 -0.53558506367E+00  0.31855391717E+02 -0.57358082966E+03  0.58686456784E+03  0.12000000000E+03 0.  0.
         25    1    1    2    0    0  0.53558506367E+00 -0.31855391717E+02 -0.42074257369E+03  0.43867911524E+03  0.12000000000E+03 0.  0.
<mgrwt>
<rscale>  0 0.25111913E+03</rscale>
<asrwt>0</asrwt>
<pdfrwt beam="1">  1        2 0.15537435E+00 0.25111913E+03</pdfrwt>
<pdfrwt beam="2">  1       -2 0.24015606E-02 0.25111913E+03</pdfrwt>
<totfact> 0.15165974E+04</totfact>
</mgrwt>
</event>
<event>
 4    1  0.1710914E-004  0.2725743E+03  0.7818608E-02  0.1099815E+00
         -2   -1    0    0    0  501 -0.00000000000E+00  0.00000000000E+00  0.52691911854E+02  0.52691911854E+02  0.00000000000E+00 0. -1.
          2   -1    0    0  501    0  0.00000000000E+00 -0.00000000000E+00 -0.35250545195E+03  0.35250545195E+03  0.00000000000E+00 0. -1.
         25    1    1    2    0    0  0.54800902460E+02  0.33734772560E+02 -0.14136554138E+03  0.19627885796E+03  0.12000000000E+03 0.  0.
         25    1    1    2    0    0 -0.54800902460E+02 -0.33734772560E+02 -0.15844799871E+03  0.20891850585E+03  0.12000000000E+03 0.  0.
<mgrwt>
<rscale>  0 0.27257429E+03</rscale>
<asrwt>0</asrwt>
<pdfrwt beam="1">  1        2 0.54231609E-01 0.27257429E+03</pdfrwt>
<pdfrwt beam="2">  1       -2 0.81064478E-02 0.27257429E+03</pdfrwt>
<totfact> 0.84271200E+03</totfact>
</mgrwt>
</event>
<event>
 4    1  0.1710914E-004  0.4733184E+03  0.7818608E-02  0.1020988E+00
          2   -1    0    0  501    0  0.00000000000E+00  0.00000000000E+00  0.55224860913E+03  0.55224860913E+03  0.00000000000E+00 0.  1.
         -2   -1    0    0    0  501 -0.00000000000E+00 -0.00000000000E+00 -0.10141732477E+03  0.10141732477E+03  0.00000000000E+00 0.  1.
         25    1    1    2    0    0  0.11747356445E+03 -0.13373141720E+03  0.87842477791E+02  0.23194919961E+03  0.12000000000E+03 0.  0.
         25    1    1    2    0    0 -0.11747356445E+03  0.13373141720E+03  0.36298880657E+03  0.42171673430E+03  0.12000000000E+03 0.  0.
<mgrwt>
<rscale>  0 0.47331840E+03</rscale>
<asrwt>0</asrwt>
<pdfrwt beam="1">  1        2 0.84961322E-01 0.47331840E+03</pdfrwt>
<pdfrwt beam="2">  1       -2 0.15602666E-01 0.47331840E+03</pdfrwt>
<totfact> 0.17905715E+03</totfact>
</mgrwt>
</event>
<event>
 4    1  0.1710914E-004  0.2631295E+03  0.7818608E-02  0.1105277E+00
         -1   -1    0    0    0  501 -0.00000000000E+00  0.00000000000E+00  0.16696982110E+02  0.16696982110E+02  0.00000000000E+00 0. -1.
          1   -1    0    0  501    0  0.00000000000E+00 -0.00000000000E+00 -0.10366713273E+04  0.10366713273E+04  0.00000000000E+00 0. -1.
         25    1    1    2    0    0 -0.43662635281E+02 -0.59725969274E+01 -0.38548828000E+03  0.40613213570E+03  0.12000000000E+03 0.  0.
         25    1    1    2    0    0  0.43662635281E+02  0.59725969274E+01 -0.63448606516E+03  0.64723617368E+03  0.12000000000E+03 0.  0.
<mgrwt>
<rscale>  0 0.26312949E+03</rscale>
<asrwt>0</asrwt>
<pdfrwt beam="1">  1        1 0.15948790E+00 0.26312949E+03</pdfrwt>
<pdfrwt beam="2">  1       -1 0.25687665E-02 0.26312949E+03</pdfrwt>
<totfact> 0.71085501E+03</totfact>
</mgrwt>
</event>
<event>
 4    1  0.1710914E-004  0.2954620E+03  0.7818608E-02  0.1087531E+00
         -1   -1    0    0    0  501 -0.00000000000E+00  0.00000000000E+00  0.12267907756E+03  0.12267907756E+03  0.00000000000E+00 0.  1.
          1   -1    0    0  501    0  0.00000000000E+00 -0.00000000000E+00 -0.17789864817E+03  0.17789864817E+03  0.00000000000E+00 0.  1.
         25    1    1    2    0    0  0.71531900513E+02  0.14812317644E+02  0.18878531098E+02  0.14174842673E+03  0.12000000000E+03 0.  0.
         25    1    1    2    0    0 -0.71531900513E+02 -0.14812317644E+02 -0.74098101702E+02  0.15882929900E+03  0.12000000000E+03 0.  0.
<mgrwt>
<rscale>  0 0.29546196E+03</rscale>
<asrwt>0</asrwt>
<pdfrwt beam="1">  1        1 0.27369023E-01 0.29546196E+03</pdfrwt>
<pdfrwt beam="2">  1       -1 0.18873704E-01 0.29546196E+03</pdfrwt>
<totfact> 0.37657813E+03</totfact>
</mgrwt>
</event>
<event>
 4    1  0.1710914E-004  0.4858980E+03  0.7818608E-02  0.1017527E+00
          2   -1    0    0  501    0  0.00000000000E+00  0.00000000000E+00  0.11104632476E+04  0.11104632476E+04  0.00000000000E+00 0. -1.
         -2   -1    0    0    0  501 -0.00000000000E+00 -0.00000000000E+00 -0.53152780230E+02  0.53152780230E+02  0.00000000000E+00 0. -1.
         25    1    1    2    0    0  0.20458724365E+03 -0.47396614679E+02  0.47394998853E+03  0.53210052713E+03  0.12000000000E+03 0.  0.
         25    1    1    2    0    0 -0.20458724365E+03  0.47396614679E+02  0.58336047880E+03  0.63151550066E+03  0.12000000000E+03 0.  0.
<mgrwt>
<rscale>  0 0.48589797E+03</rscale>
<asrwt>0</asrwt>
<pdfrwt beam="1">  1        2 0.17084048E+00 0.48589797E+03</pdfrwt>
<pdfrwt beam="2">  1       -2 0.81773517E-02 0.48589797E+03</pdfrwt>
<totfact> 0.20559278E+03</totfact>
</mgrwt>
</event>
<event>
 4    1  0.1710914E-004  0.2474949E+03  0.7818608E-02  0.1114898E+00
         -1   -1    0    0    0  501 -0.00000000000E+00  0.00000000000E+00  0.66963129127E+03  0.66963129127E+03  0.00000000000E+00 0. -1.
          1   -1    0    0  501    0  0.00000000000E+00 -0.00000000000E+00 -0.22868451142E+02  0.22868451142E+02  0.00000000000E+00 0. -1.
         25    1    1    2    0    0  0.21264700019E+02 -0.19089475160E+02  0.35091542692E+03  0.37196536449E+03  0.12000000000E+03 0.  0.
         25    1    1    2    0    0 -0.21264700019E+02  0.19089475160E+02  0.29584741320E+03  0.32053437792E+03  0.12000000000E+03 0.  0.
<mgrwt>
<rscale>  0 0.24749489E+03</rscale>
<asrwt>0</asrwt>
<pdfrwt beam="1">  1        1 0.35182238E-02 0.24749489E+03</pdfrwt>
<pdfrwt beam="2">  1       -1 0.10302018E+00 0.24749489E+03</pdfrwt>
<totfact> 0.25531126E+03</totfact>
</mgrwt>
</event>
<event>
 4    1  0.1710914E-004  0.2490548E+03  0.7818608E-02  0.1113904E+00
          2   -1    0    0  501    0  0.00000000000E+00  0.00000000000E+00  0.77209235311E+02  0.77209235311E+02  0.00000000000E+00 0. -1.
         -2   -1    0    0    0  501 -0.00000000000E+00 -0.00000000000E+00 -0.20084474756E+03  0.20084474756E+03  0.00000000000E+00 0. -1.
         25    1    1    2    0    0  0.22095555931E+02  0.22040373185E+01 -0.34153580121E+02  0.12672623409E+03  0.12000000000E+03 0.  0.
         25    1    1    2    0    0 -0.22095555931E+02 -0.22040373185E+01 -0.89481932126E+02  0.15132774878E+03  0.12000000000E+03 0.  0.
<mgrwt>
<rscale>  0 0.24905477E+03</rscale>
<asrwt>0</asrwt>
<pdfrwt beam="1">  1        2 0.11878344E-01 0.24905477E+03</pdfrwt>
<pdfrwt beam="2">  1       -2 0.30899192E-01 0.24905477E+03</pdfrwt>
<totfact> 0.49532624E+03</totfact>
</mgrwt>
</event>
<event>
 4    1  0.1710914E-004  0.3635319E+03  0.7818608E-02  0.1057194E+00
         -2   -1    0    0    0  501 -0.00000000000E+00  0.00000000000E+00  0.17024036913E+02  0.17024036913E+02  0.00000000000E+00 0. -1.
          2   -1    0    0  501    0  0.00000000000E+00 -0.00000000000E+00 -0.19407183267E+04  0.19407183267E+04  0.00000000000E+00 0. -1.
         25    1    1    2    0    0  0.39356654323E+02  0.40646066464E+02 -0.29272426582E+03  0.32138535243E+03  0.12000000000E+03 0.  0.
         25    1    1    2    0    0 -0.39356654323E+02 -0.40646066464E+02 -0.16309700240E+04  0.16363570112E+04  0.12000000000E+03 0.  0.
<mgrwt>
<rscale>  0 0.36353190E+03</rscale>
<asrwt>0</asrwt>
<pdfrwt beam="1">  1        2 0.29857198E+00 0.36353190E+03</pdfrwt>
<pdfrwt beam="2">  1       -2 0.26190832E-02 0.36353190E+03</pdfrwt>
<totfact> 0.41337918E+03</totfact>
</mgrwt>
</event>
<event>
 4    1  0.1710914E-004  0.2872224E+03  0.7818608E-02  0.1091808E+00
          1   -1    0    0  501    0  0.00000000000E+00  0.00000000000E+00  0.29432723938E+04  0.29432723938E+04  0.00000000000E+00 0.  1.
         -1   -1    0    0    0  501 -0.00000000000E+00 -0.00000000000E+00 -0.70072282744E+01  0.70072282744E+01  0.00000000000E+00 0.  1.
         25    1    1    2    0    0 -0.47669903782E+02 -0.45425315275E+02  0.19144877960E+04  0.19193747420E+04  0.12000000000E+03 0.  0.
         25    1    1    2    0    0  0.47669903782E+02  0.45425315275E+02  0.10217773695E+04  0.10309048801E+04  0.12000000000E+03 0.  0.
<mgrwt>
<rscale>  0 0.28722243E+03</rscale>
<asrwt>0</asrwt>
<pdfrwt beam="1">  1        1 0.45281015E+00 0.28722243E+03</pdfrwt>
<pdfrwt beam="2">  1       -1 0.10780375E-02 0.28722243E+03</pdfrwt>
<totfact> 0.13357652E+03</totfact>
</mgrwt>
</event>
<event>
 4    1  0.1710914E-004  0.3217073E+03  0.7818608E-02  0.1074866E+00
          2   -1    0    0  501    0  0.00000000000E+00  0.00000000000E+00  0.32851182601E+04  0.32851182601E+04  0.00000000000E+00 0. -1.
         -2   -1    0    0    0  501 -0.00000000000E+00 -0.00000000000E+00 -0.78760932766E+01  0.78760932766E+01  0.00000000000E+00 0. -1.
         25    1    1    2    0    0  0.44333206683E+02  0.97494475181E+02  0.16200492103E+04  0.16280141429E+04  0.12000000000E+03 0.  0.
         25    1    1    2    0    0 -0.44333206683E+02 -0.97494475181E+02  0.16571929565E+04  0.16649802104E+04  0.12000000000E+03 0.  0.
<mgrwt>
<rscale>  0 0.32170731E+03</rscale>
<asrwt>0</asrwt>
<pdfrwt beam="1">  1        2 0.50540172E+00 0.32170731E+03</pdfrwt>
<pdfrwt beam="2">  1       -2 0.12117093E-02 0.32170731E+03</pdfrwt>
<totfact> 0.22362508E+03</totfact>
</mgrwt>
</event>
<event>
 4    1  0.1710914E-004  0.4333907E+03  0.7818608E-02  0.1032794E+00
          2   -1    0    0  501    0  0.00000000000E+00  0.00000000000E+00  0.13216975289E+04  0.13216975289E+04  0.00000000000E+00 0.  1.
         -2   -1    0    0    0  501 -0.00000000000E+00 -0.00000000000E+00 -0.35527693160E+02  0.35527693160E+02  0.00000000000E+00 0.  1.
         25    1    1    2    0    0 -0.17812596746E+03 -0.28672863120E+02  0.65067286877E+03  0.68580330672E+03  0.12000000000E+03 0.  0.
         25    1    1    2    0    0  0.17812596746E+03  0.28672863120E+02  0.63549696694E+03  0.67142191531E+03  0.12000000000E+03 0.  0.
<mgrwt>
<rscale>  0 0.43339065E+03</rscale>
<asrwt>0</asrwt>
<pdfrwt beam="1">  1        2 0.20333804E+00 0.43339065E+03</pdfrwt>
<pdfrwt beam="2">  1       -2 0.54658000E-02 0.43339065E+03</pdfrwt>
<totfact> 0.29177231E+03</totfact>
</mgrwt>
</event>
<event>
 4    1  0.1710914E-004  0.2777802E+03  0.7818608E-02  0.1096908E+00
         -1   -1    0    0    0  501 -0.00000000000E+00  0.00000000000E+00  0.10111577714E+02  0.10111577714E+02  0.00000000000E+00 0. -1.
          1   -1    0    0  501    0  0.00000000000E+00 -0.00000000000E+00 -0.19077597519E+04  0.19077597519E+04  0.00000000000E+00 0. -1.
         25    1    1    2    0    0  0.18248834179E+02  0.53275847749E+02 -0.66255667799E+03  0.67568682646E+03  0.12000000000E+03 0.  0.
         25    1    1    2    0    0 -0.18248834179E+02 -0.53275847749E+02 -0.12350914962E+04  0.12421845032E+04  0.12000000000E+03 0.  0.
<mgrwt>
<rscale>  0 0.27778021E+03</rscale>
<asrwt>0</asrwt>
<pdfrwt beam="1">  1        1 0.29350116E+00 0.27778021E+03</pdfrwt>
<pdfrwt beam="2">  1       -1 0.15556291E-02 0.27778021E+03</pdfrwt>
<totfact> 0.38331808E+03</totfact>
</mgrwt>
</event>
<event>
 4    1  0.1710914E-004  0.2573577E+03  0.7818608E-02  0.1108741E+00
         -1   -1    0    0    0  501 -0.00000000000E+00  0.00000000000E+00  0.15931484746E+02  0.15931484746E+02  0.00000000000E+00 0. -1.
          1   -1    0    0  501    0  0.00000000000E+00 -0.00000000000E+00 -0.10393413194E+04  0.10393413194E+04  0.00000000000E+00 0. -1.
         25    1    1    2    0    0 -0.38311218457E+02  0.24920192828E+02 -0.54588497270E+03  0.56078442283E+03  0.12000000000E+03 0.  0.
         25    1    1    2    0    0  0.38311218457E+02 -0.24920192828E+02 -0.47752486194E+03  0.49448838130E+03  0.12000000000E+03 0.  0.
<mgrwt>
<rscale>  0 0.25735773E+03</rscale>
<asrwt>0</asrwt>
<pdfrwt beam="1">  1        1 0.15989871E+00 0.25735773E+03</pdfrwt>
<pdfrwt beam="2">  1       -1 0.24509969E-02 0.25735773E+03</pdfrwt>
<totfact> 0.75767873E+03</totfact>
</mgrwt>
</event>
<event>
 4    1  0.1710914E-004  0.2627310E+03  0.7818608E-02  0.1105513E+00
          1   -1    0    0  501    0  0.00000000000E+00  0.00000000000E+00  0.14633732563E+04  0.14633732563E+04  0.00000000000E+00 0.  1.
         -1   -1    0    0    0  501 -0.00000000000E+00 -0.00000000000E+00 -0.11792544113E+02  0.11792544113E+02  0.00000000000E+00 0.  1.
         25    1    1    2    0    0 -0.34392426231E+02 -0.34336530155E+02  0.60086307055E+03  0.61465296374E+03  0.12000000000E+03 0.  0.
         25    1    1    2    0    0  0.34392426231E+02  0.34336530155E+02  0.85071764161E+03  0.86051283665E+03  0.12000000000E+03 0.  0.
<mgrwt>
<rscale>  0 0.26273099E+03</rscale>
<asrwt>0</asrwt>
<pdfrwt beam="1">  1        1 0.22513420E+00 0.26273099E+03</pdfrwt>
<pdfrwt beam="2">  1       -1 0.18142387E-02 0.26273099E+03</pdfrwt>
<totfact> 0.59810879E+03</totfact>
</mgrwt>
</event>
<event>
 4    1  0.1710914E-004  0.2954689E+03  0.7818608E-02  0.1087528E+00
          4   -1    0    0  501    0  0.00000000000E+00  0.00000000000E+00  0.11476285650E+03  0.11476285650E+03  0.00000000000E+00 0. -1.
         -4   -1    0    0    0  501 -0.00000000000E+00 -0.00000000000E+00 -0.19017884675E+03  0.19017884675E+03  0.00000000000E+00 0. -1.
         25    1    1    2    0    0  0.14797124017E+02 -0.84707123324E+02 -0.31941735218E+02  0.15104478167E+03  0.12000000000E+03 0.  0.
         25    1    1    2    0    0 -0.14797124017E+02  0.84707123324E+02 -0.43474255025E+02  0.15389692158E+03  0.12000000000E+03 0.  0.
<mgrwt>
<rscale>  0 0.29546890E+03</rscale>
<asrwt>0</asrwt>
<pdfrwt beam="1">  1        4 0.17655824E-01 0.29546890E+03</pdfrwt>
<pdfrwt beam="2">  1       -4 0.29258284E-01 0.29546890E+03</pdfrwt>
<totfact> 0.59561423E+02</totfact>
</mgrwt>
</event>
<event>
 4    1  0.1710914E-004  0.2705138E+03  0.7818608E-02  0.1100986E+00
          2   -1    0    0  501    0  0.00000000000E+00  0.00000000000E+00  0.29033093133E+03  0.29033093133E+03  0.00000000000E+00 0.  1.
         -2   -1    0    0    0  501 -0.00000000000E+00 -0.00000000000E+00 -0.63012332332E+02  0.63012332332E+02  0.00000000000E+00 0.  1.
         25    1    1    2    0    0  0.16442365863E+02  0.59040464932E+02  0.98298266542E+02  0.16678931950E+03  0.12000000000E+03 0.  0.
         25    1    1    2    0    0 -0.16442365863E+02 -0.59040464932E+02  0.12902033245E+03  0.18655394416E+03  0.12000000000E+03 0.  0.
<mgrwt>
<rscale>  0 0.27051380E+03</rscale>
<asrwt>0</asrwt>
<pdfrwt beam="1">  1        2 0.44666296E-01 0.27051380E+03</pdfrwt>
<pdfrwt beam="2">  1       -2 0.96942051E-02 0.27051380E+03</pdfrwt>
<totfact> 0.78340940E+03</totfact>
</mgrwt>
</event>
<event>
 4    1  0.1710914E-004  0.2463901E+03  0.7818608E-02  0.1115608E+00
         -2   -1    0    0    0  501 -0.00000000000E+00  0.00000000000E+00  0.40383643585E+02  0.40383643585E+02  0.00000000000E+00 0.  1.
          2   -1    0    0  501    0  0.00000000000E+00 -0.00000000000E+00 -0.37582105671E+03  0.37582105671E+03  0.00000000000E+00 0.  1.
         25    1    1    2    0    0 -0.10993611943E+02  0.24480784041E+02 -0.15498164594E+03  0.19783700076E+03  0.12000000000E+03 0.  0.
         25    1    1    2    0    0  0.10993611943E+02 -0.24480784041E+02 -0.18045576719E+03  0.21836769954E+03  0.12000000000E+03 0.  0.
<mgrwt>
<rscale>  0 0.24639013E+03</rscale>
<asrwt>0</asrwt>
<pdfrwt beam="1">  1        2 0.57818623E-01 0.24639013E+03</pdfrwt>
<pdfrwt beam="2">  1       -2 0.62128684E-02 0.24639013E+03</pdfrwt>
<totfact> 0.11820572E+04</totfact>
</mgrwt>
</event>
<event>
 4    1  0.1710914E-004  0.2438275E+03  0.7818608E-02  0.1117269E+00
          1   -1    0    0  501    0  0.00000000000E+00  0.00000000000E+00  0.84817963450E+02  0.84817963450E+02  0.00000000000E+00 0. -1.
         -1   -1    0    0    0  501 -0.00000000000E+00 -0.00000000000E+00 -0.17523372704E+03  0.17523372704E+03  0.00000000000E+00 0. -1.
         25    1    1    2    0    0 -0.10721702143E+02 -0.89626780090E+01 -0.62657567317E+02  0.13609281846E+03  0.12000000000E+03 0.  0.
         25    1    1    2    0    0  0.10721702143E+02  0.89626780090E+01 -0.27758196268E+02  0.12395887203E+03  0.12000000000E+03 0.  0.
<mgrwt>
<rscale>  0 0.24382754E+03</rscale>
<asrwt>0</asrwt>
<pdfrwt beam="1">  1        1 0.13048918E-01 0.24382754E+03</pdfrwt>
<pdfrwt beam="2">  1       -1 0.26959035E-01 0.24382754E+03</pdfrwt>
<totfact> 0.54261041E+03</totfact>
</mgrwt>
</event>
<event>
 4    1  0.1710914E-004  0.2683006E+03  0.7818608E-02  0.1102256E+00
          2   -1    0    0  501    0  0.00000000000E+00  0.00000000000E+00  0.62613536617E+03  0.62613536617E+03  0.00000000000E+00 0.  1.
         -2   -1    0    0    0  501 -0.00000000000E+00 -0.00000000000E+00 -0.28741870372E+02  0.28741870372E+02  0.00000000000E+00 0.  1.
         25    1    1    2    0    0 -0.34783253495E+02  0.40994026940E+02  0.23384600526E+03  0.26828033686E+03  0.12000000000E+03 0.  0.
         25    1    1    2    0    0  0.34783253495E+02 -0.40994026940E+02  0.36354749054E+03  0.38659689968E+03  0.12000000000E+03 0.  0.
<mgrwt>
<rscale>  0 0.26830059E+03</rscale>
<asrwt>0</asrwt>
<pdfrwt beam="1">  1        2 0.96328508E-01 0.26830059E+03</pdfrwt>
<pdfrwt beam="2">  1       -2 0.44218267E-02 0.26830059E+03</pdfrwt>
<totfact> 0.11261312E+04</totfact>
</mgrwt>
</event>
<event>
 4    1  0.1710914E-004  0.3954398E+03  0.7818608E-02  0.1045370E+00
          4   -1    0    0  501    0  0.00000000000E+00  0.00000000000E+00  0.39250976786E+03  0.39250976786E+03  0.00000000000E+00 0. -1.
         -4   -1    0    0    0  501 -0.00000000000E+00 -0.00000000000E+00 -0.99597905616E+02  0.99597905616E+02  0.00000000000E+00 0. -1.
         25    1    1    2    0    0 -0.13224449075E+03 -0.12400347684E+02  0.25095159974E+03  0.30825164941E+03  0.12000000000E+03 0.  0.
         25    1    1    2    0    0  0.13224449075E+03  0.12400347684E+02  0.41960262509E+02  0.18385602406E+03  0.12000000000E+03 0.  0.
<mgrwt>
<rscale>  0 0.39543976E+03</rscale>
<asrwt>0</asrwt>
<pdfrwt beam="1">  1        4 0.60386118E-01 0.39543976E+03</pdfrwt>
<pdfrwt beam="2">  1       -4 0.15322755E-01 0.39543976E+03</pdfrwt>
<totfact> 0.18421313E+02</totfact>
</mgrwt>
</event>
<event>
 4    1  0.1710914E-004  0.2510821E+03  0.7818608E-02  0.1112623E+00
         -2   -1    0    0    0  501 -0.00000000000E+00  0.00000000000E+00  0.70069605927E+02  0.70069605927E+02  0.00000000000E+00 0. -1.
          2   -1    0    0  501    0  0.00000000000E+00 -0.00000000000E+00 -0.22492718272E+03  0.22492718272E+03  0.00000000000E+00 0. -1.
         25    1    1    2    0    0 -0.26382708538E+02  0.13588829800E+01 -0.47184138638E+02  0.13162156667E+03  0.12000000000E+03 0.  0.
         25    1    1    2    0    0  0.26382708538E+02 -0.13588829800E+01 -0.10767343815E+03  0.16337522198E+03  0.12000000000E+03 0.  0.
<mgrwt>
<rscale>  0 0.25108213E+03</rscale>
<asrwt>0</asrwt>
<pdfrwt beam="1">  1        2 0.34604182E-01 0.25108213E+03</pdfrwt>
<pdfrwt beam="2">  1       -2 0.10779939E-01 0.25108213E+03</pdfrwt>
<totfact> 0.86862249E+03</totfact>
</mgrwt>
</event>
<event>
 4    1  0.1710914E-004  0.2735200E+03  0.7818608E-02  0.1099282E+00
         -2   -1    0    0    0  501 -0.00000000000E+00  0.00000000000E+00  0.54281642976E+01  0.54281642976E+01  0.00000000000E+00 0.  1.
          2   -1    0    0  501    0  0.00000000000E+00 -0.00000000000E+00 -0.34456027910E+04  0.34456027910E+04  0.00000000000E+00 0.  1.
         25    1    1    2    0    0  0.84048954625E+01  0.50080813618E+02 -0.22440494568E+04  0.22478293296E+04  0.12000000000E+03 0.  0.
         25    1    1    2    0    0 -0.84048954625E+01 -0.50080813618E+02 -0.11961251699E+04  0.12032016258E+04  0.12000000000E+03 0.  0.
<mgrwt>
<rscale>  0 0.27352000E+03</rscale>
<asrwt>0</asrwt>
<pdfrwt beam="1">  1        2 0.53009223E+00 0.27352000E+03</pdfrwt>
<pdfrwt beam="2">  1       -2 0.83510300E-03 0.27352000E+03</pdfrwt>
<totfact> 0.30506064E+03</totfact>
</mgrwt>
</event>
<event>
 4    1  0.1710914E-004  0.2642590E+03  0.7818608E-02  0.1104611E+00
          1   -1    0    0  501    0  0.00000000000E+00  0.00000000000E+00  0.19003511501E+04  0.19003511501E+04  0.00000000000E+00 0.  1.
         -1   -1    0    0    0  501 -0.00000000000E+00 -0.00000000000E+00 -0.91868329994E+01  0.91868329994E+01  0.00000000000E+00 0.  1.
         25    1    1    2    0    0 -0.44056079639E+01 -0.31484070028E+02  0.61860606531E+03  0.63093907795E+03  0.12000000000E+03 0.  0.
         25    1    1    2    0    0  0.44056079639E+01  0.31484070028E+02  0.12725582518E+04  0.12785989052E+04  0.12000000000E+03 0.  0.
<mgrwt>
<rscale>  0 0.26425903E+03</rscale>
<asrwt>0</asrwt>
<pdfrwt beam="1">  1        1 0.29236140E+00 0.26425903E+03</pdfrwt>
<pdfrwt beam="2">  1       -1 0.14133604E-02 0.26425903E+03</pdfrwt>
<totfact> 0.44561955E+03</totfact>
</mgrwt>
</event>
<event>
 4    1  0.1710914E-004  0.3157085E+03  0.7818608E-02  0.1077642E+00
         -1   -1    0    0    0  501 -0.00000000000E+00  0.00000000000E+00  0.93747638201E+02  0.93747638201E+02  0.00000000000E+00 0.  1.
          1   -1    0    0  501    0  0.00000000000E+00 -0.00000000000E+00 -0.26579825624E+03  0.26579825624E+03  0.00000000000E+00 0.  1.
         25    1    1    2    0    0 -0.79664476732E+02  0.59249934846E+02 -0.11530460743E+03  0.19378373545E+03  0.12000000000E+03 0.  0.
         25    1    1    2    0    0  0.79664476732E+02 -0.59249934846E+02 -0.56746010612E+02  0.16576215899E+03  0.12000000000E+03 0.  0.
<mgrwt>
<rscale>  0 0.31570847E+03</rscale>
<asrwt>0</asrwt>
<pdfrwt beam="1">  1        1 0.40892038E-01 0.31570847E+03</pdfrwt>
<pdfrwt beam="2">  1       -1 0.14422714E-01 0.31570847E+03</pdfrwt>
<totfact> 0.34959016E+03</totfact>
</mgrwt>
</event>
<event>
 4    1  0.1710914E-004  0.2846274E+03  0.7818608E-02  0.1093188E+00
          2   -1    0    0  501    0  0.00000000000E+00  0.00000000000E+00  0.18234414957E+04  0.18234414957E+04  0.00000000000E+00 0.  1.
         -2   -1    0    0    0  501 -0.00000000000E+00 -0.00000000000E+00 -0.11107125540E+02  0.11107125540E+02  0.00000000000E+00 0.  1.
         25    1    1    2    0    0  0.14290330281E+02  0.19440966770E+02  0.43821640949E+03  0.45498987491E+03  0.12000000000E+03 0.  0.
         25    1    1    2    0    0 -0.14290330281E+02 -0.19440966770E+02  0.13741179606E+04  0.13795587463E+04  0.12000000000E+03 0.  0.
<mgrwt>
<rscale>  0 0.28462743E+03</rscale>
<asrwt>0</asrwt>
<pdfrwt beam="1">  1        2 0.28052922E+00 0.28462743E+03</pdfrwt>
<pdfrwt beam="2">  1       -2 0.17087900E-02 0.28462743E+03</pdfrwt>
<totfact> 0.89698227E+03</totfact>
</mgrwt>
</event>
<event>
 4    1  0.1710914E-004  0.3097596E+03  0.7818608E-02  0.1080461E+00
          1   -1    0    0  501    0  0.00000000000E+00  0.00000000000E+00  0.61183051229E+02  0.61183051229E+02  0.00000000000E+00 0. -1.
         -1   -1    0    0    0  501 -0.00000000000E+00 -0.00000000000E+00 -0.39206542291E+03  0.39206542291E+03  0.00000000000E+00 0. -1.
         25    1    1    2    0    0 -0.31535014053E+02 -0.41895057790E+02 -0.44442841347E+02  0.13829251290E+03  0.12000000000E+03 0.  0.
         25    1    1    2    0    0  0.31535014053E+02  0.41895057790E+02 -0.28643953033E+03  0.31495596123E+03  0.12000000000E+03 0.  0.
<mgrwt>
<rscale>  0 0.30975964E+03</rscale>
<asrwt>0</asrwt>
<pdfrwt beam="1">  1        1 0.94127769E-02 0.30975964E+03</pdfrwt>
<pdfrwt beam="2">  1       -1 0.60317759E-01 0.30975964E+03</pdfrwt>
<totfact> 0.20057053E+03</totfact>
</mgrwt>
</event>
<event>
 4    1  0.1710914E-004  0.2612078E+03  0.7818608E-02  0.1106420E+00
          2   -1    0    0  501    0  0.00000000000E+00  0.00000000000E+00  0.11060101254E+04  0.11060101254E+04  0.00000000000E+00 0. -1.
         -2   -1    0    0    0  501 -0.00000000000E+00 -0.00000000000E+00 -0.15422443444E+02  0.15422443444E+02  0.00000000000E+00 0. -1.
         25    1    1    2    0    0 -0.99392755456E+01  0.27675744379E+02  0.36351895589E+03  0.38394109876E+03  0.12000000000E+03 0.  0.
         25    1    1    2    0    0  0.99392755456E+01 -0.27675744379E+02  0.72706872610E+03  0.73749147012E+03  0.12000000000E+03 0.  0.
<mgrwt>
<rscale>  0 0.26120780E+03</rscale>
<asrwt>0</asrwt>
<pdfrwt beam="1">  1        2 0.17015534E+00 0.26120780E+03</pdfrwt>
<pdfrwt beam="2">  1       -2 0.23726845E-02 0.26120780E+03</pdfrwt>
<totfact> 0.13552119E+04</totfact>
</mgrwt>
</event>
<event>
 4    1  0.1710914E-004  0.2610311E+03  0.7818608E-02  0.1106525E+00
          1   -1    0    0  501    0  0.00000000000E+00  0.00000000000E+00  0.28309548159E+03  0.28309548159E+03  0.00000000000E+00 0. -1.
         -1   -1    0    0    0  501 -0.00000000000E+00 -0.00000000000E+00 -0.60171617929E+02  0.60171617929E+02  0.00000000000E+00 0. -1.
         25    1    1    2    0    0  0.79899198313E+01  0.96728489062E+01  0.17690972596E+03  0.21413653113E+03  0.12000000000E+03 0.  0.
         25    1    1    2    0    0 -0.79899198313E+01 -0.96728489062E+01  0.46014137706E+02  0.12913056839E+03  0.12000000000E+03 0.  0.
<mgrwt>
<rscale>  0 0.26103113E+03</rscale>
<asrwt>0</asrwt>
<pdfrwt beam="1">  1        1 0.43553150E-01 0.26103113E+03</pdfrwt>
<pdfrwt beam="2">  1       -1 0.92571721E-02 0.26103113E+03</pdfrwt>
<totfact> 0.64181289E+03</totfact>
</mgrwt>
</event>
<event>
 4    1  0.1710914E-004  0.2992103E+03  0.7818608E-02  0.1085636E+00
          2   -1    0    0  501    0  0.00000000000E+00  0.00000000000E+00  0.56740639627E+03  0.56740639627E+03  0.00000000000E+00 0. -1.
         -2   -1    0    0    0  501 -0.00000000000E+00 -0.00000000000E+00 -0.39445638269E+02  0.39445638269E+02  0.00000000000E+00 0. -1.
         25    1    1    2    0    0  0.36608606363E+00  0.75137804890E+02  0.16595651483E+03  0.21814533815E+03  0.12000000000E+03 0.  0.
         25    1    1    2    0    0 -0.36608606363E+00 -0.75137804890E+02  0.36200424317E+03  0.38870669639E+03  0.12000000000E+03 0.  0.
<mgrwt>
<rscale>  0 0.29921034E+03</rscale>
<asrwt>0</asrwt>
<pdfrwt beam="1">  1        2 0.87293286E-01 0.29921034E+03</pdfrwt>
<pdfrwt beam="2">  1       -2 0.60685601E-02 0.29921034E+03</pdfrwt>
<totfact> 0.78236038E+03</totfact>
</mgrwt>
</event>
<event>
 4    1  0.1710914E-004  0.2766798E+03  0.7818608E-02  0.1097516E+00
         -2   -1    0    0    0  501 -0.00000000000E+00  0.00000000000E+00  0.13443564472E+03  0.13443564472E+03  0.00000000000E+00 0. -1.
          2   -1    0    0  501    0  0.00000000000E+00 -0.00000000000E+00 -0.14235753864E+03  0.14235753864E+03  0.00000000000E+00 0. -1.
         25    1    1    2    0    0 -0.24491388349E+00  0.99789114764E+01 -0.72093841056E+02  0.14034657308E+03  0.12000000000E+03 0.  0.
         25    1    1    2    0    0  0.24491388349E+00 -0.99789114764E+01  0.64171947142E+02  0.13644661028E+03  0.12000000000E+03 0.  0.
<mgrwt>
<rscale>  0 0.27667980E+03</rscale>
<asrwt>0</asrwt>
<pdfrwt beam="1">  1        2 0.21901160E-01 0.27667980E+03</pdfrwt>
<pdfrwt beam="2">  1       -2 0.20682407E-01 0.27667980E+03</pdfrwt>
<totfact> 0.49284307E+03</totfact>
</mgrwt>
</event>
<event>
 4    1  0.1710914E-004  0.3261296E+03  0.7818608E-02  0.1072862E+00
          2   -1    0    0  501    0  0.00000000000E+00  0.00000000000E+00  0.79516129250E+03  0.79516129250E+03  0.00000000000E+00 0. -1.
         -2   -1    0    0    0  501 -0.00000000000E+00 -0.00000000000E+00 -0.33439913805E+02  0.33439913805E+02  0.00000000000E+00 0. -1.
         25    1    1    2    0    0  0.73130694269E+02  0.63039227724E+02  0.51692718133E+03  0.53938460626E+03  0.12000000000E+03 0.  0.
         25    1    1    2    0    0 -0.73130694269E+02 -0.63039227724E+02  0.24479419737E+03  0.28921660004E+03  0.12000000000E+03 0.  0.
<mgrwt>
<rscale>  0 0.32612958E+03</rscale>
<asrwt>0</asrwt>
<pdfrwt beam="1">  1        2 0.12233249E+00 0.32612958E+03</pdfrwt>
<pdfrwt beam="2">  1       -2 0.51446027E-02 0.32612958E+03</pdfrwt>
<totfact> 0.67206958E+03</totfact>
</mgrwt>
</event>
<event>
 4    1  0.1710914E-004  0.3131886E+03  0.7818608E-02  0.1078828E+00
          1   -1    0    0  501    0  0.00000000000E+00  0.00000000000E+00  0.23742219115E+03  0.23742219115E+03  0.00000000000E+00 0.  1.
         -1   -1    0    0    0  501 -0.00000000000E+00 -0.00000000000E+00 -0.10328340235E+03  0.10328340235E+03  0.00000000000E+00 0.  1.
         25    1    1    2    0    0 -0.89742805695E+01  0.87511127068E+02  0.12017479680E+03  0.19126086076E+03  0.12000000000E+03 0.  0.
         25    1    1    2    0    0  0.89742805695E+01 -0.87511127068E+02  0.13963991998E+02  0.14944473274E+03  0.12000000000E+03 0.  0.
<mgrwt>
<rscale>  0 0.31318858E+03</rscale>
<asrwt>0</asrwt>
<pdfrwt beam="1">  1        1 0.36526491E-01 0.31318858E+03</pdfrwt>
<pdfrwt beam="2">  1       -1 0.15889754E-01 0.31318858E+03</pdfrwt>
<totfact> 0.34534651E+03</totfact>
</mgrwt>
</event>
<event>
 4    1  0.1710914E-004  0.3519358E+03  0.7818608E-02  0.1061823E+00
          1   -1    0    0  501    0  0.00000000000E+00  0.00000000000E+00  0.17524998264E+03  0.17524998264E+03  0.00000000000E+00 0.  1.
         -1   -1    0    0    0  501 -0.00000000000E+00 -0.00000000000E+00 -0.17668876287E+03  0.17668876287E+03  0.00000000000E+00 0.  1.
         25    1    1    2    0    0  0.48278232116E+02 -0.11879175798E+03  0.10345654471E+02  0.17592413713E+03  0.12000000000E+03 0.  0.
         25    1    1    2    0    0 -0.48278232116E+02  0.11879175798E+03 -0.11784434704E+02  0.17601460837E+03  0.12000000000E+03 0.  0.
<mgrwt>
<rscale>  0 0.35193580E+03</rscale>
<asrwt>0</asrwt>
<pdfrwt beam="1">  1        1 0.26961536E-01 0.35193580E+03</pdfrwt>
<pdfrwt beam="2">  1       -1 0.27182887E-01 0.35193580E+03</pdfrwt>
<totfact> 0.21066028E+03</totfact>
</mgrwt>
</event>
<event>
 4    1  0.1710914E-004  0.2772988E+03  0.7818608E-02  0.1097173E+00
         -1   -1    0    0    0  501 -0.00000000000E+00  0.00000000000E+00  0.24082189314E+03  0.24082189314E+03  0.00000000000E+00 0. -1.
          1   -1    0    0  501    0  0.00000000000E+00 -0.00000000000E+00 -0.79825197545E+02  0.79825197545E+02  0.00000000000E+00 0. -1.
         25    1    1    2    0    0  0.40984975012E+02  0.16825098704E+02  0.18650683114E+02  0.12926987315E+03  0.12000000000E+03 0.  0.
         25    1    1    2    0    0 -0.40984975012E+02 -0.16825098704E+02  0.14234601248E+03  0.19137721754E+03  0.12000000000E+03 0.  0.
<mgrwt>
<rscale>  0 0.27729879E+03</rscale>
<asrwt>0</asrwt>
<pdfrwt beam="1">  1        1 0.12280800E-01 0.27729879E+03</pdfrwt>
<pdfrwt beam="2">  1       -1 0.37049522E-01 0.27729879E+03</pdfrwt>
<totfact> 0.34265655E+03</totfact>
</mgrwt>
</event>
<event>
 4    1  0.1710914E-004  0.2888996E+03  0.7818608E-02  0.1090925E+00
          3   -1    0    0  501    0  0.00000000000E+00  0.00000000000E+00  0.96063073727E+03  0.96063073727E+03  0.00000000000E+00 0. -1.
         -3   -1    0    0    0  501 -0.00000000000E+00 -0.00000000000E+00 -0.21720882505E+02  0.21720882505E+02  0.00000000000E+00 0. -1.
         25    1    1    2    0    0  0.49205995360E+02  0.41476222213E+02  0.30552414219E+03  0.33449440720E+03  0.12000000000E+03 0.  0.
         25    1    1    2    0    0 -0.49205995360E+02 -0.41476222213E+02  0.63338571257E+03  0.64785721257E+03  0.12000000000E+03 0.  0.
<mgrwt>
<rscale>  0 0.28889962E+03</rscale>
<asrwt>0</asrwt>
<pdfrwt beam="1">  1        3 0.14778931E+00 0.28889962E+03</pdfrwt>
<pdfrwt beam="2">  1       -3 0.33416750E-02 0.28889962E+03</pdfrwt>
<totfact> 0.39049936E+02</totfact>
</mgrwt>
</event>
<event>
 4    1  0.1710914E-004  0.2494627E+03  0.7818608E-02  0.1113645E+00
         -2   -1    0    0    0  501 -0.00000000000E+00  0.00000000000E+00  0.53966971364E+02  0.53966971364E+02  0.00000000000E+00 0. -1.
          2   -1    0    0  501    0  0.00000000000E+00 -0.00000000000E+00 -0.28828573971E+03  0.28828573971E+03  0.00000000000E+00 0. -1.
         25    1    1    2    0    0 -0.10726019227E+02  0.28036380312E+02 -0.13914595691E+03  0.18617917024E+03  0.12000000000E+03 0.  0.
         25    1    1    2    0    0  0.10726019227E+02 -0.28036380312E+02 -0.95172811438E+02  0.15607354083E+03  0.12000000000E+03 0.  0.
<mgrwt>
<rscale>  0 0.24946269E+03</rscale>
<asrwt>0</asrwt>
<pdfrwt beam="1">  1        2 0.44351652E-01 0.24946269E+03</pdfrwt>
<pdfrwt beam="2">  1       -2 0.83026111E-02 0.24946269E+03</pdfrwt>
<totfact> 0.10039394E+04</totfact>
</mgrwt>
</event>
<event>
 4    1  0.1710914E-004  0.2749839E+03  0.7818608E-02  0.1098461E+00
         -1   -1    0    0    0  501 -0.00000000000E+00  0.00000000000E+00  0.15113693111E+03  0.15113693111E+03  0.00000000000E+00 0. -1.
          1   -1    0    0  501    0  0.00000000000E+00 -0.00000000000E+00 -0.12507889137E+03  0.12507889137E+03  0.00000000000E+00 0. -1.
         25    1    1    2    0    0 -0.49793178984E+02  0.34732340686E+02 -0.15705840929E+02  0.13539708122E+03  0.12000000000E+03 0.  0.
         25    1    1    2    0    0  0.49793178984E+02 -0.34732340686E+02  0.41763880669E+02  0.14081874126E+03  0.12000000000E+03 0.  0.
<mgrwt>
<rscale>  0 0.27498393E+03</rscale>
<asrwt>0</asrwt>
<pdfrwt beam="1">  1        1 0.19242906E-01 0.27498393E+03</pdfrwt>
<pdfrwt beam="2">  1       -1 0.23251836E-01 0.27498393E+03</pdfrwt>
<totfact> 0.41953095E+03</totfact>
</mgrwt>
</event>
<event>
 4    1  0.1710914E-004  0.2462810E+03  0.7818608E-02  0.1115678E+00
          2   -1    0    0  501    0  0.00000000000E+00  0.00000000000E+00  0.89982129458E+02  0.89982129458E+02  0.00000000000E+00 0. -1.
         -2   -1    0    0    0  501 -0.00000000000E+00 -0.00000000000E+00 -0.16851777087E+03  0.16851777087E+03  0.00000000000E+00 0. -1.
         25    1    1    2    0    0 -0.20139115834E+02  0.80665568641E+01 -0.21303338863E+02  0.12379210626E+03  0.12000000000E+03 0.  0.
         25    1    1    2    0    0  0.20139115834E+02 -0.80665568641E+01 -0.57232302545E+02  0.13470779406E+03  0.12000000000E+03 0.  0.
<mgrwt>
<rscale>  0 0.24628104E+03</rscale>
<asrwt>0</asrwt>
<pdfrwt beam="1">  1        2 0.13843405E-01 0.24628104E+03</pdfrwt>
<pdfrwt beam="2">  1       -2 0.25925810E-01 0.24628104E+03</pdfrwt>
<totfact> 0.56421971E+03</totfact>
</mgrwt>
</event>
<event>
 4    1  0.1710914E-004  0.2417344E+03  0.7818608E-02  0.1118643E+00
          1   -1    0    0  501    0  0.00000000000E+00  0.00000000000E+00  0.12267679104E+03  0.12267679104E+03  0.00000000000E+00 0.  1.
         -1   -1    0    0    0  501 -0.00000000000E+00 -0.00000000000E+00 -0.11908428698E+03  0.11908428698E+03  0.00000000000E+00 0.  1.
         25    1    1    2    0    0 -0.48628078164E+01 -0.48259931976E+00 -0.11806661102E+02  0.12067840340E+03  0.12000000000E+03 0.  0.
         25    1    1    2    0    0  0.48628078164E+01  0.48259931976E+00  0.15399165162E+02  0.12108267461E+03  0.12000000000E+03 0.  0.
<mgrwt>
<rscale>  0 0.24173438E+03</rscale>
<asrwt>0</asrwt>
<pdfrwt beam="1">  1        1 0.18873352E-01 0.24173438E+03</pdfrwt>
<pdfrwt beam="2">  1       -1 0.18320660E-01 0.24173438E+03</pdfrwt>
<totfact> 0.63130748E+03</totfact>
</mgrwt>
</event>
<event>
 4    1  0.1710914E-004  0.2719389E+03  0.7818608E-02  0.1100175E+00
         -2   -1    0    0    0  501 -0.00000000000E+00  0.00000000000E+00  0.78870741344E+01  0.78870741344E+01  0.00000000000E+00 0. -1.
          2   -1    0    0  501    0  0.00000000000E+00 -0.00000000000E+00 -0.23440493609E+04  0.23440493609E+04  0.00000000000E+00 0. -1.
         25    1    1    2    0    0 -0.44054243189E+02 -0.33920857445E+02 -0.14410714143E+04  0.14471275763E+04  0.12000000000E+03 0.  0.
         25    1    1    2    0    0  0.44054243189E+02  0.33920857445E+02 -0.89509087251E+03  0.90480885880E+03  0.12000000000E+03 0.  0.
<mgrwt>
<rscale>  0 0.27193890E+03</rscale>
<asrwt>0</asrwt>
<pdfrwt beam="1">  1        2 0.36062249E+00 0.27193890E+03</pdfrwt>
<pdfrwt beam="2">  1       -2 0.12133977E-02 0.27193890E+03</pdfrwt>
<totfact> 0.78416765E+03</totfact>
</mgrwt>
</event>
<event>
 4    1  0.1710914E-004  0.3188026E+03  0.7818608E-02  0.1076202E+00
         -1   -1    0    0    0  501 -0.00000000000E+00  0.00000000000E+00  0.24320413772E+02  0.24320413772E+02  0.00000000000E+00 0.  1.
          1   -1    0    0  501    0  0.00000000000E+00 -0.00000000000E+00 -0.10447511072E+04  0.10447511072E+04  0.00000000000E+00 0.  1.
         25    1    1    2    0    0 -0.51510870482E+02 -0.38192969164E+02 -0.78870286732E+03  0.80035260079E+03  0.12000000000E+03 0.  0.
         25    1    1    2    0    0  0.51510870482E+02  0.38192969164E+02 -0.23172782610E+03  0.26871892018E+03  0.12000000000E+03 0.  0.
<mgrwt>
<rscale>  0 0.31880263E+03</rscale>
<asrwt>0</asrwt>
<pdfrwt beam="1">  1        1 0.16073094E+00 0.31880263E+03</pdfrwt>
<pdfrwt beam="2">  1       -1 0.37416021E-02 0.31880263E+03</pdfrwt>
<totfact> 0.40324296E+03</totfact>
</mgrwt>
</event>
<event>
 4    1  0.1710914E-004  0.2942568E+03  0.7818608E-02  0.1088147E+00
         -1   -1    0    0    0  501 -0.00000000000E+00  0.00000000000E+00  0.34917519422E+03  0.34917519422E+03  0.00000000000E+00 0.  1.
          1   -1    0    0  501    0  0.00000000000E+00 -0.00000000000E+00 -0.61994009018E+02  0.61994009018E+02  0.00000000000E+00 0.  1.
         25    1    1    2    0    0 -0.50707854878E+02 -0.36622613332E+02  0.22427586474E+03  0.26193924077E+03  0.12000000000E+03 0.  0.
         25    1    1    2    0    0  0.50707854878E+02  0.36622613332E+02  0.62905320462E+02  0.14922996246E+03  0.12000000000E+03 0.  0.
<mgrwt>
<rscale>  0 0.29425683E+03</rscale>
<asrwt>0</asrwt>
<pdfrwt beam="1">  1        1 0.95375401E-02 0.29425683E+03</pdfrwt>
<pdfrwt beam="2">  1       -1 0.53719259E-01 0.29425683E+03</pdfrwt>
<totfact> 0.24547832E+03</totfact>
</mgrwt>
</event>
<event>
 4    1  0.1710914E-004  0.3108053E+03  0.7818608E-02  0.1079961E+00
          2   -1    0    0  501    0  0.00000000000E+00  0.00000000000E+00  0.52530903871E+03  0.52530903871E+03  0.00000000000E+00 0.  1.
         -2   -1    0    0    0  501 -0.00000000000E+00 -0.00000000000E+00 -0.45972897276E+02  0.45972897276E+02  0.00000000000E+00 0.  1.
         25    1    1    2    0    0 -0.82480467141E+02 -0.53935232374E+02  0.22834613587E+03  0.27614125827E+03  0.12000000000E+03 0.  0.
         25    1    1    2    0    0  0.82480467141E+02  0.53935232374E+02  0.25099000556E+03  0.29514067771E+03  0.12000000000E+03 0.  0.
<mgrwt>
<rscale>  0 0.31080527E+03</rscale>
<asrwt>0</asrwt>
<pdfrwt beam="1">  1        2 0.80816771E-01 0.31080527E+03</pdfrwt>
<pdfrwt beam="2">  1       -2 0.70727538E-02 0.31080527E+03</pdfrwt>
<totfact> 0.67493885E+03</totfact>
</mgrwt>
</event>
<event>
 4    1  0.1710914E-004  0.2787114E+03  0.7818608E-02  0.1096395E+00
         -4   -1    0    0    0  501 -0.00000000000E+00  0.00000000000E+00  0.10623128615E+03  0.10623128615E+03  0.00000000000E+00 0.  1.
          4   -1    0    0  501    0  0.00000000000E+00 -0.00000000000E+00 -0.18280878218E+03  0.18280878218E+03  0.00000000000E+00 0.  1.
         25    1    1    2    0    0  0.15515931495E+02  0.84117061155E+01 -0.10945025036E+03  0.16337337064E+03  0.12000000000E+03 0.  0.
         25    1    1    2    0    0 -0.15515931495E+02 -0.84117061155E+01  0.32872754331E+02  0.12566669769E+03  0.12000000000E+03 0.  0.
<mgrwt>
<rscale>  0 0.27871141E+03</rscale>
<asrwt>0</asrwt>
<pdfrwt beam="1">  1        4 0.28124428E-01 0.27871141E+03</pdfrwt>
<pdfrwt beam="2">  1       -4 0.16343275E-01 0.27871141E+03</pdfrwt>
<totfact> 0.73134920E+02</totfact>
</mgrwt>
</event>
<event>
 4    1  0.1710914E-004  0.7983781E+03  0.7818608E-02  0.9562368E-01
          1   -1    0    0  501    0  0.00000000000E+00  0.00000000000E+00  0.47290387826E+03  0.47290387826E+03  0.00000000000E+00 0.  1.
         -1   -1    0    0    0  501 -0.00000000000E+00 -0.00000000000E+00 -0.33696464614E+03  0.33696464614E+03  0.00000000000E+00 0.  1.
         25    1    1    2    0    0 -0.97534249442E+01 -0.33190959022E+03 -0.12097106892E+03  0.37321991492E+03  0.12000000000E+03 0.  0.
         25    1    1    2    0    0  0.97534249442E+01  0.33190959022E+03  0.25691030105E+03  0.43664860948E+03  0.12000000000E+03 0.  0.
<mgrwt>
<rscale>  0 0.79837808E+03</rscale>
<asrwt>0</asrwt>
<pdfrwt beam="1">  1        1 0.72754443E-01 0.79837808E+03</pdfrwt>
<pdfrwt beam="2">  1       -1 0.51840715E-01 0.79837808E+03</pdfrwt>
<totfact> 0.18134017E+02</totfact>
</mgrwt>
</event>
<event>
 4    1  0.1710914E-004  0.3256575E+03  0.7818608E-02  0.1073075E+00
          2   -1    0    0  501    0  0.00000000000E+00  0.00000000000E+00  0.20991914764E+04  0.20991914764E+04  0.00000000000E+00 0. -1.
         -2   -1    0    0    0  501 -0.00000000000E+00 -0.00000000000E+00 -0.12630197192E+02  0.12630197192E+02  0.00000000000E+00 0. -1.
         25    1    1    2    0    0  0.90888972222E+02 -0.20140790610E+02  0.66256495640E+03  0.67974905529E+03  0.12000000000E+03 0.  0.
         25    1    1    2    0    0 -0.90888972222E+02  0.20140790610E+02  0.14239963228E+04  0.14320726183E+04  0.12000000000E+03 0.  0.
<mgrwt>
<rscale>  0 0.32565750E+03</rscale>
<asrwt>0</asrwt>
<pdfrwt beam="1">  1        2 0.32295226E+00 0.32565750E+03</pdfrwt>
<pdfrwt beam="2">  1       -2 0.19431089E-02 0.32565750E+03</pdfrwt>
<totfact> 0.53108413E+03</totfact>
</mgrwt>
</event>
<event>
 4    1  0.1710914E-004  0.2701223E+03  0.7818608E-02  0.1101210E+00
         -2   -1    0    0    0  501 -0.00000000000E+00  0.00000000000E+00  0.19006011985E+02  0.19006011985E+02  0.00000000000E+00 0. -1.
          2   -1    0    0  501    0  0.00000000000E+00 -0.00000000000E+00 -0.95977601902E+03  0.95977601902E+03  0.00000000000E+00 0. -1.
         25    1    1    2    0    0  0.76590454330E+01 -0.32539828222E+02 -0.65950181767E+03  0.67116328036E+03  0.12000000000E+03 0.  0.
         25    1    1    2    0    0 -0.76590454330E+01  0.32539828222E+02 -0.28126818937E+03  0.30761875064E+03  0.12000000000E+03 0.  0.
<mgrwt>
<rscale>  0 0.27012230E+03</rscale>
<asrwt>0</asrwt>
<pdfrwt beam="1">  1        2 0.14765789E+00 0.27012230E+03</pdfrwt>
<pdfrwt beam="2">  1       -2 0.29240010E-02 0.27012230E+03</pdfrwt>
<totfact> 0.12199815E+04</totfact>
</mgrwt>
</event>
<event>
 4    1  0.1710914E-004  0.2637939E+03  0.7818608E-02  0.1104885E+00
          4   -1    0    0  501    0  0.00000000000E+00  0.00000000000E+00  0.25981905302E+03  0.25981905302E+03  0.00000000000E+00 0. -1.
         -4   -1    0    0    0  501 -0.00000000000E+00 -0.00000000000E+00 -0.66957399863E+02  0.66957399863E+02  0.00000000000E+00 0. -1.
         25    1    1    2    0    0  0.28465739934E+02 -0.12312753006E+02  0.40550601659E+02  0.13040802710E+03  0.12000000000E+03 0.  0.
         25    1    1    2    0    0 -0.28465739934E+02  0.12312753006E+02  0.15231105149E+03  0.19636842578E+03  0.12000000000E+03 0.  0.
<mgrwt>
<rscale>  0 0.26379392E+03</rscale>
<asrwt>0</asrwt>
<pdfrwt beam="1">  1        4 0.39972162E-01 0.26379392E+03</pdfrwt>
<pdfrwt beam="2">  1       -4 0.10301139E-01 0.26379392E+03</pdfrwt>
<totfact> 0.81938143E+02</totfact>
</mgrwt>
</event>
<event>
 4    1  0.1710914E-004  0.3046451E+03  0.7818608E-02  0.1082941E+00
         -2   -1    0    0    0  501 -0.00000000000E+00  0.00000000000E+00  0.48342606717E+02  0.48342606717E+02  0.00000000000E+00 0. -1.
          2   -1    0    0  501    0  0.00000000000E+00 -0.00000000000E+00 -0.47995256010E+03  0.47995256010E+03  0.00000000000E+00 0. -1.
         25    1    1    2    0    0 -0.21520228419E+02  0.15359901954E+02 -0.37190693390E+03  0.39168075559E+03  0.12000000000E+03 0.  0.
         25    1    1    2    0    0  0.21520228419E+02 -0.15359901954E+02 -0.59703019487E+02  0.13661441123E+03  0.12000000000E+03 0.  0.
<mgrwt>
<rscale>  0 0.30464509E+03</rscale>
<asrwt>0</asrwt>
<pdfrwt beam="1">  1        2 0.73838859E-01 0.30464509E+03</pdfrwt>
<pdfrwt beam="2">  1       -2 0.74373238E-02 0.30464509E+03</pdfrwt>
<totfact> 0.69045129E+03</totfact>
</mgrwt>
</event>
<event>
 4    1  0.1710914E-004  0.2431390E+03  0.7818608E-02  0.1117719E+00
         -2   -1    0    0    0  501 -0.00000000000E+00  0.00000000000E+00  0.64280564624E+01  0.64280564624E+01  0.00000000000E+00 0.  1.
          2   -1    0    0  501    0  0.00000000000E+00 -0.00000000000E+00 -0.22991617471E+04  0.22991617471E+04  0.00000000000E+00 0.  1.
         25    1    1    2    0    0 -0.34656421339E+01  0.18802497769E+02 -0.11813329984E+04  0.11875660814E+04  0.12000000000E+03 0.  0.
         25    1    1    2    0    0  0.34656421339E+01 -0.18802497769E+02 -0.11114006922E+04  0.11180237222E+04  0.12000000000E+03 0.  0.
<mgrwt>
<rscale>  0 0.24313899E+03</rscale>
<asrwt>0</asrwt>
<pdfrwt beam="1">  1        2 0.35371813E+00 0.24313899E+03</pdfrwt>
<pdfrwt beam="2">  1       -2 0.98892914E-03 0.24313899E+03</pdfrwt>
<totfact> 0.11147364E+04</totfact>
</mgrwt>
</event>
<event>
 4    1  0.1710914E-004  0.5161563E+03  0.7818608E-02  0.1009646E+00
         -2   -1    0    0    0  501 -0.00000000000E+00  0.00000000000E+00  0.25277872536E+03  0.25277872536E+03  0.00000000000E+00 0. -1.
          2   -1    0    0  501    0  0.00000000000E+00 -0.00000000000E+00 -0.26348870134E+03  0.26348870134E+03  0.00000000000E+00 0. -1.
         25    1    1    2    0    0  0.19372816292E+03  0.44424595699E+02  0.10736439903E+03  0.25579534787E+03  0.12000000000E+03 0.  0.
         25    1    1    2    0    0 -0.19372816292E+03 -0.44424595699E+02 -0.11807437501E+03  0.26047207882E+03  0.12000000000E+03 0.  0.
<mgrwt>
<rscale>  0 0.51615633E+03</rscale>
<asrwt>0</asrwt>
<pdfrwt beam="1">  1        2 0.40536723E-01 0.51615633E+03</pdfrwt>
<pdfrwt beam="2">  1       -2 0.38889035E-01 0.51615633E+03</pdfrwt>
<totfact> 0.79629446E+02</totfact>
</mgrwt>
</event>
<event>
 4    1  0.1710914E-004  0.2722432E+03  0.7818608E-02  0.1100003E+00
          2   -1    0    0  501    0  0.00000000000E+00  0.00000000000E+00  0.38107680672E+03  0.38107680672E+03  0.00000000000E+00 0. -1.
         -2   -1    0    0    0  501 -0.00000000000E+00 -0.00000000000E+00 -0.48622970795E+02  0.48622970795E+02  0.00000000000E+00 0. -1.
         25    1    1    2    0    0 -0.47219522930E+02  0.40505202136E+02  0.14083865730E+03  0.19520727993E+03  0.12000000000E+03 0.  0.
         25    1    1    2    0    0  0.47219522930E+02 -0.40505202136E+02  0.19161517862E+03  0.23449249759E+03  0.12000000000E+03 0.  0.
<mgrwt>
<rscale>  0 0.27224317E+03</rscale>
<asrwt>0</asrwt>
<pdfrwt beam="1">  1        2 0.58627199E-01 0.27224317E+03</pdfrwt>
<pdfrwt beam="2">  1       -2 0.74804573E-02 0.27224317E+03</pdfrwt>
<totfact> 0.87797209E+03</totfact>
</mgrwt>
</event>
<event>
 4    1  0.1710914E-004  0.3069527E+03  0.7818608E-02  0.1081816E+00
         -1   -1    0    0    0  501 -0.00000000000E+00  0.00000000000E+00  0.45693221633E+02  0.45693221633E+02  0.00000000000E+00 0.  1.
          1   -1    0    0  501    0  0.00000000000E+00 -0.00000000000E+00 -0.51550301114E+03  0.51550301114E+03  0.00000000000E+00 0.  1.
         25    1    1    2    0    0  0.49633367843E+02 -0.10656149221E+02 -0.38318714129E+03  0.40473375196E+03  0.12000000000E+03 0.  0.
         25    1    1    2    0    0 -0.49633367843E+02  0.10656149221E+02 -0.86622648214E+02  0.15646248082E+03  0.12000000000E+03 0.  0.
<mgrwt>
<rscale>  0 0.30695272E+03</rscale>
<asrwt>0</asrwt>
<pdfrwt beam="1">  1        1 0.79308154E-01 0.30695272E+03</pdfrwt>
<pdfrwt beam="2">  1       -1 0.70297266E-02 0.30695272E+03</pdfrwt>
<totfact> 0.45480724E+03</totfact>
</mgrwt>
</event>
<event>
 4    1  0.1710914E-004  0.2758175E+03  0.7818608E-02  0.1097996E+00
          2   -1    0    0  501    0  0.00000000000E+00  0.00000000000E+00  0.47559108550E+03  0.47559108550E+03  0.00000000000E+00 0.  1.
         -2   -1    0    0    0  501 -0.00000000000E+00 -0.00000000000E+00 -0.39989853256E+02  0.39989853256E+02  0.00000000000E+00 0.  1.
         25    1    1    2    0    0 -0.37548513831E+01 -0.59617203241E+02  0.15721427048E+03  0.20660260568E+03  0.12000000000E+03 0.  0.
         25    1    1    2    0    0  0.37548513831E+01  0.59617203241E+02  0.27838696176E+03  0.30897833308E+03  0.12000000000E+03 0.  0.
<mgrwt>
<rscale>  0 0.27581746E+03</rscale>
<asrwt>0</asrwt>
<pdfrwt beam="1">  1        2 0.73167855E-01 0.27581746E+03</pdfrwt>
<pdfrwt beam="2">  1       -2 0.61522854E-02 0.27581746E+03</pdfrwt>
<totfact> 0.93238718E+03</totfact>
</mgrwt>
</event>
<event>
 4    1  0.1710914E-004  0.2888694E+03  0.7818608E-02  0.1090941E+00
          2   -1    0    0  501    0  0.00000000000E+00  0.00000000000E+00  0.91513228260E+03  0.91513228260E+03  0.00000000000E+00 0. -1.
         -2   -1    0    0    0  501 -0.00000000000E+00 -0.00000000000E+00 -0.22796036552E+02  0.22796036552E+02  0.00000000000E+00 0. -1.
         25    1    1    2    0    0  0.16464191567E+02 -0.16279867204E+02  0.19623565637E+03  0.23118074424E+03  0.12000000000E+03 0.  0.
         25    1    1    2    0    0 -0.16464191567E+02  0.16279867204E+02  0.69610058968E+03  0.70674757491E+03  0.12000000000E+03 0.  0.
<mgrwt>
<rscale>  0 0.28886944E+03</rscale>
<asrwt>0</asrwt>
<pdfrwt beam="1">  1        2 0.14078955E+00 0.28886944E+03</pdfrwt>
<pdfrwt beam="2">  1       -2 0.35070833E-02 0.28886944E+03</pdfrwt>
<totfact> 0.99463032E+03</totfact>
</mgrwt>
</event>
<event>
 4    1  0.1710914E-004  0.2685351E+03  0.7818608E-02  0.1102121E+00
         -2   -1    0    0    0  501 -0.00000000000E+00  0.00000000000E+00  0.44767762506E+02  0.44767762506E+02  0.00000000000E+00 0. -1.
          2   -1    0    0  501    0  0.00000000000E+00 -0.00000000000E+00 -0.40269540409E+03  0.40269540409E+03  0.00000000000E+00 0. -1.
         25    1    1    2    0    0  0.58026803156E+02 -0.12534131760E+02 -0.16200686776E+03  0.21016764628E+03  0.12000000000E+03 0.  0.
         25    1    1    2    0    0 -0.58026803156E+02  0.12534131760E+02 -0.19592077382E+03  0.23729552031E+03  0.12000000000E+03 0.  0.
<mgrwt>
<rscale>  0 0.26853508E+03</rscale>
<asrwt>0</asrwt>
<pdfrwt beam="1">  1        2 0.61953141E-01 0.26853508E+03</pdfrwt>
<pdfrwt beam="2">  1       -2 0.68873478E-02 0.26853508E+03</pdfrwt>
<totfact> 0.93946028E+03</totfact>
</mgrwt>
</event>
<event>
 4    1  0.1710914E-004  0.3594204E+03  0.7818608E-02  0.1058814E+00
         -1   -1    0    0    0  501 -0.00000000000E+00  0.00000000000E+00  0.11067585177E+04  0.11067585177E+04  0.00000000000E+00 0. -1.
          1   -1    0    0  501    0  0.00000000000E+00 -0.00000000000E+00 -0.29180495565E+02  0.29180495565E+02  0.00000000000E+00 0. -1.
         25    1    1    2    0    0 -0.98284860561E+02  0.16372918512E+02  0.25667750288E+03  0.30035200476E+03  0.12000000000E+03 0.  0.
         25    1    1    2    0    0  0.98284860561E+02 -0.16372918512E+02  0.82090051930E+03  0.83558700856E+03  0.12000000000E+03 0.  0.
<mgrwt>
<rscale>  0 0.35942043E+03</rscale>
<asrwt>0</asrwt>
<pdfrwt beam="1">  1        1 0.44893079E-02 0.35942043E+03</pdfrwt>
<pdfrwt beam="2">  1       -1 0.17027051E+00 0.35942043E+03</pdfrwt>
<totfact> 0.51856084E+02</totfact>
</mgrwt>
</event>
<event>
 4    1  0.1710914E-004  0.3049466E+03  0.7818608E-02  0.1082794E+00
         -1   -1    0    0    0  501 -0.00000000000E+00  0.00000000000E+00  0.42227158674E+03  0.42227158674E+03  0.00000000000E+00 0. -1.
          1   -1    0    0  501    0  0.00000000000E+00 -0.00000000000E+00 -0.55054869375E+02  0.55054869375E+02  0.00000000000E+00 0. -1.
         25    1    1    2    0    0  0.51167653632E+02  0.67316367167E+02  0.11909902328E+03  0.18903491586E+03  0.12000000000E+03 0.  0.
         25    1    1    2    0    0 -0.51167653632E+02 -0.67316367167E+02  0.24811769408E+03  0.28829154025E+03  0.12000000000E+03 0.  0.
<mgrwt>
<rscale>  0 0.30494660E+03</rscale>
<asrwt>0</asrwt>
<pdfrwt beam="1">  1        1 0.84699802E-02 0.30494660E+03</pdfrwt>
<pdfrwt beam="2">  1       -1 0.64964857E-01 0.30494660E+03</pdfrwt>
<totfact> 0.20022312E+03</totfact>
</mgrwt>
</event>
<event>
 4    1  0.1710914E-004  0.2904983E+03  0.7818608E-02  0.1090089E+00
         -2   -1    0    0    0  501 -0.00000000000E+00  0.00000000000E+00  0.88411499479E+02  0.88411499479E+02  0.00000000000E+00 0. -1.
          2   -1    0    0  501    0  0.00000000000E+00 -0.00000000000E+00 -0.23862636201E+03  0.23862636201E+03  0.00000000000E+00 0. -1.
         25    1    1    2    0    0 -0.74536790499E+02  0.17943919608E+02 -0.10733701191E+03  0.17832260517E+03  0.12000000000E+03 0.  0.
         25    1    1    2    0    0  0.74536790499E+02 -0.17943919608E+02 -0.42877850622E+02  0.14871525632E+03  0.12000000000E+03 0.  0.
<mgrwt>
<rscale>  0 0.29049829E+03</rscale>
<asrwt>0</asrwt>
<pdfrwt beam="1">  1        2 0.36711748E-01 0.29049829E+03</pdfrwt>
<pdfrwt beam="2">  1       -2 0.13601769E-01 0.29049829E+03</pdfrwt>
<totfact> 0.56261836E+03</totfact>
</mgrwt>
</event>
<event>
 4    1  0.1710914E-004  0.3343790E+03  0.7818608E-02  0.1069216E+00
          1   -1    0    0  501    0  0.00000000000E+00  0.00000000000E+00  0.10220176425E+02  0.10220176425E+02  0.00000000000E+00 0.  1.
         -1   -1    0    0    0  501 -0.00000000000E+00 -0.00000000000E+00 -0.27350136806E+04  0.27350136806E+04  0.00000000000E+00 0.  1.
         25    1    1    2    0    0 -0.16548905818E+02  0.10563197978E+03 -0.17404415346E+04  0.17478468802E+04  0.12000000000E+03 0.  0.
         25    1    1    2    0    0  0.16548905818E+02 -0.10563197978E+03 -0.98435196956E+03  0.99738697676E+03  0.12000000000E+03 0.  0.
<mgrwt>
<rscale>  0 0.33437896E+03</rscale>
<asrwt>0</asrwt>
<pdfrwt beam="1">  1        1 0.15723313E-02 0.33437896E+03</pdfrwt>
<pdfrwt beam="2">  1       -1 0.42077227E+00 0.33437896E+03</pdfrwt>
<totfact> 0.53665487E+01</totfact>
</mgrwt>
</event>
<event>
 4    1  0.1710914E-004  0.3646410E+03  0.7818608E-02  0.1056761E+00
         -1   -1    0    0    0  501 -0.00000000000E+00  0.00000000000E+00  0.92515641440E+02  0.92515641440E+02  0.00000000000E+00 0.  1.
          1   -1    0    0  501    0  0.00000000000E+00 -0.00000000000E+00 -0.35929895001E+03  0.35929895001E+03  0.00000000000E+00 0.  1.
         25    1    1    2    0    0  0.78657733202E+02 -0.77826499859E+02 -0.23402927575E+03  0.28533086931E+03  0.12000000000E+03 0.  0.
         25    1    1    2    0    0 -0.78657733202E+02  0.77826499859E+02 -0.32754032825E+02  0.16648372214E+03  0.12000000000E+03 0.  0.
<mgrwt>
<rscale>  0 0.36464104E+03</rscale>
<asrwt>0</asrwt>
<pdfrwt beam="1">  1        1 0.55276762E-01 0.36464104E+03</pdfrwt>
<pdfrwt beam="2">  1       -1 0.14233176E-01 0.36464104E+03</pdfrwt>
<totfact> 0.24411959E+03</totfact>
</mgrwt>
</event>
<event>
 4    1  0.1710914E-004  0.3983081E+03  0.7818608E-02  0.1044367E+00
          2   -1    0    0  501    0  0.00000000000E+00  0.00000000000E+00  0.15457374953E+04  0.15457374953E+04  0.00000000000E+00 0.  1.
         -2   -1    0    0    0  501 -0.00000000000E+00 -0.00000000000E+00 -0.25659165343E+02  0.25659165343E+02  0.00000000000E+00 0.  1.
         25    1    1    2    0    0 -0.12739574377E+03  0.92859929293E+02  0.68018539513E+03  0.70845240754E+03  0.12000000000E+03 0.  0.
         25    1    1    2    0    0  0.12739574377E+03 -0.92859929293E+02  0.83989293485E+03  0.86294425313E+03  0.12000000000E+03 0.  0.
<mgrwt>
<rscale>  0 0.39830809E+03</rscale>
<asrwt>0</asrwt>
<pdfrwt beam="1">  1        2 0.23780570E+00 0.39830809E+03</pdfrwt>
<pdfrwt beam="2">  1       -2 0.39475651E-02 0.39830809E+03</pdfrwt>
<totfact> 0.36182680E+03</totfact>
</mgrwt>
</event>
<event>
 4    1  0.1710914E-004  0.2696277E+03  0.7818608E-02  0.1101493E+00
         -2   -1    0    0    0  501 -0.00000000000E+00  0.00000000000E+00  0.90321767683E+01  0.90321767683E+01  0.00000000000E+00 0. -1.
          2   -1    0    0  501    0  0.00000000000E+00 -0.00000000000E+00 -0.20122247062E+04  0.20122247062E+04  0.00000000000E+00 0. -1.
         25    1    1    2    0    0  0.21814887988E+02 -0.57054362301E+02 -0.10511408993E+04  0.10597302863E+04  0.12000000000E+03 0.  0.
         25    1    1    2    0    0 -0.21814887988E+02  0.57054362301E+02 -0.95205163011E+03  0.96152659661E+03  0.12000000000E+03 0.  0.
<mgrwt>
<rscale>  0 0.26962766E+03</rscale>
<asrwt>0</asrwt>
<pdfrwt beam="1">  1        2 0.30957335E+00 0.26962766E+03</pdfrwt>
<pdfrwt beam="2">  1       -2 0.13895642E-02 0.26962766E+03</pdfrwt>
<totfact> 0.96563355E+03</totfact>
</mgrwt>
</event>
<event>
 4    1  0.1710914E-004  0.2781803E+03  0.7818608E-02  0.1096687E+00
         -2   -1    0    0    0  501 -0.00000000000E+00  0.00000000000E+00  0.38234936022E+02  0.38234936022E+02  0.00000000000E+00 0. -1.
          2   -1    0    0  501    0  0.00000000000E+00 -0.00000000000E+00 -0.50597899320E+03  0.50597899320E+03  0.00000000000E+00 0. -1.
         25    1    1    2    0    0  0.68471047952E+02 -0.71944669224E+01 -0.20579131658E+03  0.24797199588E+03  0.12000000000E+03 0.  0.
         25    1    1    2    0    0 -0.68471047952E+02  0.71944669224E+01 -0.26195274059E+03  0.29624193334E+03  0.12000000000E+03 0.  0.
<mgrwt>
<rscale>  0 0.27818033E+03</rscale>
<asrwt>0</asrwt>
<pdfrwt beam="1">  1        2 0.77842922E-01 0.27818033E+03</pdfrwt>
<pdfrwt beam="2">  1       -2 0.58822979E-02 0.27818033E+03</pdfrwt>
<totfact> 0.93247733E+03</totfact>
</mgrwt>
</event>
<event>
 4    1  0.1710914E-004  0.3841522E+03  0.7818608E-02  0.1049410E+00
          2   -1    0    0  501    0  0.00000000000E+00  0.00000000000E+00  0.35894761010E+03  0.35894761010E+03  0.00000000000E+00 0. -1.
         -2   -1    0    0    0  501 -0.00000000000E+00 -0.00000000000E+00 -0.10278162970E+03  0.10278162970E+03  0.00000000000E+00 0. -1.
         25    1    1    2    0    0 -0.78826668476E+02  0.15166165289E+02 -0.24187491060E+02  0.14638541921E+03  0.12000000000E+03 0.  0.
         25    1    1    2    0    0  0.78826668476E+02 -0.15166165289E+02  0.28035347146E+03  0.31534382060E+03  0.12000000000E+03 0.  0.
<mgrwt>
<rscale>  0 0.38415216E+03</rscale>
<asrwt>0</asrwt>
<pdfrwt beam="1">  1        2 0.55222708E-01 0.38415216E+03</pdfrwt>
<pdfrwt beam="2">  1       -2 0.15812559E-01 0.38415216E+03</pdfrwt>
<totfact> 0.28335846E+03</totfact>
</mgrwt>
</event>
<event>
 4    1  0.1710914E-004  0.3475539E+03  0.7818608E-02  0.1063624E+00
          2   -1    0    0  501    0  0.00000000000E+00  0.00000000000E+00  0.19815875540E+04  0.19815875540E+04  0.00000000000E+00 0.  1.
         -2   -1    0    0    0  501 -0.00000000000E+00 -0.00000000000E+00 -0.15239509789E+02  0.15239509789E+02  0.00000000000E+00 0.  1.
         25    1    1    2    0    0 -0.72419834117E+02  0.12233832617E+02  0.39714235478E+03  0.42132689090E+03  0.12000000000E+03 0.  0.
         25    1    1    2    0    0  0.72419834117E+02 -0.12233832617E+02  0.15692056895E+04  0.15755001729E+04  0.12000000000E+03 0.  0.
<mgrwt>
<rscale>  0 0.34755387E+03</rscale>
<asrwt>0</asrwt>
<pdfrwt beam="1">  1        2 0.30485942E+00 0.34755387E+03</pdfrwt>
<pdfrwt beam="2">  1       -2 0.23445415E-02 0.34755387E+03</pdfrwt>
<totfact> 0.46398733E+03</totfact>
</mgrwt>
</event>
<event>
 4    1  0.1710914E-004  0.2624785E+03  0.7818608E-02  0.1105663E+00
         -2   -1    0    0    0  501 -0.00000000000E+00  0.00000000000E+00  0.44747653107E+02  0.44747653107E+02  0.00000000000E+00 0. -1.
          2   -1    0    0  501    0  0.00000000000E+00 -0.00000000000E+00 -0.38490837981E+03  0.38490837981E+03  0.00000000000E+00 0. -1.
         25    1    1    2    0    0 -0.12350684882E+02 -0.16756422221E+02 -0.90048103713E+02  0.15146609550E+03  0.12000000000E+03 0.  0.
         25    1    1    2    0    0  0.12350684882E+02  0.16756422221E+02 -0.25011262299E+03  0.27818993742E+03  0.12000000000E+03 0.  0.
<mgrwt>
<rscale>  0 0.26247855E+03</rscale>
<asrwt>0</asrwt>
<pdfrwt beam="1">  1        2 0.59216671E-01 0.26247855E+03</pdfrwt>
<pdfrwt beam="2">  1       -2 0.68842547E-02 0.26247855E+03</pdfrwt>
<totfact> 0.98638245E+03</totfact>
</mgrwt>
</event>
<event>
 4    1  0.1710914E-004  0.2671397E+03  0.7818608E-02  0.1102928E+00
         -1   -1    0    0    0  501 -0.00000000000E+00  0.00000000000E+00  0.28800088807E+03  0.28800088807E+03  0.00000000000E+00 0.  1.
          1   -1    0    0  501    0  0.00000000000E+00 -0.00000000000E+00 -0.61947392612E+02  0.61947392612E+02  0.00000000000E+00 0.  1.
         25    1    1    2    0    0  0.33557187895E+02  0.91400432565E+01  0.17490561603E+03  0.21494557397E+03  0.12000000000E+03 0.  0.
         25    1    1    2    0    0 -0.33557187895E+02 -0.91400432565E+01  0.51147879432E+02  0.13500270672E+03  0.12000000000E+03 0.  0.
<mgrwt>
<rscale>  0 0.26713969E+03</rscale>
<asrwt>0</asrwt>
<pdfrwt beam="1">  1        1 0.95303682E-02 0.26713969E+03</pdfrwt>
<pdfrwt beam="2">  1       -1 0.44307828E-01 0.26713969E+03</pdfrwt>
<totfact> 0.34952907E+03</totfact>
</mgrwt>
</event>
<event>
 4    1  0.1710914E-004  0.3667132E+03  0.7818608E-02  0.1055957E+00
          2   -1    0    0  501    0  0.00000000000E+00  0.00000000000E+00  0.84368783795E+02  0.84368783795E+02  0.00000000000E+00 0. -1.
         -2   -1    0    0    0  501 -0.00000000000E+00 -0.00000000000E+00 -0.39848428843E+03  0.39848428843E+03  0.00000000000E+00 0. -1.
         25    1    1    2    0    0  0.12460826438E+03  0.59749549123E+02 -0.17162545036E+03  0.25090341446E+03  0.12000000000E+03 0.  0.
         25    1    1    2    0    0 -0.12460826438E+03 -0.59749549123E+02 -0.14249005427E+03  0.23194965777E+03  0.12000000000E+03 0.  0.
<mgrwt>
<rscale>  0 0.36671316E+03</rscale>
<asrwt>0</asrwt>
<pdfrwt beam="1">  1        2 0.12979813E-01 0.36671316E+03</pdfrwt>
<pdfrwt beam="2">  1       -2 0.61305275E-01 0.36671316E+03</pdfrwt>
<totfact> 0.11806124E+03</totfact>
</mgrwt>
</event>
<event>
 4    1  0.1710914E-004  0.2788730E+03  0.7818608E-02  0.1096306E+00
         -1   -1    0    0    0  501 -0.00000000000E+00  0.00000000000E+00  0.47480894258E+02  0.47480894258E+02  0.00000000000E+00 0. -1.
          1   -1    0    0  501    0  0.00000000000E+00 -0.00000000000E+00 -0.40948131501E+03  0.40948131501E+03  0.00000000000E+00 0. -1.
         25    1    1    2    0    0  0.15718075176E+01 -0.57937688809E+02 -0.11377168050E+03  0.17522340496E+03  0.12000000000E+03 0.  0.
         25    1    1    2    0    0 -0.15718075176E+01  0.57937688809E+02 -0.24822874025E+03  0.28173880430E+03  0.12000000000E+03 0.  0.
<mgrwt>
<rscale>  0 0.27887301E+03</rscale>
<asrwt>0</asrwt>
<pdfrwt beam="1">  1        1 0.62997126E-01 0.27887301E+03</pdfrwt>
<pdfrwt beam="2">  1       -1 0.73047529E-02 0.27887301E+03</pdfrwt>
<totfact> 0.57892588E+03</totfact>
</mgrwt>
</event>
<event>
 4    1  0.1710914E-004  0.2662063E+03  0.7818608E-02  0.1103471E+00
          1   -1    0    0  501    0  0.00000000000E+00  0.00000000000E+00  0.99925093729E+03  0.99925093729E+03  0.00000000000E+00 0.  1.
         -1   -1    0    0    0  501 -0.00000000000E+00 -0.00000000000E+00 -0.17729728928E+02  0.17729728928E+02  0.00000000000E+00 0.  1.
         25    1    1    2    0    0 -0.50504117223E+02  0.83890012927E+01  0.59150338058E+03  0.60572047220E+03  0.12000000000E+03 0.  0.
         25    1    1    2    0    0  0.50504117223E+02 -0.83890012927E+01  0.39001782777E+03  0.41126019401E+03  0.12000000000E+03 0.  0.
<mgrwt>
<rscale>  0 0.26620630E+03</rscale>
<asrwt>0</asrwt>
<pdfrwt beam="1">  1        1 0.15373087E+00 0.26620630E+03</pdfrwt>
<pdfrwt beam="2">  1       -1 0.27276514E-02 0.26620630E+03</pdfrwt>
<totfact> 0.69401190E+03</totfact>
</mgrwt>
</event>
<event>
 4    1  0.1710914E-004  0.2562855E+03  0.7818608E-02  0.1109396E+00
         -1   -1    0    0    0  501 -0.00000000000E+00  0.00000000000E+00  0.19285341165E+02  0.19285341165E+02  0.00000000000E+00 0.  1.
          1   -1    0    0  501    0  0.00000000000E+00 -0.00000000000E+00 -0.85145343248E+03  0.85145343248E+03  0.00000000000E+00 0.  1.
         25    1    1    2    0    0 -0.22962543047E+02 -0.36197269557E+02 -0.46205121086E+03  0.47930036737E+03  0.12000000000E+03 0.  0.
         25    1    1    2    0    0  0.22962543047E+02  0.36197269557E+02 -0.37011688046E+03  0.39143840628E+03  0.12000000000E+03 0.  0.
<mgrwt>
<rscale>  0 0.25628554E+03</rscale>
<asrwt>0</asrwt>
<pdfrwt beam="1">  1        1 0.13099285E+00 0.25628554E+03</pdfrwt>
<pdfrwt beam="2">  1       -1 0.29669753E-02 0.25628554E+03</pdfrwt>
<totfact> 0.79745613E+03</totfact>
</mgrwt>
</event>
<event>
 4    1  0.1710914E-004  0.3208038E+03  0.7818608E-02  0.1075280E+00
          2   -1    0    0  501    0  0.00000000000E+00  0.00000000000E+00  0.33462679641E+04  0.33462679641E+04  0.00000000000E+00 0. -1.
         -2   -1    0    0    0  501 -0.00000000000E+00 -0.00000000000E+00 -0.76887959139E+01  0.76887959139E+01  0.00000000000E+00 0. -1.
         25    1    1    2    0    0 -0.12222951978E+02  0.10542351227E+03  0.15848353631E+04  0.15929113741E+04  0.12000000000E+03 0.  0.
         25    1    1    2    0    0  0.12222951978E+02 -0.10542351227E+03  0.17537438051E+04  0.17610453859E+04  0.12000000000E+03 0.  0.
<mgrwt>
<rscale>  0 0.32080381E+03</rscale>
<asrwt>0</asrwt>
<pdfrwt beam="1">  1        2 0.51480929E+00 0.32080381E+03</pdfrwt>
<pdfrwt beam="2">  1       -2 0.11828943E-02 0.32080381E+03</pdfrwt>
<totfact> 0.21180439E+03</totfact>
</mgrwt>
</event>
<event>
 4    1  0.1710914E-004  0.3662213E+03  0.7818608E-02  0.1056147E+00
         -2   -1    0    0    0  501 -0.00000000000E+00  0.00000000000E+00  0.17353147623E+03  0.17353147623E+03  0.00000000000E+00 0. -1.
          2   -1    0    0  501    0  0.00000000000E+00 -0.00000000000E+00 -0.19321862207E+03  0.19321862207E+03  0.00000000000E+00 0. -1.
         25    1    1    2    0    0  0.56890335845E+02 -0.56737876370E+02 -0.12258416664E+03  0.18942696439E+03  0.12000000000E+03 0.  0.
         25    1    1    2    0    0 -0.56890335845E+02  0.56737876370E+02  0.10289702081E+03  0.17732313391E+03  0.12000000000E+03 0.  0.
<mgrwt>
<rscale>  0 0.36622131E+03</rscale>
<asrwt>0</asrwt>
<pdfrwt beam="1">  1        2 0.29725942E-01 0.36622131E+03</pdfrwt>
<pdfrwt beam="2">  1       -2 0.26697150E-01 0.36622131E+03</pdfrwt>
<totfact> 0.22511025E+03</totfact>
</mgrwt>
</event>
<event>
 4    1  0.1710914E-004  0.2952475E+03  0.7818608E-02  0.1087641E+00
         -1   -1    0    0    0  501 -0.00000000000E+00  0.00000000000E+00  0.23252037602E+02  0.23252037602E+02  0.00000000000E+00 0. -1.
          1   -1    0    0  501    0  0.00000000000E+00 -0.00000000000E+00 -0.93724105832E+03  0.93724105832E+03  0.00000000000E+00 0. -1.
         25    1    1    2    0    0 -0.47572826348E+02 -0.61220135784E+02 -0.57791856206E+03  0.59531583483E+03  0.12000000000E+03 0.  0.
         25    1    1    2    0    0  0.47572826348E+02  0.61220135784E+02 -0.33607045866E+03  0.36517726109E+03  0.12000000000E+03 0.  0.
<mgrwt>
<rscale>  0 0.29524745E+03</rscale>
<asrwt>0</asrwt>
<pdfrwt beam="1">  1        1 0.14419093E+00 0.29524745E+03</pdfrwt>
<pdfrwt beam="2">  1       -1 0.35772366E-02 0.29524745E+03</pdfrwt>
<totfact> 0.51920819E+03</totfact>
</mgrwt>
</event>
<event>
 4    1  0.1710914E-004  0.4322760E+03  0.7818608E-02  0.1033143E+00
         -2   -1    0    0    0  501 -0.00000000000E+00  0.00000000000E+00  0.54352384905E+02  0.54352384905E+02  0.00000000000E+00 0.  1.
          2   -1    0    0  501    0  0.00000000000E+00 -0.00000000000E+00 -0.85949561140E+03  0.85949561140E+03  0.00000000000E+00 0.  1.
         25    1    1    2    0    0  0.15832662363E+03  0.56709168580E+01 -0.58215486376E+03  0.61514531978E+03  0.12000000000E+03 0.  0.
         25    1    1    2    0    0 -0.15832662363E+03 -0.56709168580E+01 -0.22298836274E+03  0.29870267653E+03  0.12000000000E+03 0.  0.
<mgrwt>
<rscale>  0 0.43227601E+03</rscale>
<asrwt>0</asrwt>
<pdfrwt beam="1">  1        2 0.13223008E+00 0.43227601E+03</pdfrwt>
<pdfrwt beam="2">  1       -2 0.83619063E-02 0.43227601E+03</pdfrwt>
<totfact> 0.28612301E+03</totfact>
</mgrwt>
</event>
<event>
 4    1  0.1710914E-004  0.3624142E+03  0.7818608E-02  0.1057632E+00
          2   -1    0    0  501    0  0.00000000000E+00  0.00000000000E+00  0.50096914083E+03  0.50096914083E+03  0.00000000000E+00 0. -1.
         -2   -1    0    0    0  501 -0.00000000000E+00 -0.00000000000E+00 -0.65544990568E+02  0.65544990568E+02  0.00000000000E+00 0. -1.
         25    1    1    2    0    0  0.99999810787E+02 -0.29825372763E+02  0.35350538521E+03  0.38762813673E+03  0.12000000000E+03 0.  0.
         25    1    1    2    0    0 -0.99999810787E+02  0.29825372763E+02  0.81918765053E+02  0.17888599466E+03  0.12000000000E+03 0.  0.
<mgrwt>
<rscale>  0 0.36241422E+03</rscale>
<asrwt>0</asrwt>
<pdfrwt beam="1">  1        2 0.77072173E-01 0.36241422E+03</pdfrwt>
<pdfrwt beam="2">  1       -2 0.10083845E-01 0.36241422E+03</pdfrwt>
<totfact> 0.40852844E+03</totfact>
</mgrwt>
</event>
<event>
 4    1  0.1710914E-004  0.2764758E+03  0.7818608E-02  0.1097630E+00
         -1   -1    0    0    0  501 -0.00000000000E+00  0.00000000000E+00  0.51520593968E+02  0.51520593968E+02  0.00000000000E+00 0. -1.
          1   -1    0    0  501    0  0.00000000000E+00 -0.00000000000E+00 -0.37091410418E+03  0.37091410418E+03  0.00000000000E+00 0. -1.
         25    1    1    2    0    0 -0.55391411243E+02  0.33789952338E+02 -0.19385354041E+03  0.23704253721E+03  0.12000000000E+03 0.  0.
         25    1    1    2    0    0  0.55391411243E+02 -0.33789952338E+02 -0.12553996980E+03  0.18539216094E+03  0.12000000000E+03 0.  0.
<mgrwt>
<rscale>  0 0.27647579E+03</rscale>
<asrwt>0</asrwt>
<pdfrwt beam="1">  1        1 0.57063709E-01 0.27647579E+03</pdfrwt>
<pdfrwt beam="2">  1       -1 0.79262451E-02 0.27647579E+03</pdfrwt>
<totfact> 0.58000692E+03</totfact>
</mgrwt>
</event>
<event>
 4    1  0.1710914E-004  0.3177580E+03  0.7818608E-02  0.1076686E+00
          2   -1    0    0  501    0  0.00000000000E+00  0.00000000000E+00  0.14367022576E+04  0.14367022576E+04  0.00000000000E+00 0.  1.
         -2   -1    0    0    0  501 -0.00000000000E+00 -0.00000000000E+00 -0.17569770640E+02  0.17569770640E+02  0.00000000000E+00 0.  1.
         25    1    1    2    0    0  0.48999664945E+02  0.90743418637E+02  0.64368864477E+03  0.66285021430E+03  0.12000000000E+03 0.  0.
         25    1    1    2    0    0 -0.48999664945E+02 -0.90743418637E+02  0.77544384217E+03  0.79142181392E+03  0.12000000000E+03 0.  0.
<mgrwt>
<rscale>  0 0.31775795E+03</rscale>
<asrwt>0</asrwt>
<pdfrwt beam="1">  1        2 0.22103103E+00 0.31775795E+03</pdfrwt>
<pdfrwt beam="2">  1       -2 0.27030428E-02 0.31775795E+03</pdfrwt>
<totfact> 0.73221431E+03</totfact>
</mgrwt>
</event>
<event>
 4    1  0.1710914E-004  0.2404550E+03  0.7818608E-02  0.1119490E+00
         -1   -1    0    0    0  501 -0.00000000000E+00  0.00000000000E+00  0.21369512583E+03  0.21369512583E+03  0.00000000000E+00 0. -1.
          1   -1    0    0  501    0  0.00000000000E+00 -0.00000000000E+00 -0.67641487713E+02  0.67641487713E+02  0.00000000000E+00 0. -1.
         25    1    1    2    0    0  0.15139223067E+01 -0.72358726417E+01  0.73120528078E+02  0.14071695506E+03  0.12000000000E+03 0.  0.
         25    1    1    2    0    0 -0.15139223067E+01  0.72358726417E+01  0.72933110042E+02  0.14061965849E+03  0.12000000000E+03 0.  0.
<mgrwt>
<rscale>  0 0.24045504E+03</rscale>
<asrwt>0</asrwt>
<pdfrwt beam="1">  1        1 0.10406383E-01 0.24045504E+03</pdfrwt>
<pdfrwt beam="2">  1       -1 0.32876173E-01 0.24045504E+03</pdfrwt>
<totfact> 0.52325794E+03</totfact>
</mgrwt>
</event>
<event>
 4    1  0.1710914E-004  0.2695398E+03  0.7818608E-02  0.1101543E+00
         -2   -1    0    0    0  501 -0.00000000000E+00  0.00000000000E+00  0.22649818817E+02  0.22649818817E+02  0.00000000000E+00 0.  1.
          2   -1    0    0  501    0  0.00000000000E+00 -0.00000000000E+00 -0.80190146992E+03  0.80190146992E+03  0.00000000000E+00 0.  1.
         25    1    1    2    0    0  0.51896062517E+02  0.27089676155E+02 -0.44568944792E+03  0.46525921360E+03  0.12000000000E+03 0.  0.
         25    1    1    2    0    0 -0.51896062517E+02 -0.27089676155E+02 -0.33356220318E+03  0.35929207513E+03  0.12000000000E+03 0.  0.
<mgrwt>
<rscale>  0 0.26953978E+03</rscale>
<asrwt>0</asrwt>
<pdfrwt beam="1">  1        2 0.12336943E+00 0.26953978E+03</pdfrwt>
<pdfrwt beam="2">  1       -2 0.34845882E-02 0.26953978E+03</pdfrwt>
<totfact> 0.11914409E+04</totfact>
</mgrwt>
</event>
<event>
 4    1  0.1710914E-004  0.2680547E+03  0.7818608E-02  0.1102398E+00
         -3   -1    0    0    0  501 -0.00000000000E+00  0.00000000000E+00  0.17350460566E+04  0.17350460566E+04  0.00000000000E+00 0. -1.
          3   -1    0    0  501    0  0.00000000000E+00 -0.00000000000E+00 -0.10353226874E+02  0.10353226874E+02  0.00000000000E+00 0. -1.
         25    1    1    2    0    0 -0.19580807458E+02  0.54025682363E+02  0.96756941828E+03  0.97667433752E+03  0.12000000000E+03 0.  0.
         25    1    1    2    0    0  0.19580807458E+02 -0.54025682363E+02  0.75712341148E+03  0.76872494598E+03  0.12000000000E+03 0.  0.
<mgrwt>
<rscale>  0 0.26805466E+03</rscale>
<asrwt>0</asrwt>
<pdfrwt beam="1">  1        3 0.15928055E-02 0.26805466E+03</pdfrwt>
<pdfrwt beam="2">  1       -3 0.26692993E+00 0.26805466E+03</pdfrwt>
<totfact> 0.22559535E+02</totfact>
</mgrwt>
</event>
<event>
 4    1  0.1710914E-004  0.3082351E+03  0.7818608E-02  0.1081195E+00
         -1   -1    0    0    0  501 -0.00000000000E+00  0.00000000000E+00  0.62688153504E+02  0.62688153504E+02  0.00000000000E+00 0. -1.
          1   -1    0    0  501    0  0.00000000000E+00 -0.00000000000E+00 -0.37889495102E+03  0.37889495102E+03  0.00000000000E+00 0. -1.
         25    1    1    2    0    0 -0.13835804880E+02 -0.47824749826E+02 -0.39329209616E+02  0.13574027745E+03  0.12000000000E+03 0.  0.
         25    1    1    2    0    0  0.13835804880E+02  0.47824749826E+02 -0.27687758790E+03  0.30584282708E+03  0.12000000000E+03 0.  0.
<mgrwt>
<rscale>  0 0.30823514E+03</rscale>
<asrwt>0</asrwt>
<pdfrwt beam="1">  1        1 0.58291531E-01 0.30823514E+03</pdfrwt>
<pdfrwt beam="2">  1       -1 0.96443313E-02 0.30823514E+03</pdfrwt>
<totfact> 0.41872965E+03</totfact>
</mgrwt>
</event>
<event>
 4    1  0.1710914E-004  0.2423338E+03  0.7818608E-02  0.1118248E+00
          2   -1    0    0  501    0  0.00000000000E+00  0.00000000000E+00  0.46703016017E+03  0.46703016017E+03  0.00000000000E+00 0. -1.
         -2   -1    0    0    0  501 -0.00000000000E+00 -0.00000000000E+00 -0.31435686014E+02  0.31435686014E+02  0.00000000000E+00 0. -1.
         25    1    1    2    0    0  0.13092358573E+02 -0.18857093768E+01  0.23901940080E+03  0.26777834063E+03  0.12000000000E+03 0.  0.
         25    1    1    2    0    0 -0.13092358573E+02  0.18857093768E+01  0.19657507336E+03  0.23068750555E+03  0.12000000000E+03 0.  0.
<mgrwt>
<rscale>  0 0.24233377E+03</rscale>
<asrwt>0</asrwt>
<pdfrwt beam="1">  1        2 0.71850789E-01 0.24233377E+03</pdfrwt>
<pdfrwt beam="2">  1       -2 0.48362597E-02 0.24233377E+03</pdfrwt>
<totfact> 0.13652680E+04</totfact>
</mgrwt>
</event>
<event>
 4    1  0.1710914E-004  0.2550337E+03  0.7818608E-02  0.1110164E+00
          2   -1    0    0  501    0  0.00000000000E+00  0.00000000000E+00  0.13839260167E+04  0.13839260167E+04  0.00000000000E+00 0.  1.
         -2   -1    0    0    0  501 -0.00000000000E+00 -0.00000000000E+00 -0.11749582332E+02  0.11749582332E+02  0.00000000000E+00 0.  1.
         25    1    1    2    0    0 -0.38999671790E+02  0.18424075849E+02  0.68410218914E+03  0.69588521047E+03  0.12000000000E+03 0.  0.
         25    1    1    2    0    0  0.38999671790E+02 -0.18424075849E+02  0.68807424521E+03  0.69979038854E+03  0.12000000000E+03 0.  0.
<mgrwt>
<rscale>  0 0.25503374E+03</rscale>
<asrwt>0</asrwt>
<pdfrwt beam="1">  1        2 0.21291157E+00 0.25503374E+03</pdfrwt>
<pdfrwt beam="2">  1       -2 0.18076291E-02 0.25503374E+03</pdfrwt>
<totfact> 0.14105639E+04</totfact>
</mgrwt>
</event>
<event>
 4    1  0.1710914E-004  0.3892366E+03  0.7818608E-02  0.1047572E+00
         -1   -1    0    0    0  501 -0.00000000000E+00  0.00000000000E+00  0.12159844537E+02  0.12159844537E+02  0.00000000000E+00 0.  1.
          1   -1    0    0  501    0  0.00000000000E+00 -0.00000000000E+00 -0.31148653104E+04  0.31148653104E+04  0.00000000000E+00 0.  1.
         25    1    1    2    0    0  0.64554009125E+02  0.45145249984E+02 -0.49556642785E+03  0.51593739747E+03  0.12000000000E+03 0.  0.
         25    1    1    2    0    0 -0.64554009125E+02 -0.45145249984E+02 -0.26071390380E+04  0.26110877574E+04  0.12000000000E+03 0.  0.
<mgrwt>
<rscale>  0 0.38923658E+03</rscale>
<asrwt>0</asrwt>
<pdfrwt beam="1">  1        1 0.47921046E+00 0.38923658E+03</pdfrwt>
<pdfrwt beam="2">  1       -1 0.18707437E-02 0.38923658E+03</pdfrwt>
<totfact> 0.44538003E+02</totfact>
</mgrwt>
</event>
<event>
 4    1  0.1710914E-004  0.2524793E+03  0.7818608E-02  0.1111748E+00
          1   -1    0    0  501    0  0.00000000000E+00  0.00000000000E+00  0.66144338885E+03  0.66144338885E+03  0.00000000000E+00 0. -1.
         -1   -1    0    0    0  501 -0.00000000000E+00 -0.00000000000E+00 -0.24093443663E+02  0.24093443663E+02  0.00000000000E+00 0. -1.
         25    1    1    2    0    0 -0.19941793305E+02  0.13655810127E+02  0.23488534523E+03  0.26486842333E+03  0.12000000000E+03 0.  0.
         25    1    1    2    0    0  0.19941793305E+02 -0.13655810127E+02  0.40246459996E+03  0.42066840919E+03  0.12000000000E+03 0.  0.
<mgrwt>
<rscale>  0 0.25247930E+03</rscale>
<asrwt>0</asrwt>
<pdfrwt beam="1">  1        1 0.10176051E+00 0.25247930E+03</pdfrwt>
<pdfrwt beam="2">  1       -1 0.37066841E-02 0.25247930E+03</pdfrwt>
<totfact> 0.83756418E+03</totfact>
</mgrwt>
</event>
<event>
 4    1  0.1710914E-004  0.2517974E+03  0.7818608E-02  0.1112174E+00
         -2   -1    0    0    0  501 -0.00000000000E+00  0.00000000000E+00  0.48785926235E+03  0.48785926235E+03  0.00000000000E+00 0.  1.
          2   -1    0    0  501    0  0.00000000000E+00 -0.00000000000E+00 -0.32489855811E+02  0.32489855811E+02  0.00000000000E+00 0.  1.
         25    1    1    2    0    0  0.11077381565E+02 -0.36431415976E+02  0.22917581882E+03  0.26147946838E+03  0.12000000000E+03 0.  0.
         25    1    1    2    0    0 -0.11077381565E+02  0.36431415976E+02  0.22619358772E+03  0.25886964978E+03  0.12000000000E+03 0.  0.
<mgrwt>
<rscale>  0 0.25179736E+03</rscale>
<asrwt>0</asrwt>
<pdfrwt beam="1">  1        2 0.49984397E-02 0.25179736E+03</pdfrwt>
<pdfrwt beam="2">  1       -2 0.75055266E-01 0.25179736E+03</pdfrwt>
<totfact> 0.25613881E+03</totfact>
</mgrwt>
</event>
<event>
 4    1  0.1710914E-004  0.3094762E+03  0.7818608E-02  0.1080597E+00
          3   -1    0    0  501    0  0.00000000000E+00  0.00000000000E+00  0.45833821125E+03  0.45833821125E+03  0.00000000000E+00 0.  1.
         -3   -1    0    0    0  501 -0.00000000000E+00 -0.00000000000E+00 -0.52240625126E+02  0.52240625126E+02  0.00000000000E+00 0.  1.
         25    1    1    2    0    0 -0.22844326686E+02  0.83683027802E+02  0.12891414852E+03  0.19632516419E+03  0.12000000000E+03 0.  0.
         25    1    1    2    0    0  0.22844326686E+02 -0.83683027802E+02  0.27718343761E+03  0.31425367219E+03  0.12000000000E+03 0.  0.
<mgrwt>
<rscale>  0 0.30947617E+03</rscale>
<asrwt>0</asrwt>
<pdfrwt beam="1">  1        3 0.70513568E-01 0.30947617E+03</pdfrwt>
<pdfrwt beam="2">  1       -3 0.80370196E-02 0.30947617E+03</pdfrwt>
<totfact> 0.53271289E+02</totfact>
</mgrwt>
</event>
<event>
 4    1  0.1710914E-004  0.2504331E+03  0.7818608E-02  0.1113031E+00
         -1   -1    0    0    0  501 -0.00000000000E+00  0.00000000000E+00  0.77426563251E+02  0.77426563251E+02  0.00000000000E+00 0. -1.
          1   -1    0    0  501    0  0.00000000000E+00 -0.00000000000E+00 -0.20250396790E+03  0.20250396790E+03  0.00000000000E+00 0. -1.
         25    1    1    2    0    0  0.12847846203E+02 -0.30817836185E+02 -0.76869921340E+02  0.14636868171E+03  0.12000000000E+03 0.  0.
         25    1    1    2    0    0 -0.12847846203E+02  0.30817836185E+02 -0.48207483312E+02  0.13356184944E+03  0.12000000000E+03 0.  0.
<mgrwt>
<rscale>  0 0.25043312E+03</rscale>
<asrwt>0</asrwt>
<pdfrwt beam="1">  1        1 0.31154456E-01 0.25043312E+03</pdfrwt>
<pdfrwt beam="2">  1       -1 0.11911779E-01 0.25043312E+03</pdfrwt>
<totfact> 0.66030636E+03</totfact>
</mgrwt>
</event>
<event>
 4    1  0.1710914E-004  0.3196266E+03  0.7818608E-02  0.1075821E+00
          2   -1    0    0  501    0  0.00000000000E+00  0.00000000000E+00  0.13570120167E+04  0.13570120167E+04  0.00000000000E+00 0.  1.
         -2   -1    0    0    0  501 -0.00000000000E+00 -0.00000000000E+00 -0.18820980510E+02  0.18820980510E+02  0.00000000000E+00 0.  1.
         25    1    1    2    0    0  0.36015916555E+02  0.59592225416E+02  0.10105354048E+04  0.10200147960E+04  0.12000000000E+03 0.  0.
         25    1    1    2    0    0 -0.36015916555E+02 -0.59592225416E+02  0.32765563138E+03  0.35581820126E+03  0.12000000000E+03 0.  0.
<mgrwt>
<rscale>  0 0.31962664E+03</rscale>
<asrwt>0</asrwt>
<pdfrwt beam="1">  1        2 0.20877100E+00 0.31962664E+03</pdfrwt>
<pdfrwt beam="2">  1       -2 0.28955365E-02 0.31962664E+03</pdfrwt>
<totfact> 0.73062694E+03</totfact>
</mgrwt>
</event>
<event>
 4    1  0.1710914E-004  0.2734081E+03  0.7818608E-02  0.1099345E+00
         -1   -1    0    0    0  501 -0.00000000000E+00  0.00000000000E+00  0.12866885274E+02  0.12866885274E+02  0.00000000000E+00 0. -1.
          1   -1    0    0  501    0  0.00000000000E+00 -0.00000000000E+00 -0.14524105673E+04  0.14524105673E+04  0.00000000000E+00 0. -1.
         25    1    1    2    0    0 -0.15271637127E+02 -0.60091055045E+02 -0.83267934924E+03  0.84356330909E+03  0.12000000000E+03 0.  0.
         25    1    1    2    0    0  0.15271637127E+02  0.60091055045E+02 -0.60686433277E+03  0.62171414347E+03  0.12000000000E+03 0.  0.
<mgrwt>
<rscale>  0 0.27340812E+03</rscale>
<asrwt>0</asrwt>
<pdfrwt beam="1">  1        1 0.22344779E+00 0.27340812E+03</pdfrwt>
<pdfrwt beam="2">  1       -1 0.19795207E-02 0.27340812E+03</pdfrwt>
<totfact> 0.53579891E+03</totfact>
</mgrwt>
</event>
<event>
 4    1  0.1710914E-004  0.3305439E+03  0.7818608E-02  0.1070896E+00
          2   -1    0    0  501    0  0.00000000000E+00  0.00000000000E+00  0.10006101340E+04  0.10006101340E+04  0.00000000000E+00 0.  1.
         -2   -1    0    0    0  501 -0.00000000000E+00 -0.00000000000E+00 -0.27298162799E+02  0.27298162799E+02  0.00000000000E+00 0.  1.
         25    1    1    2    0    0 -0.24269213056E+02  0.10176861425E+03  0.62464517852E+03  0.64461418274E+03  0.12000000000E+03 0.  0.
         25    1    1    2    0    0  0.24269213056E+02 -0.10176861425E+03  0.34866679268E+03  0.38329411405E+03  0.12000000000E+03 0.  0.
<mgrwt>
<rscale>  0 0.33054391E+03</rscale>
<asrwt>0</asrwt>
<pdfrwt beam="1">  1        2 0.15393999E+00 0.33054391E+03</pdfrwt>
<pdfrwt beam="2">  1       -2 0.41997181E-02 0.33054391E+03</pdfrwt>
<totfact> 0.67195289E+03</totfact>
</mgrwt>
</event>
<event>
 4    1  0.1710914E-004  0.4179600E+03  0.7818608E-02  0.1037732E+00
         -2   -1    0    0    0  501 -0.00000000000E+00  0.00000000000E+00  0.84721457474E+02  0.84721457474E+02  0.00000000000E+00 0. -1.
          2   -1    0    0  501    0  0.00000000000E+00 -0.00000000000E+00 -0.51548510499E+03  0.51548510499E+03  0.00000000000E+00 0. -1.
         25    1    1    2    0    0 -0.10473714805E+03  0.12517369483E+03 -0.14167619096E+03  0.24720531375E+03  0.12000000000E+03 0.  0.
         25    1    1    2    0    0  0.10473714805E+03 -0.12517369483E+03 -0.28908745655E+03  0.35300124871E+03  0.12000000000E+03 0.  0.
<mgrwt>
<rscale>  0 0.41796004E+03</rscale>
<asrwt>0</asrwt>
<pdfrwt beam="1">  1        2 0.79305401E-01 0.41796004E+03</pdfrwt>
<pdfrwt beam="2">  1       -2 0.13034070E-01 0.41796004E+03</pdfrwt>
<totfact> 0.26129599E+03</totfact>
</mgrwt>
</event>
<event>
 4    1  0.1710914E-004  0.2569989E+03  0.7818608E-02  0.1108960E+00
          2   -1    0    0  501    0  0.00000000000E+00  0.00000000000E+00  0.14546116475E+04  0.14546116475E+04  0.00000000000E+00 0.  1.
         -2   -1    0    0    0  501 -0.00000000000E+00 -0.00000000000E+00 -0.11351561723E+02  0.11351561723E+02  0.00000000000E+00 0.  1.
         25    1    1    2    0    0 -0.40644674068E+02 -0.20710549824E+02  0.68976961553E+03  0.70161459428E+03  0.12000000000E+03 0.  0.
         25    1    1    2    0    0  0.40644674068E+02  0.20710549824E+02  0.75349047021E+03  0.76434861490E+03  0.12000000000E+03 0.  0.
<mgrwt>
<rscale>  0 0.25699894E+03</rscale>
<asrwt>0</asrwt>
<pdfrwt beam="1">  1        2 0.22378626E+00 0.25699894E+03</pdfrwt>
<pdfrwt beam="2">  1       -2 0.17463953E-02 0.25699894E+03</pdfrwt>
<totfact> 0.13590864E+04</totfact>
</mgrwt>
</event>
<event>
 4    1  0.1710914E-004  0.2770729E+03  0.7818608E-02  0.1097298E+00
          2   -1    0    0  501    0  0.00000000000E+00  0.00000000000E+00  0.41482449762E+03  0.41482449762E+03  0.00000000000E+00 0.  1.
         -2   -1    0    0    0  501 -0.00000000000E+00 -0.00000000000E+00 -0.46266177428E+02  0.46266177428E+02  0.00000000000E+00 0.  1.
         25    1    1    2    0    0  0.29206612496E+02 -0.55472889560E+02  0.23314047426E+03  0.26960109129E+03  0.12000000000E+03 0.  0.
         25    1    1    2    0    0 -0.29206612496E+02  0.55472889560E+02  0.13541784594E+03  0.19148958376E+03  0.12000000000E+03 0.  0.
<mgrwt>
<rscale>  0 0.27707287E+03</rscale>
<asrwt>0</asrwt>
<pdfrwt beam="1">  1        2 0.63819151E-01 0.27707287E+03</pdfrwt>
<pdfrwt beam="2">  1       -2 0.71178737E-02 0.27707287E+03</pdfrwt>
<totfact> 0.86544756E+03</totfact>
</mgrwt>
</event>
<event>
 4    1  0.1710914E-004  0.2521411E+03  0.7818608E-02  0.1111959E+00
          1   -1    0    0  501    0  0.00000000000E+00  0.00000000000E+00  0.15248971620E+03  0.15248971620E+03  0.00000000000E+00 0.  1.
         -1   -1    0    0    0  501 -0.00000000000E+00 -0.00000000000E+00 -0.10422852531E+03  0.10422852531E+03  0.00000000000E+00 0.  1.
         25    1    1    2    0    0  0.11923618206E+02  0.19337972992E+02 -0.77043786074E+01  0.12237437363E+03  0.12000000000E+03 0.  0.
         25    1    1    2    0    0 -0.11923618206E+02 -0.19337972992E+02  0.55965569496E+02  0.13434386789E+03  0.12000000000E+03 0.  0.
<mgrwt>
<rscale>  0 0.25214106E+03</rscale>
<asrwt>0</asrwt>
<pdfrwt beam="1">  1        1 0.23459956E-01 0.25214106E+03</pdfrwt>
<pdfrwt beam="2">  1       -1 0.16035158E-01 0.25214106E+03</pdfrwt>
<totfact> 0.59218617E+03</totfact>
</mgrwt>
</event>
<event>
 4    1  0.1710914E-004  0.2546706E+03  0.7818608E-02  0.1110388E+00
          2   -1    0    0  501    0  0.00000000000E+00  0.00000000000E+00  0.72346500626E+02  0.72346500626E+02  0.00000000000E+00 0. -1.
         -2   -1    0    0    0  501 -0.00000000000E+00 -0.00000000000E+00 -0.22411977117E+03  0.22411977117E+03  0.00000000000E+00 0. -1.
         25    1    1    2    0    0 -0.28797227698E+02 -0.29871617598E+02 -0.64679191419E+02  0.14249558472E+03  0.12000000000E+03 0.  0.
         25    1    1    2    0    0  0.28797227698E+02  0.29871617598E+02 -0.87094079125E+02  0.15397068708E+03  0.12000000000E+03 0.  0.
<mgrwt>
<rscale>  0 0.25467062E+03</rscale>
<asrwt>0</asrwt>
<pdfrwt beam="1">  1        2 0.11130231E-01 0.25467062E+03</pdfrwt>
<pdfrwt beam="2">  1       -2 0.34479964E-01 0.25467062E+03</pdfrwt>
<totfact> 0.43870358E+03</totfact>
</mgrwt>
</event>
<event>
 4    1  0.1710914E-004  0.2460839E+03  0.7818608E-02  0.1115805E+00
          2   -1    0    0  501    0  0.00000000000E+00  0.00000000000E+00  0.98078899893E+02  0.98078899893E+02  0.00000000000E+00 0.  1.
         -2   -1    0    0    0  501 -0.00000000000E+00 -0.00000000000E+00 -0.15435859644E+03  0.15435859644E+03  0.00000000000E+00 0.  1.
         25    1    1    2    0    0 -0.20397191347E+02  0.16990979145E+02 -0.34172373014E+02  0.12756366985E+03  0.12000000000E+03 0.  0.
         25    1    1    2    0    0  0.20397191347E+02 -0.16990979145E+02 -0.22107323530E+02  0.12487382648E+03  0.12000000000E+03 0.  0.
<mgrwt>
<rscale>  0 0.24608390E+03</rscale>
<asrwt>0</asrwt>
<pdfrwt beam="1">  1        2 0.15089062E-01 0.24608390E+03</pdfrwt>
<pdfrwt beam="2">  1       -2 0.23747476E-01 0.24608390E+03</pdfrwt>
<totfact> 0.59433198E+03</totfact>
</mgrwt>
</event>
<event>
 4    1  0.1710914E-004  0.3074185E+03  0.7818608E-02  0.1081590E+00
          1   -1    0    0  501    0  0.00000000000E+00  0.00000000000E+00  0.52141126461E+03  0.52141126461E+03  0.00000000000E+00 0.  1.
         -1   -1    0    0    0  501 -0.00000000000E+00 -0.00000000000E+00 -0.45312659381E+02  0.45312659381E+02  0.00000000000E+00 0.  1.
         25    1    1    2    0    0  0.11223113361E+02 -0.75225921691E+02  0.34619864382E+03  0.37421704738E+03  0.12000000000E+03 0.  0.
         25    1    1    2    0    0 -0.11223113361E+02  0.75225921691E+02  0.12989996141E+03  0.19250687661E+03  0.12000000000E+03 0.  0.
<mgrwt>
<rscale>  0 0.30741848E+03</rscale>
<asrwt>0</asrwt>
<pdfrwt beam="1">  1        1 0.80217113E-01 0.30741848E+03</pdfrwt>
<pdfrwt beam="2">  1       -1 0.69711787E-02 0.30741848E+03</pdfrwt>
<totfact> 0.45364926E+03</totfact>
</mgrwt>
</event>
<event>
 4    1  0.1710914E-004  0.3084184E+03  0.7818608E-02  0.1081106E+00
         -1   -1    0    0    0  501 -0.00000000000E+00  0.00000000000E+00  0.50777878868E+02  0.50777878868E+02  0.00000000000E+00 0. -1.
          1   -1    0    0  501    0  0.00000000000E+00 -0.00000000000E+00 -0.46832344331E+03  0.46832344331E+03  0.00000000000E+00 0. -1.
         25    1    1    2    0    0  0.24062951033E+02  0.83383971094E+02 -0.28113777958E+03  0.31775834113E+03  0.12000000000E+03 0.  0.
         25    1    1    2    0    0 -0.24062951033E+02 -0.83383971094E+02 -0.13640778486E+03  0.20134298105E+03  0.12000000000E+03 0.  0.
<mgrwt>
<rscale>  0 0.30841836E+03</rscale>
<asrwt>0</asrwt>
<pdfrwt beam="1">  1        1 0.72049760E-01 0.30841836E+03</pdfrwt>
<pdfrwt beam="2">  1       -1 0.78119814E-02 0.30841836E+03</pdfrwt>
<totfact> 0.43988747E+03</totfact>
</mgrwt>
</event>
<event>
 4    1  0.1710914E-004  0.2722068E+03  0.7818608E-02  0.1100023E+00
          2   -1    0    0  501    0  0.00000000000E+00  0.00000000000E+00  0.13359319327E+04  0.13359319327E+04  0.00000000000E+00 0. -1.
         -2   -1    0    0    0  501 -0.00000000000E+00 -0.00000000000E+00 -0.13866072604E+02  0.13866072604E+02  0.00000000000E+00 0. -1.
         25    1    1    2    0    0  0.61681790699E+02  0.22247728001E+01  0.74897673295E+03  0.76103596460E+03  0.12000000000E+03 0.  0.
         25    1    1    2    0    0 -0.61681790699E+02 -0.22247728001E+01  0.57308912715E+03  0.58876204071E+03  0.12000000000E+03 0.  0.
<mgrwt>
<rscale>  0 0.27220675E+03</rscale>
<asrwt>0</asrwt>
<pdfrwt beam="1">  1        2 0.20552789E+00 0.27220675E+03</pdfrwt>
<pdfrwt beam="2">  1       -2 0.21332430E-02 0.27220675E+03</pdfrwt>
<totfact> 0.11768406E+04</totfact>
</mgrwt>
</event>
<event>
 4    1  0.1710914E-004  0.2789072E+03  0.7818608E-02  0.1096287E+00
          1   -1    0    0  501    0  0.00000000000E+00  0.00000000000E+00  0.15284145296E+03  0.15284145296E+03  0.00000000000E+00 0. -1.
         -1   -1    0    0    0  501 -0.00000000000E+00 -0.00000000000E+00 -0.12723842630E+03  0.12723842630E+03  0.00000000000E+00 0. -1.
         25    1    1    2    0    0 -0.41805292758E+02 -0.39776528390E+02 -0.28814876105E+02  0.13623564805E+03  0.12000000000E+03 0.  0.
         25    1    1    2    0    0  0.41805292758E+02  0.39776528390E+02  0.54417902756E+02  0.14384423121E+03  0.12000000000E+03 0.  0.
<mgrwt>
<rscale>  0 0.27890720E+03</rscale>
<asrwt>0</asrwt>
<pdfrwt beam="1">  1        1 0.23514070E-01 0.27890720E+03</pdfrwt>
<pdfrwt beam="2">  1       -1 0.19575142E-01 0.27890720E+03</pdfrwt>
<totfact> 0.42999787E+03</totfact>
</mgrwt>
</event>
<event>
 4    1  0.1710914E-004  0.2755678E+03  0.7818608E-02  0.1098135E+00
          2   -1    0    0  501    0  0.00000000000E+00  0.00000000000E+00  0.80699030330E+03  0.80699030330E+03  0.00000000000E+00 0.  1.
         -2   -1    0    0    0  501 -0.00000000000E+00 -0.00000000000E+00 -0.23524939132E+02  0.23524939132E+02  0.00000000000E+00 0.  1.
         25    1    1    2    0    0 -0.24022723716E+02  0.50842283588E+02  0.50539729949E+03  0.52248297522E+03  0.12000000000E+03 0.  0.
         25    1    1    2    0    0  0.24022723716E+02 -0.50842283588E+02  0.27806806468E+03  0.30803226722E+03  0.12000000000E+03 0.  0.
<mgrwt>
<rscale>  0 0.27556776E+03</rscale>
<asrwt>0</asrwt>
<pdfrwt beam="1">  1        2 0.12415233E+00 0.27556776E+03</pdfrwt>
<pdfrwt beam="2">  1       -2 0.36192220E-02 0.27556776E+03</pdfrwt>
<totfact> 0.11175515E+04</totfact>
</mgrwt>
</event>
<event>
 4    1  0.1710914E-004  0.3025545E+03  0.7818608E-02  0.1083971E+00
          2   -1    0    0  501    0  0.00000000000E+00  0.00000000000E+00  0.26047921544E+04  0.26047921544E+04  0.00000000000E+00 0.  1.
         -2   -1    0    0    0  501 -0.00000000000E+00 -0.00000000000E+00 -0.87856555656E+01  0.87856555656E+01  0.00000000000E+00 0.  1.
         25    1    1    2    0    0  0.48309937680E+02 -0.73484177861E+02  0.15347375006E+04  0.15419315712E+04  0.12000000000E+03 0.  0.
         25    1    1    2    0    0 -0.48309937680E+02  0.73484177861E+02  0.10612689982E+04  0.10716462387E+04  0.12000000000E+03 0.  0.
<mgrwt>
<rscale>  0 0.30255450E+03</rscale>
<asrwt>0</asrwt>
<pdfrwt beam="1">  1        2 0.40073664E+00 0.30255450E+03</pdfrwt>
<pdfrwt beam="2">  1       -2 0.13516414E-02 0.30255450E+03</pdfrwt>
<totfact> 0.48188944E+03</totfact>
</mgrwt>
</event>
<event>
 4    1  0.1710914E-004  0.2900213E+03  0.7818608E-02  0.1090338E+00
         -1   -1    0    0    0  501 -0.00000000000E+00  0.00000000000E+00  0.31997811751E+02  0.31997811751E+02  0.00000000000E+00 0.  1.
          1   -1    0    0  501    0  0.00000000000E+00 -0.00000000000E+00 -0.65717273251E+03  0.65717273251E+03  0.00000000000E+00 0.  1.
         25    1    1    2    0    0 -0.21660728805E+02 -0.69936607369E+02 -0.39719665885E+03  0.42133775290E+03  0.12000000000E+03 0.  0.
         25    1    1    2    0    0  0.21660728805E+02  0.69936607369E+02 -0.22797826192E+03  0.26783279136E+03  0.12000000000E+03 0.  0.
<mgrwt>
<rscale>  0 0.29002131E+03</rscale>
<asrwt>0</asrwt>
<pdfrwt beam="1">  1        1 0.10110348E+00 0.29002131E+03</pdfrwt>
<pdfrwt beam="2">  1       -1 0.49227409E-02 0.29002131E+03</pdfrwt>
<totfact> 0.55615855E+03</totfact>
</mgrwt>
</event>
<event>
 4    1  0.1710914E-004  0.2458364E+03  0.7818608E-02  0.1115965E+00
          2   -1    0    0  501    0  0.00000000000E+00  0.00000000000E+00  0.27690644331E+04  0.27690644331E+04  0.00000000000E+00 0.  1.
         -2   -1    0    0    0  501 -0.00000000000E+00 -0.00000000000E+00 -0.54563121923E+01  0.54563121923E+01  0.00000000000E+00 0.  1.
         25    1    1    2    0    0 -0.20143587320E+02 -0.16649274914E+02  0.13243475933E+04  0.13300298908E+04  0.12000000000E+03 0.  0.
         25    1    1    2    0    0  0.20143587320E+02  0.16649274914E+02  0.14392605276E+04  0.14444908545E+04  0.12000000000E+03 0.  0.
<mgrwt>
<rscale>  0 0.24583637E+03</rscale>
<asrwt>0</asrwt>
<pdfrwt beam="1">  1        2 0.42600879E+00 0.24583637E+03</pdfrwt>
<pdfrwt beam="2">  1       -2 0.83943486E-03 0.24583637E+03</pdfrwt>
<totfact> 0.78020918E+03</totfact>
</mgrwt>
</event>
<event>
 4    1  0.1710914E-004  0.2475858E+03  0.7818608E-02  0.1114840E+00
         -1   -1    0    0    0  501 -0.00000000000E+00  0.00000000000E+00  0.13600784463E+03  0.13600784463E+03  0.00000000000E+00 0.  1.
          1   -1    0    0  501    0  0.00000000000E+00 -0.00000000000E+00 -0.11267495165E+03  0.11267495165E+03  0.00000000000E+00 0.  1.
         25    1    1    2    0    0 -0.23610372330E+02 -0.33581485965E+01 -0.72838000960E+01  0.12256337376E+03  0.12000000000E+03 0.  0.
         25    1    1    2    0    0  0.23610372330E+02  0.33581485965E+01  0.30616693072E+02  0.12611942253E+03  0.12000000000E+03 0.  0.
<mgrwt>
<rscale>  0 0.24758576E+03</rscale>
<asrwt>0</asrwt>
<pdfrwt beam="1">  1        1 0.17334608E-01 0.24758576E+03</pdfrwt>
<pdfrwt beam="2">  1       -1 0.20924284E-01 0.24758576E+03</pdfrwt>
<totfact> 0.56887211E+03</totfact>
</mgrwt>
</event>
<event>
 4    1  0.1710914E-004  0.3066702E+03  0.7818608E-02  0.1081953E+00
          1   -1    0    0  501    0  0.00000000000E+00  0.00000000000E+00  0.10654575610E+04  0.10654575610E+04  0.00000000000E+00 0. -1.
         -1   -1    0    0    0  501 -0.00000000000E+00 -0.00000000000E+00 -0.22067190595E+02  0.22067190595E+02  0.00000000000E+00 0. -1.
         25    1    1    2    0    0  0.83816929309E+02 -0.45053194566E+02  0.49501884586E+03  0.51816862674E+03  0.12000000000E+03 0.  0.
         25    1    1    2    0    0 -0.83816929309E+02  0.45053194566E+02  0.54837152452E+03  0.56935612483E+03  0.12000000000E+03 0.  0.
<mgrwt>
<rscale>  0 0.30667021E+03</rscale>
<asrwt>0</asrwt>
<pdfrwt beam="1">  1        1 0.16391651E+00 0.30667021E+03</pdfrwt>
<pdfrwt beam="2">  1       -1 0.33949532E-02 0.30667021E+03</pdfrwt>
<totfact> 0.44975309E+03</totfact>
</mgrwt>
</event>
<event>
 4    1  0.1710914E-004  0.2718111E+03  0.7818608E-02  0.1100248E+00
          1   -1    0    0  501    0  0.00000000000E+00  0.00000000000E+00  0.77751407625E+02  0.77751407625E+02  0.00000000000E+00 0.  1.
         -1   -1    0    0    0  501 -0.00000000000E+00 -0.00000000000E+00 -0.23755611105E+03  0.23755611105E+03  0.00000000000E+00 0.  1.
         25    1    1    2    0    0  0.29595814264E+02 -0.28423227042E+02 -0.13657200343E+03  0.18637517050E+03  0.12000000000E+03 0.  0.
         25    1    1    2    0    0 -0.29595814264E+02  0.28423227042E+02 -0.23232699995E+02  0.12893234818E+03  0.12000000000E+03 0.  0.
<mgrwt>
<rscale>  0 0.27181113E+03</rscale>
<asrwt>0</asrwt>
<pdfrwt beam="1">  1        1 0.11961755E-01 0.27181113E+03</pdfrwt>
<pdfrwt beam="2">  1       -1 0.36547093E-01 0.27181113E+03</pdfrwt>
<totfact> 0.36323899E+03</totfact>
</mgrwt>
</event>
<event>
 4    1  0.1710914E-004  0.2460018E+03  0.7818608E-02  0.1115858E+00
         -2   -1    0    0    0  501 -0.00000000000E+00  0.00000000000E+00  0.45877689668E+01  0.45877689668E+01  0.00000000000E+00 0. -1.
          2   -1    0    0  501    0  0.00000000000E+00 -0.00000000000E+00 -0.32977296298E+04  0.32977296298E+04  0.00000000000E+00 0. -1.
         25    1    1    2    0    0  0.19634371855E+02  0.37752300647E+01 -0.14029119870E+04  0.14081767660E+04  0.12000000000E+03 0.  0.
         25    1    1    2    0    0 -0.19634371855E+02 -0.37752300647E+01 -0.18902298738E+04  0.18941406327E+04  0.12000000000E+03 0.  0.
<mgrwt>
<rscale>  0 0.24600180E+03</rscale>
<asrwt>0</asrwt>
<pdfrwt beam="1">  1        2 0.50734490E+00 0.24600180E+03</pdfrwt>
<pdfrwt beam="2">  1       -2 0.70580800E-03 0.24600180E+03</pdfrwt>
<totfact> 0.48529074E+03</totfact>
</mgrwt>
</event>
<event>
 4    1  0.1710914E-004  0.2686978E+03  0.7818608E-02  0.1102027E+00
         -2   -1    0    0    0  501 -0.00000000000E+00  0.00000000000E+00  0.80201743729E+01  0.80201743729E+01  0.00000000000E+00 0. -1.
          2   -1    0    0  501    0  0.00000000000E+00 -0.00000000000E+00 -0.22505279226E+04  0.22505279226E+04  0.00000000000E+00 0. -1.
         25    1    1    2    0    0  0.41163107326E+02 -0.40515409112E+02 -0.97237231631E+03  0.98144985675E+03  0.12000000000E+03 0.  0.
         25    1    1    2    0    0 -0.41163107326E+02  0.40515409112E+02 -0.12701354319E+04  0.12770982403E+04  0.12000000000E+03 0.  0.
<mgrwt>
<rscale>  0 0.26869780E+03</rscale>
<asrwt>0</asrwt>
<pdfrwt beam="1">  1        2 0.34623522E+00 0.26869780E+03</pdfrwt>
<pdfrwt beam="2">  1       -2 0.12338724E-02 0.26869780E+03</pdfrwt>
<totfact> 0.85887475E+03</totfact>
</mgrwt>
</event>
<event>
 4    1  0.1710914E-004  0.2720386E+03  0.7818608E-02  0.1100119E+00
          1   -1    0    0  501    0  0.00000000000E+00  0.00000000000E+00  0.36450599338E+02  0.36450599338E+02  0.00000000000E+00 0.  1.
         -1   -1    0    0    0  501 -0.00000000000E+00 -0.00000000000E+00 -0.50757051660E+03  0.50757051660E+03  0.00000000000E+00 0.  1.
         25    1    1    2    0    0 -0.50067207905E+02 -0.39498537293E+02 -0.22383260738E+03  0.26185472286E+03  0.12000000000E+03 0.  0.
         25    1    1    2    0    0  0.50067207905E+02  0.39498537293E+02 -0.24728730988E+03  0.28216639308E+03  0.12000000000E+03 0.  0.
<mgrwt>
<rscale>  0 0.27203860E+03</rscale>
<asrwt>0</asrwt>
<pdfrwt beam="1">  1        1 0.56077853E-02 0.27203860E+03</pdfrwt>
<pdfrwt beam="2">  1       -1 0.78087761E-01 0.27203860E+03</pdfrwt>
<totfact> 0.24285179E+03</totfact>
</mgrwt>
</event>
<event>
 4    1  0.1710914E-004  0.2482355E+03  0.7818608E-02  0.1114425E+00
          1   -1    0    0  501    0  0.00000000000E+00  0.00000000000E+00  0.90393760175E+03  0.90393760175E+03  0.00000000000E+00 0.  1.
         -1   -1    0    0    0  501 -0.00000000000E+00 -0.00000000000E+00 -0.17042345226E+02  0.17042345226E+02  0.00000000000E+00 0.  1.
         25    1    1    2    0    0  0.25441876535E+02  0.46362835037E+00  0.51361794159E+03  0.52806334275E+03  0.12000000000E+03 0.  0.
         25    1    1    2    0    0 -0.25441876535E+02 -0.46362835037E+00  0.37327731493E+03  0.39291660422E+03  0.12000000000E+03 0.  0.
<mgrwt>
<rscale>  0 0.24823551E+03</rscale>
<asrwt>0</asrwt>
<pdfrwt beam="1">  1        1 0.13906729E+00 0.24823551E+03</pdfrwt>
<pdfrwt beam="2">  1       -1 0.26219000E-02 0.24823551E+03</pdfrwt>
<totfact> 0.86808742E+03</totfact>
</mgrwt>
</event>
<event>
 4    1  0.1710914E-004  0.2822948E+03  0.7818608E-02  0.1094442E+00
          1   -1    0    0  501    0  0.00000000000E+00  0.00000000000E+00  0.12199350044E+03  0.12199350044E+03  0.00000000000E+00 0. -1.
         -1   -1    0    0    0  501 -0.00000000000E+00 -0.00000000000E+00 -0.16330859970E+03  0.16330859970E+03  0.00000000000E+00 0. -1.
         25    1    1    2    0    0 -0.33329623601E+02  0.16595657548E+02  0.44341729124E+02  0.13323839012E+03  0.12000000000E+03 0.  0.
         25    1    1    2    0    0  0.33329623601E+02 -0.16595657548E+02 -0.85656828383E+02  0.15206371003E+03  0.12000000000E+03 0.  0.
<mgrwt>
<rscale>  0 0.28229479E+03</rscale>
<asrwt>0</asrwt>
<pdfrwt beam="1">  1        1 0.18768231E-01 0.28229479E+03</pdfrwt>
<pdfrwt beam="2">  1       -1 0.25124400E-01 0.28229479E+03</pdfrwt>
<totfact> 0.38137900E+03</totfact>
</mgrwt>
</event>
<event>
 4    1  0.1710914E-004  0.2429436E+03  0.7818608E-02  0.1117847E+00
          3   -1    0    0  501    0  0.00000000000E+00  0.00000000000E+00  0.28812596267E+03  0.28812596267E+03  0.00000000000E+00 0.  1.
         -3   -1    0    0    0  501 -0.00000000000E+00 -0.00000000000E+00 -0.51211606779E+02  0.51211606779E+02  0.00000000000E+00 0.  1.
         25    1    1    2    0    0 -0.13903640529E+02  0.18917554626E+01  0.13604232644E+03  0.18194615836E+03  0.12000000000E+03 0.  0.
         25    1    1    2    0    0  0.13903640529E+02 -0.18917554626E+01  0.10087202945E+03  0.15739141109E+03  0.12000000000E+03 0.  0.
<mgrwt>
<rscale>  0 0.24294356E+03</rscale>
<asrwt>0</asrwt>
<pdfrwt beam="1">  1        3 0.44327070E-01 0.24294356E+03</pdfrwt>
<pdfrwt beam="2">  1       -3 0.78787089E-02 0.24294356E+03</pdfrwt>
<totfact> 0.13941062E+03</totfact>
</mgrwt>
</event>
<event>
 4    1  0.1710914E-004  0.2747722E+03  0.7818608E-02  0.1098579E+00
         -2   -1    0    0    0  501 -0.00000000000E+00  0.00000000000E+00  0.82613361022E+01  0.82613361022E+01  0.00000000000E+00 0.  1.
          2   -1    0    0  501    0  0.00000000000E+00 -0.00000000000E+00 -0.22847317150E+04  0.22847317150E+04  0.00000000000E+00 0.  1.
         25    1    1    2    0    0  0.45588923790E+01 -0.55327961071E+02 -0.82677621699E+03  0.83728184009E+03  0.12000000000E+03 0.  0.
         25    1    1    2    0    0 -0.45588923790E+01  0.55327961071E+02 -0.14496941619E+04  0.14557112110E+04  0.12000000000E+03 0.  0.
<mgrwt>
<rscale>  0 0.27477217E+03</rscale>
<asrwt>0</asrwt>
<pdfrwt beam="1">  1        2 0.35149705E+00 0.27477217E+03</pdfrwt>
<pdfrwt beam="2">  1       -2 0.12709753E-02 0.27477217E+03</pdfrwt>
<totfact> 0.78871353E+03</totfact>
</mgrwt>
</event>
<event>
 4    1  0.1710914E-004  0.3340529E+03  0.7818608E-02  0.1069358E+00
         -2   -1    0    0    0  501 -0.00000000000E+00  0.00000000000E+00  0.32561764206E+02  0.32561764206E+02  0.00000000000E+00 0. -1.
          2   -1    0    0  501    0  0.00000000000E+00 -0.00000000000E+00 -0.85676652005E+03  0.85676652005E+03  0.00000000000E+00 0. -1.
         25    1    1    2    0    0 -0.70957812490E+02  0.91734441972E+02 -0.43047189983E+03  0.46168850489E+03  0.12000000000E+03 0.  0.
         25    1    1    2    0    0  0.70957812490E+02 -0.91734441972E+02 -0.39373285601E+03  0.42763977937E+03  0.12000000000E+03 0.  0.
<mgrwt>
<rscale>  0 0.33405287E+03</rscale>
<asrwt>0</asrwt>
<pdfrwt beam="1">  1        2 0.13181022E+00 0.33405287E+03</pdfrwt>
<pdfrwt beam="2">  1       -2 0.50095029E-02 0.33405287E+03</pdfrwt>
<totfact> 0.63561856E+03</totfact>
</mgrwt>
</event>
<event>
 4    1  0.1710914E-004  0.2762363E+03  0.7818608E-02  0.1097763E+00
         -2   -1    0    0    0  501 -0.00000000000E+00  0.00000000000E+00  0.14115137483E+02  0.14115137483E+02  0.00000000000E+00 0.  1.
          2   -1    0    0  501    0  0.00000000000E+00 -0.00000000000E+00 -0.13515013847E+04  0.13515013847E+04  0.00000000000E+00 0.  1.
         25    1    1    2    0    0  0.43008686332E+02  0.51216017817E+02 -0.59811821213E+03  0.61369228711E+03  0.12000000000E+03 0.  0.
         25    1    1    2    0    0 -0.43008686332E+02 -0.51216017817E+02 -0.73926803504E+03  0.75192423502E+03  0.12000000000E+03 0.  0.
<mgrwt>
<rscale>  0 0.27623633E+03</rscale>
<asrwt>0</asrwt>
<pdfrwt beam="1">  1        2 0.20792334E+00 0.27623633E+03</pdfrwt>
<pdfrwt beam="2">  1       -2 0.21715591E-02 0.27623633E+03</pdfrwt>
<totfact> 0.11244411E+04</totfact>
</mgrwt>
</event>
<event>
 4    1  0.1710914E-004  0.2866658E+03  0.7818608E-02  0.1092103E+00
          1   -1    0    0  501    0  0.00000000000E+00  0.00000000000E+00  0.10765974236E+04  0.10765974236E+04  0.00000000000E+00 0.  1.
         -1   -1    0    0    0  501 -0.00000000000E+00 -0.00000000000E+00 -0.19082640276E+02  0.19082640276E+02  0.00000000000E+00 0.  1.
         25    1    1    2    0    0 -0.29221417702E+02  0.47465316897E+01  0.80617028861E+03  0.81558994296E+03  0.12000000000E+03 0.  0.
         25    1    1    2    0    0  0.29221417702E+02 -0.47465316897E+01  0.25134449475E+03  0.28009012096E+03  0.12000000000E+03 0.  0.
<mgrwt>
<rscale>  0 0.28666581E+03</rscale>
<asrwt>0</asrwt>
<pdfrwt beam="1">  1        1 0.16563033E+00 0.28666581E+03</pdfrwt>
<pdfrwt beam="2">  1       -1 0.29357917E-02 0.28666581E+03</pdfrwt>
<totfact> 0.54688387E+03</totfact>
</mgrwt>
</event>
<event>
 4    1  0.1710914E-004  0.2879923E+03  0.7818608E-02  0.1091402E+00
         -2   -1    0    0    0  501 -0.00000000000E+00  0.00000000000E+00  0.91540306836E+01  0.91540306836E+01  0.00000000000E+00 0. -1.
          2   -1    0    0  501    0  0.00000000000E+00 -0.00000000000E+00 -0.22651098055E+04  0.22651098055E+04  0.00000000000E+00 0. -1.
         25    1    1    2    0    0  0.16918561643E+02  0.43400069983E+02 -0.16376275680E+04  0.16426788656E+04  0.12000000000E+03 0.  0.
         25    1    1    2    0    0 -0.16918561643E+02 -0.43400069983E+02 -0.61832820675E+03  0.63158497059E+03  0.12000000000E+03 0.  0.
<mgrwt>
<rscale>  0 0.28799225E+03</rscale>
<asrwt>0</asrwt>
<pdfrwt beam="1">  1        2 0.34847839E+00 0.28799225E+03</pdfrwt>
<pdfrwt beam="2">  1       -2 0.14083126E-02 0.28799225E+03</pdfrwt>
<totfact> 0.69559034E+03</totfact>
</mgrwt>
</event>
<event>
 4    1  0.1710914E-004  0.3443682E+03  0.7818608E-02  0.1064951E+00
         -1   -1    0    0    0  501 -0.00000000000E+00  0.00000000000E+00  0.89293064945E+02  0.89293064945E+02  0.00000000000E+00 0. -1.
          1   -1    0    0  501    0  0.00000000000E+00 -0.00000000000E+00 -0.33202309081E+03  0.33202309081E+03  0.00000000000E+00 0. -1.
         25    1    1    2    0    0  0.10495296025E+03 -0.36144879121E+02 -0.18754187700E+03  0.24878410677E+03  0.12000000000E+03 0.  0.
         25    1    1    2    0    0 -0.10495296025E+03  0.36144879121E+02 -0.55188148864E+02  0.17253204899E+03  0.12000000000E+03 0.  0.
<mgrwt>
<rscale>  0 0.34436817E+03</rscale>
<asrwt>0</asrwt>
<pdfrwt beam="1">  1        1 0.51080476E-01 0.34436817E+03</pdfrwt>
<pdfrwt beam="2">  1       -1 0.13737394E-01 0.34436817E+03</pdfrwt>
<totfact> 0.28547576E+03</totfact>
</mgrwt>
</event>
<event>
 4    1  0.1710914E-004  0.3138166E+03  0.7818608E-02  0.1078531E+00
         -1   -1    0    0    0  501 -0.00000000000E+00  0.00000000000E+00  0.42739050206E+02  0.42739050206E+02  0.00000000000E+00 0.  1.
          1   -1    0    0  501    0  0.00000000000E+00 -0.00000000000E+00 -0.57605902813E+03  0.57605902813E+03  0.00000000000E+00 0.  1.
         25    1    1    2    0    0  0.72279505955E+01 -0.94784336664E+02 -0.33450702921E+03  0.36787398160E+03  0.12000000000E+03 0.  0.
         25    1    1    2    0    0 -0.72279505955E+01  0.94784336664E+02 -0.19881294871E+03  0.25092409673E+03  0.12000000000E+03 0.  0.
<mgrwt>
<rscale>  0 0.31381661E+03</rscale>
<asrwt>0</asrwt>
<pdfrwt beam="1">  1        1 0.88624459E-01 0.31381661E+03</pdfrwt>
<pdfrwt beam="2">  1       -1 0.65752390E-02 0.31381661E+03</pdfrwt>
<totfact> 0.43306186E+03</totfact>
</mgrwt>
</event>
<event>
 4    1  0.1710914E-004  0.2843265E+03  0.7818608E-02  0.1093349E+00
         -1   -1    0    0    0  501 -0.00000000000E+00  0.00000000000E+00  0.13043853310E+02  0.13043853310E+02  0.00000000000E+00 0. -1.
          1   -1    0    0  501    0  0.00000000000E+00 -0.00000000000E+00 -0.15494191605E+04  0.15494191605E+04  0.00000000000E+00 0. -1.
         25    1    1    2    0    0  0.12587784744E+02 -0.20053697422E+02 -0.37002233286E+03  0.38971416438E+03  0.12000000000E+03 0.  0.
         25    1    1    2    0    0 -0.12587784744E+02  0.20053697422E+02 -0.11663529743E+04  0.11727488494E+04  0.12000000000E+03 0.  0.
<mgrwt>
<rscale>  0 0.28432655E+03</rscale>
<asrwt>0</asrwt>
<pdfrwt beam="1">  1        1 0.23837200E+00 0.28432655E+03</pdfrwt>
<pdfrwt beam="2">  1       -1 0.20067482E-02 0.28432655E+03</pdfrwt>
<totfact> 0.45300734E+03</totfact>
</mgrwt>
</event>
<event>
 4    1  0.1710914E-004  0.2891205E+03  0.7818608E-02  0.1090809E+00
         -2   -1    0    0    0  501 -0.00000000000E+00  0.00000000000E+00  0.28563361473E+02  0.28563361473E+02  0.00000000000E+00 0. -1.
          2   -1    0    0  501    0  0.00000000000E+00 -0.00000000000E+00 -0.73162503985E+03  0.73162503985E+03  0.00000000000E+00 0. -1.
         25    1    1    2    0    0  0.61204460032E+02  0.48674221034E+02 -0.30010744675E+03  0.33253517907E+03  0.12000000000E+03 0.  0.
         25    1    1    2    0    0 -0.61204460032E+02 -0.48674221034E+02 -0.40295423162E+03  0.42765322225E+03  0.12000000000E+03 0.  0.
<mgrwt>
<rscale>  0 0.28912053E+03</rscale>
<asrwt>0</asrwt>
<pdfrwt beam="1">  1        2 0.11255768E+00 0.28912053E+03</pdfrwt>
<pdfrwt beam="2">  1       -2 0.43943641E-02 0.28912053E+03</pdfrwt>
<totfact> 0.94521140E+03</totfact>
</mgrwt>
</event>
<event>
 4    1  0.1710914E-004  0.2938136E+03  0.7818608E-02  0.1088375E+00
         -2   -1    0    0    0  501 -0.00000000000E+00  0.00000000000E+00  0.24211266641E+02  0.24211266641E+02  0.00000000000E+00 0.  1.
          2   -1    0    0  501    0  0.00000000000E+00 -0.00000000000E+00 -0.89138676218E+03  0.89138676218E+03  0.00000000000E+00 0.  1.
         25    1    1    2    0    0 -0.57838078148E+02  0.87835994115E+01 -0.24252273512E+03  0.27683871108E+03  0.12000000000E+03 0.  0.
         25    1    1    2    0    0  0.57838078148E+02 -0.87835994115E+01 -0.62465276042E+03  0.63875931774E+03  0.12000000000E+03 0.  0.
<mgrwt>
<rscale>  0 0.29381356E+03</rscale>
<asrwt>0</asrwt>
<pdfrwt beam="1">  1        2 0.13713642E+00 0.29381356E+03</pdfrwt>
<pdfrwt beam="2">  1       -2 0.37248104E-02 0.29381356E+03</pdfrwt>
<totfact> 0.94180988E+03</totfact>
</mgrwt>
</event>
<event>
 4    1  0.1710914E-004  0.2428464E+03  0.7818608E-02  0.1117911E+00
          2   -1    0    0  501    0  0.00000000000E+00  0.00000000000E+00  0.34265987097E+03  0.34265987097E+03  0.00000000000E+00 0.  1.
         -2   -1    0    0    0  501 -0.00000000000E+00 -0.00000000000E+00 -0.43026887329E+02  0.43026887329E+02  0.00000000000E+00 0.  1.
         25    1    1    2    0    0 -0.72196075354E+01 -0.65847126811E+01  0.12480024209E+03  0.17340871258E+03  0.12000000000E+03 0.  0.
         25    1    1    2    0    0  0.72196075354E+01  0.65847126811E+01  0.17483274155E+03  0.21227804571E+03  0.12000000000E+03 0.  0.
<mgrwt>
<rscale>  0 0.24284635E+03</rscale>
<asrwt>0</asrwt>
<pdfrwt beam="1">  1        2 0.52716901E-01 0.24284635E+03</pdfrwt>
<pdfrwt beam="2">  1       -2 0.66195214E-02 0.24284635E+03</pdfrwt>
<totfact> 0.11836892E+04</totfact>
</mgrwt>
</event>
<event>
 4    1  0.1710914E-004  0.3351979E+03  0.7818608E-02  0.1068860E+00
          2   -1    0    0  501    0  0.00000000000E+00  0.00000000000E+00  0.29287264703E+03  0.29287264703E+03  0.00000000000E+00 0. -1.
         -2   -1    0    0    0  501 -0.00000000000E+00 -0.00000000000E+00 -0.95909971484E+02  0.95909971484E+02  0.00000000000E+00 0. -1.
         25    1    1    2    0    0 -0.10760704478E+03 -0.84308464181E+01  0.46106860095E+02  0.16785767127E+03  0.12000000000E+03 0.  0.
         25    1    1    2    0    0  0.10760704478E+03  0.84308464181E+01  0.15085581545E+03  0.22092494724E+03  0.12000000000E+03 0.  0.
<mgrwt>
<rscale>  0 0.33519790E+03</rscale>
<asrwt>0</asrwt>
<pdfrwt beam="1">  1        2 0.45057330E-01 0.33519790E+03</pdfrwt>
<pdfrwt beam="2">  1       -2 0.14755380E-01 0.33519790E+03</pdfrwt>
<totfact> 0.39570449E+03</totfact>
</mgrwt>
</event>
<event>
 4    1  0.1710914E-004  0.2782063E+03  0.7818608E-02  0.1096673E+00
          2   -1    0    0  501    0  0.00000000000E+00  0.00000000000E+00  0.52833521907E+03  0.52833521907E+03  0.00000000000E+00 0. -1.
         -2   -1    0    0    0  501 -0.00000000000E+00 -0.00000000000E+00 -0.36623882841E+02  0.36623882841E+02  0.00000000000E+00 0. -1.
         25    1    1    2    0    0  0.31473118953E+02 -0.15920038143E+02  0.36947435717E+03  0.39007089796E+03  0.12000000000E+03 0.  0.
         25    1    1    2    0    0 -0.31473118953E+02  0.15920038143E+02  0.12223697906E+03  0.17488820395E+03  0.12000000000E+03 0.  0.
<mgrwt>
<rscale>  0 0.27820631E+03</rscale>
<asrwt>0</asrwt>
<pdfrwt beam="1">  1        2 0.81282336E-01 0.27820631E+03</pdfrwt>
<pdfrwt beam="2">  1       -2 0.56344439E-02 0.27820631E+03</pdfrwt>
<totfact> 0.94868591E+03</totfact>
</mgrwt>
</event>
<event>
 4    1  0.1710914E-004  0.3691790E+03  0.7818608E-02  0.1055007E+00
         -2   -1    0    0    0  501 -0.00000000000E+00  0.00000000000E+00  0.86875246119E+02  0.86875246119E+02  0.00000000000E+00 0.  1.
          2   -1    0    0  501    0  0.00000000000E+00 -0.00000000000E+00 -0.39220940126E+03  0.39220940126E+03  0.00000000000E+00 0.  1.
         25    1    1    2    0    0 -0.82793503036E+02 -0.19977400135E+02 -0.80478543580E+01  0.14737241472E+03  0.12000000000E+03 0.  0.
         25    1    1    2    0    0  0.82793503036E+02  0.19977400135E+02 -0.29728630079E+03  0.33171223266E+03  0.12000000000E+03 0.  0.
<mgrwt>
<rscale>  0 0.36917903E+03</rscale>
<asrwt>0</asrwt>
<pdfrwt beam="1">  1        2 0.60339908E-01 0.36917903E+03</pdfrwt>
<pdfrwt beam="2">  1       -2 0.13365422E-01 0.36917903E+03</pdfrwt>
<totfact> 0.33969993E+03</totfact>
</mgrwt>
</event>
<event>
 4    1  0.1710914E-004  0.2420330E+03  0.7818608E-02  0.1118446E+00
          2   -1    0    0  501    0  0.00000000000E+00  0.00000000000E+00  0.18040967721E+03  0.18040967721E+03  0.00000000000E+00 0. -1.
         -2   -1    0    0    0  501 -0.00000000000E+00 -0.00000000000E+00 -0.81176297137E+02  0.81176297137E+02  0.00000000000E+00 0. -1.
         25    1    1    2    0    0  0.39230257162E+01  0.12285378315E+02  0.40030600091E+02  0.12715647681E+03  0.12000000000E+03 0.  0.
         25    1    1    2    0    0 -0.39230257162E+01 -0.12285378315E+02  0.59202779986E+02  0.13442949754E+03  0.12000000000E+03 0.  0.
<mgrwt>
<rscale>  0 0.24203297E+03</rscale>
<asrwt>0</asrwt>
<pdfrwt beam="1">  1        2 0.27755335E-01 0.24203297E+03</pdfrwt>
<pdfrwt beam="2">  1       -2 0.12488661E-01 0.24203297E+03</pdfrwt>
<totfact> 0.87110636E+03</totfact>
</mgrwt>
</event>
<event>
 4    1  0.1710914E-004  0.2557560E+03  0.7818608E-02  0.1109720E+00
         -2   -1    0    0    0  501 -0.00000000000E+00  0.00000000000E+00  0.27201537949E+02  0.27201537949E+02  0.00000000000E+00 0. -1.
          2   -1    0    0  501    0  0.00000000000E+00 -0.00000000000E+00 -0.60117129482E+03  0.60117129482E+03  0.00000000000E+00 0. -1.
         25    1    1    2    0    0  0.10284960441E+02 -0.21646216392E+02 -0.19576568446E+03  0.23086477061E+03  0.12000000000E+03 0.  0.
         25    1    1    2    0    0 -0.10284960441E+02  0.21646216392E+02 -0.37820407241E+03  0.39750806216E+03  0.12000000000E+03 0.  0.
<mgrwt>
<rscale>  0 0.25575601E+03</rscale>
<asrwt>0</asrwt>
<pdfrwt beam="1">  1        2 0.92487883E-01 0.25575601E+03</pdfrwt>
<pdfrwt beam="2">  1       -2 0.41848524E-02 0.25575601E+03</pdfrwt>
<totfact> 0.12805458E+04</totfact>
</mgrwt>
</event>
<event>
 4    1  0.1710914E-004  0.2599746E+03  0.7818608E-02  0.1107158E+00
         -2   -1    0    0    0  501 -0.00000000000E+00  0.00000000000E+00  0.91384096724E+01  0.91384096724E+01  0.00000000000E+00 0.  1.
          2   -1    0    0  501    0  0.00000000000E+00 -0.00000000000E+00 -0.18489763357E+04  0.18489763357E+04  0.00000000000E+00 0.  1.
         25    1    1    2    0    0 -0.19098264518E+02 -0.32310656586E+02 -0.11556692337E+04  0.11624887527E+04  0.12000000000E+03 0.  0.
         25    1    1    2    0    0  0.19098264518E+02  0.32310656586E+02 -0.68416869226E+03  0.69562599269E+03  0.12000000000E+03 0.  0.
<mgrwt>
<rscale>  0 0.25997464E+03</rscale>
<asrwt>0</asrwt>
<pdfrwt beam="1">  1        2 0.28445792E+00 0.25997464E+03</pdfrwt>
<pdfrwt beam="2">  1       -2 0.14059091E-02 0.25997464E+03</pdfrwt>
<totfact> 0.11555900E+04</totfact>
</mgrwt>
</event>
<event>
 4    1  0.1710914E-004  0.2568311E+03  0.7818608E-02  0.1109062E+00
         -1   -1    0    0    0  501 -0.00000000000E+00  0.00000000000E+00  0.13444156196E+02  0.13444156196E+02  0.00000000000E+00 0. -1.
          1   -1    0    0  501    0  0.00000000000E+00 -0.00000000000E+00 -0.12265963859E+04  0.12265963859E+04  0.00000000000E+00 0. -1.
         25    1    1    2    0    0 -0.26596466101E+02  0.37091294554E+02 -0.61972563919E+03  0.63288466881E+03  0.12000000000E+03 0.  0.
         25    1    1    2    0    0  0.26596466101E+02 -0.37091294554E+02 -0.59342659055E+03  0.60715587332E+03  0.12000000000E+03 0.  0.
<mgrwt>
<rscale>  0 0.25683110E+03</rscale>
<asrwt>0</asrwt>
<pdfrwt beam="1">  1        1 0.18870712E+00 0.25683110E+03</pdfrwt>
<pdfrwt beam="2">  1       -1 0.20683319E-02 0.25683110E+03</pdfrwt>
<totfact> 0.71440485E+03</totfact>
</mgrwt>
</event>
<event>
 4    1  0.1710914E-004  0.2419165E+03  0.7818608E-02  0.1118523E+00
          2   -1    0    0  501    0  0.00000000000E+00  0.00000000000E+00  0.31368817843E+03  0.31368817843E+03  0.00000000000E+00 0.  1.
         -2   -1    0    0    0  501 -0.00000000000E+00 -0.00000000000E+00 -0.46641546867E+02  0.46641546867E+02  0.00000000000E+00 0.  1.
         25    1    1    2    0    0  0.25507612599E+01  0.72342500241E+01  0.11398550415E+03  0.16568505036E+03  0.12000000000E+03 0.  0.
         25    1    1    2    0    0 -0.25507612599E+01 -0.72342500241E+01  0.15306112742E+03  0.19464467494E+03  0.12000000000E+03 0.  0.
<mgrwt>
<rscale>  0 0.24191653E+03</rscale>
<asrwt>0</asrwt>
<pdfrwt beam="1">  1        2 0.48259718E-01 0.24191653E+03</pdfrwt>
<pdfrwt beam="2">  1       -2 0.71756228E-02 0.24191653E+03</pdfrwt>
<totfact> 0.11488732E+04</totfact>
</mgrwt>
</event>
<event>
 4    1  0.1710914E-004  0.2774910E+03  0.7818608E-02  0.1097067E+00
          2   -1    0    0  501    0  0.00000000000E+00  0.00000000000E+00  0.78496738074E+03  0.78496738074E+03  0.00000000000E+00 0. -1.
         -2   -1    0    0    0  501 -0.00000000000E+00 -0.00000000000E+00 -0.24523703644E+02  0.24523703644E+02  0.00000000000E+00 0. -1.
         25    1    1    2    0    0 -0.25005040403E+02 -0.25580955410E+02  0.55453818000E+03  0.56849998277E+03  0.12000000000E+03 0.  0.
         25    1    1    2    0    0  0.25005040403E+02  0.25580955410E+02  0.20590549709E+03  0.24099110162E+03  0.12000000000E+03 0.  0.
<mgrwt>
<rscale>  0 0.27749095E+03</rscale>
<asrwt>0</asrwt>
<pdfrwt beam="1">  1        2 0.12076419E+00 0.27749095E+03</pdfrwt>
<pdfrwt beam="2">  1       -2 0.37728781E-02 0.27749095E+03</pdfrwt>
<totfact> 0.10878325E+04</totfact>
</mgrwt>
</event>
<event>
 4    1  0.1710914E-004  0.4990998E+03  0.7818608E-02  0.1014014E+00
         -2   -1    0    0    0  501 -0.00000000000E+00  0.00000000000E+00  0.53011310773E+02  0.53011310773E+02  0.00000000000E+00 0.  1.
          2   -1    0    0  501    0  0.00000000000E+00 -0.00000000000E+00 -0.11747522427E+04  0.11747522427E+04  0.00000000000E+00 0.  1.
         25    1    1    2    0    0 -0.95419575382E+02 -0.12861374937E+03 -0.92763302074E+03  0.94897281998E+03  0.12000000000E+03 0.  0.
         25    1    1    2    0    0  0.95419575382E+02  0.12861374937E+03 -0.19410791117E+03  0.27879073348E+03  0.12000000000E+03 0.  0.
<mgrwt>
<rscale>  0 0.49909981E+03</rscale>
<asrwt>0</asrwt>
<pdfrwt beam="1">  1        2 0.18073112E+00 0.49909981E+03</pdfrwt>
<pdfrwt beam="2">  1       -2 0.81555859E-02 0.49909981E+03</pdfrwt>
<totfact> 0.18906438E+03</totfact>
</mgrwt>
</event>
<event>
 4    1  0.1710914E-004  0.2693772E+03  0.7818608E-02  0.1101637E+00
          2   -1    0    0  501    0  0.00000000000E+00  0.00000000000E+00  0.24808415314E+02  0.24808415314E+02  0.00000000000E+00 0.  1.
         -2   -1    0    0    0  501 -0.00000000000E+00 -0.00000000000E+00 -0.73124478537E+03  0.73124478537E+03  0.00000000000E+00 0.  1.
         25    1    1    2    0    0  0.15319491310E+02  0.48917805016E+02 -0.25956677720E+03  0.29052117012E+03  0.12000000000E+03 0.  0.
         25    1    1    2    0    0 -0.15319491310E+02 -0.48917805016E+02 -0.44686959286E+03  0.46553203057E+03  0.12000000000E+03 0.  0.
<mgrwt>
<rscale>  0 0.26937724E+03</rscale>
<asrwt>0</asrwt>
<pdfrwt beam="1">  1        2 0.38166791E-02 0.26937724E+03</pdfrwt>
<pdfrwt beam="2">  1       -2 0.11249920E+00 0.26937724E+03</pdfrwt>
<totfact> 0.14635286E+03</totfact>
</mgrwt>
</event>
<event>
 4    1  0.1710914E-004  0.3094812E+03  0.7818608E-02  0.1080595E+00
         -2   -1    0    0    0  501 -0.00000000000E+00  0.00000000000E+00  0.23921350388E+03  0.23921350388E+03  0.00000000000E+00 0. -1.
          2   -1    0    0  501    0  0.00000000000E+00 -0.00000000000E+00 -0.10009744471E+03  0.10009744471E+03  0.00000000000E+00 0. -1.
         25    1    1    2    0    0 -0.92867932822E+02  0.12955512820E+02  0.39485010797E+02  0.15732566331E+03  0.12000000000E+03 0.  0.
         25    1    1    2    0    0  0.92867932822E+02 -0.12955512820E+02  0.99631048372E+02  0.18198528528E+03  0.12000000000E+03 0.  0.
<mgrwt>
<rscale>  0 0.30948125E+03</rscale>
<asrwt>0</asrwt>
<pdfrwt beam="1">  1        2 0.15399607E-01 0.30948125E+03</pdfrwt>
<pdfrwt beam="2">  1       -2 0.36802077E-01 0.30948125E+03</pdfrwt>
<totfact> 0.26404557E+03</totfact>
</mgrwt>
</event>
<event>
 4    1  0.1710914E-004  0.2888759E+03  0.7818608E-02  0.1090937E+00
         -3   -1    0    0    0  501 -0.00000000000E+00  0.00000000000E+00  0.36412910380E+02  0.36412910380E+02  0.00000000000E+00 0. -1.
          3   -1    0    0  501    0  0.00000000000E+00 -0.00000000000E+00 -0.57293762035E+03  0.57293762035E+03  0.00000000000E+00 0. -1.
         25    1    1    2    0    0 -0.37922238245E+02  0.70050229346E+02 -0.24542682027E+03  0.28456889305E+03  0.12000000000E+03 0.  0.
         25    1    1    2    0    0  0.37922238245E+02 -0.70050229346E+02 -0.29109788970E+03  0.32478163768E+03  0.12000000000E+03 0.  0.
<mgrwt>
<rscale>  0 0.28887593E+03</rscale>
<asrwt>0</asrwt>
<pdfrwt beam="1">  1        3 0.88144247E-01 0.28887593E+03</pdfrwt>
<pdfrwt beam="2">  1       -3 0.56019864E-02 0.28887593E+03</pdfrwt>
<totfact> 0.58425403E+02</totfact>
</mgrwt>
</event>
<event>
 4    1  0.1710914E-004  0.4172284E+03  0.7818608E-02  0.1037972E+00
         -4   -1    0    0    0  501 -0.00000000000E+00  0.00000000000E+00  0.30758416593E+03  0.30758416593E+03  0.00000000000E+00 0.  1.
          4   -1    0    0  501    0  0.00000000000E+00 -0.00000000000E+00 -0.14148935688E+03  0.14148935688E+03  0.00000000000E+00 0.  1.
         25    1    1    2    0    0 -0.11867387296E+03 -0.12013401475E+03  0.10950435380E+03  0.23432215671E+03  0.12000000000E+03 0.  0.
         25    1    1    2    0    0  0.11867387296E+03  0.12013401475E+03  0.56590455248E+02  0.21475136611E+03  0.12000000000E+03 0.  0.
<mgrwt>
<rscale>  0 0.41722841E+03</rscale>
<asrwt>0</asrwt>
<pdfrwt beam="1">  1        4 0.21767593E-01 0.41722841E+03</pdfrwt>
<pdfrwt beam="2">  1       -4 0.47320641E-01 0.41722841E+03</pdfrwt>
<totfact> 0.16340121E+02</totfact>
</mgrwt>
</event>
<event>
 4    1  0.1710914E-004  0.2786400E+03  0.7818608E-02  0.1096434E+00
          1   -1    0    0  501    0  0.00000000000E+00  0.00000000000E+00  0.66104619813E+02  0.66104619813E+02  0.00000000000E+00 0. -1.
         -1   -1    0    0    0  501 -0.00000000000E+00 -0.00000000000E+00 -0.29362639293E+03  0.29362639293E+03  0.00000000000E+00 0. -1.
         25    1    1    2    0    0 -0.30259564542E+01 -0.43277966110E+02 -0.41556694534E+02  0.13419797921E+03  0.12000000000E+03 0.  0.
         25    1    1    2    0    0  0.30259564542E+01  0.43277966110E+02 -0.18596507859E+03  0.22553303354E+03  0.12000000000E+03 0.  0.
<mgrwt>
<rscale>  0 0.27863999E+03</rscale>
<asrwt>0</asrwt>
<pdfrwt beam="1">  1        1 0.10169942E-01 0.27863999E+03</pdfrwt>
<pdfrwt beam="2">  1       -1 0.45173291E-01 0.27863999E+03</pdfrwt>
<totfact> 0.30962990E+03</totfact>
</mgrwt>
</event>
<event>
 4    1  0.1710914E-004  0.2641239E+03  0.7818608E-02  0.1104691E+00
         -2   -1    0    0    0  501 -0.00000000000E+00  0.00000000000E+00  0.31932513425E+02  0.31932513425E+02  0.00000000000E+00 0. -1.
          2   -1    0    0  501    0  0.00000000000E+00 -0.00000000000E+00 -0.54616289795E+03  0.54616289795E+03  0.00000000000E+00 0. -1.
         25    1    1    2    0    0 -0.27644481181E+02 -0.47408516066E+02 -0.26881400935E+03  0.29945409725E+03  0.12000000000E+03 0.  0.
         25    1    1    2    0    0  0.27644481181E+02  0.47408516066E+02 -0.24541637517E+03  0.27864131413E+03  0.12000000000E+03 0.  0.
<mgrwt>
<rscale>  0 0.26412387E+03</rscale>
<asrwt>0</asrwt>
<pdfrwt beam="1">  1        2 0.84025064E-01 0.26412387E+03</pdfrwt>
<pdfrwt beam="2">  1       -2 0.49126942E-02 0.26412387E+03</pdfrwt>
<totfact> 0.11234971E+04</totfact>
</mgrwt>
</event>
<event>
 4    1  0.1710914E-004  0.2414886E+03  0.7818608E-02  0.1118805E+00
          2   -1    0    0  501    0  0.00000000000E+00  0.00000000000E+00  0.66195793701E+03  0.66195793701E+03  0.00000000000E+00 0. -1.
         -2   -1    0    0    0  501 -0.00000000000E+00 -0.00000000000E+00 -0.22024338348E+02  0.22024338348E+02  0.00000000000E+00 0. -1.
         25    1    1    2    0    0  0.17235964910E+01  0.13257626297E+02  0.32186709204E+03  0.34376905093E+03  0.12000000000E+03 0.  0.
         25    1    1    2    0    0 -0.17235964910E+01 -0.13257626297E+02  0.31806650662E+03  0.34021322442E+03  0.12000000000E+03 0.  0.
<mgrwt>
<rscale>  0 0.24148860E+03</rscale>
<asrwt>0</asrwt>
<pdfrwt beam="1">  1        2 0.10183967E+00 0.24148860E+03</pdfrwt>
<pdfrwt beam="2">  1       -2 0.33883602E-02 0.24148860E+03</pdfrwt>
<totfact> 0.15648653E+04</totfact>
</mgrwt>
</event>
<event>
 4    1  0.1710914E-004  0.2483578E+03  0.7818608E-02  0.1114347E+00
         -2   -1    0    0    0  501 -0.00000000000E+00  0.00000000000E+00  0.67485546236E+01  0.67485546236E+01  0.00000000000E+00 0. -1.
          2   -1    0    0  501    0  0.00000000000E+00 -0.00000000000E+00 -0.22849937670E+04  0.22849937670E+04  0.00000000000E+00 0. -1.
         25    1    1    2    0    0 -0.26334147271E+02  0.17876380143E+02 -0.11641444518E+04  0.11707456415E+04  0.12000000000E+03 0.  0.
         25    1    1    2    0    0  0.26334147271E+02 -0.17876380143E+02 -0.11141007606E+04  0.11209966802E+04  0.12000000000E+03 0.  0.
<mgrwt>
<rscale>  0 0.24835785E+03</rscale>
<asrwt>0</asrwt>
<pdfrwt beam="1">  1        2 0.35153719E+00 0.24835785E+03</pdfrwt>
<pdfrwt beam="2">  1       -2 0.10382401E-02 0.24835785E+03</pdfrwt>
<totfact> 0.10573773E+04</totfact>
</mgrwt>
</event>
<event>
 4    1  0.1710914E-004  0.3206722E+03  0.7818608E-02  0.1075340E+00
         -1   -1    0    0    0  501 -0.00000000000E+00  0.00000000000E+00  0.76696012591E+02  0.76696012591E+02  0.00000000000E+00 0.  1.
          1   -1    0    0  501    0  0.00000000000E+00 -0.00000000000E+00 -0.33518915746E+03  0.33518915746E+03  0.00000000000E+00 0.  1.
         25    1    1    2    0    0 -0.12129870431E+02  0.67666913122E+02 -0.23345065077E+03  0.27133954970E+03  0.12000000000E+03 0.  0.
         25    1    1    2    0    0  0.12129870431E+02 -0.67666913122E+02 -0.25042494099E+02  0.14054562035E+03  0.12000000000E+03 0.  0.
<mgrwt>
<rscale>  0 0.32067224E+03</rscale>
<asrwt>0</asrwt>
<pdfrwt beam="1">  1        1 0.51567562E-01 0.32067224E+03</pdfrwt>
<pdfrwt beam="2">  1       -1 0.11799387E-01 0.32067224E+03</pdfrwt>
<totfact> 0.35798478E+03</totfact>
</mgrwt>
</event>
<event>
 4    1  0.1710914E-004  0.2731170E+03  0.7818608E-02  0.1099509E+00
         -1   -1    0    0    0  501 -0.00000000000E+00  0.00000000000E+00  0.10789129187E+03  0.10789129187E+03  0.00000000000E+00 0. -1.
          1   -1    0    0  501    0  0.00000000000E+00 -0.00000000000E+00 -0.17284266378E+03  0.17284266378E+03  0.00000000000E+00 0. -1.
         25    1    1    2    0    0 -0.25092837328E+02 -0.25335832505E+02  0.23604718942E+02  0.12739206274E+03  0.12000000000E+03 0.  0.
         25    1    1    2    0    0  0.25092837328E+02  0.25335832505E+02 -0.88556090856E+02  0.15334189291E+03  0.12000000000E+03 0.  0.
<mgrwt>
<rscale>  0 0.27311696E+03</rscale>
<asrwt>0</asrwt>
<pdfrwt beam="1">  1        1 0.26591179E-01 0.27311696E+03</pdfrwt>
<pdfrwt beam="2">  1       -1 0.16598660E-01 0.27311696E+03</pdfrwt>
<totfact> 0.47925316E+03</totfact>
</mgrwt>
</event>
<event>
 4    1  0.1710914E-004  0.2771140E+03  0.7818608E-02  0.1097276E+00
          1   -1    0    0  501    0  0.00000000000E+00  0.00000000000E+00  0.21484528072E+03  0.21484528072E+03  0.00000000000E+00 0. -1.
         -1   -1    0    0    0  501 -0.00000000000E+00 -0.00000000000E+00 -0.89357515187E+02  0.89357515187E+02  0.00000000000E+00 0. -1.
         25    1    1    2    0    0 -0.49554076109E+02 -0.44497012164E+02  0.83643038253E+02  0.16072258211E+03  0.12000000000E+03 0.  0.
         25    1    1    2    0    0  0.49554076109E+02  0.44497012164E+02  0.41844727275E+02  0.14348021380E+03  0.12000000000E+03 0.  0.
<mgrwt>
<rscale>  0 0.27711399E+03</rscale>
<asrwt>0</asrwt>
<pdfrwt beam="1">  1        1 0.33053120E-01 0.27711399E+03</pdfrwt>
<pdfrwt beam="2">  1       -1 0.13747310E-01 0.27711399E+03</pdfrwt>
<totfact> 0.49139808E+03</totfact>
</mgrwt>
</event>
<event>
 4    1  0.1710914E-004  0.3027379E+03  0.7818608E-02  0.1083880E+00
          1   -1    0    0  501    0  0.00000000000E+00  0.00000000000E+00  0.91366068402E+03  0.91366068402E+03  0.00000000000E+00 0.  1.
         -1   -1    0    0    0  501 -0.00000000000E+00 -0.00000000000E+00 -0.25077751366E+02  0.25077751366E+02  0.00000000000E+00 0.  1.
         25    1    1    2    0    0 -0.70888733939E+02  0.16429850654E+02  0.26840575388E+03  0.30288083681E+03  0.12000000000E+03 0.  0.
         25    1    1    2    0    0  0.70888733939E+02 -0.16429850654E+02  0.62017717878E+03  0.63585759858E+03  0.12000000000E+03 0.  0.
<mgrwt>
<rscale>  0 0.30273788E+03</rscale>
<asrwt>0</asrwt>
<pdfrwt beam="1">  1        1 0.14056316E+00 0.30273788E+03</pdfrwt>
<pdfrwt beam="2">  1       -1 0.38581163E-02 0.30273788E+03</pdfrwt>
<totfact> 0.48419719E+03</totfact>
</mgrwt>
</event>
<event>
 4    1  0.1710914E-004  0.4949848E+03  0.7818608E-02  0.1015096E+00
         -3   -1    0    0    0  501 -0.00000000000E+00  0.00000000000E+00  0.26247450465E+03  0.26247450465E+03  0.00000000000E+00 0.  1.
          3   -1    0    0  501    0  0.00000000000E+00 -0.00000000000E+00 -0.23336545923E+03  0.23336545923E+03  0.00000000000E+00 0.  1.
         25    1    1    2    0    0  0.15852765431E+03 -0.13497409984E+03  0.73846805373E+02  0.25140082632E+03  0.12000000000E+03 0.  0.
         25    1    1    2    0    0 -0.15852765431E+03  0.13497409984E+03 -0.44737759945E+02  0.24443913756E+03  0.12000000000E+03 0.  0.
<mgrwt>
<rscale>  0 0.49498478E+03</rscale>
<asrwt>0</asrwt>
<pdfrwt beam="1">  1        3 0.35902378E-01 0.49498478E+03</pdfrwt>
<pdfrwt beam="2">  1       -3 0.40380693E-01 0.49498478E+03</pdfrwt>
<totfact> 0.12194511E+02</totfact>
</mgrwt>
</event>
<event>
 4    1  0.1710914E-004  0.2990836E+03  0.7818608E-02  0.1085700E+00
          2   -1    0    0  501    0  0.00000000000E+00  0.00000000000E+00  0.30750572308E+03  0.30750572308E+03  0.00000000000E+00 0.  1.
         -2   -1    0    0    0  501 -0.00000000000E+00 -0.00000000000E+00 -0.72723025411E+02  0.72723025411E+02  0.00000000000E+00 0.  1.
         25    1    1    2    0    0  0.49978050657E+02 -0.34453287715E+02  0.20054250721E+03  0.24145834378E+03  0.12000000000E+03 0.  0.
         25    1    1    2    0    0 -0.49978050657E+02  0.34453287715E+02  0.34240190461E+02  0.13877040471E+03  0.12000000000E+03 0.  0.
<mgrwt>
<rscale>  0 0.29908358E+03</rscale>
<asrwt>0</asrwt>
<pdfrwt beam="1">  1        2 0.47308572E-01 0.29908358E+03</pdfrwt>
<pdfrwt beam="2">  1       -2 0.11188158E-01 0.29908358E+03</pdfrwt>
<totfact> 0.58784596E+03</totfact>
</mgrwt>
</event>
<event>
 4    1  0.1710914E-004  0.2977194E+03  0.7818608E-02  0.1086386E+00
          1   -1    0    0  501    0  0.00000000000E+00  0.00000000000E+00  0.73409505502E+03  0.73409505502E+03  0.00000000000E+00 0. -1.
         -1   -1    0    0    0  501 -0.00000000000E+00 -0.00000000000E+00 -0.30185747841E+02  0.30185747841E+02  0.00000000000E+00 0. -1.
         25    1    1    2    0    0  0.54004032406E+02  0.62142651103E+02  0.43236175785E+03  0.45619604805E+03  0.12000000000E+03 0.  0.
         25    1    1    2    0    0 -0.54004032406E+02 -0.62142651103E+02  0.27154754933E+03  0.30808475481E+03  0.12000000000E+03 0.  0.
<mgrwt>
<rscale>  0 0.29771939E+03</rscale>
<asrwt>0</asrwt>
<pdfrwt beam="1">  1        1 0.11293769E+00 0.29771939E+03</pdfrwt>
<pdfrwt beam="2">  1       -1 0.46439618E-02 0.29771939E+03</pdfrwt>
<totfact> 0.51667414E+03</totfact>
</mgrwt>
</event>
<event>
 4    1  0.1710914E-004  0.3409750E+03  0.7818608E-02  0.1066381E+00
         -3   -1    0    0    0  501 -0.00000000000E+00  0.00000000000E+00  0.36701918849E+03  0.36701918849E+03  0.00000000000E+00 0. -1.
          3   -1    0    0  501    0  0.00000000000E+00 -0.00000000000E+00 -0.79194739153E+02  0.79194739153E+02  0.00000000000E+00 0. -1.
         25    1    1    2    0    0 -0.30309943914E+02 -0.41525179994E+02  0.28740373159E+03  0.31566428085E+03  0.12000000000E+03 0.  0.
         25    1    1    2    0    0  0.30309943914E+02  0.41525179994E+02  0.42071774478E+00  0.13054964679E+03  0.12000000000E+03 0.  0.
<mgrwt>
<rscale>  0 0.34097501E+03</rscale>
<asrwt>0</asrwt>
<pdfrwt beam="1">  1        3 0.12183806E-01 0.34097501E+03</pdfrwt>
<pdfrwt beam="2">  1       -3 0.56464490E-01 0.34097501E+03</pdfrwt>
<totfact> 0.42705850E+02</totfact>
</mgrwt>
</event>
<event>
 4    1  0.1710914E-004  0.2662096E+03  0.7818608E-02  0.1103469E+00
          1   -1    0    0  501    0  0.00000000000E+00  0.00000000000E+00  0.26639823012E+03  0.26639823012E+03  0.00000000000E+00 0.  1.
         -1   -1    0    0    0  501 -0.00000000000E+00 -0.00000000000E+00 -0.66505255875E+02  0.66505255875E+02  0.00000000000E+00 0.  1.
         25    1    1    2    0    0  0.90774294254E+01 -0.35126860174E+01  0.17093157961E+03  0.20907497124E+03  0.12000000000E+03 0.  0.
         25    1    1    2    0    0 -0.90774294254E+01  0.35126860174E+01  0.28961394629E+02  0.12382851476E+03  0.12000000000E+03 0.  0.
<mgrwt>
<rscale>  0 0.26620956E+03</rscale>
<asrwt>0</asrwt>
<pdfrwt beam="1">  1        1 0.40984342E-01 0.26620956E+03</pdfrwt>
<pdfrwt beam="2">  1       -1 0.10231578E-01 0.26620956E+03</pdfrwt>
<totfact> 0.59401786E+03</totfact>
</mgrwt>
</event>
<event>
 4    1  0.1710914E-004  0.3863012E+03  0.7818608E-02  0.1048629E+00
          1   -1    0    0  501    0  0.00000000000E+00  0.00000000000E+00  0.63891062225E+03  0.63891062225E+03  0.00000000000E+00 0. -1.
         -1   -1    0    0    0  501 -0.00000000000E+00 -0.00000000000E+00 -0.58391823520E+02  0.58391823520E+02  0.00000000000E+00 0. -1.
         25    1    1    2    0    0 -0.42846264267E+02 -0.12002726053E+03  0.43762259397E+03  0.47133414939E+03  0.12000000000E+03 0.  0.
         25    1    1    2    0    0  0.42846264267E+02  0.12002726053E+03  0.14289620476E+03  0.22596829637E+03  0.12000000000E+03 0.  0.
<mgrwt>
<rscale>  0 0.38630121E+03</rscale>
<asrwt>0</asrwt>
<pdfrwt beam="1">  1        1 0.98293937E-01 0.38630121E+03</pdfrwt>
<pdfrwt beam="2">  1       -1 0.89833579E-02 0.38630121E+03</pdfrwt>
<totfact> 0.23250056E+03</totfact>
</mgrwt>
</event>
<event>
 4    1  0.1710914E-004  0.3010303E+03  0.7818608E-02  0.1084727E+00
          2   -1    0    0  501    0  0.00000000000E+00  0.00000000000E+00  0.10780745957E+03  0.10780745957E+03  0.00000000000E+00 0. -1.
         -2   -1    0    0    0  501 -0.00000000000E+00 -0.00000000000E+00 -0.21014137099E+03  0.21014137099E+03  0.00000000000E+00 0. -1.
         25    1    1    2    0    0 -0.23544860111E+02  0.98192309409E+01  0.40935020649E+02  0.12933079158E+03  0.12000000000E+03 0.  0.
         25    1    1    2    0    0  0.23544860111E+02 -0.98192309409E+01 -0.14326893206E+03  0.18861803898E+03  0.12000000000E+03 0.  0.
<mgrwt>
<rscale>  0 0.30103028E+03</rscale>
<asrwt>0</asrwt>
<pdfrwt beam="1">  1        2 0.16585763E-01 0.30103028E+03</pdfrwt>
<pdfrwt beam="2">  1       -2 0.32329441E-01 0.30103028E+03</pdfrwt>
<totfact> 0.30778847E+03</totfact>
</mgrwt>
</event>
<event>
 4    1  0.1710914E-004  0.2484316E+03  0.7818608E-02  0.1114300E+00
          2   -1    0    0  501    0  0.00000000000E+00  0.00000000000E+00  0.69023712320E+03  0.69023712320E+03  0.00000000000E+00 0. -1.
         -2   -1    0    0    0  501 -0.00000000000E+00 -0.00000000000E+00 -0.22354013343E+02  0.22354013343E+02  0.00000000000E+00 0. -1.
         25    1    1    2    0    0 -0.23342799987E+02  0.23283978670E+01  0.27114727850E+03  0.29744100993E+03  0.12000000000E+03 0.  0.
         25    1    1    2    0    0  0.23342799987E+02 -0.23283978670E+01  0.39673583135E+03  0.41515012661E+03  0.12000000000E+03 0.  0.
<mgrwt>
<rscale>  0 0.24843164E+03</rscale>
<asrwt>0</asrwt>
<pdfrwt beam="1">  1        2 0.10619031E+00 0.24843164E+03</pdfrwt>
<pdfrwt beam="2">  1       -2 0.34390795E-02 0.24843164E+03</pdfrwt>
<totfact> 0.14578140E+04</totfact>
</mgrwt>
</event>
<event>
 4    1  0.1710914E-004  0.2447967E+03  0.7818608E-02  0.1116638E+00
         -2   -1    0    0    0  501 -0.00000000000E+00  0.00000000000E+00  0.40065692621E+03  0.40065692621E+03  0.00000000000E+00 0. -1.
          2   -1    0    0  501    0  0.00000000000E+00 -0.00000000000E+00 -0.37391988827E+02  0.37391988827E+02  0.00000000000E+00 0. -1.
         25    1    1    2    0    0 -0.84148255378E+01 -0.22008492364E+02  0.17247720214E+03  0.21143218365E+03  0.12000000000E+03 0.  0.
         25    1    1    2    0    0  0.84148255378E+01  0.22008492364E+02  0.19078773524E+03  0.22661673139E+03  0.12000000000E+03 0.  0.
<mgrwt>
<rscale>  0 0.24479673E+03</rscale>
<asrwt>0</asrwt>
<pdfrwt beam="1">  1        2 0.57526139E-02 0.24479673E+03</pdfrwt>
<pdfrwt beam="2">  1       -2 0.61639524E-01 0.24479673E+03</pdfrwt>
<totfact> 0.32334745E+03</totfact>
</mgrwt>
</event>
<event>
 4    1  0.1710914E-004  0.2575563E+03  0.7818608E-02  0.1108620E+00
          2   -1    0    0  501    0  0.00000000000E+00  0.00000000000E+00  0.12816470663E+02  0.12816470663E+02  0.00000000000E+00 0.  1.
         -2   -1    0    0    0  501 -0.00000000000E+00 -0.00000000000E+00 -0.12939455572E+04  0.12939455572E+04  0.00000000000E+00 0.  1.
         25    1    1    2    0    0  0.20860595739E+02  0.24477017399E+01 -0.85236679026E+03  0.86102862951E+03  0.12000000000E+03 0.  0.
         25    1    1    2    0    0 -0.20860595739E+02 -0.24477017399E+01 -0.42876229627E+03  0.44573339835E+03  0.12000000000E+03 0.  0.
<mgrwt>
<rscale>  0 0.25755633E+03</rscale>
<asrwt>0</asrwt>
<pdfrwt beam="1">  1        2 0.19717640E-02 0.25755633E+03</pdfrwt>
<pdfrwt beam="2">  1       -2 0.19906861E+00 0.25755633E+03</pdfrwt>
<totfact> 0.81515269E+02</totfact>
</mgrwt>
</event>
<event>
 4    1  0.1710914E-004  0.4360224E+03  0.7818608E-02  0.1031974E+00
         -2   -1    0    0    0  501 -0.00000000000E+00  0.00000000000E+00  0.24194199829E+03  0.24194199829E+03  0.00000000000E+00 0.  1.
          2   -1    0    0  501    0  0.00000000000E+00 -0.00000000000E+00 -0.19644738806E+03  0.19644738806E+03  0.00000000000E+00 0.  1.
         25    1    1    2    0    0 -0.15479040553E+03 -0.31119546772E+02 -0.68300232476E+02  0.20974607885E+03  0.12000000000E+03 0.  0.
         25    1    1    2    0    0  0.15479040553E+03  0.31119546772E+02  0.11379484271E+03  0.22864330750E+03  0.12000000000E+03 0.  0.
<mgrwt>
<rscale>  0 0.43602236E+03</rscale>
<asrwt>0</asrwt>
<pdfrwt beam="1">  1        2 0.30222675E-01 0.43602236E+03</pdfrwt>
<pdfrwt beam="2">  1       -2 0.37221846E-01 0.43602236E+03</pdfrwt>
<totfact> 0.11981517E+03</totfact>
</mgrwt>
</event>
<event>
 4    1  0.1710914E-004  0.2528635E+03  0.7818608E-02  0.1111508E+00
          2   -1    0    0  501    0  0.00000000000E+00  0.00000000000E+00  0.56893379884E+03  0.56893379884E+03  0.00000000000E+00 0.  1.
         -2   -1    0    0    0  501 -0.00000000000E+00 -0.00000000000E+00 -0.28096403118E+02  0.28096403118E+02  0.00000000000E+00 0.  1.
         25    1    1    2    0    0 -0.50043687207E+01 -0.28957579142E+02  0.33383495876E+03  0.35596258903E+03  0.12000000000E+03 0.  0.
         25    1    1    2    0    0  0.50043687207E+01  0.28957579142E+02  0.20700243696E+03  0.24106761293E+03  0.12000000000E+03 0.  0.
<mgrwt>
<rscale>  0 0.25286355E+03</rscale>
<asrwt>0</asrwt>
<pdfrwt beam="1">  1        2 0.87528268E-01 0.25286355E+03</pdfrwt>
<pdfrwt beam="2">  1       -2 0.43225240E-02 0.25286355E+03</pdfrwt>
<totfact> 0.12988853E+04</totfact>
</mgrwt>
</event>
<event>
 4    1  0.1710914E-004  0.2595761E+03  0.7818608E-02  0.1107398E+00
          2   -1    0    0  501    0  0.00000000000E+00  0.00000000000E+00  0.20049471133E+04  0.20049471133E+04  0.00000000000E+00 0. -1.
         -2   -1    0    0    0  501 -0.00000000000E+00 -0.00000000000E+00 -0.84016880354E+01  0.84016880354E+01  0.00000000000E+00 0. -1.
         25    1    1    2    0    0  0.36831712269E+02  0.45423655696E+01  0.74482671932E+03  0.75534366346E+03  0.12000000000E+03 0.  0.
         25    1    1    2    0    0 -0.36831712269E+02 -0.45423655696E+01  0.12517187059E+04  0.12580051379E+04  0.12000000000E+03 0.  0.
<mgrwt>
<rscale>  0 0.25957612E+03</rscale>
<asrwt>0</asrwt>
<pdfrwt beam="1">  1        2 0.30845302E+00 0.25957612E+03</pdfrwt>
<pdfrwt beam="2">  1       -2 0.12925690E-02 0.25957612E+03</pdfrwt>
<totfact> 0.10820698E+04</totfact>
</mgrwt>
</event>
<event>
 4    1  0.1710914E-004  0.2885908E+03  0.7818608E-02  0.1091087E+00
         -1   -1    0    0    0  501 -0.00000000000E+00  0.00000000000E+00  0.52774524639E+02  0.52774524639E+02  0.00000000000E+00 0.  1.
          1   -1    0    0  501    0  0.00000000000E+00 -0.00000000000E+00 -0.39453067444E+03  0.39453067444E+03  0.00000000000E+00 0.  1.
         25    1    1    2    0    0  0.13311469104E+02  0.57802338959E+02 -0.25438734404E+03  0.28745647741E+03  0.12000000000E+03 0.  0.
         25    1    1    2    0    0 -0.13311469104E+02 -0.57802338959E+02 -0.87368805767E+02  0.15984872167E+03  0.12000000000E+03 0.  0.
<mgrwt>
<rscale>  0 0.28859084E+03</rscale>
<asrwt>0</asrwt>
<pdfrwt beam="1">  1        1 0.60697027E-01 0.28859084E+03</pdfrwt>
<pdfrwt beam="2">  1       -1 0.81191576E-02 0.28859084E+03</pdfrwt>
<totfact> 0.51730371E+03</totfact>
</mgrwt>
</event>
<event>
 4    1  0.1710914E-004  0.3401288E+03  0.7818608E-02  0.1066741E+00
          2   -1    0    0  501    0  0.00000000000E+00  0.00000000000E+00  0.17494783826E+04  0.17494783826E+04  0.00000000000E+00 0.  1.
         -2   -1    0    0    0  501 -0.00000000000E+00 -0.00000000000E+00 -0.16531732090E+02  0.16531732090E+02  0.00000000000E+00 0.  1.
         25    1    1    2    0    0 -0.61529179992E+02 -0.45979610127E+02  0.38435648151E+03  0.40991446597E+03  0.12000000000E+03 0.  0.
         25    1    1    2    0    0  0.61529179992E+02  0.45979610127E+02  0.13485901690E+04  0.13560956487E+04  0.12000000000E+03 0.  0.
<mgrwt>
<rscale>  0 0.34012885E+03</rscale>
<asrwt>0</asrwt>
<pdfrwt beam="1">  1        2 0.26915037E+00 0.34012885E+03</pdfrwt>
<pdfrwt beam="2">  1       -2 0.25433448E-02 0.34012885E+03</pdfrwt>
<totfact> 0.54559832E+03</totfact>
</mgrwt>
</event>
<event>
 4    1  0.1710914E-004  0.2508359E+03  0.7818608E-02  0.1112778E+00
          2   -1    0    0  501    0  0.00000000000E+00  0.00000000000E+00  0.41396356849E+04  0.41396356849E+04  0.00000000000E+00 0.  1.
         -2   -1    0    0    0  501 -0.00000000000E+00 -0.00000000000E+00 -0.37997683242E+01  0.37997683242E+01  0.00000000000E+00 0.  1.
         25    1    1    2    0    0 -0.36314814379E+02 -0.32564459534E+01  0.20590783841E+04  0.20628943652E+04  0.12000000000E+03 0.  0.
         25    1    1    2    0    0  0.36314814379E+02  0.32564459534E+01  0.20767575325E+04  0.20805410881E+04  0.12000000000E+03 0.  0.
<mgrwt>
<rscale>  0 0.25083586E+03</rscale>
<asrwt>0</asrwt>
<pdfrwt beam="1">  1        2 0.63686342E+00 0.25083586E+03</pdfrwt>
<pdfrwt beam="2">  1       -2 0.58458305E-03 0.25083586E+03</pdfrwt>
<totfact> 0.16200303E+03</totfact>
</mgrwt>
</event>
<event>
 4    1  0.1710914E-004  0.2894131E+03  0.7818608E-02  0.1090656E+00
          2   -1    0    0  501    0  0.00000000000E+00  0.00000000000E+00  0.15728126111E+04  0.15728126111E+04  0.00000000000E+00 0.  1.
         -2   -1    0    0    0  501 -0.00000000000E+00 -0.00000000000E+00 -0.13313719565E+02  0.13313719565E+02  0.00000000000E+00 0.  1.
         25    1    1    2    0    0 -0.31153354231E+01  0.70144500262E+02  0.99965517422E+03  0.10092771788E+04  0.12000000000E+03 0.  0.
         25    1    1    2    0    0  0.31153354231E+01 -0.70144500262E+02  0.55984371736E+03  0.57684915194E+03  0.12000000000E+03 0.  0.
<mgrwt>
<rscale>  0 0.28941310E+03</rscale>
<asrwt>0</asrwt>
<pdfrwt beam="1">  1        2 0.24197102E+00 0.28941310E+03</pdfrwt>
<pdfrwt beam="2">  1       -2 0.20482658E-02 0.28941310E+03</pdfrwt>
<totfact> 0.93209189E+03</totfact>
</mgrwt>
</event>
<event>
 4    1  0.1710914E-004  0.2822247E+03  0.7818608E-02  0.1094480E+00
          1   -1    0    0  501    0  0.00000000000E+00  0.00000000000E+00  0.29236957782E+03  0.29236957782E+03  0.00000000000E+00 0.  1.
         -1   -1    0    0    0  501 -0.00000000000E+00 -0.00000000000E+00 -0.68107948714E+02  0.68107948714E+02  0.00000000000E+00 0.  1.
         25    1    1    2    0    0 -0.18201961260E+00 -0.48788829920E+02  0.18361591278E+03  0.22471134035E+03  0.12000000000E+03 0.  0.
         25    1    1    2    0    0  0.18201961260E+00  0.48788829920E+02  0.40645716332E+02  0.13576618619E+03  0.12000000000E+03 0.  0.
<mgrwt>
<rscale>  0 0.28222468E+03</rscale>
<asrwt>0</asrwt>
<pdfrwt beam="1">  1        1 0.44979934E-01 0.28222468E+03</pdfrwt>
<pdfrwt beam="2">  1       -1 0.10478146E-01 0.28222468E+03</pdfrwt>
<totfact> 0.51039429E+03</totfact>
</mgrwt>
</event>
<event>
 4    1  0.1710914E-004  0.2577412E+03  0.7818608E-02  0.1108508E+00
          2   -1    0    0  501    0  0.00000000000E+00  0.00000000000E+00  0.59925706607E+03  0.59925706607E+03  0.00000000000E+00 0. -1.
         -2   -1    0    0    0  501 -0.00000000000E+00 -0.00000000000E+00 -0.27713694954E+02  0.27713694954E+02  0.00000000000E+00 0. -1.
         25    1    1    2    0    0 -0.77273052462E+01 -0.39805102082E+02  0.22802873876E+03  0.26084720259E+03  0.12000000000E+03 0.  0.
         25    1    1    2    0    0  0.77273052462E+01  0.39805102082E+02  0.34351463236E+03  0.36612355844E+03  0.12000000000E+03 0.  0.
<mgrwt>
<rscale>  0 0.25774117E+03</rscale>
<asrwt>0</asrwt>
<pdfrwt beam="1">  1        2 0.92193385E-01 0.25774117E+03</pdfrwt>
<pdfrwt beam="2">  1       -2 0.42636458E-02 0.25774117E+03</pdfrwt>
<totfact> 0.12501138E+04</totfact>
</mgrwt>
</event>
<event>
 4    1  0.1710914E-004  0.2525686E+03  0.7818608E-02  0.1111692E+00
          2   -1    0    0  501    0  0.00000000000E+00  0.00000000000E+00  0.24511198550E+03  0.24511198550E+03  0.00000000000E+00 0. -1.
         -2   -1    0    0    0  501 -0.00000000000E+00 -0.00000000000E+00 -0.65063013227E+02  0.65063013227E+02  0.00000000000E+00 0. -1.
         25    1    1    2    0    0 -0.21529153558E+02  0.93127147660E+01  0.12881114898E+03  0.17760220497E+03  0.12000000000E+03 0.  0.
         25    1    1    2    0    0  0.21529153558E+02 -0.93127147660E+01  0.51237823298E+02  0.13257279376E+03  0.12000000000E+03 0.  0.
<mgrwt>
<rscale>  0 0.25256860E+03</rscale>
<asrwt>0</asrwt>
<pdfrwt beam="1">  1        2 0.37709536E-01 0.25256860E+03</pdfrwt>
<pdfrwt beam="2">  1       -2 0.10009694E-01 0.25256860E+03</pdfrwt>
<totfact> 0.89087039E+03</totfact>
</mgrwt>
</event>
<event>
 4    1  0.1710914E-004  0.2804277E+03  0.7818608E-02  0.1095456E+00
          2   -1    0    0  501    0  0.00000000000E+00  0.00000000000E+00  0.19427294167E+04  0.19427294167E+04  0.00000000000E+00 0.  1.
         -2   -1    0    0    0  501 -0.00000000000E+00 -0.00000000000E+00 -0.10119747068E+02  0.10119747068E+02  0.00000000000E+00 0.  1.
         25    1    1    2    0    0  0.40319498018E+02 -0.30044845867E+02  0.13302654015E+04  0.13366130304E+04  0.12000000000E+03 0.  0.
         25    1    1    2    0    0 -0.40319498018E+02  0.30044845867E+02  0.60234426817E+03  0.61623613338E+03  0.12000000000E+03 0.  0.
<mgrwt>
<rscale>  0 0.28042775E+03</rscale>
<asrwt>0</asrwt>
<pdfrwt beam="1">  1        2 0.29888115E+00 0.28042775E+03</pdfrwt>
<pdfrwt beam="2">  1       -2 0.15568857E-02 0.28042775E+03</pdfrwt>
<totfact> 0.88984432E+03</totfact>
</mgrwt>
</event>
<event>
 4    1  0.1710914E-004  0.2474779E+03  0.7818608E-02  0.1114909E+00
          1   -1    0    0  501    0  0.00000000000E+00  0.00000000000E+00  0.24140091347E+02  0.24140091347E+02  0.00000000000E+00 0. -1.
         -1   -1    0    0    0  501 -0.00000000000E+00 -0.00000000000E+00 -0.63426965347E+03  0.63426965347E+03  0.00000000000E+00 0. -1.
         25    1    1    2    0    0 -0.11314011797E+02  0.27417542612E+02 -0.29010946505E+03  0.31534620692E+03  0.12000000000E+03 0.  0.
         25    1    1    2    0    0  0.11314011797E+02 -0.27417542612E+02 -0.32002009708E+03  0.34306353790E+03  0.12000000000E+03 0.  0.
<mgrwt>
<rscale>  0 0.24747790E+03</rscale>
<asrwt>0</asrwt>
<pdfrwt beam="1">  1        1 0.37138605E-02 0.24747790E+03</pdfrwt>
<pdfrwt beam="2">  1       -1 0.97579939E-01 0.24747790E+03</pdfrwt>
<totfact> 0.26713203E+03</totfact>
</mgrwt>
</event>
<event>
 4    1  0.1710914E-004  0.2507559E+03  0.7818608E-02  0.1112828E+00
         -3   -1    0    0    0  501 -0.00000000000E+00  0.00000000000E+00  0.58764859699E+03  0.58764859699E+03  0.00000000000E+00 0. -1.
          3   -1    0    0  501    0  0.00000000000E+00 -0.00000000000E+00 -0.26750059616E+02  0.26750059616E+02  0.00000000000E+00 0. -1.
         25    1    1    2    0    0 -0.30283566945E+02 -0.18908670360E+01  0.23150897857E+03  0.26252062198E+03  0.12000000000E+03 0.  0.
         25    1    1    2    0    0  0.30283566945E+02  0.18908670360E+01  0.32938955880E+03  0.35187803463E+03  0.12000000000E+03 0.  0.
<mgrwt>
<rscale>  0 0.25075594E+03</rscale>
<asrwt>0</asrwt>
<pdfrwt beam="1">  1        3 0.41153942E-02 0.25075594E+03</pdfrwt>
<pdfrwt beam="2">  1       -3 0.90407467E-01 0.25075594E+03</pdfrwt>
<totfact> 0.88808020E+02</totfact>
</mgrwt>
</event>
<event>
 4    1  0.1710914E-004  0.3573895E+03  0.7818608E-02  0.1059622E+00
          2   -1    0    0  501    0  0.00000000000E+00  0.00000000000E+00  0.22698872004E+03  0.22698872004E+03  0.00000000000E+00 0.  1.
         -2   -1    0    0    0  501 -0.00000000000E+00 -0.00000000000E+00 -0.14067579459E+03  0.14067579459E+03  0.00000000000E+00 0.  1.
         25    1    1    2    0    0 -0.11007134164E+03  0.24002223050E+02 -0.28413879613E+02  0.16703040297E+03  0.12000000000E+03 0.  0.
         25    1    1    2    0    0  0.11007134164E+03 -0.24002223050E+02  0.11472680505E+03  0.20063411166E+03  0.12000000000E+03 0.  0.
<mgrwt>
<rscale>  0 0.35738953E+03</rscale>
<asrwt>0</asrwt>
<pdfrwt beam="1">  1        2 0.34921341E-01 0.35738953E+03</pdfrwt>
<pdfrwt beam="2">  1       -2 0.21642430E-01 0.35738953E+03</pdfrwt>
<totfact> 0.27298198E+03</totfact>
</mgrwt>
</event>
<event>
 4    1  0.1710914E-004  0.2682474E+03  0.7818608E-02  0.1102287E+00
         -2   -1    0    0    0  501 -0.00000000000E+00  0.00000000000E+00  0.65754366960E+02  0.65754366960E+02  0.00000000000E+00 0.  1.
          2   -1    0    0  501    0  0.00000000000E+00 -0.00000000000E+00 -0.27358138475E+03  0.27358138475E+03  0.00000000000E+00 0.  1.
         25    1    1    2    0    0 -0.23365607641E+02 -0.39353811289E+02 -0.55009830332E+02  0.13971669734E+03  0.12000000000E+03 0.  0.
         25    1    1    2    0    0  0.23365607641E+02  0.39353811289E+02 -0.15281718745E+03  0.19961905436E+03  0.12000000000E+03 0.  0.
<mgrwt>
<rscale>  0 0.26824743E+03</rscale>
<asrwt>0</asrwt>
<pdfrwt beam="1">  1        2 0.42089444E-01 0.26824743E+03</pdfrwt>
<pdfrwt beam="2">  1       -2 0.10116056E-01 0.26824743E+03</pdfrwt>
<totfact> 0.78022842E+03</totfact>
</mgrwt>
</event>
<event>
 4    1  0.1710914E-004  0.2766170E+03  0.7818608E-02  0.1097551E+00
          2   -1    0    0  501    0  0.00000000000E+00  0.00000000000E+00  0.96470812620E+03  0.96470812620E+03  0.00000000000E+00 0.  1.
         -2   -1    0    0    0  501 -0.00000000000E+00 -0.00000000000E+00 -0.19829045490E+02  0.19829045490E+02  0.00000000000E+00 0.  1.
         25    1    1    2    0    0  0.87177604153E+01 -0.88859275074E+01  0.71316095624E+03  0.72329351480E+03  0.12000000000E+03 0.  0.
         25    1    1    2    0    0 -0.87177604153E+01  0.88859275074E+01  0.23171812447E+03  0.26124365688E+03  0.12000000000E+03 0.  0.
<mgrwt>
<rscale>  0 0.27661700E+03</rscale>
<asrwt>0</asrwt>
<pdfrwt beam="1">  1        2 0.14841660E+00 0.27661700E+03</pdfrwt>
<pdfrwt beam="2">  1       -2 0.30506231E-02 0.27661700E+03</pdfrwt>
<totfact> 0.11382027E+04</totfact>
</mgrwt>
</event>
<event>
 4    1  0.1710914E-004  0.2557114E+03  0.7818608E-02  0.1109748E+00
         -1   -1    0    0    0  501 -0.00000000000E+00  0.00000000000E+00  0.39978305983E+02  0.39978305983E+02  0.00000000000E+00 0.  1.
          1   -1    0    0  501    0  0.00000000000E+00 -0.00000000000E+00 -0.40889861482E+03  0.40889861482E+03  0.00000000000E+00 0.  1.
         25    1    1    2    0    0 -0.29215527256E+01 -0.29110250118E+02 -0.24244518298E+03  0.27209485273E+03  0.12000000000E+03 0.  0.
         25    1    1    2    0    0  0.29215527256E+01  0.29110250118E+02 -0.12647512586E+03  0.17678206808E+03  0.12000000000E+03 0.  0.
<mgrwt>
<rscale>  0 0.25571135E+03</rscale>
<asrwt>0</asrwt>
<pdfrwt beam="1">  1        1 0.62907479E-01 0.25571135E+03</pdfrwt>
<pdfrwt beam="2">  1       -1 0.61505086E-02 0.25571135E+03</pdfrwt>
<totfact> 0.75033693E+03</totfact>
</mgrwt>
</event>
<event>
 4    1  0.1710914E-004  0.3080251E+03  0.7818608E-02  0.1081296E+00
          1   -1    0    0  501    0  0.00000000000E+00  0.00000000000E+00  0.12854481991E+04  0.12854481991E+04  0.00000000000E+00 0. -1.
         -1   -1    0    0    0  501 -0.00000000000E+00 -0.00000000000E+00 -0.18452602807E+02  0.18452602807E+02  0.00000000000E+00 0. -1.
         25    1    1    2    0    0 -0.52827008947E+02 -0.33706857935E+02  0.32263091322E+03  0.34988219633E+03  0.12000000000E+03 0.  0.
         25    1    1    2    0    0  0.52827008947E+02  0.33706857935E+02  0.94436468311E+03  0.95401860561E+03  0.12000000000E+03 0.  0.
<mgrwt>
<rscale>  0 0.30802510E+03</rscale>
<asrwt>0</asrwt>
<pdfrwt beam="1">  1        1 0.19776119E+00 0.30802510E+03</pdfrwt>
<pdfrwt beam="2">  1       -1 0.28388630E-02 0.30802510E+03</pdfrwt>
<totfact> 0.40951294E+03</totfact>
</mgrwt>
</event>
<event>
 4    1  0.1710914E-004  0.2778747E+03  0.7818608E-02  0.1096855E+00
         -1   -1    0    0    0  501 -0.00000000000E+00  0.00000000000E+00  0.10638172006E+02  0.10638172006E+02  0.00000000000E+00 0.  1.
          1   -1    0    0  501    0  0.00000000000E+00 -0.00000000000E+00 -0.18145583700E+04  0.18145583700E+04  0.00000000000E+00 0.  1.
         25    1    1    2    0    0 -0.30340666853E+02  0.60876345845E+02 -0.79262042901E+03  0.80453317522E+03  0.12000000000E+03 0.  0.
         25    1    1    2    0    0  0.30340666853E+02 -0.60876345845E+02 -0.10112997690E+04  0.10206633668E+04  0.12000000000E+03 0.  0.
<mgrwt>
<rscale>  0 0.27787468E+03</rscale>
<asrwt>0</asrwt>
<pdfrwt beam="1">  1        1 0.27916292E+00 0.27787468E+03</pdfrwt>
<pdfrwt beam="2">  1       -1 0.16366413E-02 0.27787468E+03</pdfrwt>
<totfact> 0.40923119E+03</totfact>
</mgrwt>
</event>
<event>
 4    1  0.1710914E-004  0.4449525E+03  0.7818608E-02  0.1029238E+00
          1   -1    0    0  501    0  0.00000000000E+00  0.00000000000E+00  0.38519796984E+04  0.38519796984E+04  0.00000000000E+00 0. -1.
         -1   -1    0    0    0  501 -0.00000000000E+00 -0.00000000000E+00 -0.12849412473E+02  0.12849412473E+02  0.00000000000E+00 0. -1.
         25    1    1    2    0    0 -0.53884842265E+02 -0.76564746421E+02  0.33289889387E+04  0.33324665175E+04  0.12000000000E+03 0.  0.
         25    1    1    2    0    0  0.53884842265E+02  0.76564746421E+02  0.51014134729E+03  0.53236259339E+03  0.12000000000E+03 0.  0.
<mgrwt>
<rscale>  0 0.44495247E+03</rscale>
<asrwt>0</asrwt>
<pdfrwt beam="1">  1        1 0.59261134E+00 0.44495247E+03</pdfrwt>
<pdfrwt beam="2">  1       -1 0.19768358E-02 0.44495247E+03</pdfrwt>
<totfact> 0.11119231E+02</totfact>
</mgrwt>
</event>
<event>
 4    1  0.1710914E-004  0.2615494E+03  0.7818608E-02  0.1106216E+00
          2   -1    0    0  501    0  0.00000000000E+00  0.00000000000E+00  0.18891134047E+04  0.18891134047E+04  0.00000000000E+00 0. -1.
         -2   -1    0    0    0  501 -0.00000000000E+00 -0.00000000000E+00 -0.90529387513E+01  0.90529387513E+01  0.00000000000E+00 0. -1.
         25    1    1    2    0    0 -0.22121801367E+02 -0.43905691798E+02  0.10625370582E+04  0.10704214515E+04  0.12000000000E+03 0.  0.
         25    1    1    2    0    0  0.22121801367E+02  0.43905691798E+02  0.81752340771E+03  0.82774489187E+03  0.12000000000E+03 0.  0.
<mgrwt>
<rscale>  0 0.26154944E+03</rscale>
<asrwt>0</asrwt>
<pdfrwt beam="1">  1        2 0.29063252E+00 0.26154944E+03</pdfrwt>
<pdfrwt beam="2">  1       -2 0.13927613E-02 0.26154944E+03</pdfrwt>
<totfact> 0.11163022E+04</totfact>
</mgrwt>
</event>
<event>
 4    1  0.1710914E-004  0.3010752E+03  0.7818608E-02  0.1084704E+00
         -4   -1    0    0    0  501 -0.00000000000E+00  0.00000000000E+00  0.50564243957E+03  0.50564243957E+03  0.00000000000E+00 0.  1.
          4   -1    0    0  501    0  0.00000000000E+00 -0.00000000000E+00 -0.44817369158E+02  0.44817369158E+02  0.00000000000E+00 0.  1.
         25    1    1    2    0    0  0.74677102575E+01  0.85556125211E+02  0.28483202402E+03  0.32078793488E+03  0.12000000000E+03 0.  0.
         25    1    1    2    0    0 -0.74677102575E+01 -0.85556125211E+02  0.17599304639E+03  0.22967187384E+03  0.12000000000E+03 0.  0.
<mgrwt>
<rscale>  0 0.30107517E+03</rscale>
<asrwt>0</asrwt>
<pdfrwt beam="1">  1        4 0.68949802E-02 0.30107517E+03</pdfrwt>
<pdfrwt beam="2">  1       -4 0.77791141E-01 0.30107517E+03</pdfrwt>
<totfact> 0.40422926E+02</totfact>
</mgrwt>
</event>
<event>
 4    1  0.1710914E-004  0.2627971E+03  0.7818608E-02  0.1105474E+00
         -1   -1    0    0    0  501 -0.00000000000E+00  0.00000000000E+00  0.42426602044E+02  0.42426602044E+02  0.00000000000E+00 0. -1.
          1   -1    0    0  501    0  0.00000000000E+00 -0.00000000000E+00 -0.40695161655E+03  0.40695161655E+03  0.00000000000E+00 0. -1.
         25    1    1    2    0    0  0.35642900896E+02  0.39847236408E+02 -0.17762481292E+03  0.22092712101E+03  0.12000000000E+03 0.  0.
         25    1    1    2    0    0 -0.35642900896E+02 -0.39847236408E+02 -0.18690020159E+03  0.22845109759E+03  0.12000000000E+03 0.  0.
<mgrwt>
<rscale>  0 0.26279706E+03</rscale>
<asrwt>0</asrwt>
<pdfrwt beam="1">  1        1 0.62607940E-01 0.26279706E+03</pdfrwt>
<pdfrwt beam="2">  1       -1 0.65271696E-02 0.26279706E+03</pdfrwt>
<totfact> 0.69083310E+03</totfact>
</mgrwt>
</event>
<event>
 4    1  0.1710914E-004  0.3708116E+03  0.7818608E-02  0.1054383E+00
         -2   -1    0    0    0  501 -0.00000000000E+00  0.00000000000E+00  0.93502840353E+02  0.93502840353E+02  0.00000000000E+00 0.  1.
          2   -1    0    0  501    0  0.00000000000E+00 -0.00000000000E+00 -0.36763923737E+03  0.36763923737E+03  0.00000000000E+00 0.  1.
         25    1    1    2    0    0 -0.39471177859E+02  0.13570430975E+03 -0.13867978009E+03  0.23152908019E+03  0.12000000000E+03 0.  0.
         25    1    1    2    0    0  0.39471177859E+02 -0.13570430975E+03 -0.13545661692E+03  0.22961299753E+03  0.12000000000E+03 0.  0.
<mgrwt>
<rscale>  0 0.37081161E+03</rscale>
<asrwt>0</asrwt>
<pdfrwt beam="1">  1        2 0.56559884E-01 0.37081161E+03</pdfrwt>
<pdfrwt beam="2">  1       -2 0.14385052E-01 0.37081161E+03</pdfrwt>
<totfact> 0.32298684E+03</totfact>
</mgrwt>
</event>
<event>
 4    1  0.1710914E-004  0.3260496E+03  0.7818608E-02  0.1072898E+00
          3   -1    0    0  501    0  0.00000000000E+00  0.00000000000E+00  0.22453326109E+02  0.22453326109E+02  0.00000000000E+00 0. -1.
         -3   -1    0    0    0  501 -0.00000000000E+00 -0.00000000000E+00 -0.11836592156E+04  0.11836592156E+04  0.00000000000E+00 0. -1.
         25    1    1    2    0    0 -0.95084076906E+02  0.97382815226E+00 -0.78772853336E+03  0.80247004448E+03  0.12000000000E+03 0.  0.
         25    1    1    2    0    0  0.95084076906E+02 -0.97382815226E+00 -0.37347735609E+03  0.40364249719E+03  0.12000000000E+03 0.  0.
<mgrwt>
<rscale>  0 0.32604961E+03</rscale>
<asrwt>0</asrwt>
<pdfrwt beam="1">  1        3 0.34543581E-02 0.32604961E+03</pdfrwt>
<pdfrwt beam="2">  1       -3 0.18210140E+00 0.32604961E+03</pdfrwt>
<totfact> 0.21574558E+02</totfact>
</mgrwt>
</event>
<event>
 4    1  0.1710914E-004  0.3029332E+03  0.7818608E-02  0.1083783E+00
          2   -1    0    0  501    0  0.00000000000E+00  0.00000000000E+00  0.49068089414E+03  0.49068089414E+03  0.00000000000E+00 0. -1.
         -2   -1    0    0    0  501 -0.00000000000E+00 -0.00000000000E+00 -0.46755696427E+02  0.46755696427E+02  0.00000000000E+00 0. -1.
         25    1    1    2    0    0 -0.84827611235E+02 -0.50296168488E+01  0.28644619824E+03  0.32198205720E+03  0.12000000000E+03 0.  0.
         25    1    1    2    0    0  0.84827611235E+02  0.50296168488E+01  0.15747899947E+03  0.21545453337E+03  0.12000000000E+03 0.  0.
<mgrwt>
<rscale>  0 0.30293317E+03</rscale>
<asrwt>0</asrwt>
<pdfrwt beam="1">  1        2 0.75489365E-01 0.30293317E+03</pdfrwt>
<pdfrwt beam="2">  1       -2 0.71931844E-02 0.30293317E+03</pdfrwt>
<totfact> 0.70941438E+03</totfact>
</mgrwt>
</event>
<event>
 4    1  0.1710914E-004  0.2653747E+03  0.7818608E-02  0.1103956E+00
          1   -1    0    0  501    0  0.00000000000E+00  0.00000000000E+00  0.16116295613E+02  0.16116295613E+02  0.00000000000E+00 0.  1.
         -1   -1    0    0    0  501 -0.00000000000E+00 -0.00000000000E+00 -0.10924307495E+04  0.10924307495E+04  0.00000000000E+00 0.  1.
         25    1    1    2    0    0 -0.38945226630E+02  0.40709762293E+02 -0.56175853218E+03  0.57718858608E+03  0.12000000000E+03 0.  0.
         25    1    1    2    0    0  0.38945226630E+02 -0.40709762293E+02 -0.51455592172E+03  0.53135845905E+03  0.12000000000E+03 0.  0.
<mgrwt>
<rscale>  0 0.26537473E+03</rscale>
<asrwt>0</asrwt>
<pdfrwt beam="1">  1        1 0.24794292E-02 0.26537473E+03</pdfrwt>
<pdfrwt beam="2">  1       -1 0.16806633E+00 0.26537473E+03</pdfrwt>
<totfact> 0.12385147E+03</totfact>
</mgrwt>
</event>
<event>
 4    1  0.1710914E-004  0.2906797E+03  0.7818608E-02  0.1089995E+00
         -1   -1    0    0    0  501 -0.00000000000E+00  0.00000000000E+00  0.24032304473E+03  0.24032304473E+03  0.00000000000E+00 0. -1.
          1   -1    0    0  501    0  0.00000000000E+00 -0.00000000000E+00 -0.87896971849E+02  0.87896971849E+02  0.00000000000E+00 0. -1.
         25    1    1    2    0    0  0.69173088653E+02 -0.34941454759E+02  0.45960194507E+02  0.15006052423E+03  0.12000000000E+03 0.  0.
         25    1    1    2    0    0 -0.69173088653E+02  0.34941454759E+02  0.10646587838E+03  0.17815949235E+03  0.12000000000E+03 0.  0.
<mgrwt>
<rscale>  0 0.29067967E+03</rscale>
<asrwt>0</asrwt>
<pdfrwt beam="1">  1        1 0.13522611E-01 0.29067967E+03</pdfrwt>
<pdfrwt beam="2">  1       -1 0.36972776E-01 0.29067967E+03</pdfrwt>
<totfact> 0.30302343E+03</totfact>
</mgrwt>
</event>
<event>
 4    1  0.1710914E-004  0.2679530E+03  0.7818608E-02  0.1102457E+00
          2   -1    0    0  501    0  0.00000000000E+00  0.00000000000E+00  0.13609441428E+04  0.13609441428E+04  0.00000000000E+00 0. -1.
         -2   -1    0    0    0  501 -0.00000000000E+00 -0.00000000000E+00 -0.13189153281E+02  0.13189153281E+02  0.00000000000E+00 0. -1.
         25    1    1    2    0    0 -0.49175004203E+01 -0.12636618352E+02  0.37635715009E+03  0.39525760000E+03  0.12000000000E+03 0.  0.
         25    1    1    2    0    0  0.49175004203E+01  0.12636618352E+02  0.97139783946E+03  0.97887569611E+03  0.12000000000E+03 0.  0.
<mgrwt>
<rscale>  0 0.26795299E+03</rscale>
<asrwt>0</asrwt>
<pdfrwt beam="1">  1        2 0.20937591E+00 0.26795299E+03</pdfrwt>
<pdfrwt beam="2">  1       -2 0.20291016E-02 0.26795299E+03</pdfrwt>
<totfact> 0.12269784E+04</totfact>
</mgrwt>
</event>
<event>
 4    1  0.1710914E-004  0.3710480E+03  0.7818608E-02  0.1054293E+00
          2   -1    0    0  501    0  0.00000000000E+00  0.00000000000E+00  0.78323287063E+02  0.78323287063E+02  0.00000000000E+00 0. -1.
         -2   -1    0    0    0  501 -0.00000000000E+00 -0.00000000000E+00 -0.43944993729E+03  0.43944993729E+03  0.00000000000E+00 0. -1.
         25    1    1    2    0    0 -0.82845362234E+02 -0.64231765348E+02 -0.31316697322E+03  0.35137249015E+03  0.12000000000E+03 0.  0.
         25    1    1    2    0    0  0.82845362234E+02  0.64231765348E+02 -0.47959677013E+02  0.16640073420E+03  0.12000000000E+03 0.  0.
<mgrwt>
<rscale>  0 0.37104805E+03</rscale>
<asrwt>0</asrwt>
<pdfrwt beam="1">  1        2 0.12049736E-01 0.37104805E+03</pdfrwt>
<pdfrwt beam="2">  1       -2 0.67607683E-01 0.37104805E+03</pdfrwt>
<totfact> 0.10513225E+03</totfact>
</mgrwt>
</event>
<event>
 4    1  0.1710914E-004  0.2895052E+03  0.7818608E-02  0.1090608E+00
         -2   -1    0    0    0  501 -0.00000000000E+00  0.00000000000E+00  0.25467508113E+02  0.25467508113E+02  0.00000000000E+00 0. -1.
          2   -1    0    0  501    0  0.00000000000E+00 -0.00000000000E+00 -0.82274702063E+03  0.82274702063E+03  0.00000000000E+00 0. -1.
         25    1    1    2    0    0 -0.51903129770E+02 -0.22807848428E+02 -0.22933487692E+03  0.26496908990E+03  0.12000000000E+03 0.  0.
         25    1    1    2    0    0  0.51903129770E+02  0.22807848428E+02 -0.56794463559E+03  0.58324543884E+03  0.12000000000E+03 0.  0.
<mgrwt>
<rscale>  0 0.28950521E+03</rscale>
<asrwt>0</asrwt>
<pdfrwt beam="1">  1        2 0.12657647E+00 0.28950521E+03</pdfrwt>
<pdfrwt beam="2">  1       -2 0.39180780E-02 0.28950521E+03</pdfrwt>
<totfact> 0.96923199E+03</totfact>
</mgrwt>
</event>
<event>
 4    1  0.1710914E-004  0.2561565E+03  0.7818608E-02  0.1109475E+00
          2   -1    0    0  501    0  0.00000000000E+00  0.00000000000E+00  0.11418607660E+04  0.11418607660E+04  0.00000000000E+00 0. -1.
         -2   -1    0    0    0  501 -0.00000000000E+00 -0.00000000000E+00 -0.14366058702E+02  0.14366058702E+02  0.00000000000E+00 0. -1.
         25    1    1    2    0    0 -0.43827558835E+02  0.67233013217E+01  0.59156506663E+03  0.60523985803E+03  0.12000000000E+03 0.  0.
         25    1    1    2    0    0  0.43827558835E+02 -0.67233013217E+01  0.53592964066E+03  0.55098696667E+03  0.12000000000E+03 0.  0.
<mgrwt>
<rscale>  0 0.25615651E+03</rscale>
<asrwt>0</asrwt>
<pdfrwt beam="1">  1        2 0.17567082E+00 0.25615651E+03</pdfrwt>
<pdfrwt beam="2">  1       -2 0.22101638E-02 0.25615651E+03</pdfrwt>
<totfact> 0.14332296E+04</totfact>
</mgrwt>
</event>
<event>
 4    1  0.1710914E-004  0.2669533E+03  0.7818608E-02  0.1103036E+00
         -2   -1    0    0    0  501 -0.00000000000E+00  0.00000000000E+00  0.19375667403E+03  0.19375667403E+03  0.00000000000E+00 0. -1.
          2   -1    0    0  501    0  0.00000000000E+00 -0.00000000000E+00 -0.91950448751E+02  0.91950448751E+02  0.00000000000E+00 0. -1.
         25    1    1    2    0    0 -0.17523541696E+02 -0.17161672299E+01  0.11054976485E+03  0.16410749602E+03  0.12000000000E+03 0.  0.
         25    1    1    2    0    0  0.17523541696E+02  0.17161672299E+01 -0.87435395670E+01  0.12159962676E+03  0.12000000000E+03 0.  0.
<mgrwt>
<rscale>  0 0.26695328E+03</rscale>
<asrwt>0</asrwt>
<pdfrwt beam="1">  1        2 0.14146223E-01 0.26695328E+03</pdfrwt>
<pdfrwt beam="2">  1       -2 0.29808719E-01 0.26695328E+03</pdfrwt>
<totfact> 0.42948883E+03</totfact>
</mgrwt>
</event>
<event>
 4    1  0.1710914E-004  0.2798501E+03  0.7818608E-02  0.1095771E+00
         -4   -1    0    0    0  501 -0.00000000000E+00  0.00000000000E+00  0.45138871422E+02  0.45138871422E+02  0.00000000000E+00 0. -1.
          4   -1    0    0  501    0  0.00000000000E+00 -0.00000000000E+00 -0.43375072173E+03  0.43375072173E+03  0.00000000000E+00 0. -1.
         25    1    1    2    0    0 -0.46793423544E+02  0.25554094426E+02 -0.27702046540E+03  0.30656642752E+03  0.12000000000E+03 0.  0.
         25    1    1    2    0    0  0.46793423544E+02 -0.25554094426E+02 -0.11159138490E+03  0.17232316563E+03  0.12000000000E+03 0.  0.
<mgrwt>
<rscale>  0 0.27985009E+03</rscale>
<asrwt>0</asrwt>
<pdfrwt beam="1">  1        4 0.66730880E-01 0.27985009E+03</pdfrwt>
<pdfrwt beam="2">  1       -4 0.69444418E-02 0.27985009E+03</pdfrwt>
<totfact> 0.55431542E+02</totfact>
</mgrwt>
</event>
<event>
 4    1  0.1710914E-004  0.2757387E+03  0.7818608E-02  0.1098039E+00
          2   -1    0    0  501    0  0.00000000000E+00  0.00000000000E+00  0.10421481743E+04  0.10421481743E+04  0.00000000000E+00 0. -1.
         -2   -1    0    0    0  501 -0.00000000000E+00 -0.00000000000E+00 -0.18239212205E+02  0.18239212205E+02  0.00000000000E+00 0. -1.
         25    1    1    2    0    0  0.34830370694E+02  0.56166127609E+02  0.45235685609E+03  0.47264628832E+03  0.12000000000E+03 0.  0.
         25    1    1    2    0    0 -0.34830370694E+02 -0.56166127609E+02  0.57155210597E+03  0.58774109815E+03  0.12000000000E+03 0.  0.
<mgrwt>
<rscale>  0 0.27573873E+03</rscale>
<asrwt>0</asrwt>
<pdfrwt beam="1">  1        2 0.16033044E+00 0.27573873E+03</pdfrwt>
<pdfrwt beam="2">  1       -2 0.28060335E-02 0.27573873E+03</pdfrwt>
<totfact> 0.11555030E+04</totfact>
</mgrwt>
</event>
<event>
 4    1  0.1710914E-004  0.2809057E+03  0.7818608E-02  0.1095195E+00
          2   -1    0    0  501    0  0.00000000000E+00  0.00000000000E+00  0.61155538845E+03  0.61155538845E+03  0.00000000000E+00 0. -1.
         -2   -1    0    0    0  501 -0.00000000000E+00 -0.00000000000E+00 -0.32257098340E+02  0.32257098340E+02  0.00000000000E+00 0. -1.
         25    1    1    2    0    0  0.20573029752E+02 -0.69224343282E+02  0.26542161659E+03  0.30010647079E+03  0.12000000000E+03 0.  0.
         25    1    1    2    0    0 -0.20573029752E+02  0.69224343282E+02  0.31387667352E+03  0.34370601600E+03  0.12000000000E+03 0.  0.
<mgrwt>
<rscale>  0 0.28090569E+03</rscale>
<asrwt>0</asrwt>
<pdfrwt beam="1">  1        2 0.94085436E-01 0.28090569E+03</pdfrwt>
<pdfrwt beam="2">  1       -2 0.49626310E-02 0.28090569E+03</pdfrwt>
<totfact> 0.97365897E+03</totfact>
</mgrwt>
</event>
<event>
 4    1  0.1710914E-004  0.2536356E+03  0.7818608E-02  0.1111029E+00
          2   -1    0    0  501    0  0.00000000000E+00  0.00000000000E+00  0.21270588915E+03  0.21270588915E+03  0.00000000000E+00 0.  1.
         -2   -1    0    0    0  501 -0.00000000000E+00 -0.00000000000E+00 -0.75610284282E+02  0.75610284282E+02  0.00000000000E+00 0.  1.
         25    1    1    2    0    0 -0.49015004778E+01  0.26780803014E+02  0.10342750836E+03  0.16074353985E+03  0.12000000000E+03 0.  0.
         25    1    1    2    0    0  0.49015004778E+01 -0.26780803014E+02  0.33668096503E+02  0.12757263358E+03  0.12000000000E+03 0.  0.
<mgrwt>
<rscale>  0 0.25363559E+03</rscale>
<asrwt>0</asrwt>
<pdfrwt beam="1">  1        2 0.32723983E-01 0.25363559E+03</pdfrwt>
<pdfrwt beam="2">  1       -2 0.11632352E-01 0.25363559E+03</pdfrwt>
<totfact> 0.81738748E+03</totfact>
</mgrwt>
</event>
<event>
 4    1  0.1710914E-004  0.2584119E+03  0.7818608E-02  0.1108101E+00
         -2   -1    0    0    0  501 -0.00000000000E+00  0.00000000000E+00  0.98269564942E+02  0.98269564942E+02  0.00000000000E+00 0. -1.
          2   -1    0    0  501    0  0.00000000000E+00 -0.00000000000E+00 -0.16988149736E+03  0.16988149736E+03  0.00000000000E+00 0. -1.
         25    1    1    2    0    0  0.22945819073E+02 -0.17279313831E+02 -0.75579299474E+02  0.14469732481E+03  0.12000000000E+03 0.  0.
         25    1    1    2    0    0 -0.22945819073E+02  0.17279313831E+02  0.39673670518E+01  0.12345373749E+03  0.12000000000E+03 0.  0.
<mgrwt>
<rscale>  0 0.25841193E+03</rscale>
<asrwt>0</asrwt>
<pdfrwt beam="1">  1        2 0.26135615E-01 0.25841193E+03</pdfrwt>
<pdfrwt beam="2">  1       -2 0.15118395E-01 0.25841193E+03</pdfrwt>
<totfact> 0.68325899E+03</totfact>
</mgrwt>
</event>
<event>
 4    1  0.1710914E-004  0.3512323E+03  0.7818608E-02  0.1062110E+00
          2   -1    0    0  501    0  0.00000000000E+00  0.00000000000E+00  0.48036706470E+03  0.48036706470E+03  0.00000000000E+00 0.  1.
         -2   -1    0    0    0  501 -0.00000000000E+00 -0.00000000000E+00 -0.64203057594E+02  0.64203057594E+02  0.00000000000E+00 0.  1.
         25    1    1    2    0    0 -0.42345044677E+02 -0.10652389202E+03  0.29715688741E+03  0.34035666309E+03  0.12000000000E+03 0.  0.
         25    1    1    2    0    0  0.42345044677E+02  0.10652389202E+03  0.11900711970E+03  0.20421345920E+03  0.12000000000E+03 0.  0.
<mgrwt>
<rscale>  0 0.35123231E+03</rscale>
<asrwt>0</asrwt>
<pdfrwt beam="1">  1        2 0.73902623E-01 0.35123231E+03</pdfrwt>
<pdfrwt beam="2">  1       -2 0.98773938E-02 0.35123231E+03</pdfrwt>
<totfact> 0.44246858E+03</totfact>
</mgrwt>
</event>
<event>
 4    1  0.1710914E-004  0.2523289E+03  0.7818608E-02  0.1111842E+00
         -1   -1    0    0    0  501 -0.00000000000E+00  0.00000000000E+00  0.89469509381E+01  0.89469509381E+01  0.00000000000E+00 0. -1.
          1   -1    0    0  501    0  0.00000000000E+00 -0.00000000000E+00 -0.17790945958E+04  0.17790945958E+04  0.00000000000E+00 0. -1.
         25    1    1    2    0    0 -0.32093660962E+02  0.43751213114E+01 -0.10384243592E+04  0.10458366481E+04  0.12000000000E+03 0.  0.
         25    1    1    2    0    0  0.32093660962E+02 -0.43751213114E+01 -0.73172328566E+03  0.74220489862E+03  0.12000000000E+03 0.  0.
<mgrwt>
<rscale>  0 0.25232893E+03</rscale>
<asrwt>0</asrwt>
<pdfrwt beam="1">  1        1 0.27370694E+00 0.25232893E+03</pdfrwt>
<pdfrwt beam="2">  1       -1 0.13764536E-02 0.25232893E+03</pdfrwt>
<totfact> 0.55480765E+03</totfact>
</mgrwt>
</event>
<event>
 4    1  0.1710914E-004  0.4370318E+03  0.7818608E-02  0.1031661E+00
         -1   -1    0    0    0  501 -0.00000000000E+00  0.00000000000E+00  0.12765386921E+03  0.12765386921E+03  0.00000000000E+00 0. -1.
          1   -1    0    0  501    0  0.00000000000E+00 -0.00000000000E+00 -0.37405203490E+03  0.37405203490E+03  0.00000000000E+00 0. -1.
         25    1    1    2    0    0 -0.25955983698E+02 -0.15064177078E+03 -0.23789728188E+03  0.30718361434E+03  0.12000000000E+03 0.  0.
         25    1    1    2    0    0  0.25955983698E+02  0.15064177078E+03 -0.85008838089E+01  0.19452228977E+03  0.12000000000E+03 0.  0.
<mgrwt>
<rscale>  0 0.43703176E+03</rscale>
<asrwt>0</asrwt>
<pdfrwt beam="1">  1        1 0.57546467E-01 0.43703176E+03</pdfrwt>
<pdfrwt beam="2">  1       -1 0.19639057E-01 0.43703176E+03</pdfrwt>
<totfact> 0.13788231E+03</totfact>
</mgrwt>
</event>
<event>
 4    1  0.1710914E-004  0.2919140E+03  0.7818608E-02  0.1089354E+00
          2   -1    0    0  501    0  0.00000000000E+00  0.00000000000E+00  0.15759044711E+04  0.15759044711E+04  0.00000000000E+00 0. -1.
         -2   -1    0    0    0  501 -0.00000000000E+00 -0.00000000000E+00 -0.13518235206E+02  0.13518235206E+02  0.00000000000E+00 0. -1.
         25    1    1    2    0    0 -0.51708827416E+02  0.59863229624E+02  0.64280029247E+03  0.65867262361E+03  0.12000000000E+03 0.  0.
         25    1    1    2    0    0  0.51708827416E+02 -0.59863229624E+02  0.91958594338E+03  0.93075008265E+03  0.12000000000E+03 0.  0.
<mgrwt>
<rscale>  0 0.29191401E+03</rscale>
<asrwt>0</asrwt>
<pdfrwt beam="1">  1        2 0.24244670E+00 0.29191401E+03</pdfrwt>
<pdfrwt beam="2">  1       -2 0.20797297E-02 0.29191401E+03</pdfrwt>
<totfact> 0.90803754E+03</totfact>
</mgrwt>
</event>
<event>
 4    1  0.1710914E-004  0.4750129E+03  0.7818608E-02  0.1020515E+00
          2   -1    0    0  501    0  0.00000000000E+00  0.00000000000E+00  0.89465287619E+03  0.89465287619E+03  0.00000000000E+00 0.  1.
         -2   -1    0    0    0  501 -0.00000000000E+00 -0.00000000000E+00 -0.63051625486E+02  0.63051625486E+02  0.00000000000E+00 0.  1.
         25    1    1    2    0    0  0.16985012402E+03 -0.10738383080E+02  0.18552542914E+03  0.27889794255E+03  0.12000000000E+03 0.  0.
         25    1    1    2    0    0 -0.16985012402E+03  0.10738383080E+02  0.64607582157E+03  0.67880655913E+03  0.12000000000E+03 0.  0.
<mgrwt>
<rscale>  0 0.47501292E+03</rscale>
<asrwt>0</asrwt>
<pdfrwt beam="1">  1        2 0.13763889E+00 0.47501292E+03</pdfrwt>
<pdfrwt beam="2">  1       -2 0.97002507E-02 0.47501292E+03</pdfrwt>
<totfact> 0.21383685E+03</totfact>
</mgrwt>
</event>
<event>
 4    1  0.1710914E-004  0.2573728E+03  0.7818608E-02  0.1108732E+00
         -1   -1    0    0    0  501 -0.00000000000E+00  0.00000000000E+00  0.37829734634E+03  0.37829734634E+03  0.00000000000E+00 0.  1.
          1   -1    0    0  501    0  0.00000000000E+00 -0.00000000000E+00 -0.43775576273E+02  0.43775576273E+02  0.00000000000E+00 0.  1.
         25    1    1    2    0    0 -0.84057734718E+00 -0.46062022813E+02  0.15718261741E+03  0.20304874226E+03  0.12000000000E+03 0.  0.
         25    1    1    2    0    0  0.84057734718E+00  0.46062022813E+02  0.17733915266E+03  0.21902418036E+03  0.12000000000E+03 0.  0.
<mgrwt>
<rscale>  0 0.25737276E+03</rscale>
<asrwt>0</asrwt>
<pdfrwt beam="1">  1        1 0.67347043E-02 0.25737276E+03</pdfrwt>
<pdfrwt beam="2">  1       -1 0.58199589E-01 0.25737276E+03</pdfrwt>
<totfact> 0.33739718E+03</totfact>
</mgrwt>
</event>
<event>
 4    1  0.1710914E-004  0.3385198E+03  0.7818608E-02  0.1067428E+00
         -2   -1    0    0    0  501 -0.00000000000E+00  0.00000000000E+00  0.64010642454E+02  0.64010642454E+02  0.00000000000E+00 0. -1.
          2   -1    0    0  501    0  0.00000000000E+00 -0.00000000000E+00 -0.44756497449E+03  0.44756497449E+03  0.00000000000E+00 0. -1.
         25    1    1    2    0    0 -0.21778005908E+02 -0.46219506512E+02 -0.28745378632E+02  0.13355456232E+03  0.12000000000E+03 0.  0.
         25    1    1    2    0    0  0.21778005908E+02  0.46219506512E+02 -0.35480895340E+03  0.37802105462E+03  0.12000000000E+03 0.  0.
<mgrwt>
<rscale>  0 0.33851985E+03</rscale>
<asrwt>0</asrwt>
<pdfrwt beam="1">  1        2 0.68856149E-01 0.33851985E+03</pdfrwt>
<pdfrwt beam="2">  1       -2 0.98477913E-02 0.33851985E+03</pdfrwt>
<totfact> 0.48071678E+03</totfact>
</mgrwt>
</event>
<event>
 4    1  0.1710914E-004  0.3307149E+03  0.7818608E-02  0.1070821E+00
          3   -1    0    0  501    0  0.00000000000E+00  0.00000000000E+00  0.48233983209E+02  0.48233983209E+02  0.00000000000E+00 0. -1.
         -3   -1    0    0    0  501 -0.00000000000E+00 -0.00000000000E+00 -0.56688413496E+03  0.56688413496E+03  0.00000000000E+00 0. -1.
         25    1    1    2    0    0 -0.87816923088E+02 -0.55035077949E+02 -0.34661290695E+03  0.38115768266E+03  0.12000000000E+03 0.  0.
         25    1    1    2    0    0  0.87816923088E+02  0.55035077949E+02 -0.17203724480E+03  0.23396043551E+03  0.12000000000E+03 0.  0.
<mgrwt>
<rscale>  0 0.33071486E+03</rscale>
<asrwt>0</asrwt>
<pdfrwt beam="1">  1        3 0.74206125E-02 0.33071486E+03</pdfrwt>
<pdfrwt beam="2">  1       -3 0.87212948E-01 0.33071486E+03</pdfrwt>
<totfact> 0.38278490E+02</totfact>
</mgrwt>
</event>
<event>
 4    1  0.1710914E-004  0.3770077E+03  0.7818608E-02  0.1052045E+00
         -2   -1    0    0    0  501 -0.00000000000E+00  0.00000000000E+00  0.34930440448E+03  0.34930440448E+03  0.00000000000E+00 0. -1.
          2   -1    0    0  501    0  0.00000000000E+00 -0.00000000000E+00 -0.10172704785E+03  0.10172704785E+03  0.00000000000E+00 0. -1.
         25    1    1    2    0    0  0.60171934695E+02  0.10253457714E+03  0.22388000326E+03  0.28045722864E+03  0.12000000000E+03 0.  0.
         25    1    1    2    0    0 -0.60171934695E+02 -0.10253457714E+03  0.23697353371E+02  0.17057422370E+03  0.12000000000E+03 0.  0.
<mgrwt>
<rscale>  0 0.37700772E+03</rscale>
<asrwt>0</asrwt>
<pdfrwt beam="1">  1        2 0.15650315E-01 0.37700772E+03</pdfrwt>
<pdfrwt beam="2">  1       -2 0.53739139E-01 0.37700772E+03</pdfrwt>
<totfact> 0.12375579E+03</totfact>
</mgrwt>
</event>
<event>
 4    1  0.1710914E-004  0.3688548E+03  0.7818608E-02  0.1055132E+00
         -2   -1    0    0    0  501 -0.00000000000E+00  0.00000000000E+00  0.30550727986E+03  0.30550727986E+03  0.00000000000E+00 0.  1.
          2   -1    0    0  501    0  0.00000000000E+00 -0.00000000000E+00 -0.11133441605E+03  0.11133441605E+03  0.00000000000E+00 0.  1.
         25    1    1    2    0    0 -0.50072561692E+02  0.19756166266E+01  0.24487575074E+03  0.27726394969E+03  0.12000000000E+03 0.  0.
         25    1    1    2    0    0  0.50072561692E+02 -0.19756166266E+01 -0.50702886934E+02  0.13957774622E+03  0.12000000000E+03 0.  0.
<mgrwt>
<rscale>  0 0.36885485E+03</rscale>
<asrwt>0</asrwt>
<pdfrwt beam="1">  1        2 0.17128372E-01 0.36885485E+03</pdfrwt>
<pdfrwt beam="2">  1       -2 0.47001120E-01 0.36885485E+03</pdfrwt>
<totfact> 0.14554865E+03</totfact>
</mgrwt>
</event>
<event>
 4    1  0.1710914E-004  0.2789262E+03  0.7818608E-02  0.1096277E+00
         -2   -1    0    0    0  501 -0.00000000000E+00  0.00000000000E+00  0.59879086305E+02  0.59879086305E+02  0.00000000000E+00 0.  1.
          2   -1    0    0  501    0  0.00000000000E+00 -0.00000000000E+00 -0.32482046818E+03  0.32482046818E+03  0.00000000000E+00 0.  1.
         25    1    1    2    0    0 -0.46968902020E+02  0.27055262008E+02 -0.19585296852E+03  0.23600095389E+03  0.12000000000E+03 0.  0.
         25    1    1    2    0    0  0.46968902020E+02 -0.27055262008E+02 -0.69088413359E+02  0.14869860060E+03  0.12000000000E+03 0.  0.
<mgrwt>
<rscale>  0 0.27892618E+03</rscale>
<asrwt>0</asrwt>
<pdfrwt beam="1">  1        2 0.49972381E-01 0.27892618E+03</pdfrwt>
<pdfrwt beam="2">  1       -2 0.92121669E-02 0.27892618E+03</pdfrwt>
<totfact> 0.75354275E+03</totfact>
</mgrwt>
</event>
<event>
 4    1  0.1710914E-004  0.2694583E+03  0.7818608E-02  0.1101590E+00
         -1   -1    0    0    0  501 -0.00000000000E+00  0.00000000000E+00  0.16300081249E+03  0.16300081249E+03  0.00000000000E+00 0. -1.
          1   -1    0    0  501    0  0.00000000000E+00 -0.00000000000E+00 -0.11136108199E+03  0.11136108199E+03  0.00000000000E+00 0. -1.
         25    1    1    2    0    0  0.34272860535E+02  0.36115676321E+01 -0.25740317114E+02  0.12747641474E+03  0.12000000000E+03 0.  0.
         25    1    1    2    0    0 -0.34272860535E+02 -0.36115676321E+01  0.77380047619E+02  0.14688547974E+03  0.12000000000E+03 0.  0.
<mgrwt>
<rscale>  0 0.26945832E+03</rscale>
<asrwt>0</asrwt>
<pdfrwt beam="1">  1        1 0.17132474E-01 0.26945832E+03</pdfrwt>
<pdfrwt beam="2">  1       -1 0.25077048E-01 0.26945832E+03</pdfrwt>
<totfact> 0.43004944E+03</totfact>
</mgrwt>
</event>
<event>
 4    1  0.1710914E-004  0.3034981E+03  0.7818608E-02  0.1083505E+00
         -2   -1    0    0    0  501 -0.00000000000E+00  0.00000000000E+00  0.13080101868E+02  0.13080101868E+02  0.00000000000E+00 0. -1.
          2   -1    0    0  501    0  0.00000000000E+00 -0.00000000000E+00 -0.17605191134E+04  0.17605191134E+04  0.00000000000E+00 0. -1.
         25    1    1    2    0    0  0.87551735396E+02 -0.30979771281E+02 -0.88335167077E+03  0.89628970030E+03  0.12000000000E+03 0.  0.
         25    1    1    2    0    0 -0.87551735396E+02  0.30979771281E+02 -0.86408734074E+03  0.87730951496E+03  0.12000000000E+03 0.  0.
<mgrwt>
<rscale>  0 0.30349807E+03</rscale>
<asrwt>0</asrwt>
<pdfrwt beam="1">  1        2 0.27084905E+00 0.30349807E+03</pdfrwt>
<pdfrwt beam="2">  1       -2 0.20123237E-02 0.30349807E+03</pdfrwt>
<totfact> 0.76149874E+03</totfact>
</mgrwt>
</event>
<event>
 4    1  0.1710914E-004  0.3782513E+03  0.7818608E-02  0.1051582E+00
          2   -1    0    0  501    0  0.00000000000E+00  0.00000000000E+00  0.64698164931E+03  0.64698164931E+03  0.00000000000E+00 0. -1.
         -2   -1    0    0    0  501 -0.00000000000E+00 -0.00000000000E+00 -0.55285202097E+02  0.55285202097E+02  0.00000000000E+00 0. -1.
         25    1    1    2    0    0  0.12355626236E+03 -0.64509703600E+02  0.37764172126E+03  0.42004871320E+03  0.12000000000E+03 0.  0.
         25    1    1    2    0    0 -0.12355626236E+03  0.64509703600E+02  0.21405472595E+03  0.28221813820E+03  0.12000000000E+03 0.  0.
<mgrwt>
<rscale>  0 0.37825130E+03</rscale>
<asrwt>0</asrwt>
<pdfrwt beam="1">  1        2 0.99535633E-01 0.37825130E+03</pdfrwt>
<pdfrwt beam="2">  1       -2 0.85054162E-02 0.37825130E+03</pdfrwt>
<totfact> 0.39817834E+03</totfact>
</mgrwt>
</event>
<event>
 4    1  0.1710914E-004  0.2567804E+03  0.7818608E-02  0.1109093E+00
         -2   -1    0    0    0  501 -0.00000000000E+00  0.00000000000E+00  0.68144812592E+01  0.68144812592E+01  0.00000000000E+00 0.  1.
          2   -1    0    0  501    0  0.00000000000E+00 -0.00000000000E+00 -0.24189721806E+04  0.24189721806E+04  0.00000000000E+00 0.  1.
         25    1    1    2    0    0  0.22397464229E+02  0.22561172210E+02 -0.89657284662E+03  0.90512624655E+03  0.12000000000E+03 0.  0.
         25    1    1    2    0    0 -0.22397464229E+02 -0.22561172210E+02 -0.15155848527E+04  0.15206604153E+04  0.12000000000E+03 0.  0.
<mgrwt>
<rscale>  0 0.25678038E+03</rscale>
<asrwt>0</asrwt>
<pdfrwt beam="1">  1        2 0.37214979E+00 0.25678038E+03</pdfrwt>
<pdfrwt beam="2">  1       -2 0.10483811E-02 0.25678038E+03</pdfrwt>
<totfact> 0.88349514E+03</totfact>
</mgrwt>
</event>
<event>
 4    1  0.1710914E-004  0.3322990E+03  0.7818608E-02  0.1070124E+00
         -1   -1    0    0    0  501 -0.00000000000E+00  0.00000000000E+00  0.51305726195E+02  0.51305726195E+02  0.00000000000E+00 0.  1.
          1   -1    0    0  501    0  0.00000000000E+00 -0.00000000000E+00 -0.53806200347E+03  0.53806200347E+03  0.00000000000E+00 0.  1.
         25    1    1    2    0    0 -0.75526826607E+02 -0.39777920960E+02 -0.37983151333E+03  0.40738012108E+03  0.12000000000E+03 0.  0.
         25    1    1    2    0    0  0.75526826607E+02  0.39777920960E+02 -0.10692476394E+03  0.18198760858E+03  0.12000000000E+03 0.  0.
<mgrwt>
<rscale>  0 0.33229903E+03</rscale>
<asrwt>0</asrwt>
<pdfrwt beam="1">  1        1 0.82778769E-01 0.33229903E+03</pdfrwt>
<pdfrwt beam="2">  1       -1 0.78931887E-02 0.33229903E+03</pdfrwt>
<totfact> 0.36012357E+03</totfact>
</mgrwt>
</event>
<event>
 4    1  0.1710914E-004  0.2960523E+03  0.7818608E-02  0.1087231E+00
         -2   -1    0    0    0  501 -0.00000000000E+00  0.00000000000E+00  0.21415383030E+02  0.21415383030E+02  0.00000000000E+00 0.  1.
          2   -1    0    0  501    0  0.00000000000E+00 -0.00000000000E+00 -0.10231778370E+04  0.10231778370E+04  0.00000000000E+00 0.  1.
         25    1    1    2    0    0 -0.65230079612E+02  0.56576966662E+02 -0.47451742492E+03  0.49701378552E+03  0.12000000000E+03 0.  0.
         25    1    1    2    0    0  0.65230079612E+02 -0.56576966662E+02 -0.52724502909E+03  0.54757943455E+03  0.12000000000E+03 0.  0.
<mgrwt>
<rscale>  0 0.29605233E+03</rscale>
<asrwt>0</asrwt>
<pdfrwt beam="1">  1        2 0.15741192E+00 0.29605233E+03</pdfrwt>
<pdfrwt beam="2">  1       -2 0.32946754E-02 0.29605233E+03</pdfrwt>
<totfact> 0.93574713E+03</totfact>
</mgrwt>
</event>
<event>
 4    1  0.1710914E-004  0.2704896E+03  0.7818608E-02  0.1101000E+00
          1   -1    0    0  501    0  0.00000000000E+00  0.00000000000E+00  0.49488737186E+03  0.49488737186E+03  0.00000000000E+00 0. -1.
         -1   -1    0    0    0  501 -0.00000000000E+00 -0.00000000000E+00 -0.36960232571E+02  0.36960232571E+02  0.00000000000E+00 0. -1.
         25    1    1    2    0    0 -0.48743203817E+02 -0.37549146457E+02  0.20878549058E+03  0.24855023515E+03  0.12000000000E+03 0.  0.
         25    1    1    2    0    0  0.48743203817E+02  0.37549146457E+02  0.24914164871E+03  0.28329736928E+03  0.12000000000E+03 0.  0.
<mgrwt>
<rscale>  0 0.27048957E+03</rscale>
<asrwt>0</asrwt>
<pdfrwt beam="1">  1        1 0.76136514E-01 0.27048957E+03</pdfrwt>
<pdfrwt beam="2">  1       -1 0.56861900E-02 0.27048957E+03</pdfrwt>
<totfact> 0.65986977E+03</totfact>
</mgrwt>
</event>
<event>
 4    1  0.1710914E-004  0.3081743E+03  0.7818608E-02  0.1081224E+00
         -1   -1    0    0    0  501 -0.00000000000E+00  0.00000000000E+00  0.40330536826E+02  0.40330536826E+02  0.00000000000E+00 0. -1.
          1   -1    0    0  501    0  0.00000000000E+00 -0.00000000000E+00 -0.58870657076E+03  0.58870657076E+03  0.00000000000E+00 0. -1.
         25    1    1    2    0    0  0.86702309648E+02 -0.10268199196E+02 -0.35884443897E+03  0.38831953053E+03  0.12000000000E+03 0.  0.
         25    1    1    2    0    0 -0.86702309648E+02  0.10268199196E+02 -0.18953159497E+03  0.24071757706E+03  0.12000000000E+03 0.  0.
<mgrwt>
<rscale>  0 0.30817431E+03</rscale>
<asrwt>0</asrwt>
<pdfrwt beam="1">  1        1 0.90570237E-01 0.30817431E+03</pdfrwt>
<pdfrwt beam="2">  1       -1 0.62046983E-02 0.30817431E+03</pdfrwt>
<totfact> 0.45874156E+03</totfact>
</mgrwt>
</event>
<event>
 4    1  0.1710914E-004  0.2739107E+03  0.7818608E-02  0.1099062E+00
         -1   -1    0    0    0  501 -0.00000000000E+00  0.00000000000E+00  0.17607879978E+02  0.17607879978E+02  0.00000000000E+00 0. -1.
          1   -1    0    0  501    0  0.00000000000E+00 -0.00000000000E+00 -0.10652487470E+04  0.10652487470E+04  0.00000000000E+00 0. -1.
         25    1    1    2    0    0 -0.38348276814E+02  0.27467269010E+02 -0.70634784745E+03  0.71801972313E+03  0.12000000000E+03 0.  0.
         25    1    1    2    0    0  0.38348276814E+02 -0.27467269010E+02 -0.34129301955E+03  0.36483690382E+03  0.12000000000E+03 0.  0.
<mgrwt>
<rscale>  0 0.27391073E+03</rscale>
<asrwt>0</asrwt>
<pdfrwt beam="1">  1        1 0.16388444E+00 0.27391073E+03</pdfrwt>
<pdfrwt beam="2">  1       -1 0.27089043E-02 0.27391073E+03</pdfrwt>
<totfact> 0.62705073E+03</totfact>
</mgrwt>
</event>
<event>
 4    1  0.1710914E-004  0.4079945E+03  0.7818608E-02  0.1041046E+00
         -2   -1    0    0    0  501 -0.00000000000E+00  0.00000000000E+00  0.23094152126E+02  0.23094152126E+02  0.00000000000E+00 0. -1.
          2   -1    0    0  501    0  0.00000000000E+00 -0.00000000000E+00 -0.18019658770E+04  0.18019658770E+04  0.00000000000E+00 0. -1.
         25    1    1    2    0    0 -0.10330135453E+03  0.82321923032E+02 -0.44735763214E+03  0.48163982383E+03  0.12000000000E+03 0.  0.
         25    1    1    2    0    0  0.10330135453E+03 -0.82321923032E+02 -0.13315140927E+04  0.13434202053E+04  0.12000000000E+03 0.  0.
<mgrwt>
<rscale>  0 0.40799448E+03</rscale>
<asrwt>0</asrwt>
<pdfrwt beam="1">  1        2 0.27722546E+00 0.40799448E+03</pdfrwt>
<pdfrwt beam="2">  1       -2 0.35529472E-02 0.40799448E+03</pdfrwt>
<totfact> 0.30932939E+03</totfact>
</mgrwt>
</event>
<event>
 4    1  0.1710914E-004  0.3482871E+03  0.7818608E-02  0.1063320E+00
          1   -1    0    0  501    0  0.00000000000E+00  0.00000000000E+00  0.87900706442E+02  0.87900706442E+02  0.00000000000E+00 0.  1.
         -1   -1    0    0    0  501 -0.00000000000E+00 -0.00000000000E+00 -0.34500262336E+03  0.34500262336E+03  0.00000000000E+00 0.  1.
         25    1    1    2    0    0  0.75984065207E+01 -0.38208299817E+02 -0.27774823325E+03  0.30506014330E+03  0.12000000000E+03 0.  0.
         25    1    1    2    0    0 -0.75984065207E+01  0.38208299817E+02  0.20646316334E+02  0.12784318650E+03  0.12000000000E+03 0.  0.
<mgrwt>
<rscale>  0 0.34828709E+03</rscale>
<asrwt>0</asrwt>
<pdfrwt beam="1">  1        1 0.13523186E-01 0.34828709E+03</pdfrwt>
<pdfrwt beam="2">  1       -1 0.53077326E-01 0.34828709E+03</pdfrwt>
<totfact> 0.15762512E+03</totfact>
</mgrwt>
</event>
<event>
 4    1  0.1710914E-004  0.2415186E+03  0.7818608E-02  0.1118785E+00
         -1   -1    0    0    0  501 -0.00000000000E+00  0.00000000000E+00  0.62810416738E+01  0.62810416738E+01  0.00000000000E+00 0.  1.
          1   -1    0    0  501    0  0.00000000000E+00 -0.00000000000E+00 -0.23217185243E+04  0.23217185243E+04  0.00000000000E+00 0.  1.
         25    1    1    2    0    0 -0.38318240827E+01  0.12822624401E+02 -0.11762803590E+04  0.11824612407E+04  0.12000000000E+03 0.  0.
         25    1    1    2    0    0  0.38318240827E+01 -0.12822624401E+02 -0.11391571236E+04  0.11455383253E+04  0.12000000000E+03 0.  0.
<mgrwt>
<rscale>  0 0.24151862E+03</rscale>
<asrwt>0</asrwt>
<pdfrwt beam="1">  1        1 0.35718760E+00 0.24151862E+03</pdfrwt>
<pdfrwt beam="2">  1       -1 0.96631374E-03 0.24151862E+03</pdfrwt>
<totfact> 0.41115064E+03</totfact>
</mgrwt>
</event>
<event>
 4    1  0.1710914E-004  0.2834646E+03  0.7818608E-02  0.1093812E+00
          1   -1    0    0  501    0  0.00000000000E+00  0.00000000000E+00  0.12327421803E+03  0.12327421803E+03  0.00000000000E+00 0. -1.
         -1   -1    0    0    0  501 -0.00000000000E+00 -0.00000000000E+00 -0.16295410613E+03  0.16295410613E+03  0.00000000000E+00 0. -1.
         25    1    1    2    0    0 -0.11711675295E+02 -0.47276435147E+02 -0.77984492037E+02  0.15117475205E+03  0.12000000000E+03 0.  0.
         25    1    1    2    0    0  0.11711675295E+02  0.47276435147E+02  0.38304603929E+02  0.13505357211E+03  0.12000000000E+03 0.  0.
<mgrwt>
<rscale>  0 0.28346457E+03</rscale>
<asrwt>0</asrwt>
<pdfrwt beam="1">  1        1 0.18965264E-01 0.28346457E+03</pdfrwt>
<pdfrwt beam="2">  1       -1 0.25069862E-01 0.28346457E+03</pdfrwt>
<totfact> 0.37766252E+03</totfact>
</mgrwt>
</event>
<event>
 4    1  0.1710914E-004  0.2699008E+03  0.7818608E-02  0.1101336E+00
         -3   -1    0    0    0  501 -0.00000000000E+00  0.00000000000E+00  0.23212225225E+03  0.23212225225E+03  0.00000000000E+00 0. -1.
          3   -1    0    0  501    0  0.00000000000E+00 -0.00000000000E+00 -0.78456971979E+02  0.78456971979E+02  0.00000000000E+00 0. -1.
         25    1    1    2    0    0  0.87284516589E+01  0.53369682453E+02  0.42559446353E+02  0.13833226430E+03  0.12000000000E+03 0.  0.
         25    1    1    2    0    0 -0.87284516589E+01 -0.53369682453E+02  0.11110583392E+03  0.17224695993E+03  0.12000000000E+03 0.  0.
<mgrwt>
<rscale>  0 0.26990079E+03</rscale>
<asrwt>0</asrwt>
<pdfrwt beam="1">  1        3 0.12070304E-01 0.26990079E+03</pdfrwt>
<pdfrwt beam="2">  1       -3 0.35711115E-01 0.26990079E+03</pdfrwt>
<totfact> 0.10550075E+03</totfact>
</mgrwt>
</event>
<event>
 4    1  0.1710914E-004  0.2524205E+03  0.7818608E-02  0.1111785E+00
          2   -1    0    0  501    0  0.00000000000E+00  0.00000000000E+00  0.87207650416E+02  0.87207650416E+02  0.00000000000E+00 0.  1.
         -2   -1    0    0    0  501 -0.00000000000E+00 -0.00000000000E+00 -0.18265625476E+03  0.18265625476E+03  0.00000000000E+00 0.  1.
         25    1    1    2    0    0 -0.29584494588E+02 -0.78695659843E+01 -0.21715148602E+02  0.12573273268E+03  0.12000000000E+03 0.  0.
         25    1    1    2    0    0  0.29584494588E+02  0.78695659843E+01 -0.73733455739E+02  0.14413117249E+03  0.12000000000E+03 0.  0.
<mgrwt>
<rscale>  0 0.25242047E+03</rscale>
<asrwt>0</asrwt>
<pdfrwt beam="1">  1        2 0.13416562E-01 0.25242047E+03</pdfrwt>
<pdfrwt beam="2">  1       -2 0.28100962E-01 0.25242047E+03</pdfrwt>
<totfact> 0.50791131E+03</totfact>
</mgrwt>
</event>
<event>
 4    1  0.1710914E-004  0.2543655E+03  0.7818608E-02  0.1110577E+00
         -2   -1    0    0    0  501 -0.00000000000E+00  0.00000000000E+00  0.89707898911E+02  0.89707898911E+02  0.00000000000E+00 0. -1.
          2   -1    0    0  501    0  0.00000000000E+00 -0.00000000000E+00 -0.18031243381E+03  0.18031243381E+03  0.00000000000E+00 0. -1.
         25    1    1    2    0    0  0.96390667469E+01 -0.40594158902E+02 -0.51551172854E+02  0.13710696834E+03  0.12000000000E+03 0.  0.
         25    1    1    2    0    0 -0.96390667469E+01  0.40594158902E+02 -0.39053362047E+02  0.13291336438E+03  0.12000000000E+03 0.  0.
<mgrwt>
<rscale>  0 0.25436548E+03</rscale>
<asrwt>0</asrwt>
<pdfrwt beam="1">  1        2 0.27740374E-01 0.25436548E+03</pdfrwt>
<pdfrwt beam="2">  1       -2 0.13801215E-01 0.25436548E+03</pdfrwt>
<totfact> 0.74251854E+03</totfact>
</mgrwt>
</event>
<event>
 4    1  0.1710914E-004  0.4001896E+03  0.7818608E-02  0.1043714E+00
          1   -1    0    0  501    0  0.00000000000E+00  0.00000000000E+00  0.38221890244E+02  0.38221890244E+02  0.00000000000E+00 0.  1.
         -1   -1    0    0    0  501 -0.00000000000E+00 -0.00000000000E+00 -0.10475129227E+04  0.10475129227E+04  0.00000000000E+00 0.  1.
         25    1    1    2    0    0 -0.19156768059E+02  0.11819984374E+03 -0.79304348764E+03  0.81096002251E+03  0.12000000000E+03 0.  0.
         25    1    1    2    0    0  0.19156768059E+02 -0.11819984374E+03 -0.21624754484E+03  0.27477479046E+03  0.12000000000E+03 0.  0.
<mgrwt>
<rscale>  0 0.40018957E+03</rscale>
<asrwt>0</asrwt>
<pdfrwt beam="1">  1        1 0.58802906E-02 0.40018957E+03</pdfrwt>
<pdfrwt beam="2">  1       -1 0.16115584E+00 0.40018957E+03</pdfrwt>
<totfact> 0.41386089E+02</totfact>
</mgrwt>
</event>
<event>
 4    1  0.1710914E-004  0.3174529E+03  0.7818608E-02  0.1076828E+00
         -2   -1    0    0    0  501 -0.00000000000E+00  0.00000000000E+00  0.20741238434E+02  0.20741238434E+02  0.00000000000E+00 0. -1.
          2   -1    0    0  501    0  0.00000000000E+00 -0.00000000000E+00 -0.12146857910E+04  0.12146857910E+04  0.00000000000E+00 0. -1.
         25    1    1    2    0    0 -0.32359681569E+02  0.98116329620E+02 -0.63962566614E+03  0.65893471293E+03  0.12000000000E+03 0.  0.
         25    1    1    2    0    0  0.32359681569E+02 -0.98116329620E+02 -0.55431888641E+03  0.57649231648E+03  0.12000000000E+03 0.  0.
<mgrwt>
<rscale>  0 0.31745291E+03</rscale>
<asrwt>0</asrwt>
<pdfrwt beam="1">  1        2 0.18687479E+00 0.31745291E+03</pdfrwt>
<pdfrwt beam="2">  1       -2 0.31909589E-02 0.31745291E+03</pdfrwt>
<totfact> 0.75889316E+03</totfact>
</mgrwt>
</event>
<event>
 4    1  0.1710914E-004  0.3303420E+03  0.7818608E-02  0.1070986E+00
         -2   -1    0    0    0  501 -0.00000000000E+00  0.00000000000E+00  0.43781456142E+02  0.43781456142E+02  0.00000000000E+00 0.  1.
          2   -1    0    0  501    0  0.00000000000E+00 -0.00000000000E+00 -0.62312804335E+03  0.62312804335E+03  0.00000000000E+00 0.  1.
         25    1    1    2    0    0  0.30022262246E+02 -0.23312368122E+02 -0.50557326299E+03  0.52100779935E+03  0.12000000000E+03 0.  0.
         25    1    1    2    0    0 -0.30022262246E+02  0.23312368122E+02 -0.73773324224E+02  0.14590170014E+03  0.12000000000E+03 0.  0.
<mgrwt>
<rscale>  0 0.33034196E+03</rscale>
<asrwt>0</asrwt>
<pdfrwt beam="1">  1        2 0.95865844E-01 0.33034196E+03</pdfrwt>
<pdfrwt beam="2">  1       -2 0.67356092E-02 0.33034196E+03</pdfrwt>
<totfact> 0.59864541E+03</totfact>
</mgrwt>
</event>
<event>
 4    1  0.1710914E-004  0.3071937E+03  0.7818608E-02  0.1081699E+00
          2   -1    0    0  501    0  0.00000000000E+00  0.00000000000E+00  0.49318347578E+03  0.49318347578E+03  0.00000000000E+00 0.  1.
         -2   -1    0    0    0  501 -0.00000000000E+00 -0.00000000000E+00 -0.47836143556E+02  0.47836143556E+02  0.00000000000E+00 0.  1.
         25    1    1    2    0    0  0.75393997894E+02 -0.25882079089E+02  0.31649380187E+03  0.34773907396E+03  0.12000000000E+03 0.  0.
         25    1    1    2    0    0 -0.75393997894E+02  0.25882079089E+02  0.12885353035E+03  0.19328054538E+03  0.12000000000E+03 0.  0.
<mgrwt>
<rscale>  0 0.30719372E+03</rscale>
<asrwt>0</asrwt>
<pdfrwt beam="1">  1        2 0.75874377E-01 0.30719372E+03</pdfrwt>
<pdfrwt beam="2">  1       -2 0.73594071E-02 0.30719372E+03</pdfrwt>
<totfact> 0.68102215E+03</totfact>
</mgrwt>
</event>
<event>
 4    1  0.1710914E-004  0.2685977E+03  0.7818608E-02  0.1102085E+00
         -2   -1    0    0    0  501 -0.00000000000E+00  0.00000000000E+00  0.16335927101E+02  0.16335927101E+02  0.00000000000E+00 0.  1.
          2   -1    0    0  501    0  0.00000000000E+00 -0.00000000000E+00 -0.11040810323E+04  0.11040810323E+04  0.00000000000E+00 0.  1.
         25    1    1    2    0    0 -0.18622475025E+02 -0.68932090275E+01 -0.30636610734E+03  0.32962782746E+03  0.12000000000E+03 0.  0.
         25    1    1    2    0    0  0.18622475025E+02  0.68932090275E+01 -0.78137899788E+03  0.79078913197E+03  0.12000000000E+03 0.  0.
<mgrwt>
<rscale>  0 0.26859775E+03</rscale>
<asrwt>0</asrwt>
<pdfrwt beam="1">  1        2 0.16985863E+00 0.26859775E+03</pdfrwt>
<pdfrwt beam="2">  1       -2 0.25132194E-02 0.26859775E+03</pdfrwt>
<totfact> 0.12491281E+04</totfact>
</mgrwt>
</event>
<event>
 4    1  0.1710914E-004  0.3222189E+03  0.7818608E-02  0.1074633E+00
         -2   -1    0    0    0  501 -0.00000000000E+00  0.00000000000E+00  0.19419870929E+03  0.19419870929E+03  0.00000000000E+00 0.  1.
          2   -1    0    0  501    0  0.00000000000E+00 -0.00000000000E+00 -0.13365823571E+03  0.13365823571E+03  0.00000000000E+00 0.  1.
         25    1    1    2    0    0 -0.16335103636E+02 -0.80696982216E+02 -0.40058043087E+02  0.15094199338E+03  0.12000000000E+03 0.  0.
         25    1    1    2    0    0  0.16335103636E+02  0.80696982216E+02  0.10059851667E+03  0.17691495162E+03  0.12000000000E+03 0.  0.
<mgrwt>
<rscale>  0 0.32221891E+03</rscale>
<asrwt>0</asrwt>
<pdfrwt beam="1">  1        2 0.20562806E-01 0.32221891E+03</pdfrwt>
<pdfrwt beam="2">  1       -2 0.29876724E-01 0.32221891E+03</pdfrwt>
<totfact> 0.27757759E+03</totfact>
</mgrwt>
</event>
<event>
 4    1  0.1710914E-004  0.3758656E+03  0.7818608E-02  0.1052473E+00
          2   -1    0    0  501    0  0.00000000000E+00  0.00000000000E+00  0.98453845781E+03  0.98453845781E+03  0.00000000000E+00 0. -1.
         -2   -1    0    0    0  501 -0.00000000000E+00 -0.00000000000E+00 -0.35873398202E+02  0.35873398202E+02  0.00000000000E+00 0. -1.
         25    1    1    2    0    0 -0.17677777453E+02  0.14291112884E+03  0.51102251043E+03  0.54431617717E+03  0.12000000000E+03 0.  0.
         25    1    1    2    0    0  0.17677777453E+02 -0.14291112884E+03  0.43764254917E+03  0.47609567884E+03  0.12000000000E+03 0.  0.
<mgrwt>
<rscale>  0 0.37586562E+03</rscale>
<asrwt>0</asrwt>
<pdfrwt beam="1">  1        2 0.15146743E+00 0.37586562E+03</pdfrwt>
<pdfrwt beam="2">  1       -2 0.55189851E-02 0.37586562E+03</pdfrwt>
<totfact> 0.45381368E+03</totfact>
</mgrwt>
</event>
<event>
 4    1  0.1710914E-004  0.2494020E+03  0.7818608E-02  0.1113683E+00
          1   -1    0    0  501    0  0.00000000000E+00  0.00000000000E+00  0.10404266522E+03  0.10404266522E+03  0.00000000000E+00 0.  1.
         -1   -1    0    0    0  501 -0.00000000000E+00 -0.00000000000E+00 -0.14946115754E+03  0.14946115754E+03  0.00000000000E+00 0.  1.
         25    1    1    2    0    0  0.13324597112E+02  0.31109338913E+02 -0.24982390271E+02  0.12715917458E+03  0.12000000000E+03 0.  0.
         25    1    1    2    0    0 -0.13324597112E+02 -0.31109338913E+02 -0.20436102048E+02  0.12634464818E+03  0.12000000000E+03 0.  0.
<mgrwt>
<rscale>  0 0.24940198E+03</rscale>
<asrwt>0</asrwt>
<pdfrwt beam="1">  1        1 0.16006564E-01 0.24940198E+03</pdfrwt>
<pdfrwt beam="2">  1       -1 0.22994024E-01 0.24940198E+03</pdfrwt>
<totfact> 0.54087307E+03</totfact>
</mgrwt>
</event>
<event>
 4    1  0.1710914E-004  0.2680989E+03  0.7818608E-02  0.1102373E+00
         -2   -1    0    0    0  501 -0.00000000000E+00  0.00000000000E+00  0.10811705841E+02  0.10811705841E+02  0.00000000000E+00 0.  1.
          2   -1    0    0  501    0  0.00000000000E+00 -0.00000000000E+00 -0.16620188260E+04  0.16620188260E+04  0.00000000000E+00 0.  1.
         25    1    1    2    0    0 -0.33351915367E+02 -0.49198093203E+02 -0.86327753782E+03  0.87360226073E+03  0.12000000000E+03 0.  0.
         25    1    1    2    0    0  0.33351915367E+02  0.49198093203E+02 -0.78792958238E+03  0.79922827116E+03  0.12000000000E+03 0.  0.
<mgrwt>
<rscale>  0 0.26809893E+03</rscale>
<asrwt>0</asrwt>
<pdfrwt beam="1">  1        2 0.25569533E+00 0.26809893E+03</pdfrwt>
<pdfrwt beam="2">  1       -2 0.16633385E-02 0.26809893E+03</pdfrwt>
<totfact> 0.11336202E+04</totfact>
</mgrwt>
</event>
<event>
 4    1  0.1710914E-004  0.2548616E+03  0.7818608E-02  0.1110270E+00
         -2   -1    0    0    0  501 -0.00000000000E+00  0.00000000000E+00  0.39510630010E+02  0.39510630010E+02  0.00000000000E+00 0. -1.
          2   -1    0    0  501    0  0.00000000000E+00 -0.00000000000E+00 -0.41099351969E+03  0.41099351969E+03  0.00000000000E+00 0. -1.
         25    1    1    2    0    0 -0.13979891707E+02  0.33331267250E+02 -0.14496281347E+03  0.19162627179E+03  0.12000000000E+03 0.  0.
         25    1    1    2    0    0  0.13979891707E+02 -0.33331267250E+02 -0.22652007620E+03  0.25887787791E+03  0.12000000000E+03 0.  0.
<mgrwt>
<rscale>  0 0.25486163E+03</rscale>
<asrwt>0</asrwt>
<pdfrwt beam="1">  1        2 0.63229771E-01 0.25486163E+03</pdfrwt>
<pdfrwt beam="2">  1       -2 0.60785586E-02 0.25486163E+03</pdfrwt>
<totfact> 0.11112362E+04</totfact>
</mgrwt>
</event>
<event>
 4    1  0.1710914E-004  0.2496355E+03  0.7818608E-02  0.1113535E+00
          1   -1    0    0  501    0  0.00000000000E+00  0.00000000000E+00  0.23583673803E+02  0.23583673803E+02  0.00000000000E+00 0.  1.
         -1   -1    0    0    0  501 -0.00000000000E+00 -0.00000000000E+00 -0.66060424983E+03  0.66060424983E+03  0.00000000000E+00 0.  1.
         25    1    1    2    0    0  0.32681402363E+02 -0.10312733046E+02 -0.31235206759E+03  0.33636028400E+03  0.12000000000E+03 0.  0.
         25    1    1    2    0    0 -0.32681402363E+02  0.10312733046E+02 -0.32466850843E+03  0.34782763963E+03  0.12000000000E+03 0.  0.
<mgrwt>
<rscale>  0 0.24963554E+03</rscale>
<asrwt>0</asrwt>
<pdfrwt beam="1">  1        1 0.36282572E-02 0.24963554E+03</pdfrwt>
<pdfrwt beam="2">  1       -1 0.10163143E+00 0.24963554E+03</pdfrwt>
<totfact> 0.25219279E+03</totfact>
</mgrwt>
</event>
<event>
 4    1  0.1710914E-004  0.4276365E+03  0.7818608E-02  0.1034609E+00
         -2   -1    0    0    0  501 -0.00000000000E+00  0.00000000000E+00  0.37858038045E+02  0.37858038045E+02  0.00000000000E+00 0.  1.
          2   -1    0    0  501    0  0.00000000000E+00 -0.00000000000E+00 -0.12076232995E+04  0.12076232995E+04  0.00000000000E+00 0.  1.
         25    1    1    2    0    0  0.31874185959E+02 -0.12608923415E+03 -0.93442580630E+03  0.95103419822E+03  0.12000000000E+03 0.  0.
         25    1    1    2    0    0 -0.31874185959E+02  0.12608923415E+03 -0.23533945511E+03  0.29444713928E+03  0.12000000000E+03 0.  0.
<mgrwt>
<rscale>  0 0.42763652E+03</rscale>
<asrwt>0</asrwt>
<pdfrwt beam="1">  1        2 0.18578819E+00 0.42763652E+03</pdfrwt>
<pdfrwt beam="2">  1       -2 0.58243137E-02 0.42763652E+03</pdfrwt>
<totfact> 0.30712366E+03</totfact>
</mgrwt>
</event>
<event>
 4    1  0.1710914E-004  0.2915931E+03  0.7818608E-02  0.1089520E+00
         -2   -1    0    0    0  501 -0.00000000000E+00  0.00000000000E+00  0.49329927125E+02  0.49329927125E+02  0.00000000000E+00 0. -1.
          2   -1    0    0  501    0  0.00000000000E+00 -0.00000000000E+00 -0.43090754656E+03  0.43090754656E+03  0.00000000000E+00 0. -1.
         25    1    1    2    0    0 -0.80690387754E+02 -0.29888498599E+01 -0.16056544145E+03  0.21610444903E+03  0.12000000000E+03 0.  0.
         25    1    1    2    0    0  0.80690387754E+02  0.29888498599E+01 -0.22101217798E+03  0.26413302466E+03  0.12000000000E+03 0.  0.
<mgrwt>
<rscale>  0 0.29159313E+03</rscale>
<asrwt>0</asrwt>
<pdfrwt beam="1">  1        2 0.66293468E-01 0.29159313E+03</pdfrwt>
<pdfrwt beam="2">  1       -2 0.75892197E-02 0.29159313E+03</pdfrwt>
<totfact> 0.75272997E+03</totfact>
</mgrwt>
</event>
<event>
 4    1  0.1710914E-004  0.2707033E+03  0.7818608E-02  0.1100878E+00
          1   -1    0    0  501    0  0.00000000000E+00  0.00000000000E+00  0.17294592607E+03  0.17294592607E+03  0.00000000000E+00 0.  1.
         -1   -1    0    0    0  501 -0.00000000000E+00 -0.00000000000E+00 -0.10592943261E+03  0.10592943261E+03  0.00000000000E+00 0.  1.
         25    1    1    2    0    0  0.15561093472E+02 -0.53330500741E+02  0.63255084046E+02  0.14658613712E+03  0.12000000000E+03 0.  0.
         25    1    1    2    0    0 -0.15561093472E+02  0.53330500741E+02  0.37614094186E+01  0.13228922156E+03  0.12000000000E+03 0.  0.
<mgrwt>
<rscale>  0 0.27070326E+03</rscale>
<asrwt>0</asrwt>
<pdfrwt beam="1">  1        1 0.26607066E-01 0.27070326E+03</pdfrwt>
<pdfrwt beam="2">  1       -1 0.16296836E-01 0.27070326E+03</pdfrwt>
<totfact> 0.49299569E+03</totfact>
</mgrwt>
</event>
<event>
 4    1  0.1710914E-004  0.2719286E+03  0.7818608E-02  0.1100181E+00
          2   -1    0    0  501    0  0.00000000000E+00  0.00000000000E+00  0.14227328797E+04  0.14227328797E+04  0.00000000000E+00 0.  1.
         -2   -1    0    0    0  501 -0.00000000000E+00 -0.00000000000E+00 -0.12993511917E+02  0.12993511917E+02  0.00000000000E+00 0.  1.
         25    1    1    2    0    0 -0.15228107114E+02 -0.40445862685E+01  0.10319629705E+04  0.10390360083E+04  0.12000000000E+03 0.  0.
         25    1    1    2    0    0  0.15228107114E+02  0.40445862685E+01  0.37777639727E+03  0.39669038337E+03  0.12000000000E+03 0.  0.
<mgrwt>
<rscale>  0 0.27192864E+03</rscale>
<asrwt>0</asrwt>
<pdfrwt beam="1">  1        2 0.21888186E+00 0.27192864E+03</pdfrwt>
<pdfrwt beam="2">  1       -2 0.19990030E-02 0.27192864E+03</pdfrwt>
<totfact> 0.11613502E+04</totfact>
</mgrwt>
</event>
<event>
 4    1  0.1710914E-004  0.2953182E+03  0.7818608E-02  0.1087605E+00
          2   -1    0    0  501    0  0.00000000000E+00  0.00000000000E+00  0.22447054930E+04  0.22447054930E+04  0.00000000000E+00 0.  1.
         -2   -1    0    0    0  501 -0.00000000000E+00 -0.00000000000E+00 -0.97131733965E+01  0.97131733965E+01  0.00000000000E+00 0.  1.
         25    1    1    2    0    0 -0.15250569998E+02 -0.81531549205E+02  0.94287578990E+03  0.95409366866E+03  0.12000000000E+03 0.  0.
         25    1    1    2    0    0  0.15250569998E+02  0.81531549205E+02  0.12921165297E+04  0.13003249978E+04  0.12000000000E+03 0.  0.
<mgrwt>
<rscale>  0 0.29531823E+03</rscale>
<asrwt>0</asrwt>
<pdfrwt beam="1">  1        2 0.34533889E+00 0.29531823E+03</pdfrwt>
<pdfrwt beam="2">  1       -2 0.14943362E-02 0.29531823E+03</pdfrwt>
<totfact> 0.65397492E+03</totfact>
</mgrwt>
</event>
<event>
 4    1  0.1710914E-004  0.3513218E+03  0.7818608E-02  0.1062074E+00
          1   -1    0    0  501    0  0.00000000000E+00  0.00000000000E+00  0.19718680022E+04  0.19718680022E+04  0.00000000000E+00 0. -1.
         -1   -1    0    0    0  501 -0.00000000000E+00 -0.00000000000E+00 -0.15648484218E+02  0.15648484218E+02  0.00000000000E+00 0. -1.
         25    1    1    2    0    0  0.51848883132E+02 -0.11656736548E+03  0.90210692702E+03  0.91895221048E+03  0.12000000000E+03 0.  0.
         25    1    1    2    0    0 -0.51848883132E+02  0.11656736548E+03  0.10541125910E+04  0.10685642760E+04  0.12000000000E+03 0.  0.
<mgrwt>
<rscale>  0 0.35132176E+03</rscale>
<asrwt>0</asrwt>
<pdfrwt beam="1">  1        1 0.30336411E+00 0.35132176E+03</pdfrwt>
<pdfrwt beam="2">  1       -1 0.24074607E-02 0.35132176E+03</pdfrwt>
<totfact> 0.18299053E+03</totfact>
</mgrwt>
</event>
<event>
 4    1  0.1710914E-004  0.2407092E+03  0.7818608E-02  0.1119321E+00
         -1   -1    0    0    0  501 -0.00000000000E+00  0.00000000000E+00  0.13410124792E+02  0.13410124792E+02  0.00000000000E+00 0.  1.
          1   -1    0    0  501    0  0.00000000000E+00 -0.00000000000E+00 -0.10801714002E+04  0.10801714002E+04  0.00000000000E+00 0.  1.
         25    1    1    2    0    0  0.45880802811E+01 -0.99522980535E+00 -0.49726539497E+03  0.51156125146E+03  0.12000000000E+03 0.  0.
         25    1    1    2    0    0 -0.45880802811E+01  0.99522980535E+00 -0.56949588042E+03  0.58202027351E+03  0.12000000000E+03 0.  0.
<mgrwt>
<rscale>  0 0.24070923E+03</rscale>
<asrwt>0</asrwt>
<pdfrwt beam="1">  1        1 0.16618022E+00 0.24070923E+03</pdfrwt>
<pdfrwt beam="2">  1       -1 0.20630960E-02 0.24070923E+03</pdfrwt>
<totfact> 0.90853253E+03</totfact>
</mgrwt>
</event>
<event>
 4    1  0.1710914E-004  0.2553281E+03  0.7818608E-02  0.1109983E+00
         -1   -1    0    0    0  501 -0.00000000000E+00  0.00000000000E+00  0.32032049427E+02  0.32032049427E+02  0.00000000000E+00 0. -1.
          1   -1    0    0  501    0  0.00000000000E+00 -0.00000000000E+00 -0.50880630593E+03  0.50880630593E+03  0.00000000000E+00 0. -1.
         25    1    1    2    0    0 -0.20750066282E+02  0.23364806632E+02 -0.17408179118E+03  0.21373102129E+03  0.12000000000E+03 0.  0.
         25    1    1    2    0    0  0.20750066282E+02 -0.23364806632E+02 -0.30269246532E+03  0.32710733407E+03  0.12000000000E+03 0.  0.
<mgrwt>
<rscale>  0 0.25532809E+03</rscale>
<asrwt>0</asrwt>
<pdfrwt beam="1">  1        1 0.78277898E-01 0.25532809E+03</pdfrwt>
<pdfrwt beam="2">  1       -1 0.49280073E-02 0.25532809E+03</pdfrwt>
<totfact> 0.78670699E+03</totfact>
</mgrwt>
</event>
<event>
 4    1  0.1710914E-004  0.3306082E+03  0.7818608E-02  0.1070868E+00
         -1   -1    0    0    0  501 -0.00000000000E+00  0.00000000000E+00  0.39182303638E+03  0.39182303638E+03  0.00000000000E+00 0.  1.
          1   -1    0    0  501    0  0.00000000000E+00 -0.00000000000E+00 -0.69739236526E+02  0.69739236526E+02  0.00000000000E+00 0.  1.
         25    1    1    2    0    0  0.11105869889E+03  0.17429155863E+02  0.13736453755E+03  0.21425878336E+03  0.12000000000E+03 0.  0.
         25    1    1    2    0    0 -0.11105869889E+03 -0.17429155863E+02  0.18471926231E+03  0.24730348954E+03  0.12000000000E+03 0.  0.
<mgrwt>
<rscale>  0 0.33060816E+03</rscale>
<asrwt>0</asrwt>
<pdfrwt beam="1">  1        1 0.10729114E-01 0.33060816E+03</pdfrwt>
<pdfrwt beam="2">  1       -1 0.60280466E-01 0.33060816E+03</pdfrwt>
<totfact> 0.16844069E+03</totfact>
</mgrwt>
</event>
<event>
 4    1  0.1710914E-004  0.2503759E+03  0.7818608E-02  0.1113067E+00
         -3   -1    0    0    0  501 -0.00000000000E+00  0.00000000000E+00  0.84314148760E+03  0.84314148760E+03  0.00000000000E+00 0.  1.
          3   -1    0    0  501    0  0.00000000000E+00 -0.00000000000E+00 -0.18587661493E+02  0.18587661493E+02  0.00000000000E+00 0.  1.
         25    1    1    2    0    0  0.32831824651E+02 -0.11791857428E+02  0.38674022710E+03  0.40642955093E+03  0.12000000000E+03 0.  0.
         25    1    1    2    0    0 -0.32831824651E+02  0.11791857428E+02  0.43781359901E+03  0.45529959816E+03  0.12000000000E+03 0.  0.
<mgrwt>
<rscale>  0 0.25037595E+03</rscale>
<asrwt>0</asrwt>
<pdfrwt beam="1">  1        3 0.28596409E-02 0.25037595E+03</pdfrwt>
<pdfrwt beam="2">  1       -3 0.12971405E+00 0.25037595E+03</pdfrwt>
<totfact> 0.67623639E+02</totfact>
</mgrwt>
</event>
<event>
 4    1  0.1710914E-004  0.2632068E+03  0.7818608E-02  0.1105232E+00
          2   -1    0    0  501    0  0.00000000000E+00  0.00000000000E+00  0.20785638735E+03  0.20785638735E+03  0.00000000000E+00 0. -1.
         -2   -1    0    0    0  501 -0.00000000000E+00 -0.00000000000E+00 -0.83324130382E+02  0.83324130382E+02  0.00000000000E+00 0. -1.
         25    1    1    2    0    0 -0.71637702000E+01  0.50450029617E+02  0.82146195208E+02  0.15409257762E+03  0.12000000000E+03 0.  0.
         25    1    1    2    0    0  0.71637702000E+01 -0.50450029617E+02  0.42386061761E+02  0.13708794011E+03  0.12000000000E+03 0.  0.
<mgrwt>
<rscale>  0 0.26320678E+03</rscale>
<asrwt>0</asrwt>
<pdfrwt beam="1">  1        2 0.31977906E-01 0.26320678E+03</pdfrwt>
<pdfrwt beam="2">  1       -2 0.12819097E-01 0.26320678E+03</pdfrwt>
<totfact> 0.71755433E+03</totfact>
</mgrwt>
</event>
<event>
 4    1  0.1710914E-004  0.2449842E+03  0.7818608E-02  0.1116516E+00
          2   -1    0    0  501    0  0.00000000000E+00  0.00000000000E+00  0.23867455585E+04  0.23867455585E+04  0.00000000000E+00 0.  1.
         -2   -1    0    0    0  501 -0.00000000000E+00 -0.00000000000E+00 -0.62865146779E+01  0.62865146779E+01  0.00000000000E+00 0.  1.
         25    1    1    2    0    0 -0.12940569420E+02 -0.12861754264E+02  0.13511597992E+04  0.13566007836E+04  0.12000000000E+03 0.  0.
         25    1    1    2    0    0  0.12940569420E+02  0.12861754264E+02  0.10292992446E+04  0.10364312896E+04  0.12000000000E+03 0.  0.
<mgrwt>
<rscale>  0 0.24498417E+03</rscale>
<asrwt>0</asrwt>
<pdfrwt beam="1">  1        2 0.36719090E+00 0.24498417E+03</pdfrwt>
<pdfrwt beam="2">  1       -2 0.96715801E-03 0.24498417E+03</pdfrwt>
<totfact> 0.10333394E+04</totfact>
</mgrwt>
</event>
<event>
 4    1  0.1710914E-004  0.3612500E+03  0.7818608E-02  0.1058090E+00
         -1   -1    0    0    0  501 -0.00000000000E+00  0.00000000000E+00  0.92940863005E+02  0.92940863005E+02  0.00000000000E+00 0.  1.
          1   -1    0    0  501    0  0.00000000000E+00 -0.00000000000E+00 -0.35103391973E+03  0.35103391973E+03  0.00000000000E+00 0.  1.
         25    1    1    2    0    0 -0.10860838771E+03  0.68679663785E+02 -0.78184548268E+02  0.19242011767E+03  0.12000000000E+03 0.  0.
         25    1    1    2    0    0  0.10860838771E+03 -0.68679663785E+02 -0.17990850845E+03  0.25155466506E+03  0.12000000000E+03 0.  0.
<mgrwt>
<rscale>  0 0.36125003E+03</rscale>
<asrwt>0</asrwt>
<pdfrwt beam="1">  1        1 0.54005218E-01 0.36125003E+03</pdfrwt>
<pdfrwt beam="2">  1       -1 0.14298594E-01 0.36125003E+03</pdfrwt>
<totfact> 0.24965268E+03</totfact>
</mgrwt>
</event>
<event>
 4    1  0.1710914E-004  0.2848963E+03  0.7818608E-02  0.1093044E+00
         -1   -1    0    0    0  501 -0.00000000000E+00  0.00000000000E+00  0.51880780331E+03  0.51880780331E+03  0.00000000000E+00 0. -1.
          1   -1    0    0  501    0  0.00000000000E+00 -0.00000000000E+00 -0.39111726561E+02  0.39111726561E+02  0.00000000000E+00 0. -1.
         25    1    1    2    0    0  0.32591615836E+02 -0.93861113343E+01  0.37469059154E+03  0.39489663445E+03  0.12000000000E+03 0.  0.
         25    1    1    2    0    0 -0.32591615836E+02  0.93861113343E+01  0.10500548521E+03  0.16302289542E+03  0.12000000000E+03 0.  0.
<mgrwt>
<rscale>  0 0.28489625E+03</rscale>
<asrwt>0</asrwt>
<pdfrwt beam="1">  1        1 0.60171891E-02 0.28489625E+03</pdfrwt>
<pdfrwt beam="2">  1       -1 0.79816580E-01 0.28489625E+03</pdfrwt>
<totfact> 0.21082431E+03</totfact>
</mgrwt>
</event>
<event>
 4    1  0.1710914E-004  0.3116063E+03  0.7818608E-02  0.1079578E+00
         -2   -1    0    0    0  501 -0.00000000000E+00  0.00000000000E+00  0.93092071089E+02  0.93092071089E+02  0.00000000000E+00 0.  1.
          2   -1    0    0  501    0  0.00000000000E+00 -0.00000000000E+00 -0.26075930788E+03  0.26075930788E+03  0.00000000000E+00 0.  1.
         25    1    1    2    0    0 -0.49296924583E+02  0.56979501440E+02 -0.15740758150E+03  0.21178762256E+03  0.12000000000E+03 0.  0.
         25    1    1    2    0    0  0.49296924583E+02 -0.56979501440E+02 -0.10259655294E+02  0.14206375641E+03  0.12000000000E+03 0.  0.
<mgrwt>
<rscale>  0 0.31160632E+03</rscale>
<asrwt>0</asrwt>
<pdfrwt beam="1">  1        2 0.40116817E-01 0.31160632E+03</pdfrwt>
<pdfrwt beam="2">  1       -2 0.14321857E-01 0.31160632E+03</pdfrwt>
<totfact> 0.47047740E+03</totfact>
</mgrwt>
</event>
<event>
 4    1  0.1710914E-004  0.4301467E+03  0.7818608E-02  0.1033814E+00
          2   -1    0    0  501    0  0.00000000000E+00  0.00000000000E+00  0.11289306046E+04  0.11289306046E+04  0.00000000000E+00 0.  1.
         -2   -1    0    0    0  501 -0.00000000000E+00 -0.00000000000E+00 -0.40973771234E+02  0.40973771234E+02  0.00000000000E+00 0.  1.
         25    1    1    2    0    0  0.15693594398E+03 -0.72513236917E+02  0.66467918582E+03  0.69719830759E+03  0.12000000000E+03 0.  0.
         25    1    1    2    0    0 -0.15693594398E+03  0.72513236917E+02  0.42327764751E+03  0.47270606821E+03  0.12000000000E+03 0.  0.
<mgrwt>
<rscale>  0 0.43014669E+03</rscale>
<asrwt>0</asrwt>
<pdfrwt beam="1">  1        2 0.17368161E+00 0.43014669E+03</pdfrwt>
<pdfrwt beam="2">  1       -2 0.63036580E-02 0.43014669E+03</pdfrwt>
<totfact> 0.30196962E+03</totfact>
</mgrwt>
</event>
<event>
 4    1  0.1710914E-004  0.3086071E+03  0.7818608E-02  0.1081015E+00
          2   -1    0    0  501    0  0.00000000000E+00  0.00000000000E+00  0.41803654155E+02  0.41803654155E+02  0.00000000000E+00 0.  1.
         -2   -1    0    0    0  501 -0.00000000000E+00 -0.00000000000E+00 -0.56955735711E+03  0.56955735711E+03  0.00000000000E+00 0.  1.
         25    1    1    2    0    0  0.34472705090E+02  0.90459124834E+02 -0.25160753065E+03  0.29508908848E+03  0.12000000000E+03 0.  0.
         25    1    1    2    0    0 -0.34472705090E+02 -0.90459124834E+02 -0.27614617231E+03  0.31627192279E+03  0.12000000000E+03 0.  0.
<mgrwt>
<rscale>  0 0.30860706E+03</rscale>
<asrwt>0</asrwt>
<pdfrwt beam="1">  1        2 0.64313309E-02 0.30860706E+03</pdfrwt>
<pdfrwt beam="2">  1       -2 0.87624216E-01 0.30860706E+03</pdfrwt>
<totfact> 0.13138489E+03</totfact>
</mgrwt>
</event>
<event>
 4    1  0.1710914E-004  0.3509167E+03  0.7818608E-02  0.1062239E+00
         -3   -1    0    0    0  501 -0.00000000000E+00  0.00000000000E+00  0.15419813880E+04  0.15419813880E+04  0.00000000000E+00 0.  1.
          3   -1    0    0  501    0  0.00000000000E+00 -0.00000000000E+00 -0.19964977713E+02  0.19964977713E+02  0.00000000000E+00 0.  1.
         25    1    1    2    0    0  0.22596168118E+02  0.58938197822E+02  0.26533413123E+03  0.29797063475E+03  0.12000000000E+03 0.  0.
         25    1    1    2    0    0 -0.22596168118E+02 -0.58938197822E+02  0.12566822790E+04  0.12639757309E+04  0.12000000000E+03 0.  0.
<mgrwt>
<rscale>  0 0.35091665E+03</rscale>
<asrwt>0</asrwt>
<pdfrwt beam="1">  1        3 0.30715362E-02 0.35091665E+03</pdfrwt>
<pdfrwt beam="2">  1       -3 0.23722781E+00 0.35091665E+03</pdfrwt>
<totfact> 0.12115650E+02</totfact>
</mgrwt>
</event>
<event>
 4    1  0.1710914E-004  0.2725206E+03  0.7818608E-02  0.1099846E+00
         -1   -1    0    0    0  501 -0.00000000000E+00  0.00000000000E+00  0.86853929003E+02  0.86853929003E+02  0.00000000000E+00 0. -1.
          1   -1    0    0  501    0  0.00000000000E+00 -0.00000000000E+00 -0.21377125055E+03  0.21377125055E+03  0.00000000000E+00 0. -1.
         25    1    1    2    0    0  0.61666867974E+02 -0.18843023672E+02 -0.60147278210E+02  0.14891459708E+03  0.12000000000E+03 0.  0.
         25    1    1    2    0    0 -0.61666867974E+02  0.18843023672E+02 -0.66770043333E+02  0.15171058247E+03  0.12000000000E+03 0.  0.
<mgrwt>
<rscale>  0 0.27252063E+03</rscale>
<asrwt>0</asrwt>
<pdfrwt beam="1">  1        1 0.32887885E-01 0.27252063E+03</pdfrwt>
<pdfrwt beam="2">  1       -1 0.13362143E-01 0.27252063E+03</pdfrwt>
<totfact> 0.51686494E+03</totfact>
</mgrwt>
</event>
<event>
 4    1  0.1710914E-004  0.2488303E+03  0.7818608E-02  0.1114046E+00
          2   -1    0    0  501    0  0.00000000000E+00  0.00000000000E+00  0.11829326124E+04  0.11829326124E+04  0.00000000000E+00 0.  1.
         -2   -1    0    0    0  501 -0.00000000000E+00 -0.00000000000E+00 -0.13085388858E+02  0.13085388858E+02  0.00000000000E+00 0.  1.
         25    1    1    2    0    0  0.89345701088E+01  0.31669656237E+01  0.73610327032E+03  0.74588060760E+03  0.12000000000E+03 0.  0.
         25    1    1    2    0    0 -0.89345701088E+01 -0.31669656237E+01  0.43374395319E+03  0.45013739363E+03  0.12000000000E+03 0.  0.
<mgrwt>
<rscale>  0 0.24883033E+03</rscale>
<asrwt>0</asrwt>
<pdfrwt beam="1">  1        2 0.18198955E+00 0.24883033E+03</pdfrwt>
<pdfrwt beam="2">  1       -2 0.20131377E-02 0.24883033E+03</pdfrwt>
<totfact> 0.15557933E+04</totfact>
</mgrwt>
</event>
<event>
 4    1  0.1710914E-004  0.4259152E+03  0.7818608E-02  0.1035158E+00
          1   -1    0    0  501    0  0.00000000000E+00  0.00000000000E+00  0.55015524824E+03  0.55015524824E+03  0.00000000000E+00 0. -1.
         -1   -1    0    0    0  501 -0.00000000000E+00 -0.00000000000E+00 -0.82432991165E+02  0.82432991165E+02  0.00000000000E+00 0. -1.
         25    1    1    2    0    0  0.15172623065E+03  0.86778240320E+02  0.26355230161E+03  0.33824714004E+03  0.12000000000E+03 0.  0.
         25    1    1    2    0    0 -0.15172623065E+03 -0.86778240320E+02  0.20416995547E+03  0.29434109937E+03  0.12000000000E+03 0.  0.
<mgrwt>
<rscale>  0 0.42591522E+03</rscale>
<asrwt>0</asrwt>
<pdfrwt beam="1">  1        1 0.84639266E-01 0.42591522E+03</pdfrwt>
<pdfrwt beam="2">  1       -1 0.12681999E-01 0.42591522E+03</pdfrwt>
<totfact> 0.16711885E+03</totfact>
</mgrwt>
</event>
<event>
 4    1  0.1710914E-004  0.2801307E+03  0.7818608E-02  0.1095618E+00
         -3   -1    0    0    0  501 -0.00000000000E+00  0.00000000000E+00  0.51539533281E+03  0.51539533281E+03  0.00000000000E+00 0. -1.
          3   -1    0    0  501    0  0.00000000000E+00 -0.00000000000E+00 -0.38064580414E+02  0.38064580414E+02  0.00000000000E+00 0. -1.
         25    1    1    2    0    0  0.44269089261E+02 -0.36885949772E+02  0.15259149182E+03  0.20249565164E+03  0.12000000000E+03 0.  0.
         25    1    1    2    0    0 -0.44269089261E+02  0.36885949772E+02  0.32473926057E+03  0.35096426158E+03  0.12000000000E+03 0.  0.
<mgrwt>
<rscale>  0 0.28013073E+03</rscale>
<asrwt>0</asrwt>
<pdfrwt beam="1">  1        3 0.58560897E-02 0.28013073E+03</pdfrwt>
<pdfrwt beam="2">  1       -3 0.79291584E-01 0.28013073E+03</pdfrwt>
<totfact> 0.68460065E+02</totfact>
</mgrwt>
</event>
<event>
 4    1  0.1710914E-004  0.3340177E+03  0.7818608E-02  0.1069373E+00
          2   -1    0    0  501    0  0.00000000000E+00  0.00000000000E+00  0.13384499190E+04  0.13384499190E+04  0.00000000000E+00 0. -1.
         -2   -1    0    0    0  501 -0.00000000000E+00 -0.00000000000E+00 -0.20838999650E+02  0.20838999650E+02  0.00000000000E+00 0. -1.
         25    1    1    2    0    0 -0.72614585364E+02  0.62856398511E+02  0.92467112261E+03  0.93735825053E+03  0.12000000000E+03 0.  0.
         25    1    1    2    0    0  0.72614585364E+02 -0.62856398511E+02  0.39293979673E+03  0.42193066811E+03  0.12000000000E+03 0.  0.
<mgrwt>
<rscale>  0 0.33401771E+03</rscale>
<asrwt>0</asrwt>
<pdfrwt beam="1">  1        2 0.20591531E+00 0.33401771E+03</pdfrwt>
<pdfrwt beam="2">  1       -2 0.32060010E-02 0.33401771E+03</pdfrwt>
<totfact> 0.64265349E+03</totfact>
</mgrwt>
</event>
<event>
 4    1  0.1710914E-004  0.2803039E+03  0.7818608E-02  0.1095523E+00
         -3   -1    0    0    0  501 -0.00000000000E+00  0.00000000000E+00  0.12148715939E+03  0.12148715939E+03  0.00000000000E+00 0.  1.
          3   -1    0    0  501    0  0.00000000000E+00 -0.00000000000E+00 -0.16168427027E+03  0.16168427027E+03  0.00000000000E+00 0.  1.
         25    1    1    2    0    0  0.19919861208E+02 -0.40201168338E+01 -0.90304836385E+02  0.15155172610E+03  0.12000000000E+03 0.  0.
         25    1    1    2    0    0 -0.19919861208E+02  0.40201168338E+01  0.50107725511E+02  0.13161970356E+03  0.12000000000E+03 0.  0.
<mgrwt>
<rscale>  0 0.28030385E+03</rscale>
<asrwt>0</asrwt>
<pdfrwt beam="1">  1        3 0.24874503E-01 0.28030385E+03</pdfrwt>
<pdfrwt beam="2">  1       -3 0.18690332E-01 0.28030385E+03</pdfrwt>
<totfact> 0.97748012E+02</totfact>
</mgrwt>
</event>
<event>
 4    1  0.1710914E-004  0.2718911E+03  0.7818608E-02  0.1100202E+00
          1   -1    0    0  501    0  0.00000000000E+00  0.00000000000E+00  0.14045985267E+03  0.14045985267E+03  0.00000000000E+00 0.  1.
         -1   -1    0    0    0  501 -0.00000000000E+00 -0.00000000000E+00 -0.13157632344E+03  0.13157632344E+03  0.00000000000E+00 0.  1.
         25    1    1    2    0    0 -0.49818427331E+01  0.57436829415E+02 -0.23093511039E+02  0.13511890461E+03  0.12000000000E+03 0.  0.
         25    1    1    2    0    0  0.49818427331E+01 -0.57436829415E+02  0.31977040274E+02  0.13691727150E+03  0.12000000000E+03 0.  0.
<mgrwt>
<rscale>  0 0.27189109E+03</rscale>
<asrwt>0</asrwt>
<pdfrwt beam="1">  1        1 0.21609208E-01 0.27189109E+03</pdfrwt>
<pdfrwt beam="2">  1       -1 0.20242511E-01 0.27189109E+03</pdfrwt>
<totfact> 0.45333402E+03</totfact>
</mgrwt>
</event>
<event>
 4    1  0.1710914E-004  0.2620233E+03  0.7818608E-02  0.1105934E+00
         -2   -1    0    0    0  501 -0.00000000000E+00  0.00000000000E+00  0.86363210875E+02  0.86363210875E+02  0.00000000000E+00 0.  1.
          2   -1    0    0  501    0  0.00000000000E+00 -0.00000000000E+00 -0.19874262580E+03  0.19874262580E+03  0.00000000000E+00 0.  1.
         25    1    1    2    0    0  0.47281215229E+01 -0.24719909848E+01  0.72065499087E+00  0.12012071102E+03  0.12000000000E+03 0.  0.
         25    1    1    2    0    0 -0.47281215229E+01  0.24719909848E+01 -0.11310006992E+03  0.16498512566E+03  0.12000000000E+03 0.  0.
<mgrwt>
<rscale>  0 0.26202329E+03</rscale>
<asrwt>0</asrwt>
<pdfrwt beam="1">  1        2 0.30575788E-01 0.26202329E+03</pdfrwt>
<pdfrwt beam="2">  1       -2 0.13286648E-01 0.26202329E+03</pdfrwt>
<totfact> 0.71079396E+03</totfact>
</mgrwt>
</event>
<event>
 4    1  0.1710914E-004  0.3030724E+03  0.7818608E-02  0.1083715E+00
          2   -1    0    0  501    0  0.00000000000E+00  0.00000000000E+00  0.88719765788E+03  0.88719765788E+03  0.00000000000E+00 0.  1.
         -2   -1    0    0    0  501 -0.00000000000E+00 -0.00000000000E+00 -0.25882865184E+02  0.25882865184E+02  0.00000000000E+00 0.  1.
         25    1    1    2    0    0  0.82164498297E+02  0.42570090045E+02  0.43064267610E+03  0.45652637582E+03  0.12000000000E+03 0.  0.
         25    1    1    2    0    0 -0.82164498297E+02 -0.42570090045E+02  0.43067211660E+03  0.45655414724E+03  0.12000000000E+03 0.  0.
<mgrwt>
<rscale>  0 0.30307238E+03</rscale>
<asrwt>0</asrwt>
<pdfrwt beam="1">  1        2 0.13649192E+00 0.30307238E+03</pdfrwt>
<pdfrwt beam="2">  1       -2 0.39819799E-02 0.30307238E+03</pdfrwt>
<totfact> 0.85784681E+03</totfact>
</mgrwt>
</event>
<event>
 4    1  0.1710914E-004  0.3452477E+03  0.7818608E-02  0.1064583E+00
         -1   -1    0    0    0  501 -0.00000000000E+00  0.00000000000E+00  0.21177272406E+02  0.21177272406E+02  0.00000000000E+00 0.  1.
          1   -1    0    0  501    0  0.00000000000E+00 -0.00000000000E+00 -0.14071214865E+04  0.14071214865E+04  0.00000000000E+00 0.  1.
         25    1    1    2    0    0  0.99787348871E+02  0.71014848098E+02 -0.61040019880E+03  0.63402604547E+03  0.12000000000E+03 0.  0.
         25    1    1    2    0    0 -0.99787348871E+02 -0.71014848098E+02 -0.77554401532E+03  0.79427271346E+03  0.12000000000E+03 0.  0.
<mgrwt>
<rscale>  0 0.34524771E+03</rscale>
<asrwt>0</asrwt>
<pdfrwt beam="1">  1        1 0.21648031E+00 0.34524771E+03</pdfrwt>
<pdfrwt beam="2">  1       -1 0.32580407E-02 0.34524771E+03</pdfrwt>
<totfact> 0.27579320E+03</totfact>
</mgrwt>
</event>
<event>
 4    1  0.1710914E-004  0.2808284E+03  0.7818608E-02  0.1095237E+00
         -1   -1    0    0    0  501 -0.00000000000E+00  0.00000000000E+00  0.15586967617E+02  0.15586967617E+02  0.00000000000E+00 0. -1.
          1   -1    0    0  501    0  0.00000000000E+00 -0.00000000000E+00 -0.12649122356E+04  0.12649122356E+04  0.00000000000E+00 0. -1.
         25    1    1    2    0    0  0.88295314129E+01  0.46882082723E+02 -0.87607889462E+03  0.88554509761E+03  0.12000000000E+03 0.  0.
         25    1    1    2    0    0 -0.88295314129E+01 -0.46882082723E+02 -0.37324637335E+03  0.39495410559E+03  0.12000000000E+03 0.  0.
<mgrwt>
<rscale>  0 0.28082839E+03</rscale>
<asrwt>0</asrwt>
<pdfrwt beam="1">  1        1 0.19460185E+00 0.28082839E+03</pdfrwt>
<pdfrwt beam="2">  1       -1 0.23979954E-02 0.28082839E+03</pdfrwt>
<totfact> 0.54204292E+03</totfact>
</mgrwt>
</event>
<event>
 4    1  0.1710914E-004  0.4956826E+03  0.7818608E-02  0.1014912E+00
         -2   -1    0    0    0  501 -0.00000000000E+00  0.00000000000E+00  0.88968354577E+02  0.88968354577E+02  0.00000000000E+00 0. -1.
          2   -1    0    0  501    0  0.00000000000E+00 -0.00000000000E+00 -0.69041758546E+03  0.69041758546E+03  0.00000000000E+00 0. -1.
         25    1    1    2    0    0  0.10521527367E+03  0.15678466901E+03 -0.46841124024E+03  0.51909611464E+03  0.12000000000E+03 0.  0.
         25    1    1    2    0    0 -0.10521527367E+03 -0.15678466901E+03 -0.13303799064E+03  0.26028982539E+03  0.12000000000E+03 0.  0.
<mgrwt>
<rscale>  0 0.49568263E+03</rscale>
<asrwt>0</asrwt>
<pdfrwt beam="1">  1        2 0.10621809E+00 0.49568263E+03</pdfrwt>
<pdfrwt beam="2">  1       -2 0.13687439E-01 0.49568263E+03</pdfrwt>
<totfact> 0.17053749E+03</totfact>
</mgrwt>
</event>
<event>
 4    1  0.1710914E-004  0.6490949E+03  0.7818608E-02  0.9808479E-01
         -2   -1    0    0    0  501 -0.00000000000E+00  0.00000000000E+00  0.35011474334E+02  0.35011474334E+02  0.00000000000E+00 0.  1.
          2   -1    0    0  501    0  0.00000000000E+00 -0.00000000000E+00 -0.30084722395E+04  0.30084722395E+04  0.00000000000E+00 0.  1.
         25    1    1    2    0    0  0.26411819792E+03  0.13467119575E+03 -0.17450960343E+04  0.17741631612E+04  0.12000000000E+03 0.  0.
         25    1    1    2    0    0 -0.26411819792E+03 -0.13467119575E+03 -0.12283647308E+04  0.12693205527E+04  0.12000000000E+03 0.  0.
<mgrwt>
<rscale>  0 0.64909490E+03</rscale>
<asrwt>0</asrwt>
<pdfrwt beam="1">  1        2 0.46284201E+00 0.64909490E+03</pdfrwt>
<pdfrwt beam="2">  1       -2 0.53863791E-02 0.64909490E+03</pdfrwt>
<totfact> 0.33756115E+02</totfact>
</mgrwt>
</event>
<event>
 4    1  0.1710914E-004  0.2628588E+03  0.7818608E-02  0.1105438E+00
          1   -1    0    0  501    0  0.00000000000E+00  0.00000000000E+00  0.24821025211E+04  0.24821025211E+04  0.00000000000E+00 0. -1.
         -1   -1    0    0    0  501 -0.00000000000E+00 -0.00000000000E+00 -0.69592985213E+01  0.69592985213E+01  0.00000000000E+00 0. -1.
         25    1    1    2    0    0 -0.16579651705E+02 -0.28492587819E+02  0.83728326946E+03  0.84648094233E+03  0.12000000000E+03 0.  0.
         25    1    1    2    0    0  0.16579651705E+02  0.28492587819E+02  0.16378599531E+04  0.16425808773E+04  0.12000000000E+03 0.  0.
<mgrwt>
<rscale>  0 0.26285884E+03</rscale>
<asrwt>0</asrwt>
<pdfrwt beam="1">  1        1 0.38186122E+00 0.26285884E+03</pdfrwt>
<pdfrwt beam="2">  1       -1 0.10706633E-02 0.26285884E+03</pdfrwt>
<totfact> 0.27782361E+03</totfact>
</mgrwt>
</event>
<event>
 4    1  0.1710914E-004  0.3119045E+03  0.7818608E-02  0.1079437E+00
          1   -1    0    0  501    0  0.00000000000E+00  0.00000000000E+00  0.46816915162E+03  0.46816915162E+03  0.00000000000E+00 0.  1.
         -1   -1    0    0    0  501 -0.00000000000E+00 -0.00000000000E+00 -0.51949406959E+02  0.51949406959E+02  0.00000000000E+00 0.  1.
         25    1    1    2    0    0 -0.24957231664E+02 -0.61249268512E+02  0.83915797749E+02  0.16067419649E+03  0.12000000000E+03 0.  0.
         25    1    1    2    0    0  0.24957231664E+02  0.61249268512E+02  0.33230394692E+03  0.35944436209E+03  0.12000000000E+03 0.  0.
<mgrwt>
<rscale>  0 0.31190454E+03</rscale>
<asrwt>0</asrwt>
<pdfrwt beam="1">  1        1 0.72026020E-01 0.31190454E+03</pdfrwt>
<pdfrwt beam="2">  1       -1 0.79922168E-02 0.31190454E+03</pdfrwt>
<totfact> 0.42507406E+03</totfact>
</mgrwt>
</event>
<event>
 4    1  0.1710914E-004  0.2520095E+03  0.7818608E-02  0.1112041E+00
          2   -1    0    0  501    0  0.00000000000E+00  0.00000000000E+00  0.17854392724E+02  0.17854392724E+02  0.00000000000E+00 0. -1.
         -2   -1    0    0    0  501 -0.00000000000E+00 -0.00000000000E+00 -0.88925986396E+03  0.88925986396E+03  0.00000000000E+00 0. -1.
         25    1    1    2    0    0 -0.21202151685E+02 -0.86633173564E+01 -0.32460561554E+03  0.34683337490E+03  0.12000000000E+03 0.  0.
         25    1    1    2    0    0  0.21202151685E+02  0.86633173564E+01 -0.54679985569E+03  0.56028088178E+03  0.12000000000E+03 0.  0.
<mgrwt>
<rscale>  0 0.25200948E+03</rscale>
<asrwt>0</asrwt>
<pdfrwt beam="1">  1        2 0.27468293E-02 0.25200948E+03</pdfrwt>
<pdfrwt beam="2">  1       -2 0.13680923E+00 0.25200948E+03</pdfrwt>
<totfact> 0.14136679E+03</totfact>
</mgrwt>
</event>
<event>
 4    1  0.1710914E-004  0.4109358E+03  0.7818608E-02  0.1040057E+00
          1   -1    0    0  501    0  0.00000000000E+00  0.00000000000E+00  0.15681664243E+04  0.15681664243E+04  0.00000000000E+00 0. -1.
         -1   -1    0    0    0  501 -0.00000000000E+00 -0.00000000000E+00 -0.26921292178E+02  0.26921292178E+02  0.00000000000E+00 0. -1.
         25    1    1    2    0    0  0.16237979778E+03 -0.13588635358E+02  0.63255457183E+03  0.66413638364E+03  0.12000000000E+03 0.  0.
         25    1    1    2    0    0 -0.16237979778E+03  0.13588635358E+02  0.90869056029E+03  0.93095133283E+03  0.12000000000E+03 0.  0.
<mgrwt>
<rscale>  0 0.41093584E+03</rscale>
<asrwt>0</asrwt>
<pdfrwt beam="1">  1        1 0.24125630E+00 0.41093584E+03</pdfrwt>
<pdfrwt beam="2">  1       -1 0.41417385E-02 0.41093584E+03</pdfrwt>
<totfact> 0.14980934E+03</totfact>
</mgrwt>
</event>
<event>
 4    1  0.1710914E-004  0.3915049E+03  0.7818608E-02  0.1046762E+00
          2   -1    0    0  501    0  0.00000000000E+00  0.00000000000E+00  0.86259143243E+02  0.86259143243E+02  0.00000000000E+00 0. -1.
         -2   -1    0    0    0  501 -0.00000000000E+00 -0.00000000000E+00 -0.44423146486E+03  0.44423146486E+03  0.00000000000E+00 0. -1.
         25    1    1    2    0    0  0.13640719625E+03  0.43767278921E+02 -0.25795541816E+03  0.31853335093E+03  0.12000000000E+03 0.  0.
         25    1    1    2    0    0 -0.13640719625E+03 -0.43767278921E+02 -0.10001690346E+03  0.21195725718E+03  0.12000000000E+03 0.  0.
<mgrwt>
<rscale>  0 0.39150492E+03</rscale>
<asrwt>0</asrwt>
<pdfrwt beam="1">  1        2 0.13270638E-01 0.39150492E+03</pdfrwt>
<pdfrwt beam="2">  1       -2 0.68343302E-01 0.39150492E+03</pdfrwt>
<totfact> 0.91336911E+02</totfact>
</mgrwt>
</event>
<event>
 4    1  0.1710914E-004  0.2661982E+03  0.7818608E-02  0.1103475E+00
          1   -1    0    0  501    0  0.00000000000E+00  0.00000000000E+00  0.13198392990E+04  0.13198392990E+04  0.00000000000E+00 0.  1.
         -1   -1    0    0    0  501 -0.00000000000E+00 -0.00000000000E+00 -0.13422368188E+02  0.13422368188E+02  0.00000000000E+00 0.  1.
         25    1    1    2    0    0 -0.25426605811E+02 -0.30276170763E+01  0.39490761983E+03  0.41353078113E+03  0.12000000000E+03 0.  0.
         25    1    1    2    0    0  0.25426605811E+02  0.30276170763E+01  0.91150931099E+03  0.91973088606E+03  0.12000000000E+03 0.  0.
<mgrwt>
<rscale>  0 0.26619819E+03</rscale>
<asrwt>0</asrwt>
<pdfrwt beam="1">  1        1 0.20305210E+00 0.26619819E+03</pdfrwt>
<pdfrwt beam="2">  1       -1 0.20649808E-02 0.26619819E+03</pdfrwt>
<totfact> 0.61836016E+03</totfact>
</mgrwt>
</event>
<event>
 4    1  0.1710914E-004  0.3022267E+03  0.7818608E-02  0.1084133E+00
          2   -1    0    0  501    0  0.00000000000E+00  0.00000000000E+00  0.73993158976E+03  0.73993158976E+03  0.00000000000E+00 0. -1.
         -2   -1    0    0    0  501 -0.00000000000E+00 -0.00000000000E+00 -0.30861291761E+02  0.30861291761E+02  0.00000000000E+00 0. -1.
         25    1    1    2    0    0  0.39836214858E+01 -0.89497351123E+02  0.40615118093E+03  0.43287922897E+03  0.12000000000E+03 0.  0.
         25    1    1    2    0    0 -0.39836214858E+01  0.89497351123E+02  0.30291911706E+03  0.33791365255E+03  0.12000000000E+03 0.  0.
<mgrwt>
<rscale>  0 0.30222670E+03</rscale>
<asrwt>0</asrwt>
<pdfrwt beam="1">  1        2 0.11383562E+00 0.30222670E+03</pdfrwt>
<pdfrwt beam="2">  1       -2 0.47478916E-02 0.30222670E+03</pdfrwt>
<totfact> 0.82999986E+03</totfact>
</mgrwt>
</event>
<event>
 4    1  0.1710914E-004  0.2703213E+03  0.7818608E-02  0.1101096E+00
          2   -1    0    0  501    0  0.00000000000E+00  0.00000000000E+00  0.70177336418E+03  0.70177336418E+03  0.00000000000E+00 0. -1.
         -2   -1    0    0    0  501 -0.00000000000E+00 -0.00000000000E+00 -0.26031771952E+02  0.26031771952E+02  0.00000000000E+00 0. -1.
         25    1    1    2    0    0 -0.52341741553E+02 -0.32232407511E+02  0.31235454139E+03  0.34021161874E+03  0.12000000000E+03 0.  0.
         25    1    1    2    0    0  0.52341741553E+02  0.32232407511E+02  0.36338705084E+03  0.38759351739E+03  0.12000000000E+03 0.  0.
<mgrwt>
<rscale>  0 0.27032132E+03</rscale>
<asrwt>0</asrwt>
<pdfrwt beam="1">  1        2 0.10796512E+00 0.27032132E+03</pdfrwt>
<pdfrwt beam="2">  1       -2 0.40048885E-02 0.27032132E+03</pdfrwt>
<totfact> 0.11414165E+04</totfact>
</mgrwt>
</event>
<event>
 4    1  0.1710914E-004  0.3056049E+03  0.7818608E-02  0.1082472E+00
          2   -1    0    0  501    0  0.00000000000E+00  0.00000000000E+00  0.25111406295E+02  0.25111406295E+02  0.00000000000E+00 0.  1.
         -2   -1    0    0    0  501 -0.00000000000E+00 -0.00000000000E+00 -0.92980008953E+03  0.92980008953E+03  0.00000000000E+00 0.  1.
         25    1    1    2    0    0  0.76157386503E+02  0.77115451374E+01 -0.62601397518E+03  0.64199136487E+03  0.12000000000E+03 0.  0.
         25    1    1    2    0    0 -0.76157386503E+02 -0.77115451374E+01 -0.27867470806E+03  0.31292013096E+03  0.12000000000E+03 0.  0.
<mgrwt>
<rscale>  0 0.30560489E+03</rscale>
<asrwt>0</asrwt>
<pdfrwt beam="1">  1        2 0.38632936E-02 0.30560489E+03</pdfrwt>
<pdfrwt beam="2">  1       -2 0.14304616E+00 0.30560489E+03</pdfrwt>
<totfact> 0.79836221E+02</totfact>
</mgrwt>
</event>
<event>
 4    1  0.1710914E-004  0.3012337E+03  0.7818608E-02  0.1084626E+00
          1   -1    0    0  501    0  0.00000000000E+00  0.00000000000E+00  0.17135723175E+04  0.17135723175E+04  0.00000000000E+00 0.  1.
         -1   -1    0    0    0  501 -0.00000000000E+00 -0.00000000000E+00 -0.13238677134E+02  0.13238677134E+02  0.00000000000E+00 0.  1.
         25    1    1    2    0    0  0.64167775475E+02 -0.23469870850E+02  0.50540346584E+03  0.52392843169E+03  0.12000000000E+03 0.  0.
         25    1    1    2    0    0 -0.64167775475E+02  0.23469870850E+02  0.11949301745E+04  0.12028825630E+04  0.12000000000E+03 0.  0.
<mgrwt>
<rscale>  0 0.30123367E+03</rscale>
<asrwt>0</asrwt>
<pdfrwt beam="1">  1        1 0.26362633E+00 0.30123367E+03</pdfrwt>
<pdfrwt beam="2">  1       -1 0.20367209E-02 0.30123367E+03</pdfrwt>
<totfact> 0.34585224E+03</totfact>
</mgrwt>
</event>
<event>
 4    1  0.1710914E-004  0.3278874E+03  0.7818608E-02  0.1072075E+00
         -1   -1    0    0    0  501 -0.00000000000E+00  0.00000000000E+00  0.94668261214E+02  0.94668261214E+02  0.00000000000E+00 0. -1.
          1   -1    0    0  501    0  0.00000000000E+00 -0.00000000000E+00 -0.28391281243E+03  0.28391281243E+03  0.00000000000E+00 0. -1.
         25    1    1    2    0    0  0.27447579415E+02  0.82294638379E+02 -0.13374068084E+02  0.14867630214E+03  0.12000000000E+03 0.  0.
         25    1    1    2    0    0 -0.27447579415E+02 -0.82294638379E+02 -0.17587048313E+03  0.22990477150E+03  0.12000000000E+03 0.  0.
<mgrwt>
<rscale>  0 0.32788737E+03</rscale>
<asrwt>0</asrwt>
<pdfrwt beam="1">  1        1 0.43678894E-01 0.32788737E+03</pdfrwt>
<pdfrwt beam="2">  1       -1 0.14564348E-01 0.32788737E+03</pdfrwt>
<totfact> 0.31698385E+03</totfact>
</mgrwt>
</event>
<event>
 4    1  0.1710914E-004  0.2695253E+03  0.7818608E-02  0.1101552E+00
          2   -1    0    0  501    0  0.00000000000E+00  0.00000000000E+00  0.58575280342E+02  0.58575280342E+02  0.00000000000E+00 0.  1.
         -2   -1    0    0    0  501 -0.00000000000E+00 -0.00000000000E+00 -0.31004501030E+03  0.31004501030E+03  0.00000000000E+00 0.  1.
         25    1    1    2    0    0  0.49604242112E+02  0.34740396716E+02 -0.13895937047E+03  0.19333179418E+03  0.12000000000E+03 0.  0.
         25    1    1    2    0    0 -0.49604242112E+02 -0.34740396716E+02 -0.11251035948E+03  0.17528849646E+03  0.12000000000E+03 0.  0.
<mgrwt>
<rscale>  0 0.26952531E+03</rscale>
<asrwt>0</asrwt>
<pdfrwt beam="1">  1        2 0.90115815E-02 0.26952531E+03</pdfrwt>
<pdfrwt beam="2">  1       -2 0.47699233E-01 0.26952531E+03</pdfrwt>
<totfact> 0.30688567E+03</totfact>
</mgrwt>
</event>
<event>
 4    1  0.1710914E-004  0.4317451E+03  0.7818608E-02  0.1033310E+00
         -1   -1    0    0    0  501 -0.00000000000E+00  0.00000000000E+00  0.21774770669E+03  0.21774770669E+03  0.00000000000E+00 0.  1.
          1   -1    0    0  501    0  0.00000000000E+00 -0.00000000000E+00 -0.21401356558E+03  0.21401356558E+03  0.00000000000E+00 0.  1.
         25    1    1    2    0    0  0.16370194973E+03  0.38252362451E+02  0.64633990273E+02  0.21642348365E+03  0.12000000000E+03 0.  0.
         25    1    1    2    0    0 -0.16370194973E+03 -0.38252362451E+02 -0.60899849164E+02  0.21533778862E+03  0.12000000000E+03 0.  0.
<mgrwt>
<rscale>  0 0.43174512E+03</rscale>
<asrwt>0</asrwt>
<pdfrwt beam="1">  1        1 0.32925164E-01 0.43174512E+03</pdfrwt>
<pdfrwt beam="2">  1       -1 0.33499647E-01 0.43174512E+03</pdfrwt>
<totfact> 0.11413519E+03</totfact>
</mgrwt>
</event>
<event>
 4    1  0.1710914E-004  0.2929853E+03  0.7818608E-02  0.1088801E+00
         -1   -1    0    0    0  501 -0.00000000000E+00  0.00000000000E+00  0.26409072788E+02  0.26409072788E+02  0.00000000000E+00 0. -1.
          1   -1    0    0  501    0  0.00000000000E+00 -0.00000000000E+00 -0.81260299577E+03  0.81260299577E+03  0.00000000000E+00 0. -1.
         25    1    1    2    0    0 -0.24172807376E+02 -0.94600919618E+01 -0.16424945233E+03  0.20506511294E+03  0.12000000000E+03 0.  0.
         25    1    1    2    0    0  0.24172807376E+02  0.94600919618E+01 -0.62194447066E+03  0.63394695562E+03  0.12000000000E+03 0.  0.
<mgrwt>
<rscale>  0 0.29298527E+03</rscale>
<asrwt>0</asrwt>
<pdfrwt beam="1">  1        1 0.12501584E+00 0.29298527E+03</pdfrwt>
<pdfrwt beam="2">  1       -1 0.40629346E-02 0.29298527E+03</pdfrwt>
<totfact> 0.54037360E+03</totfact>
</mgrwt>
</event>
<event>
 4    1  0.1710914E-004  0.2937014E+03  0.7818608E-02  0.1088432E+00
         -2   -1    0    0    0  501 -0.00000000000E+00  0.00000000000E+00  0.34244170290E+02  0.34244170290E+02  0.00000000000E+00 0.  1.
          2   -1    0    0  501    0  0.00000000000E+00 -0.00000000000E+00 -0.62974604672E+03  0.62974604672E+03  0.00000000000E+00 0.  1.
         25    1    1    2    0    0  0.58172382900E+02 -0.60193047427E+02 -0.32615949288E+03  0.35747341703E+03  0.12000000000E+03 0.  0.
         25    1    1    2    0    0 -0.58172382900E+02  0.60193047427E+02 -0.26934238355E+03  0.30651679998E+03  0.12000000000E+03 0.  0.
<mgrwt>
<rscale>  0 0.29370142E+03</rscale>
<asrwt>0</asrwt>
<pdfrwt beam="1">  1        2 0.96884004E-01 0.29370142E+03</pdfrwt>
<pdfrwt beam="2">  1       -2 0.52683341E-02 0.29370142E+03</pdfrwt>
<totfact> 0.86011163E+03</totfact>
</mgrwt>
</event>
<event>
 4    1  0.1710914E-004  0.2679513E+03  0.7818608E-02  0.1102458E+00
          1   -1    0    0  501    0  0.00000000000E+00  0.00000000000E+00  0.43991866033E+03  0.43991866033E+03  0.00000000000E+00 0.  1.
         -1   -1    0    0    0  501 -0.00000000000E+00 -0.00000000000E+00 -0.40801818178E+02  0.40801818178E+02  0.00000000000E+00 0.  1.
         25    1    1    2    0    0 -0.16067284255E+01 -0.52736086523E+02  0.24920573055E+03  0.28157978005E+03  0.12000000000E+03 0.  0.
         25    1    1    2    0    0  0.16067284255E+01  0.52736086523E+02  0.14991111161E+03  0.19914069845E+03  0.12000000000E+03 0.  0.
<mgrwt>
<rscale>  0 0.26795135E+03</rscale>
<asrwt>0</asrwt>
<pdfrwt beam="1">  1        1 0.67679791E-01 0.26795135E+03</pdfrwt>
<pdfrwt beam="2">  1       -1 0.62772031E-02 0.26795135E+03</pdfrwt>
<totfact> 0.66317612E+03</totfact>
</mgrwt>
</event>
<event>
 4    1  0.1710914E-004  0.2748012E+03  0.7818608E-02  0.1098563E+00
          3   -1    0    0  501    0  0.00000000000E+00  0.00000000000E+00  0.21168422596E+03  0.21168422596E+03  0.00000000000E+00 0. -1.
         -3   -1    0    0    0  501 -0.00000000000E+00 -0.00000000000E+00 -0.89184340352E+02  0.89184340352E+02  0.00000000000E+00 0. -1.
         25    1    1    2    0    0  0.18021450954E+02  0.20253569451E+02 -0.57420058691E+01  0.12315823319E+03  0.12000000000E+03 0.  0.
         25    1    1    2    0    0 -0.18021450954E+02 -0.20253569451E+02  0.12824189148E+03  0.17771033313E+03  0.12000000000E+03 0.  0.
<mgrwt>
<rscale>  0 0.27480115E+03</rscale>
<asrwt>0</asrwt>
<pdfrwt beam="1">  1        3 0.32566804E-01 0.27480115E+03</pdfrwt>
<pdfrwt beam="2">  1       -3 0.13720668E-01 0.27480115E+03</pdfrwt>
<totfact> 0.10126868E+03</totfact>
</mgrwt>
</event>
<event>
 4    1  0.1710914E-004  0.2814670E+03  0.7818608E-02  0.1094890E+00
         -2   -1    0    0    0  501 -0.00000000000E+00  0.00000000000E+00  0.16945460301E+02  0.16945460301E+02  0.00000000000E+00 0. -1.
          2   -1    0    0  501    0  0.00000000000E+00 -0.00000000000E+00 -0.11688035772E+04  0.11688035772E+04  0.00000000000E+00 0. -1.
         25    1    1    2    0    0 -0.66402438533E+01 -0.42038616266E+02 -0.32335473373E+03  0.34751923965E+03  0.12000000000E+03 0.  0.
         25    1    1    2    0    0  0.66402438533E+01  0.42038616266E+02 -0.82850338318E+03  0.83822979787E+03  0.12000000000E+03 0.  0.
<mgrwt>
<rscale>  0 0.28146698E+03</rscale>
<asrwt>0</asrwt>
<pdfrwt beam="1">  1        2 0.17981594E+00 0.28146698E+03</pdfrwt>
<pdfrwt beam="2">  1       -2 0.26069938E-02 0.28146698E+03</pdfrwt>
<totfact> 0.10866835E+04</totfact>
</mgrwt>
</event>
<event>
 4    1  0.1710914E-004  0.2549825E+03  0.7818608E-02  0.1110196E+00
          1   -1    0    0  501    0  0.00000000000E+00  0.00000000000E+00  0.17455752153E+03  0.17455752153E+03  0.00000000000E+00 0. -1.
         -1   -1    0    0    0  501 -0.00000000000E+00 -0.00000000000E+00 -0.93115553865E+02  0.93115553865E+02  0.00000000000E+00 0. -1.
         25    1    1    2    0    0 -0.33775620296E+02  0.13006986212E+02  0.16235305620E+02  0.12638654741E+03  0.12000000000E+03 0.  0.
         25    1    1    2    0    0  0.33775620296E+02 -0.13006986212E+02  0.65206662048E+02  0.14128652799E+03  0.12000000000E+03 0.  0.
<mgrwt>
<rscale>  0 0.25498251E+03</rscale>
<asrwt>0</asrwt>
<pdfrwt beam="1">  1        1 0.26855003E-01 0.25498251E+03</pdfrwt>
<pdfrwt beam="2">  1       -1 0.14325470E-01 0.25498251E+03</pdfrwt>
<totfact> 0.59663333E+03</totfact>
</mgrwt>
</event>
<event>
 4    1  0.1710914E-004  0.2853270E+03  0.7818608E-02  0.1092815E+00
         -1   -1    0    0    0  501 -0.00000000000E+00  0.00000000000E+00  0.20831940667E+02  0.20831940667E+02  0.00000000000E+00 0. -1.
          1   -1    0    0  501    0  0.00000000000E+00 -0.00000000000E+00 -0.97700318392E+03  0.97700318392E+03  0.00000000000E+00 0. -1.
         25    1    1    2    0    0  0.18109487337E+02  0.74212431616E+02 -0.44018794968E+03  0.46260228013E+03  0.12000000000E+03 0.  0.
         25    1    1    2    0    0 -0.18109487337E+02 -0.74212431616E+02 -0.51598329357E+03  0.53523284446E+03  0.12000000000E+03 0.  0.
<mgrwt>
<rscale>  0 0.28532699E+03</rscale>
<asrwt>0</asrwt>
<pdfrwt beam="1">  1        1 0.15030816E+00 0.28532699E+03</pdfrwt>
<pdfrwt beam="2">  1       -1 0.32049144E-02 0.28532699E+03</pdfrwt>
<totfact> 0.56942690E+03</totfact>
</mgrwt>
</event>
<event>
 4    1  0.1710914E-004  0.2892497E+03  0.7818608E-02  0.1090742E+00
          2   -1    0    0  501    0  0.00000000000E+00  0.00000000000E+00  0.95328785546E+03  0.95328785546E+03  0.00000000000E+00 0.  1.
         -2   -1    0    0    0  501 -0.00000000000E+00 -0.00000000000E+00 -0.21941266037E+02  0.21941266037E+02  0.00000000000E+00 0.  1.
         25    1    1    2    0    0  0.58987779580E+02 -0.37968960809E+02  0.60033171418E+03  0.61621373498E+03  0.12000000000E+03 0.  0.
         25    1    1    2    0    0 -0.58987779580E+02  0.37968960809E+02  0.33101487524E+03  0.35901538651E+03  0.12000000000E+03 0.  0.
<mgrwt>
<rscale>  0 0.28924967E+03</rscale>
<asrwt>0</asrwt>
<pdfrwt beam="1">  1        2 0.14665964E+00 0.28924967E+03</pdfrwt>
<pdfrwt beam="2">  1       -2 0.33755801E-02 0.28924967E+03</pdfrwt>
<totfact> 0.99611357E+03</totfact>
</mgrwt>
</event>
<event>
 4    1  0.1710914E-004  0.2932201E+03  0.7818608E-02  0.1088680E+00
         -1   -1    0    0    0  501 -0.00000000000E+00  0.00000000000E+00  0.42087436048E+02  0.42087436048E+02  0.00000000000E+00 0.  1.
          1   -1    0    0  501    0  0.00000000000E+00 -0.00000000000E+00 -0.51071074952E+03  0.51071074952E+03  0.00000000000E+00 0.  1.
         25    1    1    2    0    0  0.75881936809E+02  0.19644049855E+02 -0.17618703638E+03  0.22712513911E+03  0.12000000000E+03 0.  0.
         25    1    1    2    0    0 -0.75881936809E+02 -0.19644049855E+02 -0.29243627709E+03  0.32567304646E+03  0.12000000000E+03 0.  0.
<mgrwt>
<rscale>  0 0.29322009E+03</rscale>
<asrwt>0</asrwt>
<pdfrwt beam="1">  1        1 0.78570886E-01 0.29322009E+03</pdfrwt>
<pdfrwt beam="2">  1       -1 0.64749900E-02 0.29322009E+03</pdfrwt>
<totfact> 0.52125192E+03</totfact>
</mgrwt>
</event>
<event>
 4    1  0.1710914E-004  0.3584222E+03  0.7818608E-02  0.1059210E+00
         -2   -1    0    0    0  501 -0.00000000000E+00  0.00000000000E+00  0.15971104575E+03  0.15971104575E+03  0.00000000000E+00 0. -1.
          2   -1    0    0  501    0  0.00000000000E+00 -0.00000000000E+00 -0.20109205028E+03  0.20109205028E+03  0.00000000000E+00 0. -1.
         25    1    1    2    0    0  0.25134665082E+02  0.73755353425E+02 -0.12931941083E+03  0.19286034731E+03  0.12000000000E+03 0.  0.
         25    1    1    2    0    0 -0.25134665082E+02 -0.73755353425E+02  0.87938406297E+02  0.16794274873E+03  0.12000000000E+03 0.  0.
<mgrwt>
<rscale>  0 0.35842222E+03</rscale>
<asrwt>0</asrwt>
<pdfrwt beam="1">  1        2 0.30937238E-01 0.35842222E+03</pdfrwt>
<pdfrwt beam="2">  1       -2 0.24570930E-01 0.35842222E+03</pdfrwt>
<totfact> 0.24962608E+03</totfact>
</mgrwt>
</event>
<event>
 4    1  0.1710914E-004  0.2878146E+03  0.7818608E-02  0.1091496E+00
          2   -1    0    0  501    0  0.00000000000E+00  0.00000000000E+00  0.18865897745E+04  0.18865897745E+04  0.00000000000E+00 0. -1.
         -2   -1    0    0    0  501 -0.00000000000E+00 -0.00000000000E+00 -0.10977114717E+02  0.10977114717E+02  0.00000000000E+00 0. -1.
         25    1    1    2    0    0 -0.28020343503E+02 -0.63622384478E+02  0.11911331183E+04  0.11991793247E+04  0.12000000000E+03 0.  0.
         25    1    1    2    0    0  0.28020343503E+02  0.63622384478E+02  0.68447954147E+03  0.69838756443E+03  0.12000000000E+03 0.  0.
<mgrwt>
<rscale>  0 0.28781461E+03</rscale>
<asrwt>0</asrwt>
<pdfrwt beam="1">  1        2 0.29024432E+00 0.28781461E+03</pdfrwt>
<pdfrwt beam="2">  1       -2 0.16887884E-02 0.28781461E+03</pdfrwt>
<totfact> 0.84556258E+03</totfact>
</mgrwt>
</event>
<event>
 4    1  0.1710914E-004  0.2564617E+03  0.7818608E-02  0.1109288E+00
         -2   -1    0    0    0  501 -0.00000000000E+00  0.00000000000E+00  0.20879865576E+02  0.20879865576E+02  0.00000000000E+00 0. -1.
          2   -1    0    0  501    0  0.00000000000E+00 -0.00000000000E+00 -0.78751202400E+03  0.78751202400E+03  0.00000000000E+00 0. -1.
         25    1    1    2    0    0  0.27526115534E+02 -0.25278646334E+02 -0.30317293579E+03  0.32819281831E+03  0.12000000000E+03 0.  0.
         25    1    1    2    0    0 -0.27526115534E+02  0.25278646334E+02 -0.46345922263E+03  0.48019907126E+03  0.12000000000E+03 0.  0.
<mgrwt>
<rscale>  0 0.25646166E+03</rscale>
<asrwt>0</asrwt>
<pdfrwt beam="1">  1        2 0.12115572E+00 0.25646166E+03</pdfrwt>
<pdfrwt beam="2">  1       -2 0.32122863E-02 0.25646166E+03</pdfrwt>
<totfact> 0.13738535E+04</totfact>
</mgrwt>
</event>
<event>
 4    1  0.1710914E-004  0.2660180E+03  0.7818608E-02  0.1103580E+00
         -2   -1    0    0    0  501 -0.00000000000E+00  0.00000000000E+00  0.18924607404E+03  0.18924607404E+03  0.00000000000E+00 0.  1.
          2   -1    0    0  501    0  0.00000000000E+00 -0.00000000000E+00 -0.93483513585E+02  0.93483513585E+02  0.00000000000E+00 0.  1.
         25    1    1    2    0    0 -0.47904528569E+02  0.12396838787E+02  0.17025348290E+02  0.13091366603E+03  0.12000000000E+03 0.  0.
         25    1    1    2    0    0  0.47904528569E+02 -0.12396838787E+02  0.78737212159E+02  0.15181592159E+03  0.12000000000E+03 0.  0.
<mgrwt>
<rscale>  0 0.26601795E+03</rscale>
<asrwt>0</asrwt>
<pdfrwt beam="1">  1        2 0.14382079E-01 0.26601795E+03</pdfrwt>
<pdfrwt beam="2">  1       -2 0.29114780E-01 0.26601795E+03</pdfrwt>
<totfact> 0.43939490E+03</totfact>
</mgrwt>
</event>
<event>
 4    1  0.1710914E-004  0.2764310E+03  0.7818608E-02  0.1097654E+00
         -2   -1    0    0    0  501 -0.00000000000E+00  0.00000000000E+00  0.24057606746E+02  0.24057606746E+02  0.00000000000E+00 0.  1.
          2   -1    0    0  501    0  0.00000000000E+00 -0.00000000000E+00 -0.79407444118E+03  0.79407444118E+03  0.00000000000E+00 0.  1.
         25    1    1    2    0    0 -0.25483689436E+02 -0.45596793981E+02 -0.51653848438E+03  0.53286066836E+03  0.12000000000E+03 0.  0.
         25    1    1    2    0    0  0.25483689436E+02  0.45596793981E+02 -0.25347835006E+03  0.28527137957E+03  0.12000000000E+03 0.  0.
<mgrwt>
<rscale>  0 0.27643104E+03</rscale>
<asrwt>0</asrwt>
<pdfrwt beam="1">  1        2 0.12216532E+00 0.27643104E+03</pdfrwt>
<pdfrwt beam="2">  1       -2 0.37011697E-02 0.27643104E+03</pdfrwt>
<totfact> 0.11032190E+04</totfact>
</mgrwt>
</event>
<event>
 4    1  0.1710914E-004  0.2610076E+03  0.7818608E-02  0.1106539E+00
         -2   -1    0    0    0  501 -0.00000000000E+00  0.00000000000E+00  0.13101372638E+03  0.13101372638E+03  0.00000000000E+00 0. -1.
          2   -1    0    0  501    0  0.00000000000E+00 -0.00000000000E+00 -0.12999587532E+03  0.12999587532E+03  0.00000000000E+00 0. -1.
         25    1    1    2    0    0  0.35966847446E+02 -0.32190540513E+02 -0.16852053972E+02  0.13043709878E+03  0.12000000000E+03 0.  0.
         25    1    1    2    0    0 -0.35966847446E+02  0.32190540513E+02  0.17869905025E+02  0.13057250292E+03  0.12000000000E+03 0.  0.
<mgrwt>
<rscale>  0 0.26100762E+03</rscale>
<asrwt>0</asrwt>
<pdfrwt beam="1">  1        2 0.19999365E-01 0.26100762E+03</pdfrwt>
<pdfrwt beam="2">  1       -2 0.20155958E-01 0.26100762E+03</pdfrwt>
<totfact> 0.57003542E+03</totfact>
</mgrwt>
</event>
<event>
 4    1  0.1710914E-004  0.2812864E+03  0.7818608E-02  0.1094988E+00
         -1   -1    0    0    0  501 -0.00000000000E+00  0.00000000000E+00  0.19137627297E+02  0.19137627297E+02  0.00000000000E+00 0.  1.
          1   -1    0    0  501    0  0.00000000000E+00 -0.00000000000E+00 -0.10335925987E+04  0.10335925987E+04  0.00000000000E+00 0.  1.
         25    1    1    2    0    0  0.19645343610E+02  0.24258656762E+02 -0.75565227922E+03  0.76575765686E+03  0.12000000000E+03 0.  0.
         25    1    1    2    0    0 -0.19645343610E+02 -0.24258656762E+02 -0.25880269217E+03  0.28697256912E+03  0.12000000000E+03 0.  0.
<mgrwt>
<rscale>  0 0.28128640E+03</rscale>
<asrwt>0</asrwt>
<pdfrwt beam="1">  1        1 0.15901426E+00 0.28128640E+03</pdfrwt>
<pdfrwt beam="2">  1       -1 0.29442501E-02 0.28128640E+03</pdfrwt>
<totfact> 0.58539454E+03</totfact>
</mgrwt>
</event>
<event>
 4    1  0.1710914E-004  0.2790776E+03  0.7818608E-02  0.1096194E+00
         -2   -1    0    0    0  501 -0.00000000000E+00  0.00000000000E+00  0.89266365032E+01  0.89266365032E+01  0.00000000000E+00 0. -1.
          2   -1    0    0  501    0  0.00000000000E+00 -0.00000000000E+00 -0.21812336374E+04  0.21812336374E+04  0.00000000000E+00 0. -1.
         25    1    1    2    0    0  0.50776783814E+02  0.33955474380E+02 -0.13734132163E+04  0.13799982314E+04  0.12000000000E+03 0.  0.
         25    1    1    2    0    0 -0.50776783814E+02 -0.33955474380E+02 -0.79889378469E+03  0.81016204257E+03  0.12000000000E+03 0.  0.
<mgrwt>
<rscale>  0 0.27907762E+03</rscale>
<asrwt>0</asrwt>
<pdfrwt beam="1">  1        2 0.33557430E+00 0.27907762E+03</pdfrwt>
<pdfrwt beam="2">  1       -2 0.13733291E-02 0.27907762E+03</pdfrwt>
<totfact> 0.79992778E+03</totfact>
</mgrwt>
</event>
<event>
 4    1  0.1710914E-004  0.3064048E+03  0.7818608E-02  0.1082082E+00
         -4   -1    0    0    0  501 -0.00000000000E+00  0.00000000000E+00  0.23558918807E+03  0.23558918807E+03  0.00000000000E+00 0.  1.
          4   -1    0    0  501    0  0.00000000000E+00 -0.00000000000E+00 -0.99626719005E+02  0.99626719005E+02  0.00000000000E+00 0.  1.
         25    1    1    2    0    0 -0.87180155095E+02  0.69024220598E+01  0.10925029767E+03  0.18434654978E+03  0.12000000000E+03 0.  0.
         25    1    1    2    0    0  0.87180155095E+02 -0.69024220598E+01  0.26712171397E+02  0.15086935730E+03  0.12000000000E+03 0.  0.
<mgrwt>
<rscale>  0 0.30640482E+03</rscale>
<asrwt>0</asrwt>
<pdfrwt beam="1">  1        4 0.15327188E-01 0.30640482E+03</pdfrwt>
<pdfrwt beam="2">  1       -4 0.36244490E-01 0.30640482E+03</pdfrwt>
<totfact> 0.50891217E+02</totfact>
</mgrwt>
</event>
<event>
 4    1  0.1710914E-004  0.2997547E+03  0.7818608E-02  0.1085363E+00
          1   -1    0    0  501    0  0.00000000000E+00  0.00000000000E+00  0.22270082997E+03  0.22270082997E+03  0.00000000000E+00 0. -1.
         -1   -1    0    0    0  501 -0.00000000000E+00 -0.00000000000E+00 -0.10086726375E+03  0.10086726375E+03  0.00000000000E+00 0. -1.
         25    1    1    2    0    0  0.80569516045E+02 -0.39645394988E+02  0.61065946711E+02  0.16184021165E+03  0.12000000000E+03 0.  0.
         25    1    1    2    0    0 -0.80569516045E+02  0.39645394988E+02  0.60767619505E+02  0.16172788207E+03  0.12000000000E+03 0.  0.
<mgrwt>
<rscale>  0 0.29975472E+03</rscale>
<asrwt>0</asrwt>
<pdfrwt beam="1">  1        1 0.34261666E-01 0.29975472E+03</pdfrwt>
<pdfrwt beam="2">  1       -1 0.15518041E-01 0.29975472E+03</pdfrwt>
<totfact> 0.38840172E+03</totfact>
</mgrwt>
</event>
<event>
 4    1  0.1710914E-004  0.3291881E+03  0.7818608E-02  0.1071497E+00
          1   -1    0    0  501    0  0.00000000000E+00  0.00000000000E+00  0.39344745424E+02  0.39344745424E+02  0.00000000000E+00 0. -1.
         -1   -1    0    0    0  501 -0.00000000000E+00 -0.00000000000E+00 -0.68855963294E+03  0.68855963294E+03  0.00000000000E+00 0. -1.
         25    1    1    2    0    0 -0.31188173782E+01 -0.88224737675E+02 -0.47935860169E+03  0.50197410329E+03  0.12000000000E+03 0.  0.
         25    1    1    2    0    0  0.31188173782E+01  0.88224737675E+02 -0.16985628582E+03  0.22593027507E+03  0.12000000000E+03 0.  0.
<mgrwt>
<rscale>  0 0.32918811E+03</rscale>
<asrwt>0</asrwt>
<pdfrwt beam="1">  1        1 0.60530384E-02 0.32918811E+03</pdfrwt>
<pdfrwt beam="2">  1       -1 0.10593224E+00 0.32918811E+03</pdfrwt>
<totfact> 0.11322377E+03</totfact>
</mgrwt>
</event>
<event>
 4    1  0.1710914E-004  0.2910294E+03  0.7818608E-02  0.1089813E+00
          1   -1    0    0  501    0  0.00000000000E+00  0.00000000000E+00  0.10747863076E+04  0.10747863076E+04  0.00000000000E+00 0. -1.
         -1   -1    0    0    0  501 -0.00000000000E+00 -0.00000000000E+00 -0.19701152855E+02  0.19701152855E+02  0.00000000000E+00 0. -1.
         25    1    1    2    0    0 -0.49912542043E+02 -0.94707745502E+00  0.77364508121E+03  0.78448637368E+03  0.12000000000E+03 0.  0.
         25    1    1    2    0    0  0.49912542043E+02  0.94707745502E+00  0.28144007351E+03  0.31000108675E+03  0.12000000000E+03 0.  0.
<mgrwt>
<rscale>  0 0.29102941E+03</rscale>
<asrwt>0</asrwt>
<pdfrwt beam="1">  1        1 0.16535169E+00 0.29102941E+03</pdfrwt>
<pdfrwt beam="2">  1       -1 0.30309474E-02 0.29102941E+03</pdfrwt>
<totfact> 0.52341306E+03</totfact>
</mgrwt>
</event>
<event>
 4    1  0.1710914E-004  0.2423960E+03  0.7818608E-02  0.1118207E+00
          1   -1    0    0  501    0  0.00000000000E+00  0.00000000000E+00  0.14853754159E+04  0.14853754159E+04  0.00000000000E+00 0. -1.
         -1   -1    0    0    0  501 -0.00000000000E+00 -0.00000000000E+00 -0.98890489697E+01  0.98890489697E+01  0.00000000000E+00 0. -1.
         25    1    1    2    0    0  0.11918838356E+02  0.91131411880E+01  0.78703178294E+03  0.79626888386E+03  0.12000000000E+03 0.  0.
         25    1    1    2    0    0 -0.11918838356E+02 -0.91131411880E+01  0.68845458398E+03  0.69899558100E+03  0.12000000000E+03 0.  0.
<mgrwt>
<rscale>  0 0.24239596E+03</rscale>
<asrwt>0</asrwt>
<pdfrwt beam="1">  1        1 0.22851912E+00 0.24239596E+03</pdfrwt>
<pdfrwt beam="2">  1       -1 0.15213933E-02 0.24239596E+03</pdfrwt>
<totfact> 0.74611071E+03</totfact>
</mgrwt>
</event>
<event>
 4    1  0.1710914E-004  0.2730237E+03  0.7818608E-02  0.1099561E+00
          1   -1    0    0  501    0  0.00000000000E+00  0.00000000000E+00  0.13050731099E+04  0.13050731099E+04  0.00000000000E+00 0. -1.
         -1   -1    0    0    0  501 -0.00000000000E+00 -0.00000000000E+00 -0.14279268169E+02  0.14279268169E+02  0.00000000000E+00 0. -1.
         25    1    1    2    0    0  0.26769618863E+02 -0.34454555161E+02  0.87874398525E+03  0.88797225208E+03  0.12000000000E+03 0.  0.
         25    1    1    2    0    0 -0.26769618863E+02  0.34454555161E+02  0.41204985651E+03  0.43138012600E+03  0.12000000000E+03 0.  0.
<mgrwt>
<rscale>  0 0.27302373E+03</rscale>
<asrwt>0</asrwt>
<pdfrwt beam="1">  1        1 0.20078038E+00 0.27302373E+03</pdfrwt>
<pdfrwt beam="2">  1       -1 0.21968115E-02 0.27302373E+03</pdfrwt>
<totfact> 0.57827526E+03</totfact>
</mgrwt>
</event>
<event>
 4    1  0.1710914E-004  0.2981847E+03  0.7818608E-02  0.1086152E+00
          1   -1    0    0  501    0  0.00000000000E+00  0.00000000000E+00  0.81164622192E+03  0.81164622192E+03  0.00000000000E+00 0.  1.
         -1   -1    0    0    0  501 -0.00000000000E+00 -0.00000000000E+00 -0.27386965391E+02  0.27386965391E+02  0.00000000000E+00 0.  1.
         25    1    1    2    0    0 -0.14928927394E+02 -0.73043981639E+02  0.25806049147E+03  0.29419978481E+03  0.12000000000E+03 0.  0.
         25    1    1    2    0    0  0.14928927394E+02  0.73043981639E+02  0.52619876506E+03  0.54483340250E+03  0.12000000000E+03 0.  0.
<mgrwt>
<rscale>  0 0.29818469E+03</rscale>
<asrwt>0</asrwt>
<pdfrwt beam="1">  1        1 0.12486863E+00 0.29818469E+03</pdfrwt>
<pdfrwt beam="2">  1       -1 0.42133799E-02 0.29818469E+03</pdfrwt>
<totfact> 0.51295454E+03</totfact>
</mgrwt>
</event>
<event>
 4    1  0.1710914E-004  0.2902854E+03  0.7818608E-02  0.1090200E+00
          1   -1    0    0  501    0  0.00000000000E+00  0.00000000000E+00  0.62342953900E+02  0.62342953900E+02  0.00000000000E+00 0.  1.
         -1   -1    0    0    0  501 -0.00000000000E+00 -0.00000000000E+00 -0.33791146542E+03  0.33791146542E+03  0.00000000000E+00 0.  1.
         25    1    1    2    0    0 -0.60651286609E+02 -0.24540523350E+01 -0.21307647457E+03  0.25196465021E+03  0.12000000000E+03 0.  0.
         25    1    1    2    0    0  0.60651286609E+02  0.24540523350E+01 -0.62492036950E+02  0.14828976911E+03  0.12000000000E+03 0.  0.
<mgrwt>
<rscale>  0 0.29028537E+03</rscale>
<asrwt>0</asrwt>
<pdfrwt beam="1">  1        1 0.95912240E-02 0.29028537E+03</pdfrwt>
<pdfrwt beam="2">  1       -1 0.51986377E-01 0.29028537E+03</pdfrwt>
<totfact> 0.25898429E+03</totfact>
</mgrwt>
</event>
<event>
 4    1  0.1710914E-004  0.3038933E+03  0.7818608E-02  0.1083310E+00
          1   -1    0    0  501    0  0.00000000000E+00  0.00000000000E+00  0.26430458114E+03  0.26430458114E+03  0.00000000000E+00 0. -1.
         -1   -1    0    0    0  501 -0.00000000000E+00 -0.00000000000E+00 -0.87352974614E+02  0.87352974614E+02  0.00000000000E+00 0. -1.
         25    1    1    2    0    0 -0.73267112153E+02  0.19404888403E+02  0.25697932635E+02  0.14423939531E+03  0.12000000000E+03 0.  0.
         25    1    1    2    0    0  0.73267112153E+02 -0.19404888403E+02  0.15125367389E+03  0.20741816045E+03  0.12000000000E+03 0.  0.
<mgrwt>
<rscale>  0 0.30389335E+03</rscale>
<asrwt>0</asrwt>
<pdfrwt beam="1">  1        1 0.40662243E-01 0.30389335E+03</pdfrwt>
<pdfrwt beam="2">  1       -1 0.13438919E-01 0.30389335E+03</pdfrwt>
<totfact> 0.39340417E+03</totfact>
</mgrwt>
</event>
<event>
 4    1  0.1710914E-004  0.3774665E+03  0.7818608E-02  0.1051874E+00
         -2   -1    0    0    0  501 -0.00000000000E+00  0.00000000000E+00  0.44616307463E+02  0.44616307463E+02  0.00000000000E+00 0. -1.
          2   -1    0    0  501    0  0.00000000000E+00 -0.00000000000E+00 -0.79836797068E+03  0.79836797068E+03  0.00000000000E+00 0. -1.
         25    1    1    2    0    0 -0.91121181679E+02 -0.72295502202E+02 -0.57272377197E+03  0.59660894091E+03  0.12000000000E+03 0.  0.
         25    1    1    2    0    0  0.91121181679E+02  0.72295502202E+02 -0.18102789124E+03  0.24637533724E+03  0.12000000000E+03 0.  0.
<mgrwt>
<rscale>  0 0.37746645E+03</rscale>
<asrwt>0</asrwt>
<pdfrwt beam="1">  1        2 0.12282583E+00 0.37746645E+03</pdfrwt>
<pdfrwt beam="2">  1       -2 0.68640480E-02 0.37746645E+03</pdfrwt>
<totfact> 0.42947610E+03</totfact>
</mgrwt>
</event>
<event>
 4    1  0.1710914E-004  0.2671093E+03  0.7818608E-02  0.1102945E+00
          2   -1    0    0  501    0  0.00000000000E+00  0.00000000000E+00  0.32845513463E+03  0.32845513463E+03  0.00000000000E+00 0.  1.
         -2   -1    0    0    0  501 -0.00000000000E+00 -0.00000000000E+00 -0.54305280768E+02  0.54305280768E+02  0.00000000000E+00 0.  1.
         25    1    1    2    0    0  0.24435227483E+02  0.43736876699E+02  0.93449114470E+02  0.16013348095E+03  0.12000000000E+03 0.  0.
         25    1    1    2    0    0 -0.24435227483E+02 -0.43736876699E+02  0.18070073939E+03  0.22262693445E+03  0.12000000000E+03 0.  0.
<mgrwt>
<rscale>  0 0.26710933E+03</rscale>
<asrwt>0</asrwt>
<pdfrwt beam="1">  1        2 0.50531558E-01 0.26710933E+03</pdfrwt>
<pdfrwt beam="2">  1       -2 0.83546588E-02 0.26710933E+03</pdfrwt>
<totfact> 0.86677036E+03</totfact>
</mgrwt>
</event>
<event>
 4    1  0.1710914E-004  0.2518199E+03  0.7818608E-02  0.1112160E+00
         -1   -1    0    0    0  501 -0.00000000000E+00  0.00000000000E+00  0.91072949415E+02  0.91072949415E+02  0.00000000000E+00 0. -1.
          1   -1    0    0  501    0  0.00000000000E+00 -0.00000000000E+00 -0.17407265894E+03  0.17407265894E+03  0.00000000000E+00 0. -1.
         25    1    1    2    0    0  0.13535204461E+01  0.29379169930E+02 -0.67039195883E+02  0.14056749777E+03  0.12000000000E+03 0.  0.
         25    1    1    2    0    0 -0.13535204461E+01 -0.29379169930E+02 -0.15960513647E+02  0.12457811059E+03  0.12000000000E+03 0.  0.
<mgrwt>
<rscale>  0 0.25181986E+03</rscale>
<asrwt>0</asrwt>
<pdfrwt beam="1">  1        1 0.26780409E-01 0.25181986E+03</pdfrwt>
<pdfrwt beam="2">  1       -1 0.14011223E-01 0.25181986E+03</pdfrwt>
<totfact> 0.61976092E+03</totfact>
</mgrwt>
</event>
<event>
 4    1  0.1710914E-004  0.3174712E+03  0.7818608E-02  0.1076819E+00
          1   -1    0    0  501    0  0.00000000000E+00  0.00000000000E+00  0.17813901508E+03  0.17813901508E+03  0.00000000000E+00 0. -1.
         -1   -1    0    0    0  501 -0.00000000000E+00 -0.00000000000E+00 -0.14144569194E+03  0.14144569194E+03  0.00000000000E+00 0. -1.
         25    1    1    2    0    0  0.99992674672E+02  0.21306587684E+02  0.37030679919E+02  0.16193757106E+03  0.12000000000E+03 0.  0.
         25    1    1    2    0    0 -0.99992674672E+02 -0.21306587684E+02 -0.33735677758E+00  0.15764713596E+03  0.12000000000E+03 0.  0.
<mgrwt>
<rscale>  0 0.31747123E+03</rscale>
<asrwt>0</asrwt>
<pdfrwt beam="1">  1        1 0.27406002E-01 0.31747123E+03</pdfrwt>
<pdfrwt beam="2">  1       -1 0.21760876E-01 0.31747123E+03</pdfrwt>
<totfact> 0.29845636E+03</totfact>
</mgrwt>
</event>
<event>
 4    1  0.1710914E-004  0.2722912E+03  0.7818608E-02  0.1099975E+00
         -4   -1    0    0    0  501 -0.00000000000E+00  0.00000000000E+00  0.89084161509E+03  0.89084161509E+03  0.00000000000E+00 0. -1.
          4   -1    0    0  501    0  0.00000000000E+00 -0.00000000000E+00 -0.20806870084E+02  0.20806870084E+02  0.00000000000E+00 0. -1.
         25    1    1    2    0    0  0.31786035155E+02  0.32026495700E+02  0.58842951197E+03  0.60223362495E+03  0.12000000000E+03 0.  0.
         25    1    1    2    0    0 -0.31786035155E+02 -0.32026495700E+02  0.28160523304E+03  0.30941486023E+03  0.12000000000E+03 0.  0.
<mgrwt>
<rscale>  0 0.27229121E+03</rscale>
<asrwt>0</asrwt>
<pdfrwt beam="1">  1        4 0.32010576E-02 0.27229121E+03</pdfrwt>
<pdfrwt beam="2">  1       -4 0.13705253E+00 0.27229121E+03</pdfrwt>
<totfact> 0.36263339E+02</totfact>
</mgrwt>
</event>
<event>
 4    1  0.1710914E-004  0.2506342E+03  0.7818608E-02  0.1112905E+00
         -1   -1    0    0    0  501 -0.00000000000E+00  0.00000000000E+00  0.13581123578E+03  0.13581123578E+03  0.00000000000E+00 0. -1.
          1   -1    0    0  501    0  0.00000000000E+00 -0.00000000000E+00 -0.11563381898E+03  0.11563381898E+03  0.00000000000E+00 0. -1.
         25    1    1    2    0    0 -0.24874336894E+02  0.25086897354E+02  0.17615434211E+02  0.12632651573E+03  0.12000000000E+03 0.  0.
         25    1    1    2    0    0  0.24874336894E+02 -0.25086897354E+02  0.25619825897E+01  0.12511853903E+03  0.12000000000E+03 0.  0.
<mgrwt>
<rscale>  0 0.25063417E+03</rscale>
<asrwt>0</asrwt>
<pdfrwt beam="1">  1        1 0.17789818E-01 0.25063417E+03</pdfrwt>
<pdfrwt beam="2">  1       -1 0.20894036E-01 0.25063417E+03</pdfrwt>
<totfact> 0.55162866E+03</totfact>
</mgrwt>
</event>
<event>
 4    1  0.1710914E-004  0.2554129E+03  0.7818608E-02  0.1109931E+00
          1   -1    0    0  501    0  0.00000000000E+00  0.00000000000E+00  0.95915487410E+02  0.95915487410E+02  0.00000000000E+00 0.  1.
         -1   -1    0    0    0  501 -0.00000000000E+00 -0.00000000000E+00 -0.17003442497E+03  0.17003442497E+03  0.00000000000E+00 0.  1.
         25    1    1    2    0    0  0.13076446867E+02  0.41231345529E+02 -0.30647719843E+02  0.13118803318E+03  0.12000000000E+03 0.  0.
         25    1    1    2    0    0 -0.13076446867E+02 -0.41231345529E+02 -0.43471217715E+02  0.13476187920E+03  0.12000000000E+03 0.  0.
<mgrwt>
<rscale>  0 0.25541288E+03</rscale>
<asrwt>0</asrwt>
<pdfrwt beam="1">  1        1 0.14756229E-01 0.25541288E+03</pdfrwt>
<pdfrwt beam="2">  1       -1 0.26159142E-01 0.25541288E+03</pdfrwt>
<totfact> 0.48624388E+03</totfact>
</mgrwt>
</event>
<event>
 4    1  0.1710914E-004  0.2758939E+03  0.7818608E-02  0.1097953E+00
         -2   -1    0    0    0  501 -0.00000000000E+00  0.00000000000E+00  0.64216102450E+02  0.64216102450E+02  0.00000000000E+00 0.  1.
          2   -1    0    0  501    0  0.00000000000E+00 -0.00000000000E+00 -0.29633318557E+03  0.29633318557E+03  0.00000000000E+00 0.  1.
         25    1    1    2    0    0  0.55261362025E+02 -0.32899918881E+02 -0.87037874858E+02  0.16159150490E+03  0.12000000000E+03 0.  0.
         25    1    1    2    0    0 -0.55261362025E+02  0.32899918881E+02 -0.14507920826E+03  0.19895778312E+03  0.12000000000E+03 0.  0.
<mgrwt>
<rscale>  0 0.27589391E+03</rscale>
<asrwt>0</asrwt>
<pdfrwt beam="1">  1        2 0.45589722E-01 0.27589391E+03</pdfrwt>
<pdfrwt beam="2">  1       -2 0.98794002E-02 0.27589391E+03</pdfrwt>
<totfact> 0.74426478E+03</totfact>
</mgrwt>
</event>
<event>
 4    1  0.1710914E-004  0.5536961E+03  0.7818608E-02  0.1000642E+00
          2   -1    0    0  501    0  0.00000000000E+00  0.00000000000E+00  0.30219570946E+04  0.30219570946E+04  0.00000000000E+00 0. -1.
         -2   -1    0    0    0  501 -0.00000000000E+00 -0.00000000000E+00 -0.25362646525E+02  0.25362646525E+02  0.00000000000E+00 0. -1.
         25    1    1    2    0    0 -0.10206731959E+03  0.25323465352E+02  0.25314799234E+03  0.29923723306E+03  0.12000000000E+03 0.  0.
         25    1    1    2    0    0  0.10206731959E+03 -0.25323465352E+02  0.27434464557E+04  0.27480825080E+04  0.12000000000E+03 0.  0.
<mgrwt>
<rscale>  0 0.55369605E+03</rscale>
<asrwt>0</asrwt>
<pdfrwt beam="1">  1        2 0.46491619E+00 0.55369605E+03</pdfrwt>
<pdfrwt beam="2">  1       -2 0.39019480E-02 0.55369605E+03</pdfrwt>
<totfact> 0.55116388E+02</totfact>
</mgrwt>
</event>
<event>
 4    1  0.1710914E-004  0.2458062E+03  0.7818608E-02  0.1115984E+00
         -1   -1    0    0    0  501 -0.00000000000E+00  0.00000000000E+00  0.25481880569E+03  0.25481880569E+03  0.00000000000E+00 0.  1.
          1   -1    0    0  501    0  0.00000000000E+00 -0.00000000000E+00 -0.59278111410E+02  0.59278111410E+02  0.00000000000E+00 0.  1.
         25    1    1    2    0    0 -0.96939386767E+01 -0.22322322437E+02  0.11134892617E+03  0.16550178816E+03  0.12000000000E+03 0.  0.
         25    1    1    2    0    0  0.96939386767E+01  0.22322322437E+02  0.84191768107E+02  0.14859512893E+03  0.12000000000E+03 0.  0.
<mgrwt>
<rscale>  0 0.24580625E+03</rscale>
<asrwt>0</asrwt>
<pdfrwt beam="1">  1        1 0.91197096E-02 0.24580625E+03</pdfrwt>
<pdfrwt beam="2">  1       -1 0.39202893E-01 0.24580625E+03</pdfrwt>
<totfact> 0.46023517E+03</totfact>
</mgrwt>
</event>
<event>
 4    1  0.1710914E-004  0.3777688E+03  0.7818608E-02  0.1051762E+00
          2   -1    0    0  501    0  0.00000000000E+00  0.00000000000E+00  0.16490060295E+04  0.16490060295E+04  0.00000000000E+00 0.  1.
         -2   -1    0    0    0  501 -0.00000000000E+00 -0.00000000000E+00 -0.21635645360E+02  0.21635645360E+02  0.00000000000E+00 0.  1.
         25    1    1    2    0    0  0.14484909956E+03 -0.87610794975E+01  0.74819622203E+03  0.77152809723E+03  0.12000000000E+03 0.  0.
         25    1    1    2    0    0 -0.14484909956E+03  0.87610794975E+01  0.87917416208E+03  0.89911357760E+03  0.12000000000E+03 0.  0.
<mgrwt>
<rscale>  0 0.37776876E+03</rscale>
<asrwt>0</asrwt>
<pdfrwt beam="1">  1        2 0.25369314E+00 0.37776876E+03</pdfrwt>
<pdfrwt beam="2">  1       -2 0.33285621E-02 0.37776876E+03</pdfrwt>
<totfact> 0.41226127E+03</totfact>
</mgrwt>
</event>
<event>
 4    1  0.1710914E-004  0.2503792E+03  0.7818608E-02  0.1113065E+00
          1   -1    0    0  501    0  0.00000000000E+00  0.00000000000E+00  0.11193909899E+04  0.11193909899E+04  0.00000000000E+00 0.  1.
         -1   -1    0    0    0  501 -0.00000000000E+00 -0.00000000000E+00 -0.14000854826E+02  0.14000854826E+02  0.00000000000E+00 0.  1.
         25    1    1    2    0    0  0.10662390909E+02  0.27356289344E+01  0.70628710788E+03  0.71649330004E+03  0.12000000000E+03 0.  0.
         25    1    1    2    0    0 -0.10662390909E+02 -0.27356289344E+01  0.39910302718E+03  0.41689854467E+03  0.12000000000E+03 0.  0.
<mgrwt>
<rscale>  0 0.25037916E+03</rscale>
<asrwt>0</asrwt>
<pdfrwt beam="1">  1        1 0.17221393E+00 0.25037916E+03</pdfrwt>
<pdfrwt beam="2">  1       -1 0.21539785E-02 0.25037916E+03</pdfrwt>
<totfact> 0.80043178E+03</totfact>
</mgrwt>
</event>
<event>
 4    1  0.1710914E-004  0.3056469E+03  0.7818608E-02  0.1082451E+00
          2   -1    0    0  501    0  0.00000000000E+00  0.00000000000E+00  0.12277652294E+03  0.12277652294E+03  0.00000000000E+00 0.  1.
         -2   -1    0    0    0  501 -0.00000000000E+00 -0.00000000000E+00 -0.19022374047E+03  0.19022374047E+03  0.00000000000E+00 0.  1.
         25    1    1    2    0    0  0.12550573182E+02 -0.11692202068E+01  0.62320424991E+02  0.13580397393E+03  0.12000000000E+03 0.  0.
         25    1    1    2    0    0 -0.12550573182E+02  0.11692202068E+01 -0.12976764252E+03  0.17719628948E+03  0.12000000000E+03 0.  0.
<mgrwt>
<rscale>  0 0.30564692E+03</rscale>
<asrwt>0</asrwt>
<pdfrwt beam="1">  1        2 0.18888696E-01 0.30564692E+03</pdfrwt>
<pdfrwt beam="2">  1       -2 0.29265191E-01 0.30564692E+03</pdfrwt>
<totfact> 0.31742321E+03</totfact>
</mgrwt>
</event>
<event>
 4    1  0.1710914E-004  0.2743414E+03  0.7818608E-02  0.1098820E+00
         -2   -1    0    0    0  501 -0.00000000000E+00  0.00000000000E+00  0.16769705880E+02  0.16769705880E+02  0.00000000000E+00 0.  1.
          2   -1    0    0  501    0  0.00000000000E+00 -0.00000000000E+00 -0.11220112052E+04  0.11220112052E+04  0.00000000000E+00 0.  1.
         25    1    1    2    0    0 -0.83124045157E+01  0.65908140152E+02 -0.54565145853E+03  0.56262642420E+03  0.12000000000E+03 0.  0.
         25    1    1    2    0    0  0.83124045157E+01 -0.65908140152E+02 -0.55959004080E+03  0.57615448690E+03  0.12000000000E+03 0.  0.
<mgrwt>
<rscale>  0 0.27434138E+03</rscale>
<asrwt>0</asrwt>
<pdfrwt beam="1">  1        2 0.17261707E+00 0.27434138E+03</pdfrwt>
<pdfrwt beam="2">  1       -2 0.25799553E-02 0.27434138E+03</pdfrwt>
<totfact> 0.11737166E+04</totfact>
</mgrwt>
</event>
<event>
 4    1  0.1710914E-004  0.2889494E+03  0.7818608E-02  0.1090899E+00
         -1   -1    0    0    0  501 -0.00000000000E+00  0.00000000000E+00  0.45074492054E+02  0.45074492054E+02  0.00000000000E+00 0.  1.
          1   -1    0    0  501    0  0.00000000000E+00 -0.00000000000E+00 -0.46307655901E+03  0.46307655901E+03  0.00000000000E+00 0.  1.
         25    1    1    2    0    0 -0.63833812596E+02 -0.38884661937E+02 -0.15664954032E+03  0.21101149506E+03  0.12000000000E+03 0.  0.
         25    1    1    2    0    0  0.63833812596E+02  0.38884661937E+02 -0.26135252664E+03  0.29713955601E+03  0.12000000000E+03 0.  0.
<mgrwt>
<rscale>  0 0.28894941E+03</rscale>
<asrwt>0</asrwt>
<pdfrwt beam="1">  1        1 0.71242544E-01 0.28894941E+03</pdfrwt>
<pdfrwt beam="2">  1       -1 0.69345376E-02 0.28894941E+03</pdfrwt>
<totfact> 0.53457460E+03</totfact>
</mgrwt>
</event>
<event>
 4    1  0.1710914E-004  0.3075185E+03  0.7818608E-02  0.1081541E+00
          2   -1    0    0  501    0  0.00000000000E+00  0.00000000000E+00  0.23379884898E+03  0.23379884898E+03  0.00000000000E+00 0.  1.
         -2   -1    0    0    0  501 -0.00000000000E+00 -0.00000000000E+00 -0.10112071760E+03  0.10112071760E+03  0.00000000000E+00 0.  1.
         25    1    1    2    0    0  0.81779169138E+02 -0.40571273150E+02  0.33520216003E+02  0.15445862097E+03  0.12000000000E+03 0.  0.
         25    1    1    2    0    0 -0.81779169138E+02  0.40571273150E+02  0.99157915371E+02  0.18046094561E+03  0.12000000000E+03 0.  0.
<mgrwt>
<rscale>  0 0.30751850E+03</rscale>
<asrwt>0</asrwt>
<pdfrwt beam="1">  1        2 0.35969053E-01 0.30751850E+03</pdfrwt>
<pdfrwt beam="2">  1       -2 0.15557034E-01 0.30751850E+03</pdfrwt>
<totfact> 0.46167232E+03</totfact>
</mgrwt>
</event>
<event>
 4    1  0.1710914E-004  0.2523786E+03  0.7818608E-02  0.1111811E+00
          2   -1    0    0  501    0  0.00000000000E+00  0.00000000000E+00  0.87419279832E+03  0.87419279832E+03  0.00000000000E+00 0. -1.
         -2   -1    0    0    0  501 -0.00000000000E+00 -0.00000000000E+00 -0.18215368459E+02  0.18215368459E+02  0.00000000000E+00 0. -1.
         25    1    1    2    0    0 -0.29817523534E+02 -0.25012241337E+02  0.43862434478E+03  0.45640553542E+03  0.12000000000E+03 0.  0.
         25    1    1    2    0    0  0.29817523534E+02  0.25012241337E+02  0.41735308508E+03  0.43600263136E+03  0.12000000000E+03 0.  0.
<mgrwt>
<rscale>  0 0.25237864E+03</rscale>
<asrwt>0</asrwt>
<pdfrwt beam="1">  1        2 0.13449117E+00 0.25237864E+03</pdfrwt>
<pdfrwt beam="2">  1       -2 0.28023651E-02 0.25237864E+03</pdfrwt>
<totfact> 0.14699429E+04</totfact>
</mgrwt>
</event>
<event>
 4    1  0.1710914E-004  0.2896168E+03  0.7818608E-02  0.1090549E+00
         -2   -1    0    0    0  501 -0.00000000000E+00  0.00000000000E+00  0.79139212147E+02  0.79139212147E+02  0.00000000000E+00 0. -1.
          2   -1    0    0  501    0  0.00000000000E+00 -0.00000000000E+00 -0.26496947130E+03  0.26496947130E+03  0.00000000000E+00 0. -1.
         25    1    1    2    0    0 -0.31089645747E+02 -0.74450527765E+02 -0.10212066285E+03  0.17702563921E+03  0.12000000000E+03 0.  0.
         25    1    1    2    0    0  0.31089645747E+02  0.74450527765E+02 -0.83709596296E+02  0.16708304423E+03  0.12000000000E+03 0.  0.
<mgrwt>
<rscale>  0 0.28961682E+03</rscale>
<asrwt>0</asrwt>
<pdfrwt beam="1">  1        2 0.40764533E-01 0.28961682E+03</pdfrwt>
<pdfrwt beam="2">  1       -2 0.12175264E-01 0.28961682E+03</pdfrwt>
<totfact> 0.60158801E+03</totfact>
</mgrwt>
</event>
<event>
 4    1  0.1710914E-004  0.2597875E+03  0.7818608E-02  0.1107271E+00
         -3   -1    0    0    0  501 -0.00000000000E+00  0.00000000000E+00  0.10969968179E+03  0.10969968179E+03  0.00000000000E+00 0.  1.
          3   -1    0    0  501    0  0.00000000000E+00 -0.00000000000E+00 -0.15380521129E+03  0.15380521129E+03  0.00000000000E+00 0.  1.
         25    1    1    2    0    0  0.23236309653E+02  0.13704295463E+02 -0.64419451743E+02  0.13884379555E+03  0.12000000000E+03 0.  0.
         25    1    1    2    0    0 -0.23236309653E+02 -0.13704295463E+02  0.20313922240E+02  0.12466109753E+03  0.12000000000E+03 0.  0.
<mgrwt>
<rscale>  0 0.25978747E+03</rscale>
<asrwt>0</asrwt>
<pdfrwt beam="1">  1        3 0.23662340E-01 0.25978747E+03</pdfrwt>
<pdfrwt beam="2">  1       -3 0.16876874E-01 0.25978747E+03</pdfrwt>
<totfact> 0.12698420E+03</totfact>
</mgrwt>
</event>
<event>
 4    1  0.1710914E-004  0.2776321E+03  0.7818608E-02  0.1096989E+00
         -1   -1    0    0    0  501 -0.00000000000E+00  0.00000000000E+00  0.18168692439E+02  0.18168692439E+02  0.00000000000E+00 0. -1.
          1   -1    0    0  501    0  0.00000000000E+00 -0.00000000000E+00 -0.10606102940E+04  0.10606102940E+04  0.00000000000E+00 0. -1.
         25    1    1    2    0    0 -0.60807247726E+01  0.65028585875E+02 -0.61673252696E+03  0.63168402070E+03  0.12000000000E+03 0.  0.
         25    1    1    2    0    0  0.60807247726E+01 -0.65028585875E+02 -0.42570907465E+03  0.44709496579E+03  0.12000000000E+03 0.  0.
<mgrwt>
<rscale>  0 0.27763215E+03</rscale>
<asrwt>0</asrwt>
<pdfrwt beam="1">  1        1 0.16317085E+00 0.27763215E+03</pdfrwt>
<pdfrwt beam="2">  1       -1 0.27951828E-02 0.27763215E+03</pdfrwt>
<totfact> 0.60360642E+03</totfact>
</mgrwt>
</event>
<event>
 4    1  0.1710914E-004  0.2546744E+03  0.7818608E-02  0.1110386E+00
         -2   -1    0    0    0  501 -0.00000000000E+00  0.00000000000E+00  0.52013232882E+02  0.52013232882E+02  0.00000000000E+00 0. -1.
          2   -1    0    0  501    0  0.00000000000E+00 -0.00000000000E+00 -0.31174299780E+03  0.31174299780E+03  0.00000000000E+00 0. -1.
         25    1    1    2    0    0 -0.72863657961E+01 -0.23145885674E+02 -0.17987517786E+03  0.21758654085E+03  0.12000000000E+03 0.  0.
         25    1    1    2    0    0  0.72863657961E+01  0.23145885674E+02 -0.79854587057E+02  0.14616968983E+03  0.12000000000E+03 0.  0.
<mgrwt>
<rscale>  0 0.25467439E+03</rscale>
<asrwt>0</asrwt>
<pdfrwt beam="1">  1        2 0.47960461E-01 0.25467439E+03</pdfrwt>
<pdfrwt beam="2">  1       -2 0.80020358E-02 0.25467439E+03</pdfrwt>
<totfact> 0.97874317E+03</totfact>
</mgrwt>
</event>
<event>
 4    1  0.1710914E-004  0.4527726E+03  0.7818608E-02  0.1026898E+00
          1   -1    0    0  501    0  0.00000000000E+00  0.00000000000E+00  0.44667082295E+03  0.44667082295E+03  0.00000000000E+00 0. -1.
         -1   -1    0    0    0  501 -0.00000000000E+00 -0.00000000000E+00 -0.11473941353E+03  0.11473941353E+03  0.00000000000E+00 0. -1.
         25    1    1    2    0    0 -0.60841538223E+02 -0.11222149738E+03  0.34373759790E+03  0.38581199237E+03  0.12000000000E+03 0.  0.
         25    1    1    2    0    0  0.60841538223E+02  0.11222149738E+03 -0.11806188480E+02  0.17559824411E+03  0.12000000000E+03 0.  0.
<mgrwt>
<rscale>  0 0.45277256E+03</rscale>
<asrwt>0</asrwt>
<pdfrwt beam="1">  1        1 0.68718588E-01 0.45277256E+03</pdfrwt>
<pdfrwt beam="2">  1       -1 0.17652218E-01 0.45277256E+03</pdfrwt>
<totfact> 0.13014492E+03</totfact>
</mgrwt>
</event>
<event>
 4    1  0.1710914E-004  0.2428424E+03  0.7818608E-02  0.1117914E+00
         -1   -1    0    0    0  501 -0.00000000000E+00  0.00000000000E+00  0.25929240638E+02  0.25929240638E+02  0.00000000000E+00 0. -1.
          1   -1    0    0  501    0  0.00000000000E+00 -0.00000000000E+00 -0.56859016723E+03  0.56859016723E+03  0.00000000000E+00 0. -1.
         25    1    1    2    0    0  0.14053147348E+02  0.46997406857E+01 -0.29854071366E+03  0.32209647037E+03  0.12000000000E+03 0.  0.
         25    1    1    2    0    0 -0.14053147348E+02 -0.46997406857E+01 -0.24412021293E+03  0.27242293750E+03  0.12000000000E+03 0.  0.
<mgrwt>
<rscale>  0 0.24284243E+03</rscale>
<asrwt>0</asrwt>
<pdfrwt beam="1">  1        1 0.87475407E-01 0.24284243E+03</pdfrwt>
<pdfrwt beam="2">  1       -1 0.39891141E-02 0.24284243E+03</pdfrwt>
<totfact> 0.92617794E+03</totfact>
</mgrwt>
</event>
<event>
 4    1  0.1710914E-004  0.3561786E+03  0.7818608E-02  0.1060107E+00
          1   -1    0    0  501    0  0.00000000000E+00  0.00000000000E+00  0.66711299200E+03  0.66711299200E+03  0.00000000000E+00 0.  1.
         -1   -1    0    0    0  501 -0.00000000000E+00 -0.00000000000E+00 -0.47541870189E+02  0.47541870189E+02  0.00000000000E+00 0.  1.
         25    1    1    2    0    0  0.84161510419E+02  0.56584823779E+02  0.14154496000E+03  0.21147098576E+03  0.12000000000E+03 0.  0.
         25    1    1    2    0    0 -0.84161510419E+02 -0.56584823779E+02  0.47802616181E+03  0.50318387642E+03  0.12000000000E+03 0.  0.
<mgrwt>
<rscale>  0 0.35617860E+03</rscale>
<asrwt>0</asrwt>
<pdfrwt beam="1">  1        1 0.10263276E+00 0.35617860E+03</pdfrwt>
<pdfrwt beam="2">  1       -1 0.73141344E-02 0.35617860E+03</pdfrwt>
<totfact> 0.29971618E+03</totfact>
</mgrwt>
</event>
<event>
 4    1  0.1710914E-004  0.4536646E+03  0.7818608E-02  0.1026635E+00
          1   -1    0    0  501    0  0.00000000000E+00  0.00000000000E+00  0.40940510511E+04  0.40940510511E+04  0.00000000000E+00 0. -1.
         -1   -1    0    0    0  501 -0.00000000000E+00 -0.00000000000E+00 -0.12567718898E+02  0.12567718898E+02  0.00000000000E+00 0. -1.
         25    1    1    2    0    0 -0.78832158452E+02  0.17089810252E+02  0.45865989210E+03  0.48091108060E+03  0.12000000000E+03 0.  0.
         25    1    1    2    0    0  0.78832158452E+02 -0.17089810252E+02  0.36228234401E+04  0.36257076894E+04  0.12000000000E+03 0.  0.
<mgrwt>
<rscale>  0 0.45366456E+03</rscale>
<asrwt>0</asrwt>
<pdfrwt beam="1">  1        1 0.62985294E+00 0.45366456E+03</pdfrwt>
<pdfrwt beam="2">  1       -1 0.19334985E-02 0.45366456E+03</pdfrwt>
<totfact> 0.71530265E+01</totfact>
</mgrwt>
</event>
<event>
 4    1  0.1710914E-004  0.3002799E+03  0.7818608E-02  0.1085101E+00
         -2   -1    0    0    0  501 -0.00000000000E+00  0.00000000000E+00  0.19965594189E+02  0.19965594189E+02  0.00000000000E+00 0.  1.
          2   -1    0    0  501    0  0.00000000000E+00 -0.00000000000E+00 -0.11290428829E+04  0.11290428829E+04  0.00000000000E+00 0.  1.
         25    1    1    2    0    0 -0.59257358203E+02  0.59843010969E+02 -0.67849411015E+03  0.69415191275E+03  0.12000000000E+03 0.  0.
         25    1    1    2    0    0  0.59257358203E+02 -0.59843010969E+02 -0.43058317853E+03  0.45485656431E+03  0.12000000000E+03 0.  0.
<mgrwt>
<rscale>  0 0.30027995E+03</rscale>
<asrwt>0</asrwt>
<pdfrwt beam="1">  1        2 0.17369898E+00 0.30027995E+03</pdfrwt>
<pdfrwt beam="2">  1       -2 0.30716285E-02 0.30027995E+03</pdfrwt>
<totfact> 0.89909493E+03</totfact>
</mgrwt>
</event>
<event>
 4    1  0.1710914E-004  0.2465868E+03  0.7818608E-02  0.1115481E+00
          2   -1    0    0  501    0  0.00000000000E+00  0.00000000000E+00  0.10173546153E+04  0.10173546153E+04  0.00000000000E+00 0.  1.
         -2   -1    0    0    0  501 -0.00000000000E+00 -0.00000000000E+00 -0.14941950985E+02  0.14941950985E+02  0.00000000000E+00 0.  1.
         25    1    1    2    0    0  0.19836130388E+02  0.14351576591E+02  0.56067934730E+03  0.57389961692E+03  0.12000000000E+03 0.  0.
         25    1    1    2    0    0 -0.19836130388E+02 -0.14351576591E+02  0.44173331698E+03  0.45839694933E+03  0.12000000000E+03 0.  0.
<mgrwt>
<rscale>  0 0.24658680E+03</rscale>
<asrwt>0</asrwt>
<pdfrwt beam="1">  1        2 0.15651604E+00 0.24658680E+03</pdfrwt>
<pdfrwt beam="2">  1       -2 0.22987625E-02 0.24658680E+03</pdfrwt>
<totfact> 0.15997706E+04</totfact>
</mgrwt>
</event>
<event>
 4    1  0.1710914E-004  0.3106305E+03  0.7818608E-02  0.1080044E+00
          3   -1    0    0  501    0  0.00000000000E+00  0.00000000000E+00  0.55104175765E+02  0.55104175765E+02  0.00000000000E+00 0. -1.
         -3   -1    0    0    0  501 -0.00000000000E+00 -0.00000000000E+00 -0.43776781106E+03  0.43776781106E+03  0.00000000000E+00 0. -1.
         25    1    1    2    0    0  0.95670382698E+02  0.22293727235E+02 -0.17777501213E+03  0.23591054944E+03  0.12000000000E+03 0.  0.
         25    1    1    2    0    0 -0.95670382698E+02 -0.22293727235E+02 -0.20488862316E+03  0.25696143738E+03  0.12000000000E+03 0.  0.
<mgrwt>
<rscale>  0 0.31063055E+03</rscale>
<asrwt>0</asrwt>
<pdfrwt beam="1">  1        3 0.84775654E-02 0.31063055E+03</pdfrwt>
<pdfrwt beam="2">  1       -3 0.67348895E-01 0.31063055E+03</pdfrwt>
<totfact> 0.53774204E+02</totfact>
</mgrwt>
</event>
<event>
 4    1  0.1710914E-004  0.2432100E+03  0.7818608E-02  0.1117673E+00
          1   -1    0    0  501    0  0.00000000000E+00  0.00000000000E+00  0.33427858188E+02  0.33427858188E+02  0.00000000000E+00 0. -1.
         -1   -1    0    0    0  501 -0.00000000000E+00 -0.00000000000E+00 -0.44237874847E+03  0.44237874847E+03  0.00000000000E+00 0. -1.
         25    1    1    2    0    0 -0.19687883671E+02 -0.47517604537E-01 -0.20525565811E+03  0.23857388836E+03  0.12000000000E+03 0.  0.
         25    1    1    2    0    0  0.19687883671E+02  0.47517604537E-01 -0.20369523217E+03  0.23723271830E+03  0.12000000000E+03 0.  0.
<mgrwt>
<rscale>  0 0.24320998E+03</rscale>
<asrwt>0</asrwt>
<pdfrwt beam="1">  1        1 0.51427475E-02 0.24320998E+03</pdfrwt>
<pdfrwt beam="2">  1       -1 0.68058268E-01 0.24320998E+03</pdfrwt>
<totfact> 0.36000416E+03</totfact>
</mgrwt>
</event>
<event>
 4    1  0.1710914E-004  0.2816641E+03  0.7818608E-02  0.1094784E+00
         -1   -1    0    0    0  501 -0.00000000000E+00  0.00000000000E+00  0.29379750602E+02  0.29379750602E+02  0.00000000000E+00 0. -1.
          1   -1    0    0  501    0  0.00000000000E+00 -0.00000000000E+00 -0.67507938725E+03  0.67507938725E+03  0.00000000000E+00 0. -1.
         25    1    1    2    0    0 -0.62957808610E+02 -0.35502867593E+02 -0.28664703070E+03  0.31904648483E+03  0.12000000000E+03 0.  0.
         25    1    1    2    0    0  0.62957808610E+02  0.35502867593E+02 -0.35905260595E+03  0.38541265302E+03  0.12000000000E+03 0.  0.
<mgrwt>
<rscale>  0 0.28166408E+03</rscale>
<asrwt>0</asrwt>
<pdfrwt beam="1">  1        1 0.10385838E+00 0.28166408E+03</pdfrwt>
<pdfrwt beam="2">  1       -1 0.45199612E-02 0.28166408E+03</pdfrwt>
<totfact> 0.60759259E+03</totfact>
</mgrwt>
</event>
<event>
 4    1  0.1710914E-004  0.3345150E+03  0.7818608E-02  0.1069156E+00
         -2   -1    0    0    0  501 -0.00000000000E+00  0.00000000000E+00  0.41664838735E+02  0.41664838735E+02  0.00000000000E+00 0.  1.
          2   -1    0    0  501    0  0.00000000000E+00 -0.00000000000E+00 -0.67143107847E+03  0.67143107847E+03  0.00000000000E+00 0.  1.
         25    1    1    2    0    0 -0.25117903001E+02 -0.49375665174E+02 -0.96381198500E+02  0.16357934095E+03  0.12000000000E+03 0.  0.
         25    1    1    2    0    0  0.25117903001E+02  0.49375665174E+02 -0.53338504124E+03  0.54951657625E+03  0.12000000000E+03 0.  0.
<mgrwt>
<rscale>  0 0.33451498E+03</rscale>
<asrwt>0</asrwt>
<pdfrwt beam="1">  1        2 0.10329708E+00 0.33451498E+03</pdfrwt>
<pdfrwt beam="2">  1       -2 0.64099755E-02 0.33451498E+03</pdfrwt>
<totfact> 0.59147989E+03</totfact>
</mgrwt>
</event>
<event>
 4    1  0.1710914E-004  0.2796279E+03  0.7818608E-02  0.1095892E+00
          2   -1    0    0  501    0  0.00000000000E+00  0.00000000000E+00  0.41028196446E+03  0.41028196446E+03  0.00000000000E+00 0.  1.
         -2   -1    0    0    0  501 -0.00000000000E+00 -0.00000000000E+00 -0.47645131441E+02  0.47645131441E+02  0.00000000000E+00 0.  1.
         25    1    1    2    0    0 -0.44185663579E+02 -0.30671246746E+02  0.25908154460E+03  0.29054491046E+03  0.12000000000E+03 0.  0.
         25    1    1    2    0    0  0.44185663579E+02  0.30671246746E+02  0.10355528842E+03  0.16738218544E+03  0.12000000000E+03 0.  0.
<mgrwt>
<rscale>  0 0.27962788E+03</rscale>
<asrwt>0</asrwt>
<pdfrwt beam="1">  1        2 0.63120300E-01 0.27962788E+03</pdfrwt>
<pdfrwt beam="2">  1       -2 0.73300205E-02 0.27962788E+03</pdfrwt>
<totfact> 0.83716226E+03</totfact>
</mgrwt>
</event>
<event>
 4    1  0.1710914E-004  0.3118804E+03  0.7818608E-02  0.1079448E+00
          2   -1    0    0  501    0  0.00000000000E+00  0.00000000000E+00  0.86693037981E+02  0.86693037981E+02  0.00000000000E+00 0. -1.
         -2   -1    0    0    0  501 -0.00000000000E+00 -0.00000000000E+00 -0.28049935904E+03  0.28049935904E+03  0.00000000000E+00 0. -1.
         25    1    1    2    0    0  0.78926100384E+02 -0.34302093426E+02 -0.37901839441E+02  0.15245495193E+03  0.12000000000E+03 0.  0.
         25    1    1    2    0    0 -0.78926100384E+02  0.34302093426E+02 -0.15590448162E+03  0.21473744509E+03  0.12000000000E+03 0.  0.
<mgrwt>
<rscale>  0 0.31188037E+03</rscale>
<asrwt>0</asrwt>
<pdfrwt beam="1">  1        2 0.13337390E-01 0.31188037E+03</pdfrwt>
<pdfrwt beam="2">  1       -2 0.43153748E-01 0.31188037E+03</pdfrwt>
<totfact> 0.23126083E+03</totfact>
</mgrwt>
</event>
<event>
 4    1  0.1710914E-004  0.2539608E+03  0.7818608E-02  0.1110827E+00
          2   -1    0    0  501    0  0.00000000000E+00  0.00000000000E+00  0.25618581365E+03  0.25618581365E+03  0.00000000000E+00 0. -1.
         -2   -1    0    0    0  501 -0.00000000000E+00 -0.00000000000E+00 -0.62938767828E+02  0.62938767828E+02  0.00000000000E+00 0. -1.
         25    1    1    2    0    0 -0.75516507340E+01 -0.38257113200E+02  0.78702887942E+02  0.14871038535E+03  0.12000000000E+03 0.  0.
         25    1    1    2    0    0  0.75516507340E+01  0.38257113200E+02  0.11454415788E+03  0.17041419613E+03  0.12000000000E+03 0.  0.
<mgrwt>
<rscale>  0 0.25396078E+03</rscale>
<asrwt>0</asrwt>
<pdfrwt beam="1">  1        2 0.39413202E-01 0.25396078E+03</pdfrwt>
<pdfrwt beam="2">  1       -2 0.96828875E-02 0.25396078E+03</pdfrwt>
<totfact> 0.89550255E+03</totfact>
</mgrwt>
</event>
<event>
 4    1  0.1710914E-004  0.2654333E+03  0.7818608E-02  0.1103922E+00
          2   -1    0    0  501    0  0.00000000000E+00  0.00000000000E+00  0.19977082812E+04  0.19977082812E+04  0.00000000000E+00 0.  1.
         -2   -1    0    0    0  501 -0.00000000000E+00 -0.00000000000E+00 -0.88169595676E+01  0.88169595676E+01  0.00000000000E+00 0.  1.
         25    1    1    2    0    0  0.23758434597E+02  0.43050698326E+02  0.12077083886E+04  0.12146511342E+04  0.12000000000E+03 0.  0.
         25    1    1    2    0    0 -0.23758434597E+02 -0.43050698326E+02  0.78118293299E+03  0.79187410656E+03  0.12000000000E+03 0.  0.
<mgrwt>
<rscale>  0 0.26543333E+03</rscale>
<asrwt>0</asrwt>
<pdfrwt beam="1">  1        2 0.30733938E+00 0.26543333E+03</pdfrwt>
<pdfrwt beam="2">  1       -2 0.13564569E-02 0.26543333E+03</pdfrwt>
<totfact> 0.10177672E+04</totfact>
</mgrwt>
</event>
<event>
 4    1  0.1710914E-004  0.3711375E+03  0.7818608E-02  0.1054259E+00
         -1   -1    0    0    0  501 -0.00000000000E+00  0.00000000000E+00  0.35892212626E+02  0.35892212626E+02  0.00000000000E+00 0. -1.
          1   -1    0    0  501    0  0.00000000000E+00 -0.00000000000E+00 -0.95942142727E+03  0.95942142727E+03  0.00000000000E+00 0. -1.
         25    1    1    2    0    0 -0.43027143763E+02 -0.13363194211E+03 -0.41327480565E+03  0.45266421996E+03  0.12000000000E+03 0.  0.
         25    1    1    2    0    0  0.43027143763E+02  0.13363194211E+03 -0.51025440899E+03  0.54264941993E+03  0.12000000000E+03 0.  0.
<mgrwt>
<rscale>  0 0.37113748E+03</rscale>
<asrwt>0</asrwt>
<pdfrwt beam="1">  1        1 0.14760331E+00 0.37113748E+03</pdfrwt>
<pdfrwt beam="2">  1       -1 0.55218784E-02 0.37113748E+03</pdfrwt>
<totfact> 0.26075206E+03</totfact>
</mgrwt>
</event>
<event>
 4    1  0.1710914E-004  0.3812028E+03  0.7818608E-02  0.1050490E+00
         -2   -1    0    0    0  501 -0.00000000000E+00  0.00000000000E+00  0.57884960414E+02  0.57884960414E+02  0.00000000000E+00 0.  1.
          2   -1    0    0  501    0  0.00000000000E+00 -0.00000000000E+00 -0.62760498839E+03  0.62760498839E+03  0.00000000000E+00 0.  1.
         25    1    1    2    0    0  0.10344600059E+03  0.96850541591E+02 -0.36215850929E+03  0.40698880610E+03  0.12000000000E+03 0.  0.
         25    1    1    2    0    0 -0.10344600059E+03 -0.96850541591E+02 -0.20756151869E+03  0.27850114270E+03  0.12000000000E+03 0.  0.
<mgrwt>
<rscale>  0 0.38120278E+03</rscale>
<asrwt>0</asrwt>
<pdfrwt beam="1">  1        2 0.96554613E-01 0.38120278E+03</pdfrwt>
<pdfrwt beam="2">  1       -2 0.89053786E-02 0.38120278E+03</pdfrwt>
<totfact> 0.38395738E+03</totfact>
</mgrwt>
</event>
<event>
 4    1  0.1710914E-004  0.2417232E+03  0.7818608E-02  0.1118650E+00
          3   -1    0    0  501    0  0.00000000000E+00  0.00000000000E+00  0.57538839534E+02  0.57538839534E+02  0.00000000000E+00 0.  1.
         -3   -1    0    0    0  501 -0.00000000000E+00 -0.00000000000E+00 -0.25387250840E+03  0.25387250840E+03  0.00000000000E+00 0.  1.
         25    1    1    2    0    0 -0.70742871397E+01 -0.11879206510E+02 -0.10337901752E+03  0.15899176818E+03  0.12000000000E+03 0.  0.
         25    1    1    2    0    0  0.70742871397E+01  0.11879206510E+02 -0.92954651350E+02  0.15241957976E+03  0.12000000000E+03 0.  0.
<mgrwt>
<rscale>  0 0.24172323E+03</rscale>
<asrwt>0</asrwt>
<pdfrwt beam="1">  1        3 0.88521292E-02 0.24172323E+03</pdfrwt>
<pdfrwt beam="2">  1       -3 0.39057309E-01 0.24172323E+03</pdfrwt>
<totfact> 0.14727058E+03</totfact>
</mgrwt>
</event>
<event>
 4    1  0.1710914E-004  0.2575598E+03  0.7818608E-02  0.1108618E+00
         -1   -1    0    0    0  501 -0.00000000000E+00  0.00000000000E+00  0.12347181377E+02  0.12347181377E+02  0.00000000000E+00 0. -1.
          1   -1    0    0  501    0  0.00000000000E+00 -0.00000000000E+00 -0.13431616495E+04  0.13431616495E+04  0.00000000000E+00 0. -1.
         25    1    1    2    0    0  0.38072002332E+02 -0.21530744405E+02 -0.75207893101E+03  0.76284714641E+03  0.12000000000E+03 0.  0.
         25    1    1    2    0    0 -0.38072002332E+02  0.21530744405E+02 -0.57873553708E+03  0.59266168443E+03  0.12000000000E+03 0.  0.
<mgrwt>
<rscale>  0 0.25755978E+03</rscale>
<asrwt>0</asrwt>
<pdfrwt beam="1">  1        1 0.20664015E+00 0.25755978E+03</pdfrwt>
<pdfrwt beam="2">  1       -1 0.18995673E-02 0.25755978E+03</pdfrwt>
<totfact> 0.67317313E+03</totfact>
</mgrwt>
</event>
<event>
 4    1  0.1710914E-004  0.3612400E+03  0.7818608E-02  0.1058094E+00
         -2   -1    0    0    0  501 -0.00000000000E+00  0.00000000000E+00  0.29342365124E+03  0.29342365124E+03  0.00000000000E+00 0.  1.
          2   -1    0    0  501    0  0.00000000000E+00 -0.00000000000E+00 -0.11118256000E+03  0.11118256000E+03  0.00000000000E+00 0.  1.
         25    1    1    2    0    0 -0.11373289477E+03 -0.38064848005E+02  0.21718327086E+02  0.17104323938E+03  0.12000000000E+03 0.  0.
         25    1    1    2    0    0  0.11373289477E+03  0.38064848005E+02  0.16052276415E+03  0.23356297185E+03  0.12000000000E+03 0.  0.
<mgrwt>
<rscale>  0 0.36124005E+03</rscale>
<asrwt>0</asrwt>
<pdfrwt beam="1">  1        2 0.17105009E-01 0.36124005E+03</pdfrwt>
<pdfrwt beam="2">  1       -2 0.45142100E-01 0.36124005E+03</pdfrwt>
<totfact> 0.15783429E+03</totfact>
</mgrwt>
</event>
<event>
 4    1  0.1710914E-004  0.2502589E+03  0.7818608E-02  0.1113141E+00
         -1   -1    0    0    0  501 -0.00000000000E+00  0.00000000000E+00  0.22135821190E+03  0.22135821190E+03  0.00000000000E+00 0.  1.
          1   -1    0    0  501    0  0.00000000000E+00 -0.00000000000E+00 -0.70733196378E+02  0.70733196378E+02  0.00000000000E+00 0.  1.
         25    1    1    2    0    0 -0.41465019968E+01  0.31799991704E+02  0.92972521564E+02  0.15515257883E+03  0.12000000000E+03 0.  0.
         25    1    1    2    0    0  0.41465019968E+01 -0.31799991704E+02  0.57652493955E+02  0.13693882945E+03  0.12000000000E+03 0.  0.
<mgrwt>
<rscale>  0 0.25025886E+03</rscale>
<asrwt>0</asrwt>
<pdfrwt beam="1">  1        1 0.10882030E-01 0.25025886E+03</pdfrwt>
<pdfrwt beam="2">  1       -1 0.34055109E-01 0.25025886E+03</pdfrwt>
<totfact> 0.46459994E+03</totfact>
</mgrwt>
</event>
<event>
 4    1  0.1710914E-004  0.2613012E+03  0.7818608E-02  0.1106364E+00
         -2   -1    0    0    0  501 -0.00000000000E+00  0.00000000000E+00  0.21747833749E+02  0.21747833749E+02  0.00000000000E+00 0. -1.
          2   -1    0    0  501    0  0.00000000000E+00 -0.00000000000E+00 -0.78488648711E+03  0.78488648711E+03  0.00000000000E+00 0. -1.
         25    1    1    2    0    0  0.71225923764E+01 -0.31872186977E+02 -0.25797349535E+03  0.28638591434E+03  0.12000000000E+03 0.  0.
         25    1    1    2    0    0 -0.71225923764E+01  0.31872186977E+02 -0.50516515801E+03  0.52024840652E+03  0.12000000000E+03 0.  0.
<mgrwt>
<rscale>  0 0.26130121E+03</rscale>
<asrwt>0</asrwt>
<pdfrwt beam="1">  1        2 0.12075177E+00 0.26130121E+03</pdfrwt>
<pdfrwt beam="2">  1       -2 0.33458205E-02 0.26130121E+03</pdfrwt>
<totfact> 0.12993510E+04</totfact>
</mgrwt>
</event>
<event>
 4    1  0.1710914E-004  0.2917681E+03  0.7818608E-02  0.1089430E+00
         -1   -1    0    0    0  501 -0.00000000000E+00  0.00000000000E+00  0.17959067919E+03  0.17959067919E+03  0.00000000000E+00 0. -1.
          1   -1    0    0  501    0  0.00000000000E+00 -0.00000000000E+00 -0.11850367074E+03  0.11850367074E+03  0.00000000000E+00 0. -1.
         25    1    1    2    0    0  0.10554099645E+02 -0.48444758869E+02 -0.37410832788E+02  0.13512162703E+03  0.12000000000E+03 0.  0.
         25    1    1    2    0    0 -0.10554099645E+02  0.48444758869E+02  0.98497841232E+02  0.16297272290E+03  0.12000000000E+03 0.  0.
<mgrwt>
<rscale>  0 0.29176809E+03</rscale>
<asrwt>0</asrwt>
<pdfrwt beam="1">  1        1 0.18231334E-01 0.29176809E+03</pdfrwt>
<pdfrwt beam="2">  1       -1 0.27629335E-01 0.29176809E+03</pdfrwt>
<totfact> 0.33798932E+03</totfact>
</mgrwt>
</event>
<event>
 4    1  0.1710914E-004  0.2939412E+03  0.7818608E-02  0.1088309E+00
          1   -1    0    0  501    0  0.00000000000E+00  0.00000000000E+00  0.17813107433E+03  0.17813107433E+03  0.00000000000E+00 0.  1.
         -1   -1    0    0    0  501 -0.00000000000E+00 -0.00000000000E+00 -0.12126099715E+03  0.12126099715E+03  0.00000000000E+00 0.  1.
         25    1    1    2    0    0  0.10155783814E+02  0.20855997200E+02  0.11157120547E+03  0.16548790425E+03  0.12000000000E+03 0.  0.
         25    1    1    2    0    0 -0.10155783814E+02 -0.20855997200E+02 -0.54701128290E+02  0.13390416723E+03  0.12000000000E+03 0.  0.
<mgrwt>
<rscale>  0 0.29394116E+03</rscale>
<asrwt>0</asrwt>
<pdfrwt beam="1">  1        1 0.27404781E-01 0.29394116E+03</pdfrwt>
<pdfrwt beam="2">  1       -1 0.18655538E-01 0.29394116E+03</pdfrwt>
<totfact> 0.38305046E+03</totfact>
</mgrwt>
</event>
<event>
 4    1  0.1710914E-004  0.3150078E+03  0.7818608E-02  0.1077970E+00
          1   -1    0    0  501    0  0.00000000000E+00  0.00000000000E+00  0.22222054252E+04  0.22222054252E+04  0.00000000000E+00 0.  1.
         -1   -1    0    0    0  501 -0.00000000000E+00 -0.00000000000E+00 -0.11163450474E+02  0.11163450474E+02  0.00000000000E+00 0.  1.
         25    1    1    2    0    0 -0.31071060243E+02 -0.37327618437E+02  0.46945451875E+03  0.48697670074E+03  0.12000000000E+03 0.  0.
         25    1    1    2    0    0  0.31071060243E+02  0.37327618437E+02  0.17415874560E+04  0.17463921749E+04  0.12000000000E+03 0.  0.
<mgrwt>
<rscale>  0 0.31500781E+03</rscale>
<asrwt>0</asrwt>
<pdfrwt beam="1">  1        1 0.34187741E+00 0.31500781E+03</pdfrwt>
<pdfrwt beam="2">  1       -1 0.17174557E-02 0.31500781E+03</pdfrwt>
<totfact> 0.20665213E+03</totfact>
</mgrwt>
</event>
<event>
 4    1  0.1710914E-004  0.2617179E+03  0.7818608E-02  0.1106115E+00
         -2   -1    0    0    0  501 -0.00000000000E+00  0.00000000000E+00  0.78119058176E+01  0.78119058176E+01  0.00000000000E+00 0.  1.
          2   -1    0    0  501    0  0.00000000000E+00 -0.00000000000E+00 -0.21920467220E+04  0.21920467220E+04  0.00000000000E+00 0.  1.
         25    1    1    2    0    0 -0.25713860031E+02  0.44891377286E+02 -0.11501237082E+04  0.11575236423E+04  0.12000000000E+03 0.  0.
         25    1    1    2    0    0  0.25713860031E+02 -0.44891377286E+02 -0.10341111080E+04  0.10423349856E+04  0.12000000000E+03 0.  0.
<mgrwt>
<rscale>  0 0.26171788E+03</rscale>
<asrwt>0</asrwt>
<pdfrwt beam="1">  1        2 0.33723738E+00 0.26171788E+03</pdfrwt>
<pdfrwt beam="2">  1       -2 0.12018337E-02 0.26171788E+03</pdfrwt>
<totfact> 0.95854065E+03</totfact>
</mgrwt>
</event>
<event>
 4    1  0.1710914E-004  0.4526818E+03  0.7818608E-02  0.1026925E+00
          2   -1    0    0  501    0  0.00000000000E+00  0.00000000000E+00  0.30323880664E+04  0.30323880664E+04  0.00000000000E+00 0. -1.
         -2   -1    0    0    0  501 -0.00000000000E+00 -0.00000000000E+00 -0.16894341702E+02  0.16894341702E+02  0.00000000000E+00 0. -1.
         25    1    1    2    0    0 -0.37507034766E+02  0.18340070455E+03  0.17925470657E+04  0.18062855751E+04  0.12000000000E+03 0.  0.
         25    1    1    2    0    0  0.37507034766E+02 -0.18340070455E+03  0.12229466590E+04  0.12429968330E+04  0.12000000000E+03 0.  0.
<mgrwt>
<rscale>  0 0.45268179E+03</rscale>
<asrwt>0</asrwt>
<pdfrwt beam="1">  1        2 0.46652081E+00 0.45268179E+03</pdfrwt>
<pdfrwt beam="2">  1       -2 0.25991319E-02 0.45268179E+03</pdfrwt>
<totfact> 0.10180067E+03</totfact>
</mgrwt>
</event>
<event>
 4    1  0.1710914E-004  0.2823105E+03  0.7818608E-02  0.1094434E+00
         -2   -1    0    0    0  501 -0.00000000000E+00  0.00000000000E+00  0.27037891564E+03  0.27037891564E+03  0.00000000000E+00 0.  1.
          2   -1    0    0  501    0  0.00000000000E+00 -0.00000000000E+00 -0.73692160055E+02  0.73692160055E+02  0.00000000000E+00 0.  1.
         25    1    1    2    0    0 -0.10823390540E+02 -0.10634420141E+02  0.96611798699E+01  0.12134073954E+03  0.12000000000E+03 0.  0.
         25    1    1    2    0    0  0.10823390540E+02  0.10634420141E+02  0.18702557571E+03  0.22273033616E+03  0.12000000000E+03 0.  0.
<mgrwt>
<rscale>  0 0.28231051E+03</rscale>
<asrwt>0</asrwt>
<pdfrwt beam="1">  1        2 0.11337255E-01 0.28231051E+03</pdfrwt>
<pdfrwt beam="2">  1       -2 0.41596756E-01 0.28231051E+03</pdfrwt>
<totfact> 0.30184234E+03</totfact>
</mgrwt>
</event>
<event>
 4    1  0.1710914E-004  0.2446187E+03  0.7818608E-02  0.1116754E+00
          2   -1    0    0  501    0  0.00000000000E+00  0.00000000000E+00  0.13001622291E+04  0.13001622291E+04  0.00000000000E+00 0.  1.
         -2   -1    0    0    0  501 -0.00000000000E+00 -0.00000000000E+00 -0.11505929730E+02  0.11505929730E+02  0.00000000000E+00 0.  1.
         25    1    1    2    0    0 -0.36817555277E+01 -0.23259586515E+02  0.65633200351E+03  0.66762733805E+03  0.12000000000E+03 0.  0.
         25    1    1    2    0    0  0.36817555277E+01  0.23259586515E+02  0.63232429584E+03  0.64404082075E+03  0.12000000000E+03 0.  0.
<mgrwt>
<rscale>  0 0.24461868E+03</rscale>
<asrwt>0</asrwt>
<pdfrwt beam="1">  1        2 0.20002484E+00 0.24461868E+03</pdfrwt>
<pdfrwt beam="2">  1       -2 0.17701441E-02 0.24461868E+03</pdfrwt>
<totfact> 0.16141133E+04</totfact>
</mgrwt>
</event>
<event>
 4    1  0.1710914E-004  0.3749929E+03  0.7818608E-02  0.1052800E+00
          2   -1    0    0  501    0  0.00000000000E+00  0.00000000000E+00  0.19324704635E+04  0.19324704635E+04  0.00000000000E+00 0.  1.
         -2   -1    0    0    0  501 -0.00000000000E+00 -0.00000000000E+00 -0.18191701593E+02  0.18191701593E+02  0.00000000000E+00 0.  1.
         25    1    1    2    0    0  0.11649539848E+03 -0.48815661060E+02  0.13175643292E+04  0.13290334488E+04  0.12000000000E+03 0.  0.
         25    1    1    2    0    0 -0.11649539848E+03  0.48815661060E+02  0.59671443270E+03  0.62162871622E+03  0.12000000000E+03 0.  0.
<mgrwt>
<rscale>  0 0.37499294E+03</rscale>
<asrwt>0</asrwt>
<pdfrwt beam="1">  1        2 0.29730299E+00 0.37499294E+03</pdfrwt>
<pdfrwt beam="2">  1       -2 0.27987248E-02 0.37499294E+03</pdfrwt>
<totfact> 0.37799895E+03</totfact>
</mgrwt>
</event>
<event>
 4    1  0.1710914E-004  0.2885928E+03  0.7818608E-02  0.1091086E+00
         -2   -1    0    0    0  501 -0.00000000000E+00  0.00000000000E+00  0.13889633080E+02  0.13889633080E+02  0.00000000000E+00 0.  1.
          2   -1    0    0  501    0  0.00000000000E+00 -0.00000000000E+00 -0.14990639169E+04  0.14990639169E+04  0.00000000000E+00 0.  1.
         25    1    1    2    0    0  0.15616531033E+02  0.72251582310E+02 -0.90479047034E+03  0.91570189603E+03  0.12000000000E+03 0.  0.
         25    1    1    2    0    0 -0.15616531033E+02 -0.72251582310E+02 -0.58038381347E+03  0.59725165393E+03  0.12000000000E+03 0.  0.
<mgrwt>
<rscale>  0 0.28859278E+03</rscale>
<asrwt>0</asrwt>
<pdfrwt beam="1">  1        2 0.23062499E+00 0.28859278E+03</pdfrwt>
<pdfrwt beam="2">  1       -2 0.21368687E-02 0.28859278E+03</pdfrwt>
<totfact> 0.95875698E+03</totfact>
</mgrwt>
</event>
<event>
 4    1  0.1710914E-004  0.2677378E+03  0.7818608E-02  0.1102581E+00
         -3   -1    0    0    0  501 -0.00000000000E+00  0.00000000000E+00  0.29557446161E+04  0.29557446161E+04  0.00000000000E+00 0.  1.
          3   -1    0    0  501    0  0.00000000000E+00 -0.00000000000E+00 -0.60630690984E+01  0.60630690984E+01  0.00000000000E+00 0.  1.
         25    1    1    2    0    0  0.14253423600E+02 -0.37794025773E+02  0.19556819773E+04  0.19597764017E+04  0.12000000000E+03 0.  0.
         25    1    1    2    0    0 -0.14253423600E+02  0.37794025773E+02  0.99399956968E+03  0.10020312834E+04  0.12000000000E+03 0.  0.
<mgrwt>
<rscale>  0 0.26773781E+03</rscale>
<asrwt>0</asrwt>
<pdfrwt beam="1">  1        3 0.93278222E-03 0.26773781E+03</pdfrwt>
<pdfrwt beam="2">  1       -3 0.45472879E+00 0.26773781E+03</pdfrwt>
<totfact> 0.50551259E+01</totfact>
</mgrwt>
</event>
<event>
 4    1  0.1710914E-004  0.2513429E+03  0.7818608E-02  0.1112459E+00
         -1   -1    0    0    0  501 -0.00000000000E+00  0.00000000000E+00  0.43539209121E+03  0.43539209121E+03  0.00000000000E+00 0. -1.
          1   -1    0    0  501    0  0.00000000000E+00 -0.00000000000E+00 -0.36273757471E+02  0.36273757471E+02  0.00000000000E+00 0. -1.
         25    1    1    2    0    0 -0.19653106299E+02  0.28915059683E+02  0.17502095501E+03  0.21506896558E+03  0.12000000000E+03 0.  0.
         25    1    1    2    0    0  0.19653106299E+02 -0.28915059683E+02  0.22409737874E+03  0.25659688311E+03  0.12000000000E+03 0.  0.
<mgrwt>
<rscale>  0 0.25134285E+03</rscale>
<asrwt>0</asrwt>
<pdfrwt beam="1">  1        1 0.55805784E-02 0.25134285E+03</pdfrwt>
<pdfrwt beam="2">  1       -1 0.66983395E-01 0.25134285E+03</pdfrwt>
<totfact> 0.33227511E+03</totfact>
</mgrwt>
</event>
<event>
 4    1  0.1710914E-004  0.2449150E+03  0.7818608E-02  0.1116561E+00
          2   -1    0    0  501    0  0.00000000000E+00  0.00000000000E+00  0.10598763904E+03  0.10598763904E+03  0.00000000000E+00 0. -1.
         -2   -1    0    0    0  501 -0.00000000000E+00 -0.00000000000E+00 -0.14148669603E+03  0.14148669603E+03  0.00000000000E+00 0. -1.
         25    1    1    2    0    0 -0.17870872618E+02 -0.61454465674E+00 -0.34539274235E+02  0.12614557946E+03  0.12000000000E+03 0.  0.
         25    1    1    2    0    0  0.17870872618E+02  0.61454465674E+00 -0.95978275881E+00  0.12132875560E+03  0.12000000000E+03 0.  0.
<mgrwt>
<rscale>  0 0.24491501E+03</rscale>
<asrwt>0</asrwt>
<pdfrwt beam="1">  1        2 0.16305791E-01 0.24491501E+03</pdfrwt>
<pdfrwt beam="2">  1       -2 0.21767184E-01 0.24491501E+03</pdfrwt>
<totfact> 0.63097122E+03</totfact>
</mgrwt>
</event>
<event>
 4    1  0.1710914E-004  0.2492610E+03  0.7818608E-02  0.1113773E+00
         -3   -1    0    0    0  501 -0.00000000000E+00  0.00000000000E+00  0.30749735614E+03  0.30749735614E+03  0.00000000000E+00 0.  1.
          3   -1    0    0  501    0  0.00000000000E+00 -0.00000000000E+00 -0.50513488000E+02  0.50513488000E+02  0.00000000000E+00 0.  1.
         25    1    1    2    0    0  0.12746909068E+02 -0.28690419383E+02  0.11106955666E+03  0.16649946027E+03  0.12000000000E+03 0.  0.
         25    1    1    2    0    0 -0.12746909068E+02  0.28690419383E+02  0.14591431149E+03  0.19151138387E+03  0.12000000000E+03 0.  0.
<mgrwt>
<rscale>  0 0.24926102E+03</rscale>
<asrwt>0</asrwt>
<pdfrwt beam="1">  1        3 0.77713060E-02 0.24926102E+03</pdfrwt>
<pdfrwt beam="2">  1       -3 0.47307284E-01 0.24926102E+03</pdfrwt>
<totfact> 0.12562781E+03</totfact>
</mgrwt>
</event>
<event>
 4    1  0.1710914E-004  0.2674437E+03  0.7818608E-02  0.1102752E+00
         -2   -1    0    0    0  501 -0.00000000000E+00  0.00000000000E+00  0.96704950361E+02  0.96704950361E+02  0.00000000000E+00 0.  1.
          2   -1    0    0  501    0  0.00000000000E+00 -0.00000000000E+00 -0.18490820539E+03  0.18490820539E+03  0.00000000000E+00 0.  1.
         25    1    1    2    0    0 -0.32915636054E+02 -0.45778924337E+02 -0.25790964198E+02  0.13507154713E+03  0.12000000000E+03 0.  0.
         25    1    1    2    0    0  0.32915636054E+02  0.45778924337E+02 -0.62412290834E+02  0.14654160862E+03  0.12000000000E+03 0.  0.
<mgrwt>
<rscale>  0 0.26744374E+03</rscale>
<asrwt>0</asrwt>
<pdfrwt beam="1">  1        2 0.28447416E-01 0.26744374E+03</pdfrwt>
<pdfrwt beam="2">  1       -2 0.14877685E-01 0.26744374E+03</pdfrwt>
<totfact> 0.63967559E+03</totfact>
</mgrwt>
</event>
<event>
 4    1  0.1710914E-004  0.5059642E+03  0.7818608E-02  0.1012234E+00
         -1   -1    0    0    0  501 -0.00000000000E+00  0.00000000000E+00  0.49849426333E+02  0.49849426333E+02  0.00000000000E+00 0.  1.
          1   -1    0    0  501    0  0.00000000000E+00 -0.00000000000E+00 -0.12838654216E+04  0.12838654216E+04  0.00000000000E+00 0.  1.
         25    1    1    2    0    0  0.29747426724E+02 -0.90237004972E+02 -0.86052499418E+02  0.17559230940E+03  0.12000000000E+03 0.  0.
         25    1    1    2    0    0 -0.29747426724E+02  0.90237004972E+02 -0.11479634958E+04  0.11581225385E+04  0.12000000000E+03 0.  0.
<mgrwt>
<rscale>  0 0.50596425E+03</rscale>
<asrwt>0</asrwt>
<pdfrwt beam="1">  1        1 0.19751777E+00 0.50596425E+03</pdfrwt>
<pdfrwt beam="2">  1       -1 0.76691419E-02 0.50596425E+03</pdfrwt>
<totfact> 0.90989672E+02</totfact>
</mgrwt>
</event>
<event>
 4    1  0.1710914E-004  0.2651854E+03  0.7818608E-02  0.1104067E+00
         -1   -1    0    0    0  501 -0.00000000000E+00  0.00000000000E+00  0.11718684833E+03  0.11718684833E+03  0.00000000000E+00 0. -1.
          1   -1    0    0  501    0  0.00000000000E+00 -0.00000000000E+00 -0.15002391809E+03  0.15002391809E+03  0.00000000000E+00 0. -1.
         25    1    1    2    0    0 -0.34463401551E+02  0.41332513398E+02  0.58420531774E+00  0.13151594582E+03  0.12000000000E+03 0.  0.
         25    1    1    2    0    0  0.34463401551E+02 -0.41332513398E+02 -0.33421275075E+02  0.13569482060E+03  0.12000000000E+03 0.  0.
<mgrwt>
<rscale>  0 0.26518545E+03</rscale>
<asrwt>0</asrwt>
<pdfrwt beam="1">  1        1 0.23080603E-01 0.26518545E+03</pdfrwt>
<pdfrwt beam="2">  1       -1 0.18028746E-01 0.26518545E+03</pdfrwt>
<totfact> 0.50215502E+03</totfact>
</mgrwt>
</event>
<event>
 4    1  0.1710914E-004  0.3495530E+03  0.7818608E-02  0.1062799E+00
         -1   -1    0    0    0  501 -0.00000000000E+00  0.00000000000E+00  0.19277211623E+02  0.19277211623E+02  0.00000000000E+00 0.  1.
          1   -1    0    0  501    0  0.00000000000E+00 -0.00000000000E+00 -0.15846076767E+04  0.15846076767E+04  0.00000000000E+00 0.  1.
         25    1    1    2    0    0  0.91433661184E+02  0.61309005822E+02 -0.49145942225E+03  0.51773668240E+03  0.12000000000E+03 0.  0.
         25    1    1    2    0    0 -0.91433661184E+02 -0.61309005822E+02 -0.10738710429E+04  0.10861482060E+04  0.12000000000E+03 0.  0.
<mgrwt>
<rscale>  0 0.34955296E+03</rscale>
<asrwt>0</asrwt>
<pdfrwt beam="1">  1        1 0.24378588E+00 0.34955296E+03</pdfrwt>
<pdfrwt beam="2">  1       -1 0.29657239E-02 0.34955296E+03</pdfrwt>
<totfact> 0.24127574E+03</totfact>
</mgrwt>
</event>
<event>
 4    1  0.1710914E-004  0.3593705E+03  0.7818608E-02  0.1058833E+00
         -2   -1    0    0    0  501 -0.00000000000E+00  0.00000000000E+00  0.34192799735E+02  0.34192799735E+02  0.00000000000E+00 0. -1.
          2   -1    0    0  501    0  0.00000000000E+00 -0.00000000000E+00 -0.94425703332E+03  0.94425703332E+03  0.00000000000E+00 0. -1.
         25    1    1    2    0    0 -0.99474448510E+02 -0.44291410523E+02 -0.24360968787E+03  0.29257917728E+03  0.12000000000E+03 0.  0.
         25    1    1    2    0    0  0.99474448510E+02  0.44291410523E+02 -0.66645454571E+03  0.68587065577E+03  0.12000000000E+03 0.  0.
<mgrwt>
<rscale>  0 0.35937051E+03</rscale>
<asrwt>0</asrwt>
<pdfrwt beam="1">  1        2 0.14527031E+00 0.35937051E+03</pdfrwt>
<pdfrwt beam="2">  1       -2 0.52604307E-02 0.35937051E+03</pdfrwt>
<totfact> 0.51774508E+03</totfact>
</mgrwt>
</event>
<event>
 4    1  0.1710914E-004  0.2464266E+03  0.7818608E-02  0.1115584E+00
          1   -1    0    0  501    0  0.00000000000E+00  0.00000000000E+00  0.72420438501E+02  0.72420438501E+02  0.00000000000E+00 0. -1.
         -1   -1    0    0    0  501 -0.00000000000E+00 -0.00000000000E+00 -0.20963028062E+03  0.20963028062E+03  0.00000000000E+00 0. -1.
         25    1    1    2    0    0  0.20831458927E+02 -0.13749219165E+02 -0.54194055361E+02  0.13401487360E+03  0.12000000000E+03 0.  0.
         25    1    1    2    0    0 -0.20831458927E+02  0.13749219165E+02 -0.83015786755E+02  0.14803584552E+03  0.12000000000E+03 0.  0.
<mgrwt>
<rscale>  0 0.24642660E+03</rscale>
<asrwt>0</asrwt>
<pdfrwt beam="1">  1        1 0.11141606E-01 0.24642660E+03</pdfrwt>
<pdfrwt beam="2">  1       -1 0.32250812E-01 0.24642660E+03</pdfrwt>
<totfact> 0.49414976E+03</totfact>
</mgrwt>
</event>
<event>
 4    1  0.1710914E-004  0.2876124E+03  0.7818608E-02  0.1091602E+00
          2   -1    0    0  501    0  0.00000000000E+00  0.00000000000E+00  0.42129334756E+04  0.42129334756E+04  0.00000000000E+00 0.  1.
         -2   -1    0    0    0  501 -0.00000000000E+00 -0.00000000000E+00 -0.49087464870E+01  0.49087464870E+01  0.00000000000E+00 0.  1.
         25    1    1    2    0    0  0.21454574077E+02  0.70780038471E+01  0.99006653574E+03  0.99756811401E+03  0.12000000000E+03 0.  0.
         25    1    1    2    0    0 -0.21454574077E+02 -0.70780038471E+01  0.32179581933E+04  0.32202741080E+04  0.12000000000E+03 0.  0.
<mgrwt>
<rscale>  0 0.28761239E+03</rscale>
<asrwt>0</asrwt>
<pdfrwt beam="1">  1        2 0.64814072E+00 0.28761239E+03</pdfrwt>
<pdfrwt beam="2">  1       -2 0.75519513E-03 0.28761239E+03</pdfrwt>
<totfact> 0.96700836E+02</totfact>
</mgrwt>
</event>
<event>
 4    1  0.1710914E-004  0.2687056E+03  0.7818608E-02  0.1102023E+00
         -2   -1    0    0    0  501 -0.00000000000E+00  0.00000000000E+00  0.30819177078E+03  0.30819177078E+03  0.00000000000E+00 0.  1.
          2   -1    0    0  501    0  0.00000000000E+00 -0.00000000000E+00 -0.58569609433E+02  0.58569609433E+02  0.00000000000E+00 0.  1.
         25    1    1    2    0    0 -0.31810937639E+02 -0.40468940585E+02  0.16799520514E+03  0.21277231929E+03  0.12000000000E+03 0.  0.
         25    1    1    2    0    0  0.31810937639E+02  0.40468940585E+02  0.81626956211E+02  0.15398906093E+03  0.12000000000E+03 0.  0.
<mgrwt>
<rscale>  0 0.26870558E+03</rscale>
<asrwt>0</asrwt>
<pdfrwt beam="1">  1        2 0.90107094E-02 0.26870558E+03</pdfrwt>
<pdfrwt beam="2">  1       -2 0.47414117E-01 0.26870558E+03</pdfrwt>
<totfact> 0.31054766E+03</totfact>
</mgrwt>
</event>
<event>
 4    1  0.1710914E-004  0.3545034E+03  0.7818608E-02  0.1060782E+00
         -2   -1    0    0    0  501 -0.00000000000E+00  0.00000000000E+00  0.20285114679E+02  0.20285114679E+02  0.00000000000E+00 0. -1.
          2   -1    0    0  501    0  0.00000000000E+00 -0.00000000000E+00 -0.15488284800E+04  0.15488284800E+04  0.00000000000E+00 0. -1.
         25    1    1    2    0    0 -0.10442938370E+03  0.16413467435E+02 -0.11026182643E+04  0.11141552562E+04  0.12000000000E+03 0.  0.
         25    1    1    2    0    0  0.10442938370E+03 -0.16413467435E+02 -0.42592510100E+03  0.45495833848E+03  0.12000000000E+03 0.  0.
<mgrwt>
<rscale>  0 0.35450339E+03</rscale>
<asrwt>0</asrwt>
<pdfrwt beam="1">  1        2 0.23828147E+00 0.35450339E+03</pdfrwt>
<pdfrwt beam="2">  1       -2 0.31207847E-02 0.35450339E+03</pdfrwt>
<totfact> 0.51409876E+03</totfact>
</mgrwt>
</event>
<event>
 4    1  0.1710914E-004  0.4567270E+03  0.7818608E-02  0.1025735E+00
         -1   -1    0    0    0  501 -0.00000000000E+00  0.00000000000E+00  0.55069673500E+02  0.55069673500E+02  0.00000000000E+00 0.  1.
          1   -1    0    0  501    0  0.00000000000E+00 -0.00000000000E+00 -0.94697996096E+03  0.94697996096E+03  0.00000000000E+00 0.  1.
         25    1    1    2    0    0  0.10199964292E+03 -0.15268122049E+03 -0.30660038547E+03  0.37698710670E+03  0.12000000000E+03 0.  0.
         25    1    1    2    0    0 -0.10199964292E+03  0.15268122049E+03 -0.58530990199E+03  0.62506252777E+03  0.12000000000E+03 0.  0.
<mgrwt>
<rscale>  0 0.45672695E+03</rscale>
<asrwt>0</asrwt>
<pdfrwt beam="1">  1        1 0.14568923E+00 0.45672695E+03</pdfrwt>
<pdfrwt beam="2">  1       -1 0.84722571E-02 0.45672695E+03</pdfrwt>
<totfact> 0.13812031E+03</totfact>
</mgrwt>
</event>
<event>
 4    1  0.1710914E-004  0.2429629E+03  0.7818608E-02  0.1117835E+00
         -2   -1    0    0    0  501 -0.00000000000E+00  0.00000000000E+00  0.41482738336E+03  0.41482738336E+03  0.00000000000E+00 0.  1.
          2   -1    0    0  501    0  0.00000000000E+00 -0.00000000000E+00 -0.35575617853E+02  0.35575617853E+02  0.00000000000E+00 0.  1.
         25    1    1    2    0    0  0.74776655399E+01  0.12907250829E+02  0.16806857942E+03  0.20704965587E+03  0.12000000000E+03 0.  0.
         25    1    1    2    0    0 -0.74776655399E+01 -0.12907250829E+02  0.21118318609E+03  0.24335334535E+03  0.12000000000E+03 0.  0.
<mgrwt>
<rscale>  0 0.24296288E+03</rscale>
<asrwt>0</asrwt>
<pdfrwt beam="1">  1        2 0.54731723E-02 0.24296288E+03</pdfrwt>
<pdfrwt beam="2">  1       -2 0.63819594E-01 0.24296288E+03</pdfrwt>
<totfact> 0.32086211E+03</totfact>
</mgrwt>
</event>
<event>
 4    1  0.1710914E-004  0.2555833E+03  0.7818608E-02  0.1109826E+00
          2   -1    0    0  501    0  0.00000000000E+00  0.00000000000E+00  0.14530150802E+04  0.14530150802E+04  0.00000000000E+00 0.  1.
         -2   -1    0    0    0  501 -0.00000000000E+00 -0.00000000000E+00 -0.11239188593E+02  0.11239188593E+02  0.00000000000E+00 0.  1.
         25    1    1    2    0    0  0.43389802274E+02  0.16548368329E+01  0.68232953669E+03  0.69416065148E+03  0.12000000000E+03 0.  0.
         25    1    1    2    0    0 -0.43389802274E+02 -0.16548368329E+01  0.75944635496E+03  0.77009361735E+03  0.12000000000E+03 0.  0.
<mgrwt>
<rscale>  0 0.25558334E+03</rscale>
<asrwt>0</asrwt>
<pdfrwt beam="1">  1        2 0.22354063E+00 0.25558334E+03</pdfrwt>
<pdfrwt beam="2">  1       -2 0.17291071E-02 0.25558334E+03</pdfrwt>
<totfact> 0.13815362E+04</totfact>
</mgrwt>
</event>
<event>
 4    1  0.1710914E-004  0.2688310E+03  0.7818608E-02  0.1101951E+00
         -2   -1    0    0    0  501 -0.00000000000E+00  0.00000000000E+00  0.76986306751E+01  0.76986306751E+01  0.00000000000E+00 0. -1.
          2   -1    0    0  501    0  0.00000000000E+00 -0.00000000000E+00 -0.23468497431E+04  0.23468497431E+04  0.00000000000E+00 0. -1.
         25    1    1    2    0    0 -0.29509800414E+02  0.31211032224E+01 -0.16319497529E+04  0.16366247480E+04  0.12000000000E+03 0.  0.
         25    1    1    2    0    0  0.29509800414E+02 -0.31211032224E+01 -0.70720135947E+03  0.71792362577E+03  0.12000000000E+03 0.  0.
<mgrwt>
<rscale>  0 0.26883102E+03</rscale>
<asrwt>0</asrwt>
<pdfrwt beam="1">  1        2 0.36105406E+00 0.26883102E+03</pdfrwt>
<pdfrwt beam="2">  1       -2 0.11844039E-02 0.26883102E+03</pdfrwt>
<totfact> 0.80944853E+03</totfact>
</mgrwt>
</event>
<event>
 4    1  0.1710914E-004  0.2431318E+03  0.7818608E-02  0.1117724E+00
          2   -1    0    0  501    0  0.00000000000E+00  0.00000000000E+00  0.12216838881E+04  0.12216838881E+04  0.00000000000E+00 0.  1.
         -2   -1    0    0    0  501 -0.00000000000E+00 -0.00000000000E+00 -0.12096637844E+02  0.12096637844E+02  0.00000000000E+00 0.  1.
         25    1    1    2    0    0 -0.19282708394E+02 -0.41866282421E+00  0.61749966769E+03  0.62934715199E+03  0.12000000000E+03 0.  0.
         25    1    1    2    0    0  0.19282708394E+02  0.41866282421E+00  0.59208758260E+03  0.60443337399E+03  0.12000000000E+03 0.  0.
<mgrwt>
<rscale>  0 0.24313180E+03</rscale>
<asrwt>0</asrwt>
<pdfrwt beam="1">  1        2 0.18795127E+00 0.24313180E+03</pdfrwt>
<pdfrwt beam="2">  1       -2 0.18610222E-02 0.24313180E+03</pdfrwt>
<totfact> 0.16583919E+04</totfact>
</mgrwt>
</event>
<event>
 4    1  0.1710914E-004  0.2859851E+03  0.7818608E-02  0.1092464E+00
         -2   -1    0    0    0  501 -0.00000000000E+00  0.00000000000E+00  0.13114488467E+02  0.13114488467E+02  0.00000000000E+00 0.  1.
          2   -1    0    0  501    0  0.00000000000E+00 -0.00000000000E+00 -0.15591050366E+04  0.15591050366E+04  0.00000000000E+00 0.  1.
         25    1    1    2    0    0 -0.71491449438E+02  0.13720376161E+02 -0.92330990786E+03  0.93391673184E+03  0.12000000000E+03 0.  0.
         25    1    1    2    0    0  0.71491449438E+02 -0.13720376161E+02 -0.62268064026E+03  0.63830279321E+03  0.12000000000E+03 0.  0.
<mgrwt>
<rscale>  0 0.28598507E+03</rscale>
<asrwt>0</asrwt>
<pdfrwt beam="1">  1        2 0.23986227E+00 0.28598507E+03</pdfrwt>
<pdfrwt beam="2">  1       -2 0.20176140E-02 0.28598507E+03</pdfrwt>
<totfact> 0.96900788E+03</totfact>
</mgrwt>
</event>
<event>
 4    1  0.1710914E-004  0.2903804E+03  0.7818608E-02  0.1090151E+00
          2   -1    0    0  501    0  0.00000000000E+00  0.00000000000E+00  0.78799698556E+03  0.78799698556E+03  0.00000000000E+00 0. -1.
         -2   -1    0    0    0  501 -0.00000000000E+00 -0.00000000000E+00 -0.26751621865E+02  0.26751621865E+02  0.00000000000E+00 0. -1.
         25    1    1    2    0    0  0.79532801317E+02  0.18491895293E+02  0.37059192263E+03  0.39800224848E+03  0.12000000000E+03 0.  0.
         25    1    1    2    0    0 -0.79532801317E+02 -0.18491895293E+02  0.39065344107E+03  0.41674635894E+03  0.12000000000E+03 0.  0.
<mgrwt>
<rscale>  0 0.29038042E+03</rscale>
<asrwt>0</asrwt>
<pdfrwt beam="1">  1        2 0.12123029E+00 0.29038042E+03</pdfrwt>
<pdfrwt beam="2">  1       -2 0.41156347E-02 0.29038042E+03</pdfrwt>
<totfact> 0.95115886E+03</totfact>
</mgrwt>
</event>
<event>
 4    1  0.1710914E-004  0.3652389E+03  0.7818608E-02  0.1056529E+00
          2   -1    0    0  501    0  0.00000000000E+00  0.00000000000E+00  0.15664003760E+04  0.15664003760E+04  0.00000000000E+00 0.  1.
         -2   -1    0    0    0  501 -0.00000000000E+00 -0.00000000000E+00 -0.21290767864E+02  0.21290767864E+02  0.00000000000E+00 0.  1.
         25    1    1    2    0    0  0.87259852828E+02  0.80267891792E+02  0.10766160481E+04  0.10897519587E+04  0.12000000000E+03 0.  0.
         25    1    1    2    0    0 -0.87259852828E+02 -0.80267891792E+02  0.46849356001E+03  0.49793918519E+03  0.12000000000E+03 0.  0.
<mgrwt>
<rscale>  0 0.36523892E+03</rscale>
<asrwt>0</asrwt>
<pdfrwt beam="1">  1        2 0.24098458E+00 0.36523892E+03</pdfrwt>
<pdfrwt beam="2">  1       -2 0.32755040E-02 0.36523892E+03</pdfrwt>
<totfact> 0.46775303E+03</totfact>
</mgrwt>
</event>
<event>
 4    1  0.1710914E-004  0.2792572E+03  0.7818608E-02  0.1096095E+00
          1   -1    0    0  501    0  0.00000000000E+00  0.00000000000E+00  0.57859913378E+02  0.57859913378E+02  0.00000000000E+00 0.  1.
         -1   -1    0    0    0  501 -0.00000000000E+00 -0.00000000000E+00 -0.33695440082E+03  0.33695440082E+03  0.00000000000E+00 0.  1.
         25    1    1    2    0    0 -0.10288409302E+02  0.70379037696E+02 -0.14815776267E+03  0.20349393837E+03  0.12000000000E+03 0.  0.
         25    1    1    2    0    0  0.10288409302E+02 -0.70379037696E+02 -0.13093672477E+03  0.19132037583E+03  0.12000000000E+03 0.  0.
<mgrwt>
<rscale>  0 0.27925725E+03</rscale>
<asrwt>0</asrwt>
<pdfrwt beam="1">  1        1 0.89015252E-02 0.27925725E+03</pdfrwt>
<pdfrwt beam="2">  1       -1 0.51839138E-01 0.27925725E+03</pdfrwt>
<totfact> 0.28773531E+03</totfact>
</mgrwt>
</event>
<event>
 4    1  0.1710914E-004  0.2918759E+03  0.7818608E-02  0.1089374E+00
         -2   -1    0    0    0  501 -0.00000000000E+00  0.00000000000E+00  0.34417263236E+02  0.34417263236E+02  0.00000000000E+00 0. -1.
          2   -1    0    0  501    0  0.00000000000E+00 -0.00000000000E+00 -0.61881384867E+03  0.61881384867E+03  0.00000000000E+00 0. -1.
         25    1    1    2    0    0 -0.19163825946E+02  0.59716039644E+01 -0.47256532337E+03  0.48797632845E+03  0.12000000000E+03 0.  0.
         25    1    1    2    0    0  0.19163825946E+02 -0.59716039644E+01 -0.11183126206E+03  0.16525478345E+03  0.12000000000E+03 0.  0.
<mgrwt>
<rscale>  0 0.29187586E+03</rscale>
<asrwt>0</asrwt>
<pdfrwt beam="1">  1        2 0.95202126E-01 0.29187586E+03</pdfrwt>
<pdfrwt beam="2">  1       -2 0.52949638E-02 0.29187586E+03</pdfrwt>
<totfact> 0.87111426E+03</totfact>
</mgrwt>
</event>
<event>
 4    1  0.1710914E-004  0.3033434E+03  0.7818608E-02  0.1083581E+00
         -2   -1    0    0    0  501 -0.00000000000E+00  0.00000000000E+00  0.97026026172E+02  0.97026026172E+02  0.00000000000E+00 0.  1.
          2   -1    0    0  501    0  0.00000000000E+00 -0.00000000000E+00 -0.23709415205E+03  0.23709415205E+03  0.00000000000E+00 0.  1.
         25    1    1    2    0    0  0.21836669025E+02  0.78079636849E+02 -0.20394640576E+02  0.14625050827E+03  0.12000000000E+03 0.  0.
         25    1    1    2    0    0 -0.21836669025E+02 -0.78079636849E+02 -0.11967348531E+03  0.18786966996E+03  0.12000000000E+03 0.  0.
<mgrwt>
<rscale>  0 0.30334339E+03</rscale>
<asrwt>0</asrwt>
<pdfrwt beam="1">  1        2 0.36476023E-01 0.30334339E+03</pdfrwt>
<pdfrwt beam="2">  1       -2 0.14927081E-01 0.30334339E+03</pdfrwt>
<totfact> 0.48678853E+03</totfact>
</mgrwt>
</event>
<event>
 4    1  0.1710914E-004  0.2785785E+03  0.7818608E-02  0.1096468E+00
          1   -1    0    0  501    0  0.00000000000E+00  0.00000000000E+00  0.30641246188E+03  0.30641246188E+03  0.00000000000E+00 0. -1.
         -1   -1    0    0    0  501 -0.00000000000E+00 -0.00000000000E+00 -0.63318238095E+02  0.63318238095E+02  0.00000000000E+00 0. -1.
         25    1    1    2    0    0  0.56930555997E+02 -0.20417990742E+02  0.17019445208E+03  0.21685048783E+03  0.12000000000E+03 0.  0.
         25    1    1    2    0    0 -0.56930555997E+02  0.20417990742E+02  0.72899771707E+02  0.15288021215E+03  0.12000000000E+03 0.  0.
<mgrwt>
<rscale>  0 0.27857851E+03</rscale>
<asrwt>0</asrwt>
<pdfrwt beam="1">  1        1 0.47140378E-01 0.27857851E+03</pdfrwt>
<pdfrwt beam="2">  1       -1 0.97412676E-02 0.27857851E+03</pdfrwt>
<totfact> 0.53838099E+03</totfact>
</mgrwt>
</event>
<event>
 4    1  0.1710914E-004  0.2908477E+03  0.7818608E-02  0.1089907E+00
         -2   -1    0    0    0  501 -0.00000000000E+00  0.00000000000E+00  0.25783405105E+02  0.25783405105E+02  0.00000000000E+00 0. -1.
          2   -1    0    0  501    0  0.00000000000E+00 -0.00000000000E+00 -0.82022138258E+03  0.82022138258E+03  0.00000000000E+00 0. -1.
         25    1    1    2    0    0 -0.64772546361E+02 -0.37247251797E+02 -0.49651195856E+03  0.51624312637E+03  0.12000000000E+03 0.  0.
         25    1    1    2    0    0  0.64772546361E+02  0.37247251797E+02 -0.29792601892E+03  0.32976166132E+03  0.12000000000E+03 0.  0.
<mgrwt>
<rscale>  0 0.29084773E+03</rscale>
<asrwt>0</asrwt>
<pdfrwt beam="1">  1        2 0.12618791E+00 0.29084773E+03</pdfrwt>
<pdfrwt beam="2">  1       -2 0.39666775E-02 0.29084773E+03</pdfrwt>
<totfact> 0.95531892E+03</totfact>
</mgrwt>
</event>
<event>
 4    1  0.1710914E-004  0.2574665E+03  0.7818608E-02  0.1108675E+00
          1   -1    0    0  501    0  0.00000000000E+00  0.00000000000E+00  0.18383203755E+02  0.18383203755E+02  0.00000000000E+00 0. -1.
         -1   -1    0    0    0  501 -0.00000000000E+00 -0.00000000000E+00 -0.90148863330E+03  0.90148863330E+03  0.00000000000E+00 0. -1.
         25    1    1    2    0    0 -0.45547084162E+02 -0.80061115103E+01 -0.42083842098E+03  0.44004955547E+03  0.12000000000E+03 0.  0.
         25    1    1    2    0    0  0.45547084162E+02  0.80061115103E+01 -0.46226700857E+03  0.47982228159E+03  0.12000000000E+03 0.  0.
<mgrwt>
<rscale>  0 0.25746650E+03</rscale>
<asrwt>0</asrwt>
<pdfrwt beam="1">  1        1 0.28281857E-02 0.25746650E+03</pdfrwt>
<pdfrwt beam="2">  1       -1 0.13869054E+00 0.25746650E+03</pdfrwt>
<totfact> 0.17108963E+03</totfact>
</mgrwt>
</event>
<event>
 4    1  0.1710914E-004  0.2406513E+03  0.7818608E-02  0.1119360E+00
          2   -1    0    0  501    0  0.00000000000E+00  0.00000000000E+00  0.79469312460E+03  0.79469312460E+03  0.00000000000E+00 0.  1.
         -2   -1    0    0    0  501 -0.00000000000E+00 -0.00000000000E+00 -0.18218688562E+02  0.18218688562E+02  0.00000000000E+00 0.  1.
         25    1    1    2    0    0  0.81429177230E+01 -0.34302547987E+01  0.38675405610E+03  0.40503922485E+03  0.12000000000E+03 0.  0.
         25    1    1    2    0    0 -0.81429177230E+01  0.34302547987E+01  0.38972037994E+03  0.40787258831E+03  0.12000000000E+03 0.  0.
<mgrwt>
<rscale>  0 0.24065134E+03</rscale>
<asrwt>0</asrwt>
<pdfrwt beam="1">  1        2 0.12226045E+00 0.24065134E+03</pdfrwt>
<pdfrwt beam="2">  1       -2 0.28028758E-02 0.24065134E+03</pdfrwt>
<totfact> 0.16583584E+04</totfact>
</mgrwt>
</event>
<event>
 4    1  0.1710914E-004  0.2648714E+03  0.7818608E-02  0.1104251E+00
         -1   -1    0    0    0  501 -0.00000000000E+00  0.00000000000E+00  0.14382115772E+03  0.14382115772E+03  0.00000000000E+00 0. -1.
          1   -1    0    0  501    0  0.00000000000E+00 -0.00000000000E+00 -0.12195151525E+03  0.12195151525E+03  0.00000000000E+00 0. -1.
         25    1    1    2    0    0 -0.50238750463E+02 -0.17243212959E+02  0.28826585173E+02  0.13435859650E+03  0.12000000000E+03 0.  0.
         25    1    1    2    0    0  0.50238750463E+02  0.17243212959E+02 -0.69569427018E+01  0.13141407646E+03  0.12000000000E+03 0.  0.
<mgrwt>
<rscale>  0 0.26487135E+03</rscale>
<asrwt>0</asrwt>
<pdfrwt beam="1">  1        1 0.18761772E-01 0.26487135E+03</pdfrwt>
<pdfrwt beam="2">  1       -1 0.22126332E-01 0.26487135E+03</pdfrwt>
<totfact> 0.46979575E+03</totfact>
</mgrwt>
</event>
<event>
 4    1  0.1710914E-004  0.2706688E+03  0.7818608E-02  0.1100897E+00
         -1   -1    0    0    0  501 -0.00000000000E+00  0.00000000000E+00  0.55299361435E+02  0.55299361435E+02  0.00000000000E+00 0.  1.
          1   -1    0    0  501    0  0.00000000000E+00 -0.00000000000E+00 -0.33120464509E+03  0.33120464509E+03  0.00000000000E+00 0.  1.
         25    1    1    2    0    0 -0.19587735809E+02  0.18539996614E+02 -0.57326752292E+02  0.13569733747E+03  0.12000000000E+03 0.  0.
         25    1    1    2    0    0  0.19587735809E+02 -0.18539996614E+02 -0.21857853136E+03  0.25080666905E+03  0.12000000000E+03 0.  0.
<mgrwt>
<rscale>  0 0.27066884E+03</rscale>
<asrwt>0</asrwt>
<pdfrwt beam="1">  1        1 0.50954559E-01 0.27066884E+03</pdfrwt>
<pdfrwt beam="2">  1       -1 0.85075944E-02 0.27066884E+03</pdfrwt>
<totfact> 0.60047631E+03</totfact>
</mgrwt>
</event>
<event>
 4    1  0.1710914E-004  0.2690490E+03  0.7818608E-02  0.1101825E+00
         -2   -1    0    0    0  501 -0.00000000000E+00  0.00000000000E+00  0.39510556406E+02  0.39510556406E+02  0.00000000000E+00 0. -1.
          2   -1    0    0  501    0  0.00000000000E+00 -0.00000000000E+00 -0.45802535885E+03  0.45802535885E+03  0.00000000000E+00 0. -1.
         25    1    1    2    0    0 -0.20465069869E+02  0.57227606862E+02 -0.21247034690E+03  0.25147060740E+03  0.12000000000E+03 0.  0.
         25    1    1    2    0    0  0.20465069869E+02 -0.57227606862E+02 -0.20604445554E+03  0.24606530786E+03  0.12000000000E+03 0.  0.
<mgrwt>
<rscale>  0 0.26904897E+03</rscale>
<asrwt>0</asrwt>
<pdfrwt beam="1">  1        2 0.70465440E-01 0.26904897E+03</pdfrwt>
<pdfrwt beam="2">  1       -2 0.60785472E-02 0.26904897E+03</pdfrwt>
<totfact> 0.98922664E+03</totfact>
</mgrwt>
</event>
<event>
 4    1  0.1710914E-004  0.3046206E+03  0.7818608E-02  0.1082953E+00
         -2   -1    0    0    0  501 -0.00000000000E+00  0.00000000000E+00  0.34721400239E+02  0.34721400239E+02  0.00000000000E+00 0. -1.
          2   -1    0    0  501    0  0.00000000000E+00 -0.00000000000E+00 -0.66813043917E+03  0.66813043917E+03  0.00000000000E+00 0. -1.
         25    1    1    2    0    0 -0.72372033634E+02  0.87906038264E+00 -0.45437027055E+03  0.47549009112E+03  0.12000000000E+03 0.  0.
         25    1    1    2    0    0  0.72372033634E+02 -0.87906038264E+00 -0.17903876838E+03  0.22736174829E+03  0.12000000000E+03 0.  0.
<mgrwt>
<rscale>  0 0.30462058E+03</rscale>
<asrwt>0</asrwt>
<pdfrwt beam="1">  1        2 0.10278930E+00 0.30462058E+03</pdfrwt>
<pdfrwt beam="2">  1       -2 0.53417536E-02 0.30462058E+03</pdfrwt>
<totfact> 0.78571521E+03</totfact>
</mgrwt>
</event>
<event>
 4    1  0.1710914E-004  0.2722769E+03  0.7818608E-02  0.1099984E+00
         -2   -1    0    0    0  501 -0.00000000000E+00  0.00000000000E+00  0.31183432714E+03  0.31183432714E+03  0.00000000000E+00 0. -1.
          2   -1    0    0  501    0  0.00000000000E+00 -0.00000000000E+00 -0.59434377474E+02  0.59434377474E+02  0.00000000000E+00 0. -1.
         25    1    1    2    0    0 -0.50886967271E+02 -0.64034362097E+01  0.73332969745E+02  0.14969372694E+03  0.12000000000E+03 0.  0.
         25    1    1    2    0    0  0.50886967271E+02  0.64034362097E+01  0.17906697992E+03  0.22157497768E+03  0.12000000000E+03 0.  0.
<mgrwt>
<rscale>  0 0.27227691E+03</rscale>
<asrwt>0</asrwt>
<pdfrwt beam="1">  1        2 0.91437506E-02 0.27227691E+03</pdfrwt>
<pdfrwt beam="2">  1       -2 0.47974511E-01 0.27227691E+03</pdfrwt>
<totfact> 0.29801568E+03</totfact>
</mgrwt>
</event>
<event>
 4    1  0.1710914E-004  0.4209060E+03  0.7818608E-02  0.1036772E+00
         -1   -1    0    0    0  501 -0.00000000000E+00  0.00000000000E+00  0.95384493928E+02  0.95384493928E+02  0.00000000000E+00 0.  1.
          1   -1    0    0  501    0  0.00000000000E+00 -0.00000000000E+00 -0.46433608640E+03  0.46433608640E+03  0.00000000000E+00 0.  1.
         25    1    1    2    0    0 -0.17201889220E+03  0.10748711900E+02 -0.16641652476E+03  0.26795614155E+03  0.12000000000E+03 0.  0.
         25    1    1    2    0    0  0.17201889220E+03 -0.10748711900E+02 -0.20253506771E+03  0.29176443877E+03  0.12000000000E+03 0.  0.
<mgrwt>
<rscale>  0 0.42090599E+03</rscale>
<asrwt>0</asrwt>
<pdfrwt beam="1">  1        1 0.71436322E-01 0.42090599E+03</pdfrwt>
<pdfrwt beam="2">  1       -1 0.14674537E-01 0.42090599E+03</pdfrwt>
<totfact> 0.16659496E+03</totfact>
</mgrwt>
</event>
<event>
 4    1  0.1710914E-004  0.3018924E+03  0.7818608E-02  0.1084298E+00
          4   -1    0    0  501    0  0.00000000000E+00  0.00000000000E+00  0.24650184113E+03  0.24650184113E+03  0.00000000000E+00 0.  1.
         -4   -1    0    0    0  501 -0.00000000000E+00 -0.00000000000E+00 -0.92432393923E+02  0.92432393923E+02  0.00000000000E+00 0.  1.
         25    1    1    2    0    0  0.85021555299E+02  0.26936384540E+02  0.10032961733E+03  0.18005628506E+03  0.12000000000E+03 0.  0.
         25    1    1    2    0    0 -0.85021555299E+02 -0.26936384540E+02  0.53739829878E+02  0.15887794999E+03  0.12000000000E+03 0.  0.
<mgrwt>
<rscale>  0 0.30189240E+03</rscale>
<asrwt>0</asrwt>
<pdfrwt beam="1">  1        4 0.37923360E-01 0.30189240E+03</pdfrwt>
<pdfrwt beam="2">  1       -4 0.14220368E-01 0.30189240E+03</pdfrwt>
<totfact> 0.53028952E+02</totfact>
</mgrwt>
</event>
<event>
 4    1  0.1710914E-004  0.2981337E+03  0.7818608E-02  0.1086177E+00
         -2   -1    0    0    0  501 -0.00000000000E+00  0.00000000000E+00  0.38249535716E+02  0.38249535716E+02  0.00000000000E+00 0.  1.
          2   -1    0    0  501    0  0.00000000000E+00 -0.00000000000E+00 -0.58094640571E+03  0.58094640571E+03  0.00000000000E+00 0.  1.
         25    1    1    2    0    0 -0.78316630105E+02  0.23652711209E+02 -0.20159451027E+03  0.24846185194E+03  0.12000000000E+03 0.  0.
         25    1    1    2    0    0  0.78316630105E+02 -0.23652711209E+02 -0.34110235972E+03  0.37073408949E+03  0.12000000000E+03 0.  0.
<mgrwt>
<rscale>  0 0.29813373E+03</rscale>
<asrwt>0</asrwt>
<pdfrwt beam="1">  1        2 0.89376362E-01 0.29813373E+03</pdfrwt>
<pdfrwt beam="2">  1       -2 0.58845445E-02 0.29813373E+03</pdfrwt>
<totfact> 0.79818752E+03</totfact>
</mgrwt>
</event>
<event>
 4    1  0.1710914E-004  0.2485277E+03  0.7818608E-02  0.1114239E+00
         -1   -1    0    0    0  501 -0.00000000000E+00  0.00000000000E+00  0.61795517357E+02  0.61795517357E+02  0.00000000000E+00 0.  1.
          1   -1    0    0  501    0  0.00000000000E+00 -0.00000000000E+00 -0.24988065167E+03  0.24988065167E+03  0.00000000000E+00 0.  1.
         25    1    1    2    0    0 -0.22541003930E+02  0.16754093585E+02 -0.74106569045E+02  0.14380744100E+03  0.12000000000E+03 0.  0.
         25    1    1    2    0    0  0.22541003930E+02 -0.16754093585E+02 -0.11397856527E+03  0.16786872803E+03  0.12000000000E+03 0.  0.
<mgrwt>
<rscale>  0 0.24852770E+03</rscale>
<asrwt>0</asrwt>
<pdfrwt beam="1">  1        1 0.38443178E-01 0.24852770E+03</pdfrwt>
<pdfrwt beam="2">  1       -1 0.95070025E-02 0.24852770E+03</pdfrwt>
<totfact> 0.71892203E+03</totfact>
</mgrwt>
</event>
<event>
 4    1  0.1710914E-004  0.3298728E+03  0.7818608E-02  0.1071193E+00
         -2   -1    0    0    0  501 -0.00000000000E+00  0.00000000000E+00  0.45557296197E+02  0.45557296197E+02  0.00000000000E+00 0. -1.
          2   -1    0    0  501    0  0.00000000000E+00 -0.00000000000E+00 -0.59713851618E+03  0.59713851618E+03  0.00000000000E+00 0. -1.
         25    1    1    2    0    0 -0.44810907350E+02  0.10335708369E+03 -0.29653005249E+03  0.33914713060E+03  0.12000000000E+03 0.  0.
         25    1    1    2    0    0  0.44810907350E+02 -0.10335708369E+03 -0.25505116749E+03  0.30354868177E+03  0.12000000000E+03 0.  0.
<mgrwt>
<rscale>  0 0.32987280E+03</rscale>
<asrwt>0</asrwt>
<pdfrwt beam="1">  1        2 0.91867467E-01 0.32987280E+03</pdfrwt>
<pdfrwt beam="2">  1       -2 0.70088146E-02 0.32987280E+03</pdfrwt>
<totfact> 0.59163697E+03</totfact>
</mgrwt>
</event>
<event>
 4    1  0.1710914E-004  0.4539900E+03  0.7818608E-02  0.1026539E+00
          1   -1    0    0  501    0  0.00000000000E+00  0.00000000000E+00  0.52600649677E+03  0.52600649677E+03  0.00000000000E+00 0.  1.
         -1   -1    0    0    0  501 -0.00000000000E+00 -0.00000000000E+00 -0.97958337058E+02  0.97958337058E+02  0.00000000000E+00 0.  1.
         25    1    1    2    0    0  0.67436545568E+02 -0.11285326259E+03  0.40763036193E+03  0.44479889672E+03  0.12000000000E+03 0.  0.
         25    1    1    2    0    0 -0.67436545568E+02  0.11285326259E+03  0.20417797791E+02  0.17916593712E+03  0.12000000000E+03 0.  0.
<mgrwt>
<rscale>  0 0.45398996E+03</rscale>
<asrwt>0</asrwt>
<pdfrwt beam="1">  1        1 0.80924075E-01 0.45398996E+03</pdfrwt>
<pdfrwt beam="2">  1       -1 0.15070514E-01 0.45398996E+03</pdfrwt>
<totfact> 0.13491320E+03</totfact>
</mgrwt>
</event>
<event>
 4    1  0.1710914E-004  0.2600672E+03  0.7818608E-02  0.1107103E+00
          1   -1    0    0  501    0  0.00000000000E+00  0.00000000000E+00  0.64993103762E+02  0.64993103762E+02  0.00000000000E+00 0.  1.
         -1   -1    0    0    0  501 -0.00000000000E+00 -0.00000000000E+00 -0.26016195535E+03  0.26016195535E+03  0.00000000000E+00 0.  1.
         25    1    1    2    0    0  0.24262136859E+02  0.10120333216E+02 -0.44280232441E+02  0.13058258465E+03  0.12000000000E+03 0.  0.
         25    1    1    2    0    0 -0.24262136859E+02 -0.10120333216E+02 -0.15088861915E+03  0.19457247446E+03  0.12000000000E+03 0.  0.
<mgrwt>
<rscale>  0 0.26006717E+03</rscale>
<asrwt>0</asrwt>
<pdfrwt beam="1">  1        1 0.99989389E-02 0.26006717E+03</pdfrwt>
<pdfrwt beam="2">  1       -1 0.40024917E-01 0.26006717E+03</pdfrwt>
<totfact> 0.39275170E+03</totfact>
</mgrwt>
</event>
<event>
 4    1  0.1710914E-004  0.3634099E+03  0.7818608E-02  0.1057242E+00
          2   -1    0    0  501    0  0.00000000000E+00  0.00000000000E+00  0.34844031374E+03  0.34844031374E+03  0.00000000000E+00 0. -1.
         -2   -1    0    0    0  501 -0.00000000000E+00 -0.00000000000E+00 -0.94755666989E+02  0.94755666989E+02  0.00000000000E+00 0. -1.
         25    1    1    2    0    0 -0.51103229405E+02  0.18518039113E+02  0.27946740593E+03  0.30896033532E+03  0.12000000000E+03 0.  0.
         25    1    1    2    0    0  0.51103229405E+02 -0.18518039113E+02 -0.25782759171E+02  0.13423564541E+03  0.12000000000E+03 0.  0.
<mgrwt>
<rscale>  0 0.36340993E+03</rscale>
<asrwt>0</asrwt>
<pdfrwt beam="1">  1        2 0.53606201E-01 0.36340993E+03</pdfrwt>
<pdfrwt beam="2">  1       -2 0.14577795E-01 0.36340993E+03</pdfrwt>
<totfact> 0.33487666E+03</totfact>
</mgrwt>
</event>
<event>
 4    1  0.1710914E-004  0.2616606E+03  0.7818608E-02  0.1106150E+00
         -2   -1    0    0    0  501 -0.00000000000E+00  0.00000000000E+00  0.45791344876E+02  0.45791344876E+02  0.00000000000E+00 0.  1.
          2   -1    0    0  501    0  0.00000000000E+00 -0.00000000000E+00 -0.37379488056E+03  0.37379488056E+03  0.00000000000E+00 0.  1.
         25    1    1    2    0    0  0.20778596204E+02  0.14640510905E+02 -0.23696732757E+03  0.26683254853E+03  0.12000000000E+03 0.  0.
         25    1    1    2    0    0 -0.20778596204E+02 -0.14640510905E+02 -0.91036208111E+02  0.15275367690E+03  0.12000000000E+03 0.  0.
<mgrwt>
<rscale>  0 0.26166062E+03</rscale>
<asrwt>0</asrwt>
<pdfrwt beam="1">  1        2 0.57506904E-01 0.26166062E+03</pdfrwt>
<pdfrwt beam="2">  1       -2 0.70448224E-02 0.26166062E+03</pdfrwt>
<totfact> 0.98232708E+03</totfact>
</mgrwt>
</event>
<event>
 4    1  0.1710914E-004  0.3631313E+03  0.7818608E-02  0.1057351E+00
          1   -1    0    0  501    0  0.00000000000E+00  0.00000000000E+00  0.24564375127E+03  0.24564375127E+03  0.00000000000E+00 0. -1.
         -1   -1    0    0    0  501 -0.00000000000E+00 -0.00000000000E+00 -0.13420283815E+03  0.13420283815E+03  0.00000000000E+00 0. -1.
         25    1    1    2    0    0 -0.30731453845E+02 -0.48585993944E+02  0.18494261234E+03  0.22783500812E+03  0.12000000000E+03 0.  0.
         25    1    1    2    0    0  0.30731453845E+02  0.48585993944E+02 -0.73501699224E+02  0.15201158131E+03  0.12000000000E+03 0.  0.
<mgrwt>
<rscale>  0 0.36313132E+03</rscale>
<asrwt>0</asrwt>
<pdfrwt beam="1">  1        1 0.37791346E-01 0.36313132E+03</pdfrwt>
<pdfrwt beam="2">  1       -1 0.20646590E-01 0.36313132E+03</pdfrwt>
<totfact> 0.21695657E+03</totfact>
</mgrwt>
</event>
<event>
 4    1  0.1710914E-004  0.2536060E+03  0.7818608E-02  0.1111047E+00
         -1   -1    0    0    0  501 -0.00000000000E+00  0.00000000000E+00  0.38975183723E+02  0.38975183723E+02  0.00000000000E+00 0.  1.
          1   -1    0    0  501    0  0.00000000000E+00 -0.00000000000E+00 -0.41254453717E+03  0.41254453717E+03  0.00000000000E+00 0.  1.
         25    1    1    2    0    0  0.28774100597E+02  0.14237730162E+02 -0.23211801779E+03  0.26326685323E+03  0.12000000000E+03 0.  0.
         25    1    1    2    0    0 -0.28774100597E+02 -0.14237730162E+02 -0.14145133566E+03  0.18825286767E+03  0.12000000000E+03 0.  0.
<mgrwt>
<rscale>  0 0.25360599E+03</rscale>
<asrwt>0</asrwt>
<pdfrwt beam="1">  1        1 0.63468390E-01 0.25360599E+03</pdfrwt>
<pdfrwt beam="2">  1       -1 0.59961822E-02 0.25360599E+03</pdfrwt>
<totfact> 0.77054150E+03</totfact>
</mgrwt>
</event>
<event>
 4    1  0.1710914E-004  0.2666487E+03  0.7818608E-02  0.1103213E+00
         -2   -1    0    0    0  501 -0.00000000000E+00  0.00000000000E+00  0.80750340113E+01  0.80750340113E+01  0.00000000000E+00 0. -1.
          2   -1    0    0  501    0  0.00000000000E+00 -0.00000000000E+00 -0.22012763023E+04  0.22012763023E+04  0.00000000000E+00 0. -1.
         25    1    1    2    0    0  0.34122456313E+02  0.17002184254E+02 -0.73335698148E+03  0.74408727888E+03  0.12000000000E+03 0.  0.
         25    1    1    2    0    0 -0.34122456313E+02 -0.17002184254E+02 -0.14598442868E+04  0.14652640574E+04  0.12000000000E+03 0.  0.
<mgrwt>
<rscale>  0 0.26664869E+03</rscale>
<asrwt>0</asrwt>
<pdfrwt beam="1">  1        2 0.33865817E+00 0.26664869E+03</pdfrwt>
<pdfrwt beam="2">  1       -2 0.12423119E-02 0.26664869E+03</pdfrwt>
<totfact> 0.90328170E+03</totfact>
</mgrwt>
</event>
<event>
 4    1  0.1710914E-004  0.4424165E+03  0.7818608E-02  0.1030008E+00
         -2   -1    0    0    0  501 -0.00000000000E+00  0.00000000000E+00  0.36910917179E+03  0.36910917179E+03  0.00000000000E+00 0. -1.
          2   -1    0    0  501    0  0.00000000000E+00 -0.00000000000E+00 -0.13257078181E+03  0.13257078181E+03  0.00000000000E+00 0. -1.
         25    1    1    2    0    0  0.62513954872E+02  0.96075433143E+02  0.28413146018E+03  0.32904280887E+03  0.12000000000E+03 0.  0.
         25    1    1    2    0    0 -0.62513954872E+02 -0.96075433143E+02 -0.47593070200E+02  0.17263714472E+03  0.12000000000E+03 0.  0.
<mgrwt>
<rscale>  0 0.44241651E+03</rscale>
<asrwt>0</asrwt>
<pdfrwt beam="1">  1        2 0.20395505E-01 0.44241651E+03</pdfrwt>
<pdfrwt beam="2">  1       -2 0.56786026E-01 0.44241651E+03</pdfrwt>
<totfact> 0.81031148E+02</totfact>
</mgrwt>
</event>
<event>
 4    1  0.1710914E-004  0.2734708E+03  0.7818608E-02  0.1099309E+00
         -2   -1    0    0    0  501 -0.00000000000E+00  0.00000000000E+00  0.23088304187E+03  0.23088304187E+03  0.00000000000E+00 0.  1.
          2   -1    0    0  501    0  0.00000000000E+00 -0.00000000000E+00 -0.80978526437E+02  0.80978526437E+02  0.00000000000E+00 0.  1.
         25    1    1    2    0    0  0.33988928516E+02 -0.23473146177E+02  0.13299242837E+03  0.18382932806E+03  0.12000000000E+03 0.  0.
         25    1    1    2    0    0 -0.33988928516E+02  0.23473146177E+02  0.16912087066E+02  0.12803224024E+03  0.12000000000E+03 0.  0.
<mgrwt>
<rscale>  0 0.27347079E+03</rscale>
<asrwt>0</asrwt>
<pdfrwt beam="1">  1        2 0.12458235E-01 0.27347079E+03</pdfrwt>
<pdfrwt beam="2">  1       -2 0.35520468E-01 0.27347079E+03</pdfrwt>
<totfact> 0.36267261E+03</totfact>
</mgrwt>
</event>
<event>
 4    1  0.1710914E-004  0.3825733E+03  0.7818608E-02  0.1049987E+00
          1   -1    0    0  501    0  0.00000000000E+00  0.00000000000E+00  0.10107164121E+03  0.10107164121E+03  0.00000000000E+00 0. -1.
         -1   -1    0    0    0  501 -0.00000000000E+00 -0.00000000000E+00 -0.36202615882E+03  0.36202615882E+03  0.00000000000E+00 0. -1.
         25    1    1    2    0    0 -0.11559411975E+03  0.42388689511E+02 -0.23198300234E+03  0.28874714699E+03  0.12000000000E+03 0.  0.
         25    1    1    2    0    0  0.11559411975E+03 -0.42388689511E+02 -0.28971515271E+02  0.17435065304E+03  0.12000000000E+03 0.  0.
<mgrwt>
<rscale>  0 0.38257328E+03</rscale>
<asrwt>0</asrwt>
<pdfrwt beam="1">  1        1 0.15549483E-01 0.38257328E+03</pdfrwt>
<pdfrwt beam="2">  1       -1 0.55696332E-01 0.38257328E+03</pdfrwt>
<totfact> 0.11962347E+03</totfact>
</mgrwt>
</event>
<event>
 4    1  0.1710914E-004  0.2533940E+03  0.7818608E-02  0.1111178E+00
          2   -1    0    0  501    0  0.00000000000E+00  0.00000000000E+00  0.47573288197E+02  0.47573288197E+02  0.00000000000E+00 0. -1.
         -2   -1    0    0    0  501 -0.00000000000E+00 -0.00000000000E+00 -0.33741901434E+03  0.33741901434E+03  0.00000000000E+00 0. -1.
         25    1    1    2    0    0  0.10607205101E+02  0.30583879881E+02 -0.10757528851E+03  0.16437861542E+03  0.12000000000E+03 0.  0.
         25    1    1    2    0    0 -0.10607205101E+02 -0.30583879881E+02 -0.18227043763E+03  0.22061368712E+03  0.12000000000E+03 0.  0.
<mgrwt>
<rscale>  0 0.25339402E+03</rscale>
<asrwt>0</asrwt>
<pdfrwt beam="1">  1        2 0.73189674E-02 0.25339402E+03</pdfrwt>
<pdfrwt beam="2">  1       -2 0.51910618E-01 0.25339402E+03</pdfrwt>
<totfact> 0.33686022E+03</totfact>
</mgrwt>
</event>
<event>
 4    1  0.1710914E-004  0.2744804E+03  0.7818608E-02  0.1098742E+00
         -1   -1    0    0    0  501 -0.00000000000E+00  0.00000000000E+00  0.21666572276E+03  0.21666572276E+03  0.00000000000E+00 0.  1.
          1   -1    0    0  501    0  0.00000000000E+00 -0.00000000000E+00 -0.86930540232E+02  0.86930540232E+02  0.00000000000E+00 0.  1.
         25    1    1    2    0    0  0.56709928163E+01 -0.19868276277E+02  0.13489157398E+03  0.18172133967E+03  0.12000000000E+03 0.  0.
         25    1    1    2    0    0 -0.56709928163E+01  0.19868276277E+02 -0.51563914498E+01  0.12187492332E+03  0.12000000000E+03 0.  0.
<mgrwt>
<rscale>  0 0.27448037E+03</rscale>
<asrwt>0</asrwt>
<pdfrwt beam="1">  1        1 0.13373929E-01 0.27448037E+03</pdfrwt>
<pdfrwt beam="2">  1       -1 0.33333188E-01 0.27448037E+03</pdfrwt>
<totfact> 0.36770540E+03</totfact>
</mgrwt>
</event>
<event>
 4    1  0.1710914E-004  0.3399392E+03  0.7818608E-02  0.1066822E+00
          1   -1    0    0  501    0  0.00000000000E+00  0.00000000000E+00  0.74751891028E+02  0.74751891028E+02  0.00000000000E+00 0. -1.
         -1   -1    0    0    0  501 -0.00000000000E+00 -0.00000000000E+00 -0.38647405455E+03  0.38647405455E+03  0.00000000000E+00 0. -1.
         25    1    1    2    0    0  0.43518053257E+01 -0.12163799394E+02  0.65164675359E+01  0.12086918786E+03  0.12000000000E+03 0.  0.
         25    1    1    2    0    0 -0.43518053257E+01  0.12163799394E+02 -0.31823863106E+03  0.34035675771E+03  0.12000000000E+03 0.  0.
<mgrwt>
<rscale>  0 0.33993921E+03</rscale>
<asrwt>0</asrwt>
<pdfrwt beam="1">  1        1 0.11500291E-01 0.33993921E+03</pdfrwt>
<pdfrwt beam="2">  1       -1 0.59457546E-01 0.33993921E+03</pdfrwt>
<totfact> 0.15761698E+03</totfact>
</mgrwt>
</event>
<event>
 4    1  0.1710914E-004  0.3976038E+03  0.7818608E-02  0.1044613E+00
         -2   -1    0    0    0  501 -0.00000000000E+00  0.00000000000E+00  0.29560894008E+03  0.29560894008E+03  0.00000000000E+00 0. -1.
          2   -1    0    0  501    0  0.00000000000E+00 -0.00000000000E+00 -0.13369753414E+03  0.13369753414E+03  0.00000000000E+00 0. -1.
         25    1    1    2    0    0  0.56568450917E+02 -0.10626592758E+03  0.19227705531E+03  0.25663768820E+03  0.12000000000E+03 0.  0.
         25    1    1    2    0    0 -0.56568450917E+02  0.10626592758E+03 -0.30365649375E+02  0.17266878602E+03  0.12000000000E+03 0.  0.
<mgrwt>
<rscale>  0 0.39760375E+03</rscale>
<asrwt>0</asrwt>
<pdfrwt beam="1">  1        2 0.20568851E-01 0.39760375E+03</pdfrwt>
<pdfrwt beam="2">  1       -2 0.45478298E-01 0.39760375E+03</pdfrwt>
<totfact> 0.12559360E+03</totfact>
</mgrwt>
</event>
<event>
 4    1  0.1710914E-004  0.3939186E+03  0.7818608E-02  0.1045906E+00
          2   -1    0    0  501    0  0.00000000000E+00  0.00000000000E+00  0.57583090288E+03  0.57583090288E+03  0.00000000000E+00 0.  1.
         -2   -1    0    0    0  501 -0.00000000000E+00 -0.00000000000E+00 -0.67368660413E+02  0.67368660413E+02  0.00000000000E+00 0.  1.
         25    1    1    2    0    0 -0.38398856305E+02 -0.15937777427E+02  0.50004822911E+03  0.51592316904E+03  0.12000000000E+03 0.  0.
         25    1    1    2    0    0  0.38398856305E+02  0.15937777427E+02  0.84140133628E+01  0.12727639426E+03  0.12000000000E+03 0.  0.
<mgrwt>
<rscale>  0 0.39391855E+03</rscale>
<asrwt>0</asrwt>
<pdfrwt beam="1">  1        2 0.88589366E-01 0.39391855E+03</pdfrwt>
<pdfrwt beam="2">  1       -2 0.10364410E-01 0.39391855E+03</pdfrwt>
<totfact> 0.33359200E+03</totfact>
</mgrwt>
</event>
<event>
 4    1  0.1710914E-004  0.3158291E+03  0.7818608E-02  0.1077585E+00
          2   -1    0    0  501    0  0.00000000000E+00  0.00000000000E+00  0.25890397852E+03  0.25890397852E+03  0.00000000000E+00 0.  1.
         -2   -1    0    0    0  501 -0.00000000000E+00 -0.00000000000E+00 -0.96317591548E+02  0.96317591548E+02  0.00000000000E+00 0.  1.
         25    1    1    2    0    0  0.81411643211E+02  0.83839146325E+01  0.11606731861E+02  0.14571500231E+03  0.12000000000E+03 0.  0.
         25    1    1    2    0    0 -0.81411643211E+02 -0.83839146325E+01  0.15097965511E+03  0.20950656776E+03  0.12000000000E+03 0.  0.
<mgrwt>
<rscale>  0 0.31582912E+03</rscale>
<asrwt>0</asrwt>
<pdfrwt beam="1">  1        2 0.39831381E-01 0.31582912E+03</pdfrwt>
<pdfrwt beam="2">  1       -2 0.14818091E-01 0.31582912E+03</pdfrwt>
<totfact> 0.44834530E+03</totfact>
</mgrwt>
</event>
<event>
 4    1  0.1710914E-004  0.2761600E+03  0.7818608E-02  0.1097805E+00
          4   -1    0    0  501    0  0.00000000000E+00  0.00000000000E+00  0.29798613418E+02  0.29798613418E+02  0.00000000000E+00 0.  1.
         -4   -1    0    0    0  501 -0.00000000000E+00 -0.00000000000E+00 -0.63983150055E+03  0.63983150055E+03  0.00000000000E+00 0.  1.
         25    1    1    2    0    0 -0.18052924850E+02  0.58637976265E+02 -0.37783168932E+03  0.40114972992E+03  0.12000000000E+03 0.  0.
         25    1    1    2    0    0  0.18052924850E+02 -0.58637976265E+02 -0.23220119781E+03  0.26848038405E+03  0.12000000000E+03 0.  0.
<mgrwt>
<rscale>  0 0.27616004E+03</rscale>
<asrwt>0</asrwt>
<pdfrwt beam="1">  1        4 0.45844024E-02 0.27616004E+03</pdfrwt>
<pdfrwt beam="2">  1       -4 0.98435608E-01 0.27616004E+03</pdfrwt>
<totfact> 0.45601621E+02</totfact>
</mgrwt>
</event>
<event>
 4    1  0.1710914E-004  0.3583206E+03  0.7818608E-02  0.1059251E+00
          2   -1    0    0  501    0  0.00000000000E+00  0.00000000000E+00  0.22407703367E+04  0.22407703367E+04  0.00000000000E+00 0. -1.
         -2   -1    0    0    0  501 -0.00000000000E+00 -0.00000000000E+00 -0.14324722565E+02  0.14324722565E+02  0.00000000000E+00 0. -1.
         25    1    1    2    0    0  0.11677289565E+03  0.54096322333E+02  0.90109389948E+03  0.91811357518E+03  0.12000000000E+03 0.  0.
         25    1    1    2    0    0 -0.11677289565E+03 -0.54096322333E+02  0.13253517146E+04  0.13369814840E+04  0.12000000000E+03 0.  0.
<mgrwt>
<rscale>  0 0.35832060E+03</rscale>
<asrwt>0</asrwt>
<pdfrwt beam="1">  1        2 0.34473362E+00 0.35832060E+03</pdfrwt>
<pdfrwt beam="2">  1       -2 0.22038052E-02 0.35832060E+03</pdfrwt>
<totfact> 0.36974594E+03</totfact>
</mgrwt>
</event>
<event>
 4    1  0.1710914E-004  0.2613233E+03  0.7818608E-02  0.1106351E+00
          1   -1    0    0  501    0  0.00000000000E+00  0.00000000000E+00  0.36739032642E+03  0.36739032642E+03  0.00000000000E+00 0. -1.
         -1   -1    0    0    0  501 -0.00000000000E+00 -0.00000000000E+00 -0.46469553018E+02  0.46469553018E+02  0.00000000000E+00 0. -1.
         25    1    1    2    0    0 -0.21722464886E+02  0.23977513724E+02  0.96605750205E+02  0.15741492184E+03  0.12000000000E+03 0.  0.
         25    1    1    2    0    0  0.21722464886E+02 -0.23977513724E+02  0.22431502319E+03  0.25644495759E+03  0.12000000000E+03 0.  0.
<mgrwt>
<rscale>  0 0.26132328E+03</rscale>
<asrwt>0</asrwt>
<pdfrwt beam="1">  1        1 0.56521587E-01 0.26132328E+03</pdfrwt>
<pdfrwt beam="2">  1       -1 0.71491623E-02 0.26132328E+03</pdfrwt>
<totfact> 0.68564650E+03</totfact>
</mgrwt>
</event>
<event>
 4    1  0.1710914E-004  0.2495192E+03  0.7818608E-02  0.1113609E+00
         -1   -1    0    0    0  501 -0.00000000000E+00  0.00000000000E+00  0.58557668914E+02  0.58557668914E+02  0.00000000000E+00 0.  1.
          1   -1    0    0  501    0  0.00000000000E+00 -0.00000000000E+00 -0.26580572295E+03  0.26580572295E+03  0.00000000000E+00 0.  1.
         25    1    1    2    0    0 -0.28011004619E+02  0.13317052262E+02 -0.85102393396E+02  0.15034752283E+03  0.12000000000E+03 0.  0.
         25    1    1    2    0    0  0.28011004619E+02 -0.13317052262E+02 -0.12214566063E+03  0.17401586903E+03  0.12000000000E+03 0.  0.
<mgrwt>
<rscale>  0 0.24951925E+03</rscale>
<asrwt>0</asrwt>
<pdfrwt beam="1">  1        1 0.40893188E-01 0.24951925E+03</pdfrwt>
<pdfrwt beam="2">  1       -1 0.90088721E-02 0.24951925E+03</pdfrwt>
<totfact> 0.72287405E+03</totfact>
</mgrwt>
</event>
<event>
 4    1  0.1710914E-004  0.2587157E+03  0.7818608E-02  0.1107917E+00
         -2   -1    0    0    0  501 -0.00000000000E+00  0.00000000000E+00  0.18200426233E+02  0.18200426233E+02  0.00000000000E+00 0. -1.
          2   -1    0    0  501    0  0.00000000000E+00 -0.00000000000E+00 -0.91939887414E+03  0.91939887414E+03  0.00000000000E+00 0. -1.
         25    1    1    2    0    0 -0.34265091472E+02  0.24147551411E+02 -0.36360303426E+03  0.38518095391E+03  0.12000000000E+03 0.  0.
         25    1    1    2    0    0  0.34265091472E+02 -0.24147551411E+02 -0.53759541364E+03  0.55241834646E+03  0.12000000000E+03 0.  0.
<mgrwt>
<rscale>  0 0.25871568E+03</rscale>
<asrwt>0</asrwt>
<pdfrwt beam="1">  1        2 0.14144597E+00 0.25871568E+03</pdfrwt>
<pdfrwt beam="2">  1       -2 0.28000659E-02 0.25871568E+03</pdfrwt>
<totfact> 0.13774304E+04</totfact>
</mgrwt>
</event>
<event>
 4    1  0.1710914E-004  0.2665190E+03  0.7818608E-02  0.1103289E+00
          1   -1    0    0  501    0  0.00000000000E+00  0.00000000000E+00  0.62634475939E+03  0.62634475939E+03  0.00000000000E+00 0. -1.
         -1   -1    0    0    0  501 -0.00000000000E+00 -0.00000000000E+00 -0.28351952711E+02  0.28351952711E+02  0.00000000000E+00 0. -1.
         25    1    1    2    0    0  0.34484208705E+02  0.35174807400E+02  0.22401685180E+03  0.25886285484E+03  0.12000000000E+03 0.  0.
         25    1    1    2    0    0 -0.34484208705E+02 -0.35174807400E+02  0.37397595489E+03  0.39583385727E+03  0.12000000000E+03 0.  0.
<mgrwt>
<rscale>  0 0.26651902E+03</rscale>
<asrwt>0</asrwt>
<pdfrwt beam="1">  1        1 0.96360722E-01 0.26651902E+03</pdfrwt>
<pdfrwt beam="2">  1       -1 0.43618394E-02 0.26651902E+03</pdfrwt>
<totfact> 0.71174656E+03</totfact>
</mgrwt>
</event>
<event>
 4    1  0.1710914E-004  0.3469435E+03  0.7818608E-02  0.1063877E+00
          2   -1    0    0  501    0  0.00000000000E+00  0.00000000000E+00  0.65858913007E+03  0.65858913007E+03  0.00000000000E+00 0. -1.
         -2   -1    0    0    0  501 -0.00000000000E+00 -0.00000000000E+00 -0.45692298129E+02  0.45692298129E+02  0.00000000000E+00 0. -1.
         25    1    1    2    0    0  0.79253678411E+02  0.68377817015E+02  0.44614416669E+03  0.47371013170E+03  0.12000000000E+03 0.  0.
         25    1    1    2    0    0 -0.79253678411E+02 -0.68377817015E+02  0.16675266524E+03  0.23057129650E+03  0.12000000000E+03 0.  0.
<mgrwt>
<rscale>  0 0.34694352E+03</rscale>
<asrwt>0</asrwt>
<pdfrwt beam="1">  1        2 0.10132140E+00 0.34694352E+03</pdfrwt>
<pdfrwt beam="2">  1       -2 0.70295848E-02 0.34694352E+03</pdfrwt>
<totfact> 0.52495648E+03</totfact>
</mgrwt>
</event>
<event>
 4    1  0.1710914E-004  0.3526875E+03  0.7818608E-02  0.1061517E+00
         -2   -1    0    0    0  501 -0.00000000000E+00  0.00000000000E+00  0.21545590932E+03  0.21545590932E+03  0.00000000000E+00 0. -1.
          2   -1    0    0  501    0  0.00000000000E+00 -0.00000000000E+00 -0.14433169759E+03  0.14433169759E+03  0.00000000000E+00 0. -1.
         25    1    1    2    0    0 -0.48430480742E+02  0.34686914909E+02  0.15253708681E+03  0.20301787208E+03  0.12000000000E+03 0.  0.
         25    1    1    2    0    0  0.48430480742E+02 -0.34686914909E+02 -0.81412875079E+02  0.15676973483E+03  0.12000000000E+03 0.  0.
<mgrwt>
<rscale>  0 0.35268749E+03</rscale>
<asrwt>0</asrwt>
<pdfrwt beam="1">  1        2 0.22204877E-01 0.35268749E+03</pdfrwt>
<pdfrwt beam="2">  1       -2 0.33147063E-01 0.35268749E+03</pdfrwt>
<totfact> 0.21038112E+03</totfact>
</mgrwt>
</event>
<event>
 4    1  0.1710914E-004  0.2716968E+03  0.7818608E-02  0.1100312E+00
         -2   -1    0    0    0  501 -0.00000000000E+00  0.00000000000E+00  0.10271857865E+03  0.10271857865E+03  0.00000000000E+00 0.  1.
          2   -1    0    0  501    0  0.00000000000E+00 -0.00000000000E+00 -0.17966358836E+03  0.17966358836E+03  0.00000000000E+00 0.  1.
         25    1    1    2    0    0 -0.14498874820E+02  0.93747736186E+01  0.25229794343E+02  0.12383313884E+03  0.12000000000E+03 0.  0.
         25    1    1    2    0    0  0.14498874820E+02 -0.93747736186E+01 -0.10217480405E+03  0.15854902817E+03  0.12000000000E+03 0.  0.
<mgrwt>
<rscale>  0 0.27169680E+03</rscale>
<asrwt>0</asrwt>
<pdfrwt beam="1">  1        2 0.27640552E-01 0.27169680E+03</pdfrwt>
<pdfrwt beam="2">  1       -2 0.15802858E-01 0.27169680E+03</pdfrwt>
<totfact> 0.59790485E+03</totfact>
</mgrwt>
</event>
<event>
 4    1  0.1710914E-004  0.2801430E+03  0.7818608E-02  0.1095611E+00
          1   -1    0    0  501    0  0.00000000000E+00  0.00000000000E+00  0.69612027995E+03  0.69612027995E+03  0.00000000000E+00 0. -1.
         -1   -1    0    0    0  501 -0.00000000000E+00 -0.00000000000E+00 -0.28184816589E+02  0.28184816589E+02  0.00000000000E+00 0. -1.
         25    1    1    2    0    0  0.17349559231E+02 -0.63640192754E+02  0.41018211840E+03  0.43243548836E+03  0.12000000000E+03 0.  0.
         25    1    1    2    0    0 -0.17349559231E+02  0.63640192754E+02  0.25775334496E+03  0.29186960817E+03  0.12000000000E+03 0.  0.
<mgrwt>
<rscale>  0 0.28014298E+03</rscale>
<asrwt>0</asrwt>
<pdfrwt beam="1">  1        1 0.10709541E+00 0.28014298E+03</pdfrwt>
<pdfrwt beam="2">  1       -1 0.43361262E-02 0.28014298E+03</pdfrwt>
<totfact> 0.61822418E+03</totfact>
</mgrwt>
</event>
<event>
 4    1  0.1710914E-004  0.2440804E+03  0.7818608E-02  0.1117104E+00
         -1   -1    0    0    0  501 -0.00000000000E+00  0.00000000000E+00  0.16788312989E+03  0.16788312989E+03  0.00000000000E+00 0. -1.
          1   -1    0    0  501    0  0.00000000000E+00 -0.00000000000E+00 -0.88715357977E+02  0.88715357977E+02  0.00000000000E+00 0. -1.
         25    1    1    2    0    0 -0.10466389143E+02  0.18460689510E+02  0.32652596706E+02  0.12616074837E+03  0.12000000000E+03 0.  0.
         25    1    1    2    0    0  0.10466389143E+02 -0.18460689510E+02  0.46515175203E+02  0.13043773949E+03  0.12000000000E+03 0.  0.
<mgrwt>
<rscale>  0 0.24408041E+03</rscale>
<asrwt>0</asrwt>
<pdfrwt beam="1">  1        1 0.13648517E-01 0.24408041E+03</pdfrwt>
<pdfrwt beam="2">  1       -1 0.25828174E-01 0.24408041E+03</pdfrwt>
<totfact> 0.54936743E+03</totfact>
</mgrwt>
</event>
<event>
 4    1  0.1710914E-004  0.2740251E+03  0.7818608E-02  0.1098998E+00
         -1   -1    0    0    0  501 -0.00000000000E+00  0.00000000000E+00  0.14502036458E+03  0.14502036458E+03  0.00000000000E+00 0. -1.
          1   -1    0    0  501    0  0.00000000000E+00 -0.00000000000E+00 -0.12944695073E+03  0.12944695073E+03  0.00000000000E+00 0. -1.
         25    1    1    2    0    0 -0.19078334234E+02 -0.38689280495E+02  0.57983448896E+02  0.14008184611E+03  0.12000000000E+03 0.  0.
         25    1    1    2    0    0  0.19078334234E+02  0.38689280495E+02 -0.42410035047E+02  0.13438546921E+03  0.12000000000E+03 0.  0.
<mgrwt>
<rscale>  0 0.27402514E+03</rscale>
<asrwt>0</asrwt>
<pdfrwt beam="1">  1        1 0.19914915E-01 0.27402514E+03</pdfrwt>
<pdfrwt beam="2">  1       -1 0.22310825E-01 0.27402514E+03</pdfrwt>
<totfact> 0.42956405E+03</totfact>
</mgrwt>
</event>
<event>
 4    1  0.1710914E-004  0.3438519E+03  0.7818608E-02  0.1065167E+00
         -2   -1    0    0    0  501 -0.00000000000E+00  0.00000000000E+00  0.13504901304E+03  0.13504901304E+03  0.00000000000E+00 0. -1.
          2   -1    0    0  501    0  0.00000000000E+00 -0.00000000000E+00 -0.21887260193E+03  0.21887260193E+03  0.00000000000E+00 0. -1.
         25    1    1    2    0    0  0.15405161809E+02 -0.30345870982E+02 -0.16369991924E+03  0.20580538005E+03  0.12000000000E+03 0.  0.
         25    1    1    2    0    0 -0.15405161809E+02  0.30345870982E+02  0.79876330354E+02  0.14811623492E+03  0.12000000000E+03 0.  0.
<mgrwt>
<rscale>  0 0.34385188E+03</rscale>
<asrwt>0</asrwt>
<pdfrwt beam="1">  1        2 0.33672708E-01 0.34385188E+03</pdfrwt>
<pdfrwt beam="2">  1       -2 0.20776771E-01 0.34385188E+03</pdfrwt>
<totfact> 0.30471761E+03</totfact>
</mgrwt>
</event>
<event>
 4    1  0.1710914E-004  0.3861008E+03  0.7818608E-02  0.1048702E+00
          2   -1    0    0  501    0  0.00000000000E+00  0.00000000000E+00  0.25564720548E+03  0.25564720548E+03  0.00000000000E+00 0.  1.
         -2   -1    0    0    0  501 -0.00000000000E+00 -0.00000000000E+00 -0.14578082367E+03  0.14578082367E+03  0.00000000000E+00 0.  1.
         25    1    1    2    0    0  0.24832423544E+01 -0.14920205786E+03  0.80422527048E+02  0.20769016206E+03  0.12000000000E+03 0.  0.
         25    1    1    2    0    0 -0.24832423544E+01  0.14920205786E+03  0.29443854764E+02  0.19373786709E+03  0.12000000000E+03 0.  0.
<mgrwt>
<rscale>  0 0.38610082E+03</rscale>
<asrwt>0</asrwt>
<pdfrwt beam="1">  1        2 0.39330339E-01 0.38610082E+03</pdfrwt>
<pdfrwt beam="2">  1       -2 0.22427819E-01 0.38610082E+03</pdfrwt>
<totfact> 0.22550775E+03</totfact>
</mgrwt>
</event>
<event>
 4    1  0.1710914E-004  0.3248257E+03  0.7818608E-02  0.1073450E+00
         -2   -1    0    0    0  501 -0.00000000000E+00  0.00000000000E+00  0.87186606310E+01  0.87186606310E+01  0.00000000000E+00 0. -1.
          2   -1    0    0  501    0  0.00000000000E+00 -0.00000000000E+00 -0.30254575822E+04  0.30254575822E+04  0.00000000000E+00 0. -1.
         25    1    1    2    0    0  0.42290000498E+02 -0.97488160503E+02 -0.17529436899E+04  0.17602567897E+04  0.12000000000E+03 0.  0.
         25    1    1    2    0    0 -0.42290000498E+02  0.97488160503E+02 -0.12637952316E+04  0.12739194532E+04  0.12000000000E+03 0.  0.
<mgrwt>
<rscale>  0 0.32482573E+03</rscale>
<asrwt>0</asrwt>
<pdfrwt beam="1">  1        2 0.46545555E+00 0.32482573E+03</pdfrwt>
<pdfrwt beam="2">  1       -2 0.13413309E-02 0.32482573E+03</pdfrwt>
<totfact> 0.27822928E+03</totfact>
</mgrwt>
</event>
<event>
 4    1  0.1710914E-004  0.2543824E+03  0.7818608E-02  0.1110566E+00
         -2   -1    0    0    0  501 -0.00000000000E+00  0.00000000000E+00  0.42931581978E+02  0.42931581978E+02  0.00000000000E+00 0.  1.
          2   -1    0    0  501    0  0.00000000000E+00 -0.00000000000E+00 -0.37682277532E+03  0.37682277532E+03  0.00000000000E+00 0.  1.
         25    1    1    2    0    0  0.39995152916E+02  0.16600786091E+01 -0.14510260487E+03  0.19250229624E+03  0.12000000000E+03 0.  0.
         25    1    1    2    0    0 -0.39995152916E+02 -0.16600786091E+01 -0.18878858848E+03  0.22725206106E+03  0.12000000000E+03 0.  0.
<mgrwt>
<rscale>  0 0.25438237E+03</rscale>
<asrwt>0</asrwt>
<pdfrwt beam="1">  1        2 0.57972732E-01 0.25438237E+03</pdfrwt>
<pdfrwt beam="2">  1       -2 0.66048590E-02 0.25438237E+03</pdfrwt>
<totfact> 0.10744405E+04</totfact>
</mgrwt>
</event>
<event>
 4    1  0.1710914E-004  0.2618733E+03  0.7818608E-02  0.1106023E+00
         -2   -1    0    0    0  501 -0.00000000000E+00  0.00000000000E+00  0.67414698986E+02  0.67414698986E+02  0.00000000000E+00 0.  1.
          2   -1    0    0  501    0  0.00000000000E+00 -0.00000000000E+00 -0.25431253171E+03  0.25431253171E+03  0.00000000000E+00 0.  1.
         25    1    1    2    0    0 -0.47480951971E+02 -0.21757438082E+02 -0.88447019852E+02  0.15795791285E+03  0.12000000000E+03 0.  0.
         25    1    1    2    0    0  0.47480951971E+02  0.21757438082E+02 -0.98450812875E+02  0.16376931785E+03  0.12000000000E+03 0.  0.
<mgrwt>
<rscale>  0 0.26187327E+03</rscale>
<asrwt>0</asrwt>
<pdfrwt beam="1">  1        2 0.39125005E-01 0.26187327E+03</pdfrwt>
<pdfrwt beam="2">  1       -2 0.10371492E-01 0.26187327E+03</pdfrwt>
<totfact> 0.81040683E+03</totfact>
</mgrwt>
</event>
<event>
 4    1  0.1710914E-004  0.2834642E+03  0.7818608E-02  0.1093812E+00
         -1   -1    0    0    0  501 -0.00000000000E+00  0.00000000000E+00  0.30574016097E+02  0.30574016097E+02  0.00000000000E+00 0. -1.
          1   -1    0    0  501    0  0.00000000000E+00 -0.00000000000E+00 -0.65702794099E+03  0.65702794099E+03  0.00000000000E+00 0. -1.
         25    1    1    2    0    0 -0.33399973247E+02 -0.59220438984E+02 -0.39240194954E+03  0.41593498123E+03  0.12000000000E+03 0.  0.
         25    1    1    2    0    0  0.33399973247E+02  0.59220438984E+02 -0.23405197536E+03  0.27166697586E+03  0.12000000000E+03 0.  0.
<mgrwt>
<rscale>  0 0.28346416E+03</rscale>
<asrwt>0</asrwt>
<pdfrwt beam="1">  1        1 0.10108122E+00 0.28346416E+03</pdfrwt>
<pdfrwt beam="2">  1       -1 0.47036950E-02 0.28346416E+03</pdfrwt>
<totfact> 0.59526907E+03</totfact>
</mgrwt>
</event>
<event>
 4    1  0.1710914E-004  0.3015055E+03  0.7818608E-02  0.1084490E+00
         -2   -1    0    0    0  501 -0.00000000000E+00  0.00000000000E+00  0.73709587531E+01  0.73709587531E+01  0.00000000000E+00 0. -1.
          2   -1    0    0  501    0  0.00000000000E+00 -0.00000000000E+00 -0.30832338062E+04  0.30832338062E+04  0.00000000000E+00 0. -1.
         25    1    1    2    0    0  0.16507129780E+02 -0.11576826490E+02 -0.62569463759E+03  0.63741688693E+03  0.12000000000E+03 0.  0.
         25    1    1    2    0    0 -0.16507129780E+02  0.11576826490E+02 -0.24501682098E+04  0.24531878780E+04  0.12000000000E+03 0.  0.
<mgrwt>
<rscale>  0 0.30150548E+03</rscale>
<asrwt>0</asrwt>
<pdfrwt beam="1">  1        2 0.47434503E+00 0.30150548E+03</pdfrwt>
<pdfrwt beam="2">  1       -2 0.11339904E-02 0.30150548E+03</pdfrwt>
<totfact> 0.32909212E+03</totfact>
</mgrwt>
</event>
<event>
 4    1  0.1710914E-004  0.2479658E+03  0.7818608E-02  0.1114597E+00
         -2   -1    0    0    0  501 -0.00000000000E+00  0.00000000000E+00  0.23693197136E+02  0.23693197136E+02  0.00000000000E+00 0.  1.
          2   -1    0    0  501    0  0.00000000000E+00 -0.00000000000E+00 -0.64878344845E+03  0.64878344845E+03  0.00000000000E+00 0.  1.
         25    1    1    2    0    0 -0.27498929665E+02  0.13481107507E+02 -0.29677300988E+03  0.32157759684E+03  0.12000000000E+03 0.  0.
         25    1    1    2    0    0  0.27498929665E+02 -0.13481107507E+02 -0.32831724143E+03  0.35089904875E+03  0.12000000000E+03 0.  0.
<mgrwt>
<rscale>  0 0.24796576E+03</rscale>
<asrwt>0</asrwt>
<pdfrwt beam="1">  1        2 0.99812840E-01 0.24796576E+03</pdfrwt>
<pdfrwt beam="2">  1       -2 0.36451072E-02 0.24796576E+03</pdfrwt>
<totfact> 0.14388155E+04</totfact>
</mgrwt>
</event>
<event>
 4    1  0.1710914E-004  0.2663263E+03  0.7818608E-02  0.1103401E+00
         -3   -1    0    0    0  501 -0.00000000000E+00  0.00000000000E+00  0.22783145799E+02  0.22783145799E+02  0.00000000000E+00 0. -1.
          3   -1    0    0  501    0  0.00000000000E+00 -0.00000000000E+00 -0.77831321440E+03  0.77831321440E+03  0.00000000000E+00 0. -1.
         25    1    1    2    0    0 -0.84693967973E+01  0.15530628923E+01 -0.20606714052E+03  0.23861644765E+03  0.12000000000E+03 0.  0.
         25    1    1    2    0    0  0.84693967973E+01 -0.15530628923E+01 -0.54946292808E+03  0.56247991255E+03  0.12000000000E+03 0.  0.
<mgrwt>
<rscale>  0 0.26632629E+03</rscale>
<asrwt>0</asrwt>
<pdfrwt beam="1">  1        3 0.11974047E+00 0.26632629E+03</pdfrwt>
<pdfrwt beam="2">  1       -3 0.35051002E-02 0.26632629E+03</pdfrwt>
<totfact> 0.60210930E+02</totfact>
</mgrwt>
</event>
<event>
 4    1  0.1710914E-004  0.2903303E+03  0.7818608E-02  0.1090177E+00
         -1   -1    0    0    0  501 -0.00000000000E+00  0.00000000000E+00  0.25304646798E+02  0.25304646798E+02  0.00000000000E+00 0. -1.
          1   -1    0    0  501    0  0.00000000000E+00 -0.00000000000E+00 -0.83276882194E+03  0.83276882194E+03  0.00000000000E+00 0. -1.
         25    1    1    2    0    0  0.17384769098E+02 -0.40813219703E+02 -0.20100554095E+03  0.23826702791E+03  0.12000000000E+03 0.  0.
         25    1    1    2    0    0 -0.17384769098E+02  0.40813219703E+02 -0.60645863419E+03  0.61980644082E+03  0.12000000000E+03 0.  0.
<mgrwt>
<rscale>  0 0.29033030E+03</rscale>
<asrwt>0</asrwt>
<pdfrwt beam="1">  1        1 0.12811826E+00 0.29033030E+03</pdfrwt>
<pdfrwt beam="2">  1       -1 0.38930233E-02 0.29033030E+03</pdfrwt>
<totfact> 0.55413096E+03</totfact>
</mgrwt>
</event>
<event>
 4    1  0.1710914E-004  0.2439543E+03  0.7818608E-02  0.1117186E+00
          2   -1    0    0  501    0  0.00000000000E+00  0.00000000000E+00  0.41156868940E+02  0.41156868940E+02  0.00000000000E+00 0.  1.
         -2   -1    0    0    0  501 -0.00000000000E+00 -0.00000000000E+00 -0.36150535413E+03  0.36150535413E+03  0.00000000000E+00 0.  1.
         25    1    1    2    0    0  0.11238261906E+02 -0.47605061107E+01 -0.13021445902E+03  0.17749582048E+03  0.12000000000E+03 0.  0.
         25    1    1    2    0    0 -0.11238261906E+02  0.47605061107E+01 -0.19013402617E+03  0.22516640259E+03  0.12000000000E+03 0.  0.
<mgrwt>
<rscale>  0 0.24395433E+03</rscale>
<asrwt>0</asrwt>
<pdfrwt beam="1">  1        2 0.63318259E-02 0.24395433E+03</pdfrwt>
<pdfrwt beam="2">  1       -2 0.55616209E-01 0.24395433E+03</pdfrwt>
<totfact> 0.35262038E+03</totfact>
</mgrwt>
</event>
<event>
 4    1  0.1710914E-004  0.2733686E+03  0.7818608E-02  0.1099367E+00
          2   -1    0    0  501    0  0.00000000000E+00  0.00000000000E+00  0.25391722059E+04  0.25391722059E+04  0.00000000000E+00 0.  1.
         -2   -1    0    0    0  501 -0.00000000000E+00 -0.00000000000E+00 -0.73577519412E+01  0.73577519412E+01  0.00000000000E+00 0.  1.
         25    1    1    2    0    0  0.78565007018E+01  0.43864757108E+02  0.17123417141E+04  0.17171196776E+04  0.12000000000E+03 0.  0.
         25    1    1    2    0    0 -0.78565007018E+01 -0.43864757108E+02  0.81947273992E+03  0.82941028025E+03  0.12000000000E+03 0.  0.
<mgrwt>
<rscale>  0 0.27336861E+03</rscale>
<asrwt>0</asrwt>
<pdfrwt beam="1">  1        2 0.39064118E+00 0.27336861E+03</pdfrwt>
<pdfrwt beam="2">  1       -2 0.11319639E-02 0.27336861E+03</pdfrwt>
<totfact> 0.67942028E+03</totfact>
</mgrwt>
</event>
<event>
 4    1  0.1710914E-004  0.2605518E+03  0.7818608E-02  0.1106812E+00
         -2   -1    0    0    0  501 -0.00000000000E+00  0.00000000000E+00  0.27506192165E+02  0.27506192165E+02  0.00000000000E+00 0. -1.
          2   -1    0    0  501    0  0.00000000000E+00 -0.00000000000E+00 -0.61701799453E+03  0.61701799453E+03  0.00000000000E+00 0. -1.
         25    1    1    2    0    0 -0.47480116580E+02 -0.16538807498E+02 -0.27836187418E+03  0.30726735365E+03  0.12000000000E+03 0.  0.
         25    1    1    2    0    0  0.47480116580E+02  0.16538807498E+02 -0.31114992819E+03  0.33725683304E+03  0.12000000000E+03 0.  0.
<mgrwt>
<rscale>  0 0.26055184E+03</rscale>
<asrwt>0</asrwt>
<pdfrwt beam="1">  1        2 0.94925853E-01 0.26055184E+03</pdfrwt>
<pdfrwt beam="2">  1       -2 0.42317215E-02 0.26055184E+03</pdfrwt>
<totfact> 0.12226777E+04</totfact>
</mgrwt>
</event>
<event>
 4    1  0.1710914E-004  0.2574800E+03  0.7818608E-02  0.1108667E+00
          2   -1    0    0  501    0  0.00000000000E+00  0.00000000000E+00  0.26254934238E+02  0.26254934238E+02  0.00000000000E+00 0.  1.
         -2   -1    0    0    0  501 -0.00000000000E+00 -0.00000000000E+00 -0.63127153516E+03  0.63127153516E+03  0.00000000000E+00 0.  1.
         25    1    1    2    0    0  0.28722286323E+02  0.13420022478E+02 -0.21519846577E+03  0.24842593746E+03  0.12000000000E+03 0.  0.
         25    1    1    2    0    0 -0.28722286323E+02 -0.13420022478E+02 -0.38981813515E+03  0.40910053193E+03  0.12000000000E+03 0.  0.
<mgrwt>
<rscale>  0 0.25748004E+03</rscale>
<asrwt>0</asrwt>
<pdfrwt beam="1">  1        2 0.40392209E-02 0.25748004E+03</pdfrwt>
<pdfrwt beam="2">  1       -2 0.97118691E-01 0.25748004E+03</pdfrwt>
<totfact> 0.19126156E+03</totfact>
</mgrwt>
</event>
<event>
 4    1  0.1710914E-004  0.2627403E+03  0.7818608E-02  0.1105508E+00
          2   -1    0    0  501    0  0.00000000000E+00  0.00000000000E+00  0.14298647548E+04  0.14298647548E+04  0.00000000000E+00 0.  1.
         -2   -1    0    0    0  501 -0.00000000000E+00 -0.00000000000E+00 -0.12069750920E+02  0.12069750920E+02  0.00000000000E+00 0.  1.
         25    1    1    2    0    0 -0.18430613648E+02 -0.11980459004E+02  0.97634644417E+03  0.98393881820E+03  0.12000000000E+03 0.  0.
         25    1    1    2    0    0  0.18430613648E+02  0.11980459004E+02  0.44144855970E+03  0.45799568751E+03  0.12000000000E+03 0.  0.
<mgrwt>
<rscale>  0 0.26274026E+03</rscale>
<asrwt>0</asrwt>
<pdfrwt beam="1">  1        2 0.21997906E+00 0.26274026E+03</pdfrwt>
<pdfrwt beam="2">  1       -2 0.18568859E-02 0.26274026E+03</pdfrwt>
<totfact> 0.12816847E+04</totfact>
</mgrwt>
</event>
<event>
 4    1  0.1710914E-004  0.2505597E+03  0.7818608E-02  0.1112952E+00
          2   -1    0    0  501    0  0.00000000000E+00  0.00000000000E+00  0.44922812181E+02  0.44922812181E+02  0.00000000000E+00 0.  1.
         -2   -1    0    0    0  501 -0.00000000000E+00 -0.00000000000E+00 -0.34937785372E+03  0.34937785372E+03  0.00000000000E+00 0.  1.
         25    1    1    2    0    0  0.31082122732E+02 -0.59087343086E+01 -0.12524342277E+03  0.17631485032E+03  0.12000000000E+03 0.  0.
         25    1    1    2    0    0 -0.31082122732E+02  0.59087343086E+01 -0.17921161877E+03  0.21798581559E+03  0.12000000000E+03 0.  0.
<mgrwt>
<rscale>  0 0.25055966E+03</rscale>
<asrwt>0</asrwt>
<pdfrwt beam="1">  1        2 0.69112023E-02 0.25055966E+03</pdfrwt>
<pdfrwt beam="2">  1       -2 0.53750436E-01 0.25055966E+03</pdfrwt>
<totfact> 0.33785872E+03</totfact>
</mgrwt>
</event>
<event>
 4    1  0.1710914E-004  0.2963902E+03  0.7818608E-02  0.1087059E+00
          2   -1    0    0  501    0  0.00000000000E+00  0.00000000000E+00  0.29708919600E+03  0.29708919600E+03  0.00000000000E+00 0.  1.
         -2   -1    0    0    0  501 -0.00000000000E+00 -0.00000000000E+00 -0.73923205450E+02  0.73923205450E+02  0.00000000000E+00 0.  1.
         25    1    1    2    0    0  0.15434133780E+02 -0.78672135873E+02  0.15374123697E+03  0.21086461390E+03  0.12000000000E+03 0.  0.
         25    1    1    2    0    0 -0.15434133780E+02  0.78672135873E+02  0.69424753579E+02  0.16014778755E+03  0.12000000000E+03 0.  0.
<mgrwt>
<rscale>  0 0.29639019E+03</rscale>
<asrwt>0</asrwt>
<pdfrwt beam="1">  1        2 0.45706029E-01 0.29639019E+03</pdfrwt>
<pdfrwt beam="2">  1       -2 0.11372801E-01 0.29639019E+03</pdfrwt>
<totfact> 0.59407865E+03</totfact>
</mgrwt>
</event>
<event>
 4    1  0.1710914E-004  0.6502339E+03  0.7818608E-02  0.9806340E-01
         -2   -1    0    0    0  501 -0.00000000000E+00  0.00000000000E+00  0.89210987907E+02  0.89210987907E+02  0.00000000000E+00 0. -1.
          2   -1    0    0  501    0  0.00000000000E+00 -0.00000000000E+00 -0.11848432181E+04  0.11848432181E+04  0.00000000000E+00 0. -1.
         25    1    1    2    0    0  0.33171134852E+02 -0.26319263824E+03 -0.83128571169E+03  0.88079885529E+03  0.12000000000E+03 0.  0.
         25    1    1    2    0    0 -0.33171134852E+02  0.26319263824E+03 -0.26434651845E+03  0.39325535067E+03  0.12000000000E+03 0.  0.
<mgrwt>
<rscale>  0 0.65023391E+03</rscale>
<asrwt>0</asrwt>
<pdfrwt beam="1">  1        2 0.18228357E+00 0.65023391E+03</pdfrwt>
<pdfrwt beam="2">  1       -2 0.13724768E-01 0.65023391E+03</pdfrwt>
<totfact> 0.79539279E+02</totfact>
</mgrwt>
</event>
<event>
 4    1  0.1710914E-004  0.3090377E+03  0.7818608E-02  0.1080808E+00
          1   -1    0    0  501    0  0.00000000000E+00  0.00000000000E+00  0.36166185177E+03  0.36166185177E+03  0.00000000000E+00 0. -1.
         -1   -1    0    0    0  501 -0.00000000000E+00 -0.00000000000E+00 -0.66017674159E+02  0.66017674159E+02  0.00000000000E+00 0. -1.
         25    1    1    2    0    0 -0.10255781931E+01  0.23210448853E+02  0.27864560385E+03  0.30427479240E+03  0.12000000000E+03 0.  0.
         25    1    1    2    0    0  0.10255781931E+01 -0.23210448853E+02  0.16998573761E+02  0.12340473353E+03  0.12000000000E+03 0.  0.
<mgrwt>
<rscale>  0 0.30903770E+03</rscale>
<asrwt>0</asrwt>
<pdfrwt beam="1">  1        1 0.55640284E-01 0.30903770E+03</pdfrwt>
<pdfrwt beam="2">  1       -1 0.10156565E-01 0.30903770E+03</pdfrwt>
<totfact> 0.41019221E+03</totfact>
</mgrwt>
</event>
<event>
 4    1  0.1710914E-004  0.3299628E+03  0.7818608E-02  0.1071153E+00
         -2   -1    0    0    0  501 -0.00000000000E+00  0.00000000000E+00  0.20275699810E+02  0.20275699810E+02  0.00000000000E+00 0. -1.
          2   -1    0    0  501    0  0.00000000000E+00 -0.00000000000E+00 -0.13424378826E+04  0.13424378826E+04  0.00000000000E+00 0. -1.
         25    1    1    2    0    0  0.76340993613E+02 -0.79966069657E+02 -0.76193422978E+03  0.77920875900E+03  0.12000000000E+03 0.  0.
         25    1    1    2    0    0 -0.76340993613E+02  0.79966069657E+02 -0.56022795303E+03  0.58350482342E+03  0.12000000000E+03 0.  0.
<mgrwt>
<rscale>  0 0.32996283E+03</rscale>
<asrwt>0</asrwt>
<pdfrwt beam="1">  1        2 0.20652895E+00 0.32996283E+03</pdfrwt>
<pdfrwt beam="2">  1       -2 0.31193378E-02 0.32996283E+03</pdfrwt>
<totfact> 0.66611862E+03</totfact>
</mgrwt>
</event>
<event>
 4    1  0.1710914E-004  0.2480824E+03  0.7818608E-02  0.1114523E+00
          1   -1    0    0  501    0  0.00000000000E+00  0.00000000000E+00  0.21503364784E+03  0.21503364784E+03  0.00000000000E+00 0.  1.
         -1   -1    0    0    0  501 -0.00000000000E+00 -0.00000000000E+00 -0.71552615602E+02  0.71552615602E+02  0.00000000000E+00 0.  1.
         25    1    1    2    0    0 -0.10322148744E+02  0.19681300408E+02  0.46108487964E+02  0.13046031198E+03  0.12000000000E+03 0.  0.
         25    1    1    2    0    0  0.10322148744E+02 -0.19681300408E+02  0.97372544275E+02  0.15612595146E+03  0.12000000000E+03 0.  0.
<mgrwt>
<rscale>  0 0.24808241E+03</rscale>
<asrwt>0</asrwt>
<pdfrwt beam="1">  1        1 0.33082099E-01 0.24808241E+03</pdfrwt>
<pdfrwt beam="2">  1       -1 0.11008095E-01 0.24808241E+03</pdfrwt>
<totfact> 0.69197807E+03</totfact>
</mgrwt>
</event>
<event>
 4    1  0.1710914E-004  0.2655989E+03  0.7818608E-02  0.1103825E+00
         -2   -1    0    0    0  501 -0.00000000000E+00  0.00000000000E+00  0.30029868398E+02  0.30029868398E+02  0.00000000000E+00 0. -1.
          2   -1    0    0  501    0  0.00000000000E+00 -0.00000000000E+00 -0.58727168401E+03  0.58727168401E+03  0.00000000000E+00 0. -1.
         25    1    1    2    0    0  0.23549107832E+02 -0.44128735011E+02 -0.34157960549E+03  0.36548397040E+03  0.12000000000E+03 0.  0.
         25    1    1    2    0    0 -0.23549107832E+02  0.44128735011E+02 -0.21566221012E+03  0.25181758201E+03  0.12000000000E+03 0.  0.
<mgrwt>
<rscale>  0 0.26559888E+03</rscale>
<asrwt>0</asrwt>
<pdfrwt beam="1">  1        2 0.90349489E-01 0.26559888E+03</pdfrwt>
<pdfrwt beam="2">  1       -2 0.46199798E-02 0.26559888E+03</pdfrwt>
<totfact> 0.11350569E+04</totfact>
</mgrwt>
</event>
<event>
 4    1  0.1710914E-004  0.3403547E+03  0.7818608E-02  0.1066645E+00
          2   -1    0    0  501    0  0.00000000000E+00  0.00000000000E+00  0.16498479901E+04  0.16498479901E+04  0.00000000000E+00 0. -1.
         -2   -1    0    0    0  501 -0.00000000000E+00 -0.00000000000E+00 -0.17553329299E+02  0.17553329299E+02  0.00000000000E+00 0. -1.
         25    1    1    2    0    0  0.75951807836E+02 -0.15392091964E+02  0.36302901243E+03  0.39012261852E+03  0.12000000000E+03 0.  0.
         25    1    1    2    0    0 -0.75951807836E+02  0.15392091964E+02  0.12692656484E+04  0.12772787009E+04  0.12000000000E+03 0.  0.
<mgrwt>
<rscale>  0 0.34035467E+03</rscale>
<asrwt>0</asrwt>
<pdfrwt beam="1">  1        2 0.25382264E+00 0.34035467E+03</pdfrwt>
<pdfrwt beam="2">  1       -2 0.27005135E-02 0.34035467E+03</pdfrwt>
<totfact> 0.56360256E+03</totfact>
</mgrwt>
</event>
<event>
 4    1  0.1710914E-004  0.2512855E+03  0.7818608E-02  0.1112495E+00
         -1   -1    0    0    0  501 -0.00000000000E+00  0.00000000000E+00  0.44162919286E+02  0.44162919286E+02  0.00000000000E+00 0. -1.
          1   -1    0    0  501    0  0.00000000000E+00 -0.00000000000E+00 -0.35745138192E+03  0.35745138192E+03  0.00000000000E+00 0. -1.
         25    1    1    2    0    0 -0.21797061870E+02  0.16157062772E+02 -0.19738942688E+03  0.23259137651E+03  0.12000000000E+03 0.  0.
         25    1    1    2    0    0  0.21797061870E+02 -0.16157062772E+02 -0.11589903575E+03  0.16902292469E+03  0.12000000000E+03 0.  0.
<mgrwt>
<rscale>  0 0.25128547E+03</rscale>
<asrwt>0</asrwt>
<pdfrwt beam="1">  1        1 0.54992519E-01 0.25128547E+03</pdfrwt>
<pdfrwt beam="2">  1       -1 0.67942954E-02 0.25128547E+03</pdfrwt>
<totfact> 0.76574808E+03</totfact>
</mgrwt>
</event>
<event>
 4    1  0.1710914E-004  0.3142774E+03  0.7818608E-02  0.1078314E+00
          2   -1    0    0  501    0  0.00000000000E+00  0.00000000000E+00  0.26382062522E+03  0.26382062522E+03  0.00000000000E+00 0. -1.
         -2   -1    0    0    0  501 -0.00000000000E+00 -0.00000000000E+00 -0.93596054585E+02  0.93596054585E+02  0.00000000000E+00 0. -1.
         25    1    1    2    0    0 -0.92891328236E+02 -0.31864812100E+02  0.56153209623E+02  0.16491618496E+03  0.12000000000E+03 0.  0.
         25    1    1    2    0    0  0.92891328236E+02  0.31864812100E+02  0.11407136101E+03  0.19250049484E+03  0.12000000000E+03 0.  0.
<mgrwt>
<rscale>  0 0.31427739E+03</rscale>
<asrwt>0</asrwt>
<pdfrwt beam="1">  1        2 0.40587788E-01 0.31427739E+03</pdfrwt>
<pdfrwt beam="2">  1       -2 0.14399393E-01 0.31427739E+03</pdfrwt>
<totfact> 0.46056140E+03</totfact>
</mgrwt>
</event>
<event>
 4    1  0.1710914E-004  0.3292558E+03  0.7818608E-02  0.1071467E+00
          1   -1    0    0  501    0  0.00000000000E+00  0.00000000000E+00  0.19664056445E+04  0.19664056445E+04  0.00000000000E+00 0. -1.
         -1   -1    0    0    0  501 -0.00000000000E+00 -0.00000000000E+00 -0.13782687089E+02  0.13782687089E+02  0.00000000000E+00 0. -1.
         25    1    1    2    0    0  0.53596366906E+02  0.50787429331E+02  0.46421170426E+03  0.48512311829E+03  0.12000000000E+03 0.  0.
         25    1    1    2    0    0 -0.53596366906E+02 -0.50787429331E+02  0.14884112531E+04  0.14950652133E+04  0.12000000000E+03 0.  0.
<mgrwt>
<rscale>  0 0.32925585E+03</rscale>
<asrwt>0</asrwt>
<pdfrwt beam="1">  1        1 0.30252372E+00 0.32925585E+03</pdfrwt>
<pdfrwt beam="2">  1       -1 0.21204150E-02 0.32925585E+03</pdfrwt>
<totfact> 0.22275011E+03</totfact>
</mgrwt>
</event>
<event>
 4    1  0.1710914E-004  0.2533755E+03  0.7818608E-02  0.1111190E+00
          2   -1    0    0  501    0  0.00000000000E+00  0.00000000000E+00  0.11504763001E+04  0.11504763001E+04  0.00000000000E+00 0.  1.
         -2   -1    0    0    0  501 -0.00000000000E+00 -0.00000000000E+00 -0.13950559771E+02  0.13950559771E+02  0.00000000000E+00 0.  1.
         25    1    1    2    0    0  0.34778027395E+02 -0.21182051692E+00  0.47183811794E+03  0.48809913501E+03  0.12000000000E+03 0.  0.
         25    1    1    2    0    0 -0.34778027395E+02  0.21182051692E+00  0.66468762238E+03  0.67632772485E+03  0.12000000000E+03 0.  0.
<mgrwt>
<rscale>  0 0.25337552E+03</rscale>
<asrwt>0</asrwt>
<pdfrwt beam="1">  1        2 0.17699628E+00 0.25337552E+03</pdfrwt>
<pdfrwt beam="2">  1       -2 0.21462409E-02 0.25337552E+03</pdfrwt>
<totfact> 0.14789152E+04</totfact>
</mgrwt>
</event>
<event>
 4    1  0.1710914E-004  0.3058625E+03  0.7818608E-02  0.1082346E+00
         -2   -1    0    0    0  501 -0.00000000000E+00  0.00000000000E+00  0.82862249287E+02  0.82862249287E+02  0.00000000000E+00 0.  1.
          2   -1    0    0  501    0  0.00000000000E+00 -0.00000000000E+00 -0.28225120844E+03  0.28225120844E+03  0.00000000000E+00 0.  1.
         25    1    1    2    0    0  0.50240744829E+02  0.77419329157E+02 -0.12557600030E+03  0.19669066277E+03  0.12000000000E+03 0.  0.
         25    1    1    2    0    0 -0.50240744829E+02 -0.77419329157E+02 -0.73812958855E+02  0.16842279496E+03  0.12000000000E+03 0.  0.
<mgrwt>
<rscale>  0 0.30586252E+03</rscale>
<asrwt>0</asrwt>
<pdfrwt beam="1">  1        2 0.43423263E-01 0.30586252E+03</pdfrwt>
<pdfrwt beam="2">  1       -2 0.12748038E-01 0.30586252E+03</pdfrwt>
<totfact> 0.52238787E+03</totfact>
</mgrwt>
</event>
<event>
 4    1  0.1710914E-004  0.2951336E+03  0.7818608E-02  0.1087699E+00
          1   -1    0    0  501    0  0.00000000000E+00  0.00000000000E+00  0.69383177049E+03  0.69383177049E+03  0.00000000000E+00 0.  1.
         -1   -1    0    0    0  501 -0.00000000000E+00 -0.00000000000E+00 -0.31385075729E+02  0.31385075729E+02  0.00000000000E+00 0.  1.
         25    1    1    2    0    0 -0.35521695954E+02 -0.29477123182E+02  0.50918776249E+03  0.52516937187E+03  0.12000000000E+03 0.  0.
         25    1    1    2    0    0  0.35521695954E+02  0.29477123182E+02  0.15325893227E+03  0.20004747435E+03  0.12000000000E+03 0.  0.
<mgrwt>
<rscale>  0 0.29513361E+03</rscale>
<asrwt>0</asrwt>
<pdfrwt beam="1">  1        1 0.10674334E+00 0.29513361E+03</pdfrwt>
<pdfrwt beam="2">  1       -1 0.48284737E-02 0.29513361E+03</pdfrwt>
<totfact> 0.52953218E+03</totfact>
</mgrwt>
</event>
<event>
 4    1  0.1710914E-004  0.2718279E+03  0.7818608E-02  0.1100238E+00
         -2   -1    0    0    0  501 -0.00000000000E+00  0.00000000000E+00  0.97013033241E+01  0.97013033241E+01  0.00000000000E+00 0.  1.
          2   -1    0    0  501    0  0.00000000000E+00 -0.00000000000E+00 -0.19041362330E+04  0.19041362330E+04  0.00000000000E+00 0.  1.
         25    1    1    2    0    0  0.37855340003E+02 -0.24246541682E+01 -0.13085390976E+04  0.13145772992E+04  0.12000000000E+03 0.  0.
         25    1    1    2    0    0 -0.37855340003E+02  0.24246541682E+01 -0.58589583214E+03  0.59926023715E+03  0.12000000000E+03 0.  0.
<mgrwt>
<rscale>  0 0.27182791E+03</rscale>
<asrwt>0</asrwt>
<pdfrwt beam="1">  1        2 0.29294391E+00 0.27182791E+03</pdfrwt>
<pdfrwt beam="2">  1       -2 0.14925088E-02 0.27182791E+03</pdfrwt>
<totfact> 0.99146025E+03</totfact>
</mgrwt>
</event>
<event>
 4    1  0.1710914E-004  0.2954477E+03  0.7818608E-02  0.1087539E+00
          2   -1    0    0  501    0  0.00000000000E+00  0.00000000000E+00  0.14022605942E+04  0.14022605942E+04  0.00000000000E+00 0.  1.
         -2   -1    0    0    0  501 -0.00000000000E+00 -0.00000000000E+00 -0.15562257254E+02  0.15562257254E+02  0.00000000000E+00 0.  1.
         25    1    1    2    0    0 -0.31980996247E+02  0.38305746961E+02  0.35632364772E+03  0.37928440028E+03  0.12000000000E+03 0.  0.
         25    1    1    2    0    0  0.31980996247E+02 -0.38305746961E+02  0.10303746892E+04  0.10385384512E+04  0.12000000000E+03 0.  0.
<mgrwt>
<rscale>  0 0.29544773E+03</rscale>
<asrwt>0</asrwt>
<pdfrwt beam="1">  1        2 0.21573230E+00 0.29544773E+03</pdfrwt>
<pdfrwt beam="2">  1       -2 0.23941945E-02 0.29544773E+03</pdfrwt>
<totfact> 0.91447359E+03</totfact>
</mgrwt>
</event>
<event>
 4    1  0.1710914E-004  0.3122096E+03  0.7818608E-02  0.1079292E+00
         -2   -1    0    0    0  501 -0.00000000000E+00  0.00000000000E+00  0.12997018349E+03  0.12997018349E+03  0.00000000000E+00 0. -1.
          2   -1    0    0  501    0  0.00000000000E+00 -0.00000000000E+00 -0.18749466066E+03  0.18749466066E+03  0.00000000000E+00 0. -1.
         25    1    1    2    0    0 -0.73870006136E+02 -0.63471749297E+02 -0.64086966279E+01  0.15468197102E+03  0.12000000000E+03 0.  0.
         25    1    1    2    0    0  0.73870006136E+02  0.63471749297E+02 -0.51115780537E+02  0.16278287313E+03  0.12000000000E+03 0.  0.
<mgrwt>
<rscale>  0 0.31220964E+03</rscale>
<asrwt>0</asrwt>
<pdfrwt beam="1">  1        2 0.28845332E-01 0.31220964E+03</pdfrwt>
<pdfrwt beam="2">  1       -2 0.19995413E-01 0.31220964E+03</pdfrwt>
<totfact> 0.38507934E+03</totfact>
</mgrwt>
</event>
<event>
 4    1  0.1710914E-004  0.2703319E+03  0.7818608E-02  0.1101090E+00
         -2   -1    0    0    0  501 -0.00000000000E+00  0.00000000000E+00  0.28079379580E+03  0.28079379580E+03  0.00000000000E+00 0. -1.
          2   -1    0    0  501    0  0.00000000000E+00 -0.00000000000E+00 -0.65064931001E+02  0.65064931001E+02  0.00000000000E+00 0. -1.
         25    1    1    2    0    0  0.54922285192E+02  0.70757505519E+01  0.71603262123E+02  0.15031151254E+03  0.12000000000E+03 0.  0.
         25    1    1    2    0    0 -0.54922285192E+02 -0.70757505519E+01  0.14412560267E+03  0.19554721425E+03  0.12000000000E+03 0.  0.
<mgrwt>
<rscale>  0 0.27033186E+03</rscale>
<asrwt>0</asrwt>
<pdfrwt beam="1">  1        2 0.10009990E-01 0.27033186E+03</pdfrwt>
<pdfrwt beam="2">  1       -2 0.43199045E-01 0.27033186E+03</pdfrwt>
<totfact> 0.32676577E+03</totfact>
</mgrwt>
</event>
<event>
 4    1  0.1710914E-004  0.3313456E+03  0.7818608E-02  0.1070543E+00
          1   -1    0    0  501    0  0.00000000000E+00  0.00000000000E+00  0.99582573568E+03  0.99582573568E+03  0.00000000000E+00 0.  1.
         -1   -1    0    0    0  501 -0.00000000000E+00 -0.00000000000E+00 -0.27562525218E+02  0.27562525218E+02  0.00000000000E+00 0.  1.
         25    1    1    2    0    0  0.10855600246E+03 -0.32300502123E+02  0.52991601508E+03  0.55501235225E+03  0.12000000000E+03 0.  0.
         25    1    1    2    0    0 -0.10855600246E+03  0.32300502123E+02  0.43834719538E+03  0.46837590865E+03  0.12000000000E+03 0.  0.
<mgrwt>
<rscale>  0 0.33134557E+03</rscale>
<asrwt>0</asrwt>
<pdfrwt beam="1">  1        1 0.15320393E+00 0.33134557E+03</pdfrwt>
<pdfrwt beam="2">  1       -1 0.42403893E-02 0.33134557E+03</pdfrwt>
<totfact> 0.36396529E+03</totfact>
</mgrwt>
</event>
<event>
 4    1  0.1710914E-004  0.2973084E+03  0.7818608E-02  0.1086594E+00
          2   -1    0    0  501    0  0.00000000000E+00  0.00000000000E+00  0.79316104810E+03  0.79316104810E+03  0.00000000000E+00 0.  1.
         -2   -1    0    0    0  501 -0.00000000000E+00 -0.00000000000E+00 -0.27860753434E+02  0.27860753434E+02  0.00000000000E+00 0.  1.
         25    1    1    2    0    0  0.30608457921E+02  0.28137688791E+02  0.59601112697E+03  0.60939139368E+03  0.12000000000E+03 0.  0.
         25    1    1    2    0    0 -0.30608457921E+02 -0.28137688791E+02  0.16928916769E+03  0.21163040785E+03  0.12000000000E+03 0.  0.
<mgrwt>
<rscale>  0 0.29730835E+03</rscale>
<asrwt>0</asrwt>
<pdfrwt beam="1">  1        2 0.12202476E+00 0.29730835E+03</pdfrwt>
<pdfrwt beam="2">  1       -2 0.42862704E-02 0.29730835E+03</pdfrwt>
<totfact> 0.88777759E+03</totfact>
</mgrwt>
</event>
<event>
 4    1  0.1710914E-004  0.2790367E+03  0.7818608E-02  0.1096216E+00
          2   -1    0    0  501    0  0.00000000000E+00  0.00000000000E+00  0.55518524495E+03  0.55518524495E+03  0.00000000000E+00 0.  1.
         -2   -1    0    0    0  501 -0.00000000000E+00 -0.00000000000E+00 -0.35061040720E+02  0.35061040720E+02  0.00000000000E+00 0.  1.
         25    1    1    2    0    0  0.10017632266E+02  0.55597430988E+02  0.35163149825E+03  0.37581396707E+03  0.12000000000E+03 0.  0.
         25    1    1    2    0    0 -0.10017632266E+02 -0.55597430988E+02  0.16849270599E+03  0.21443231860E+03  0.12000000000E+03 0.  0.
<mgrwt>
<rscale>  0 0.27903672E+03</rscale>
<asrwt>0</asrwt>
<pdfrwt beam="1">  1        2 0.85413109E-01 0.27903672E+03</pdfrwt>
<pdfrwt beam="2">  1       -2 0.53940066E-02 0.27903672E+03</pdfrwt>
<totfact> 0.95863129E+03</totfact>
</mgrwt>
</event>
<event>
 4    1  0.1710914E-004  0.2935153E+03  0.7818608E-02  0.1088528E+00
         -4   -1    0    0    0  501 -0.00000000000E+00  0.00000000000E+00  0.76953736377E+02  0.76953736377E+02  0.00000000000E+00 0. -1.
          4   -1    0    0  501    0  0.00000000000E+00 -0.00000000000E+00 -0.27988000513E+03  0.27988000513E+03  0.00000000000E+00 0. -1.
         25    1    1    2    0    0 -0.34983948897E+02 -0.64885157486E+02 -0.15164548877E+03  0.20695486128E+03  0.12000000000E+03 0.  0.
         25    1    1    2    0    0  0.34983948897E+02  0.64885157486E+02 -0.51280779979E+02  0.14987888023E+03  0.12000000000E+03 0.  0.
<mgrwt>
<rscale>  0 0.29351533E+03</rscale>
<asrwt>0</asrwt>
<pdfrwt beam="1">  1        4 0.43058464E-01 0.29351533E+03</pdfrwt>
<pdfrwt beam="2">  1       -4 0.11839036E-01 0.29351533E+03</pdfrwt>
<totfact> 0.56444261E+02</totfact>
</mgrwt>
</event>
<event>
 4    1  0.1710914E-004  0.5425308E+03  0.7818608E-02  0.1003238E+00
         -1   -1    0    0    0  501 -0.00000000000E+00  0.00000000000E+00  0.52759150733E+02  0.52759150733E+02  0.00000000000E+00 0.  1.
          1   -1    0    0  501    0  0.00000000000E+00 -0.00000000000E+00 -0.13947329922E+04  0.13947329922E+04  0.00000000000E+00 0.  1.
         25    1    1    2    0    0 -0.71338180873E+02 -0.19282221196E+03 -0.10179895372E+04  0.10454531263E+04  0.12000000000E+03 0.  0.
         25    1    1    2    0    0  0.71338180873E+02  0.19282221196E+03 -0.32398430429E+03  0.40203901664E+03  0.12000000000E+03 0.  0.
<mgrwt>
<rscale>  0 0.54253084E+03</rscale>
<asrwt>0</asrwt>
<pdfrwt beam="1">  1        1 0.21457432E+00 0.54253084E+03</pdfrwt>
<pdfrwt beam="2">  1       -1 0.81167920E-02 0.54253084E+03</pdfrwt>
<totfact> 0.69651487E+02</totfact>
</mgrwt>
</event>
<event>
 4    1  0.1710914E-004  0.2888211E+03  0.7818608E-02  0.1090966E+00
         -2   -1    0    0    0  501 -0.00000000000E+00  0.00000000000E+00  0.29004074611E+02  0.29004074611E+02  0.00000000000E+00 0. -1.
          2   -1    0    0  501    0  0.00000000000E+00 -0.00000000000E+00 -0.71901626446E+03  0.71901626446E+03  0.00000000000E+00 0. -1.
         25    1    1    2    0    0  0.53602328871E+02 -0.58000361776E+02 -0.30684118707E+03  0.33880490803E+03  0.12000000000E+03 0.  0.
         25    1    1    2    0    0 -0.53602328871E+02  0.58000361776E+02 -0.38317100278E+03  0.40921543104E+03  0.12000000000E+03 0.  0.
<mgrwt>
<rscale>  0 0.28882106E+03</rscale>
<asrwt>0</asrwt>
<pdfrwt beam="1">  1        2 0.11061789E+00 0.28882106E+03</pdfrwt>
<pdfrwt beam="2">  1       -2 0.44621652E-02 0.28882106E+03</pdfrwt>
<totfact> 0.94350037E+03</totfact>
</mgrwt>
</event>
<event>
 4    1  0.1710914E-004  0.3354588E+03  0.7818608E-02  0.1068747E+00
          2   -1    0    0  501    0  0.00000000000E+00  0.00000000000E+00  0.20906196863E+04  0.20906196863E+04  0.00000000000E+00 0.  1.
         -2   -1    0    0    0  501 -0.00000000000E+00 -0.00000000000E+00 -0.13456846833E+02  0.13456846833E+02  0.00000000000E+00 0.  1.
         25    1    1    2    0    0 -0.90649933174E+02  0.73214575514E+02  0.11167618750E+04  0.11292186989E+04  0.12000000000E+03 0.  0.
         25    1    1    2    0    0  0.90649933174E+02 -0.73214575514E+02  0.96040096445E+03  0.97485783424E+03  0.12000000000E+03 0.  0.
<mgrwt>
<rscale>  0 0.33545878E+03</rscale>
<asrwt>0</asrwt>
<pdfrwt beam="1">  1        2 0.32163354E+00 0.33545878E+03</pdfrwt>
<pdfrwt beam="2">  1       -2 0.20702858E-02 0.33545878E+03</pdfrwt>
<totfact> 0.48853347E+03</totfact>
</mgrwt>
</event>
<event>
 4    1  0.1710914E-004  0.2437562E+03  0.7818608E-02  0.1117316E+00
          2   -1    0    0  501    0  0.00000000000E+00  0.00000000000E+00  0.28382923335E+04  0.28382923335E+04  0.00000000000E+00 0. -1.
         -2   -1    0    0    0  501 -0.00000000000E+00 -0.00000000000E+00 -0.52335221573E+01  0.52335221573E+01  0.00000000000E+00 0. -1.
         25    1    1    2    0    0 -0.56140117643E+01 -0.88133791597E+01  0.11998303082E+04  0.12058615017E+04  0.12000000000E+03 0.  0.
         25    1    1    2    0    0  0.56140117643E+01  0.88133791597E+01  0.16332285031E+04  0.16376643539E+04  0.12000000000E+03 0.  0.
<mgrwt>
<rscale>  0 0.24375616E+03</rscale>
<asrwt>0</asrwt>
<pdfrwt beam="1">  1        2 0.43665913E+00 0.24375616E+03</pdfrwt>
<pdfrwt beam="2">  1       -2 0.80515952E-03 0.24375616E+03</pdfrwt>
<totfact> 0.75664072E+03</totfact>
</mgrwt>
</event>
<event>
 4    1  0.1710914E-004  0.3583300E+03  0.7818608E-02  0.1059247E+00
         -1   -1    0    0    0  501 -0.00000000000E+00  0.00000000000E+00  0.94753178634E+03  0.94753178634E+03  0.00000000000E+00 0. -1.
          1   -1    0    0  501    0  0.00000000000E+00 -0.00000000000E+00 -0.33877599537E+02  0.33877599537E+02  0.00000000000E+00 0. -1.
         25    1    1    2    0    0  0.98086184273E+02  0.10405873691E+01  0.21066444615E+03  0.26153678755E+03  0.12000000000E+03 0.  0.
         25    1    1    2    0    0 -0.98086184273E+02 -0.10405873691E+01  0.70298974064E+03  0.71987259832E+03  0.12000000000E+03 0.  0.
<mgrwt>
<rscale>  0 0.35833003E+03</rscale>
<asrwt>0</asrwt>
<pdfrwt beam="1">  1        1 0.52119391E-02 0.35833003E+03</pdfrwt>
<pdfrwt beam="2">  1       -1 0.14577410E+00 0.35833003E+03</pdfrwt>
<totfact> 0.64095768E+02</totfact>
</mgrwt>
</event>
<event>
 4    1  0.1710914E-004  0.2546446E+03  0.7818608E-02  0.1110404E+00
         -2   -1    0    0    0  501 -0.00000000000E+00  0.00000000000E+00  0.21511787676E+02  0.21511787676E+02  0.00000000000E+00 0. -1.
          2   -1    0    0  501    0  0.00000000000E+00 -0.00000000000E+00 -0.75358521984E+03  0.75358521984E+03  0.00000000000E+00 0. -1.
         25    1    1    2    0    0 -0.41667775724E+02 -0.77039768684E+01 -0.37798565407E+03  0.39883418795E+03  0.12000000000E+03 0.  0.
         25    1    1    2    0    0  0.41667775724E+02  0.77039768684E+01 -0.35408777809E+03  0.37626281956E+03  0.12000000000E+03 0.  0.
<mgrwt>
<rscale>  0 0.25464458E+03</rscale>
<asrwt>0</asrwt>
<pdfrwt beam="1">  1        2 0.11593619E+00 0.25464458E+03</pdfrwt>
<pdfrwt beam="2">  1       -2 0.33095056E-02 0.25464458E+03</pdfrwt>
<totfact> 0.13881885E+04</totfact>
</mgrwt>
</event>
<event>
 4    1  0.1710914E-004  0.2673129E+03  0.7818608E-02  0.1102827E+00
          2   -1    0    0  501    0  0.00000000000E+00  0.00000000000E+00  0.14878386457E+04  0.14878386457E+04  0.00000000000E+00 0.  1.
         -2   -1    0    0    0  501 -0.00000000000E+00 -0.00000000000E+00 -0.12006705391E+02  0.12006705391E+02  0.00000000000E+00 0.  1.
         25    1    1    2    0    0  0.43860749208E+02 -0.11417369944E+02  0.94859614290E+03  0.95722973417E+03  0.12000000000E+03 0.  0.
         25    1    1    2    0    0 -0.43860749208E+02  0.11417369944E+02  0.52723579746E+03  0.54261561697E+03  0.12000000000E+03 0.  0.
<mgrwt>
<rscale>  0 0.26731285E+03</rscale>
<asrwt>0</asrwt>
<pdfrwt beam="1">  1        2 0.22889811E+00 0.26731285E+03</pdfrwt>
<pdfrwt beam="2">  1       -2 0.18471866E-02 0.26731285E+03</pdfrwt>
<totfact> 0.12026771E+04</totfact>
</mgrwt>
</event>
<event>
 4    1  0.1710914E-004  0.2405663E+03  0.7818608E-02  0.1119416E+00
          4   -1    0    0  501    0  0.00000000000E+00  0.00000000000E+00  0.12654526252E+03  0.12654526252E+03  0.00000000000E+00 0.  1.
         -4   -1    0    0    0  501 -0.00000000000E+00 -0.00000000000E+00 -0.11433096542E+03  0.11433096542E+03  0.00000000000E+00 0.  1.
         25    1    1    2    0    0 -0.85930351133E+00 -0.30522132452E+01  0.13731918143E+02  0.12082474905E+03  0.12000000000E+03 0.  0.
         25    1    1    2    0    0  0.85930351133E+00  0.30522132452E+01 -0.15176210483E+01  0.12005147888E+03  0.12000000000E+03 0.  0.
<mgrwt>
<rscale>  0 0.24056635E+03</rscale>
<asrwt>0</asrwt>
<pdfrwt beam="1">  1        4 0.19468502E-01 0.24056635E+03</pdfrwt>
<pdfrwt beam="2">  1       -4 0.17589379E-01 0.24056635E+03</pdfrwt>
<totfact> 0.12389637E+03</totfact>
</mgrwt>
</event>
<event>
 4    1  0.1710914E-004  0.2475105E+03  0.7818608E-02  0.1114888E+00
          1   -1    0    0  501    0  0.00000000000E+00  0.00000000000E+00  0.13800256363E+04  0.13800256363E+04  0.00000000000E+00 0.  1.
         -1   -1    0    0    0  501 -0.00000000000E+00 -0.00000000000E+00 -0.11097880749E+02  0.11097880749E+02  0.00000000000E+00 0.  1.
         25    1    1    2    0    0  0.41434364848E+01 -0.13783494268E+02  0.83403654891E+03  0.84274795621E+03  0.12000000000E+03 0.  0.
         25    1    1    2    0    0 -0.41434364848E+01  0.13783494268E+02  0.53489120659E+03  0.54837556079E+03  0.12000000000E+03 0.  0.
<mgrwt>
<rscale>  0 0.24751048E+03</rscale>
<asrwt>0</asrwt>
<pdfrwt beam="1">  1        1 0.21231150E+00 0.24751048E+03</pdfrwt>
<pdfrwt beam="2">  1       -1 0.17073674E-02 0.24751048E+03</pdfrwt>
<totfact> 0.74201891E+03</totfact>
</mgrwt>
</event>
<event>
 4    1  0.1710914E-004  0.2639546E+03  0.7818608E-02  0.1104790E+00
          2   -1    0    0  501    0  0.00000000000E+00  0.00000000000E+00  0.30512368091E+03  0.30512368091E+03  0.00000000000E+00 0.  1.
         -2   -1    0    0    0  501 -0.00000000000E+00 -0.00000000000E+00 -0.57085063122E+02  0.57085063122E+02  0.00000000000E+00 0.  1.
         25    1    1    2    0    0  0.19119611061E+02 -0.29380369018E+02  0.18206418776E+03  0.22085319576E+03  0.12000000000E+03 0.  0.
         25    1    1    2    0    0 -0.19119611061E+02  0.29380369018E+02  0.65974430024E+02  0.14135554827E+03  0.12000000000E+03 0.  0.
<mgrwt>
<rscale>  0 0.26395458E+03</rscale>
<asrwt>0</asrwt>
<pdfrwt beam="1">  1        2 0.46942104E-01 0.26395458E+03</pdfrwt>
<pdfrwt beam="2">  1       -2 0.87823176E-02 0.26395458E+03</pdfrwt>
<totfact> 0.86712252E+03</totfact>
</mgrwt>
</event>
<event>
 4    1  0.1710914E-004  0.2498334E+03  0.7818608E-02  0.1113410E+00
         -2   -1    0    0    0  501 -0.00000000000E+00  0.00000000000E+00  0.11922991493E+02  0.11922991493E+02  0.00000000000E+00 0. -1.
          2   -1    0    0  501    0  0.00000000000E+00 -0.00000000000E+00 -0.13087473782E+04  0.13087473782E+04  0.00000000000E+00 0. -1.
         25    1    1    2    0    0  0.20675131191E+02  0.17092889223E+02 -0.76477545137E+03  0.77459739151E+03  0.12000000000E+03 0.  0.
         25    1    1    2    0    0 -0.20675131191E+02 -0.17092889223E+02 -0.53204893533E+03  0.54607297818E+03  0.12000000000E+03 0.  0.
<mgrwt>
<rscale>  0 0.24983342E+03</rscale>
<asrwt>0</asrwt>
<pdfrwt beam="1">  1        2 0.20134563E+00 0.24983342E+03</pdfrwt>
<pdfrwt beam="2">  1       -2 0.18343074E-02 0.24983342E+03</pdfrwt>
<totfact> 0.15166517E+04</totfact>
</mgrwt>
</event>
<event>
 4    1  0.1710914E-004  0.3630976E+03  0.7818608E-02  0.1057364E+00
          2   -1    0    0  501    0  0.00000000000E+00  0.00000000000E+00  0.18642655518E+04  0.18642655518E+04  0.00000000000E+00 0. -1.
         -2   -1    0    0    0  501 -0.00000000000E+00 -0.00000000000E+00 -0.17679868855E+02  0.17679868855E+02  0.00000000000E+00 0. -1.
         25    1    1    2    0    0 -0.92470550699E+02 -0.96456543332E+02  0.78564434338E+03  0.80591048000E+03  0.12000000000E+03 0.  0.
         25    1    1    2    0    0  0.92470550699E+02  0.96456543332E+02  0.10609413396E+04  0.10760349407E+04  0.12000000000E+03 0.  0.
<mgrwt>
<rscale>  0 0.36309762E+03</rscale>
<asrwt>0</asrwt>
<pdfrwt beam="1">  1        2 0.28680993E+00 0.36309762E+03</pdfrwt>
<pdfrwt beam="2">  1       -2 0.27199813E-02 0.36309762E+03</pdfrwt>
<totfact> 0.42892963E+03</totfact>
</mgrwt>
</event>
<event>
 4    1  0.1710914E-004  0.2645880E+03  0.7818608E-02  0.1104418E+00
         -2   -1    0    0    0  501 -0.00000000000E+00  0.00000000000E+00  0.10929546426E+02  0.10929546426E+02  0.00000000000E+00 0.  1.
          2   -1    0    0  501    0  0.00000000000E+00 -0.00000000000E+00 -0.16013206561E+04  0.16013206561E+04  0.00000000000E+00 0.  1.
         25    1    1    2    0    0 -0.32922764048E+02  0.42860239579E+02 -0.87712902415E+03  0.88694770620E+03  0.12000000000E+03 0.  0.
         25    1    1    2    0    0  0.32922764048E+02 -0.42860239579E+02 -0.71326208551E+03  0.72530249631E+03  0.12000000000E+03 0.  0.
<mgrwt>
<rscale>  0 0.26458805E+03</rscale>
<asrwt>0</asrwt>
<pdfrwt beam="1">  1        2 0.24635703E+00 0.26458805E+03</pdfrwt>
<pdfrwt beam="2">  1       -2 0.16814687E-02 0.26458805E+03</pdfrwt>
<totfact> 0.12008988E+04</totfact>
</mgrwt>
</event>
<event>
 4    1  0.1710914E-004  0.2516685E+03  0.7818608E-02  0.1112255E+00
         -2   -1    0    0    0  501 -0.00000000000E+00  0.00000000000E+00  0.39304033784E+02  0.39304033784E+02  0.00000000000E+00 0. -1.
          2   -1    0    0  501    0  0.00000000000E+00 -0.00000000000E+00 -0.40286605325E+03  0.40286605325E+03  0.00000000000E+00 0. -1.
         25    1    1    2    0    0  0.37633064403E+02 -0.42288569434E+01 -0.18114704382E+03  0.22056378273E+03  0.12000000000E+03 0.  0.
         25    1    1    2    0    0 -0.37633064403E+02  0.42288569434E+01 -0.18241497564E+03  0.22160630430E+03  0.12000000000E+03 0.  0.
<mgrwt>
<rscale>  0 0.25166852E+03</rscale>
<asrwt>0</asrwt>
<pdfrwt beam="1">  1        2 0.61979393E-01 0.25166852E+03</pdfrwt>
<pdfrwt beam="2">  1       -2 0.60467744E-02 0.25166852E+03</pdfrwt>
<totfact> 0.11441124E+04</totfact>
</mgrwt>
</event>
<event>
 4    1  0.1710914E-004  0.3234069E+03  0.7818608E-02  0.1074092E+00
          1   -1    0    0  501    0  0.00000000000E+00  0.00000000000E+00  0.44678554940E+03  0.44678554940E+03  0.00000000000E+00 0.  1.
         -1   -1    0    0    0  501 -0.00000000000E+00 -0.00000000000E+00 -0.58524729609E+02  0.58524729609E+02  0.00000000000E+00 0.  1.
         25    1    1    2    0    0 -0.97488034667E+02 -0.28077782214E+02  0.13451637771E+03  0.20685002932E+03  0.12000000000E+03 0.  0.
         25    1    1    2    0    0  0.97488034667E+02  0.28077782214E+02  0.25374444208E+03  0.29846024969E+03  0.12000000000E+03 0.  0.
<mgrwt>
<rscale>  0 0.32340689E+03</rscale>
<asrwt>0</asrwt>
<pdfrwt beam="1">  1        1 0.68736236E-01 0.32340689E+03</pdfrwt>
<pdfrwt beam="2">  1       -1 0.90038049E-02 0.32340689E+03</pdfrwt>
<totfact> 0.37658911E+03</totfact>
</mgrwt>
</event>
<event>
 4    1  0.1710914E-004  0.3555091E+03  0.7818608E-02  0.1060376E+00
         -1   -1    0    0    0  501 -0.00000000000E+00  0.00000000000E+00  0.48697724452E+03  0.48697724452E+03  0.00000000000E+00 0. -1.
          1   -1    0    0  501    0  0.00000000000E+00 -0.00000000000E+00 -0.64883274182E+02  0.64883274182E+02  0.00000000000E+00 0. -1.
         25    1    1    2    0    0  0.56850020173E+02 -0.71280986676E+02  0.64735852395E+02  0.16402327408E+03  0.12000000000E+03 0.  0.
         25    1    1    2    0    0 -0.56850020173E+02  0.71280986676E+02  0.35735811795E+03  0.38783724462E+03  0.12000000000E+03 0.  0.
<mgrwt>
<rscale>  0 0.35550909E+03</rscale>
<asrwt>0</asrwt>
<pdfrwt beam="1">  1        1 0.99820425E-02 0.35550909E+03</pdfrwt>
<pdfrwt beam="2">  1       -1 0.74919574E-01 0.35550909E+03</pdfrwt>
<totfact> 0.12054712E+03</totfact>
</mgrwt>
</event>
<event>
 4    1  0.1710914E-004  0.5713061E+03  0.7818608E-02  0.9966792E-01
          1   -1    0    0  501    0  0.00000000000E+00  0.00000000000E+00  0.39899034194E+03  0.39899034194E+03  0.00000000000E+00 0. -1.
         -1   -1    0    0    0  501 -0.00000000000E+00 -0.00000000000E+00 -0.20451040605E+03  0.20451040605E+03  0.00000000000E+00 0. -1.
         25    1    1    2    0    0  0.70163099493E+02 -0.29843286429E+02  0.35896014222E+03  0.38609048937E+03  0.12000000000E+03 0.  0.
         25    1    1    2    0    0 -0.70163099493E+02  0.29843286429E+02 -0.16448020634E+03  0.21741025862E+03  0.12000000000E+03 0.  0.
<mgrwt>
<rscale>  0 0.57130614E+03</rscale>
<asrwt>0</asrwt>
<pdfrwt beam="1">  1        1 0.61383129E-01 0.57130614E+03</pdfrwt>
<pdfrwt beam="2">  1       -1 0.31463140E-01 0.57130614E+03</pdfrwt>
<totfact> 0.57024200E+02</totfact>
</mgrwt>
</event>
<event>
 4    1  0.1710914E-004  0.3342307E+03  0.7818608E-02  0.1069280E+00
          1   -1    0    0  501    0  0.00000000000E+00  0.00000000000E+00  0.14858473511E+03  0.14858473511E+03  0.00000000000E+00 0.  1.
         -1   -1    0    0    0  501 -0.00000000000E+00 -0.00000000000E+00 -0.18795702376E+03  0.18795702376E+03  0.00000000000E+00 0.  1.
         25    1    1    2    0    0 -0.40459021607E+02  0.56341361521E+02  0.74320327634E+02  0.15727298734E+03  0.12000000000E+03 0.  0.
         25    1    1    2    0    0  0.40459021607E+02 -0.56341361521E+02 -0.11369261628E+03  0.17926877153E+03  0.12000000000E+03 0.  0.
<mgrwt>
<rscale>  0 0.33423073E+03</rscale>
<asrwt>0</asrwt>
<pdfrwt beam="1">  1        1 0.22859190E-01 0.33423073E+03</pdfrwt>
<pdfrwt beam="2">  1       -1 0.28916465E-01 0.33423073E+03</pdfrwt>
<totfact> 0.23422391E+03</totfact>
</mgrwt>
</event>
<event>
 4    1  0.1710914E-004  0.2955991E+03  0.7818608E-02  0.1087461E+00
          1   -1    0    0  501    0  0.00000000000E+00  0.00000000000E+00  0.26500741903E+03  0.26500741903E+03  0.00000000000E+00 0.  1.
         -1   -1    0    0    0  501 -0.00000000000E+00 -0.00000000000E+00 -0.82430561770E+02  0.82430561770E+02  0.00000000000E+00 0.  1.
         25    1    1    2    0    0  0.20377994156E+02  0.65369255360E+02  0.15299594141E+03  0.20614596838E+03  0.12000000000E+03 0.  0.
         25    1    1    2    0    0 -0.20377994156E+02 -0.65369255360E+02  0.29580915857E+02  0.14129201242E+03  0.12000000000E+03 0.  0.
<mgrwt>
<rscale>  0 0.29559912E+03</rscale>
<asrwt>0</asrwt>
<pdfrwt beam="1">  1        1 0.40770372E-01 0.29559912E+03</pdfrwt>
<pdfrwt beam="2">  1       -1 0.12681625E-01 0.29559912E+03</pdfrwt>
<totfact> 0.42929486E+03</totfact>
</mgrwt>
</event>
<event>
 4    1  0.1710914E-004  0.2458713E+03  0.7818608E-02  0.1115942E+00
         -2   -1    0    0    0  501 -0.00000000000E+00  0.00000000000E+00  0.52496707559E+02  0.52496707559E+02  0.00000000000E+00 0.  1.
          2   -1    0    0  501    0  0.00000000000E+00 -0.00000000000E+00 -0.28788806159E+03  0.28788806159E+03  0.00000000000E+00 0.  1.
         25    1    1    2    0    0  0.63576081214E+01 -0.25632605575E+02 -0.11220573626E+03  0.16639584399E+03  0.12000000000E+03 0.  0.
         25    1    1    2    0    0 -0.63576081214E+01  0.25632605575E+02 -0.12318561777E+03  0.17398892515E+03  0.12000000000E+03 0.  0.
<mgrwt>
<rscale>  0 0.24587131E+03</rscale>
<asrwt>0</asrwt>
<pdfrwt beam="1">  1        2 0.44290472E-01 0.24587131E+03</pdfrwt>
<pdfrwt beam="2">  1       -2 0.80764163E-02 0.24587131E+03</pdfrwt>
<totfact> 0.10490372E+04</totfact>
</mgrwt>
</event>
<event>
 4    1  0.1710914E-004  0.2608496E+03  0.7818608E-02  0.1106634E+00
         -1   -1    0    0    0  501 -0.00000000000E+00  0.00000000000E+00  0.17323073663E+02  0.17323073663E+02  0.00000000000E+00 0.  1.
          1   -1    0    0  501    0  0.00000000000E+00 -0.00000000000E+00 -0.98196396953E+03  0.98196396953E+03  0.00000000000E+00 0.  1.
         25    1    1    2    0    0  0.38452507893E+01  0.50914933304E+02 -0.48950558520E+03  0.50657954393E+03  0.12000000000E+03 0.  0.
         25    1    1    2    0    0 -0.38452507893E+01 -0.50914933304E+02 -0.47513531067E+03  0.49270749926E+03  0.12000000000E+03 0.  0.
<mgrwt>
<rscale>  0 0.26084964E+03</rscale>
<asrwt>0</asrwt>
<pdfrwt beam="1">  1        1 0.15107140E+00 0.26084964E+03</pdfrwt>
<pdfrwt beam="2">  1       -1 0.26650880E-02 0.26084964E+03</pdfrwt>
<totfact> 0.73949901E+03</totfact>
</mgrwt>
</event>
<event>
 4    1  0.1710914E-004  0.3283955E+03  0.7818608E-02  0.1071849E+00
          1   -1    0    0  501    0  0.00000000000E+00  0.00000000000E+00  0.69136201859E+03  0.69136201859E+03  0.00000000000E+00 0.  1.
         -1   -1    0    0    0  501 -0.00000000000E+00 -0.00000000000E+00 -0.38996799575E+02  0.38996799575E+02  0.00000000000E+00 0.  1.
         25    1    1    2    0    0 -0.51137609402E+02 -0.74087384064E+02  0.47465851973E+03  0.49779986533E+03  0.12000000000E+03 0.  0.
         25    1    1    2    0    0  0.51137609402E+02  0.74087384064E+02  0.17770669929E+03  0.23255895284E+03  0.12000000000E+03 0.  0.
<mgrwt>
<rscale>  0 0.32839553E+03</rscale>
<asrwt>0</asrwt>
<pdfrwt beam="1">  1        1 0.10636338E+00 0.32839553E+03</pdfrwt>
<pdfrwt beam="2">  1       -1 0.59995081E-02 0.32839553E+03</pdfrwt>
<totfact> 0.38444466E+03</totfact>
</mgrwt>
</event>
<event>
 4    1  0.1710914E-004  0.3116839E+03  0.7818608E-02  0.1079542E+00
          1   -1    0    0  501    0  0.00000000000E+00  0.00000000000E+00  0.16683954394E+03  0.16683954394E+03  0.00000000000E+00 0. -1.
         -1   -1    0    0    0  501 -0.00000000000E+00 -0.00000000000E+00 -0.14556926205E+03  0.14556926205E+03  0.00000000000E+00 0. -1.
         25    1    1    2    0    0  0.16343195481E+02 -0.67290698756E+02 -0.60886067047E+02  0.15133489795E+03  0.12000000000E+03 0.  0.
         25    1    1    2    0    0 -0.16343195481E+02  0.67290698756E+02  0.82156348937E+02  0.16107390803E+03  0.12000000000E+03 0.  0.
<mgrwt>
<rscale>  0 0.31168387E+03</rscale>
<asrwt>0</asrwt>
<pdfrwt beam="1">  1        1 0.25667622E-01 0.31168387E+03</pdfrwt>
<pdfrwt beam="2">  1       -1 0.22395271E-01 0.31168387E+03</pdfrwt>
<totfact> 0.30933213E+03</totfact>
</mgrwt>
</event>
<event>
 4    1  0.1710914E-004  0.2851190E+03  0.7818608E-02  0.1092925E+00
          2   -1    0    0  501    0  0.00000000000E+00  0.00000000000E+00  0.69454490622E+03  0.69454490622E+03  0.00000000000E+00 0. -1.
         -2   -1    0    0    0  501 -0.00000000000E+00 -0.00000000000E+00 -0.29261200570E+02  0.29261200570E+02  0.00000000000E+00 0. -1.
         25    1    1    2    0    0 -0.69862338276E+02 -0.27679485068E+02  0.29044303469E+03  0.32311616580E+03  0.12000000000E+03 0.  0.
         25    1    1    2    0    0  0.69862338276E+02  0.27679485068E+02  0.37484067096E+03  0.40068994099E+03  0.12000000000E+03 0.  0.
<mgrwt>
<rscale>  0 0.28511905E+03</rscale>
<asrwt>0</asrwt>
<pdfrwt beam="1">  1        2 0.10685305E+00 0.28511905E+03</pdfrwt>
<pdfrwt beam="2">  1       -2 0.45017237E-02 0.28511905E+03</pdfrwt>
<totfact> 0.97073569E+03</totfact>
</mgrwt>
</event>
<event>
 4    1  0.1710914E-004  0.2833598E+03  0.7818608E-02  0.1093868E+00
          2   -1    0    0  501    0  0.00000000000E+00  0.00000000000E+00  0.15129915976E+04  0.15129915976E+04  0.00000000000E+00 0.  1.
         -2   -1    0    0    0  501 -0.00000000000E+00 -0.00000000000E+00 -0.13267216629E+02  0.13267216629E+02  0.00000000000E+00 0.  1.
         25    1    1    2    0    0  0.45384917041E+02 -0.24269752394E+02  0.45364661441E+03  0.47206362108E+03  0.12000000000E+03 0.  0.
         25    1    1    2    0    0 -0.45384917041E+02  0.24269752394E+02  0.10460777665E+04  0.10541951931E+04  0.12000000000E+03 0.  0.
<mgrwt>
<rscale>  0 0.28335975E+03</rscale>
<asrwt>0</asrwt>
<pdfrwt beam="1">  1        2 0.23276780E+00 0.28335975E+03</pdfrwt>
<pdfrwt beam="2">  1       -2 0.20411115E-02 0.28335975E+03</pdfrwt>
<totfact> 0.10080174E+04</totfact>
</mgrwt>
</event>
<event>
 4    1  0.1710914E-004  0.3222461E+03  0.7818608E-02  0.1074620E+00
          2   -1    0    0  501    0  0.00000000000E+00  0.00000000000E+00  0.25908906640E+03  0.25908906640E+03  0.00000000000E+00 0. -1.
         -2   -1    0    0    0  501 -0.00000000000E+00 -0.00000000000E+00 -0.10019964172E+03  0.10019964172E+03  0.00000000000E+00 0. -1.
         25    1    1    2    0    0 -0.14803202087E+02 -0.45008786706E+02 -0.28168062769E+02  0.13205440331E+03  0.12000000000E+03 0.  0.
         25    1    1    2    0    0  0.14803202087E+02  0.45008786706E+02  0.18705748745E+03  0.22723430481E+03  0.12000000000E+03 0.  0.
<mgrwt>
<rscale>  0 0.32224607E+03</rscale>
<asrwt>0</asrwt>
<pdfrwt beam="1">  1        2 0.39859856E-01 0.32224607E+03</pdfrwt>
<pdfrwt beam="2">  1       -2 0.15415330E-01 0.32224607E+03</pdfrwt>
<totfact> 0.41978669E+03</totfact>
</mgrwt>
</event>
<event>
 4    1  0.1710914E-004  0.3228647E+03  0.7818608E-02  0.1074338E+00
         -2   -1    0    0    0  501 -0.00000000000E+00  0.00000000000E+00  0.25277971829E+03  0.25277971829E+03  0.00000000000E+00 0. -1.
          2   -1    0    0  501    0  0.00000000000E+00 -0.00000000000E+00 -0.10309529659E+03  0.10309529659E+03  0.00000000000E+00 0. -1.
         25    1    1    2    0    0 -0.85823729946E+02  0.43781319144E+02  0.21092980433E+02  0.15533006905E+03  0.12000000000E+03 0.  0.
         25    1    1    2    0    0  0.85823729946E+02 -0.43781319144E+02  0.12859144127E+03  0.20054494582E+03  0.12000000000E+03 0.  0.
<mgrwt>
<rscale>  0 0.32286468E+03</rscale>
<asrwt>0</asrwt>
<pdfrwt beam="1">  1        2 0.15860815E-01 0.32286468E+03</pdfrwt>
<pdfrwt beam="2">  1       -2 0.38889187E-01 0.32286468E+03</pdfrwt>
<totfact> 0.22986390E+03</totfact>
</mgrwt>
</event>
<event>
 4    1  0.1710914E-004  0.3086025E+03  0.7818608E-02  0.1081018E+00
         -2   -1    0    0    0  501 -0.00000000000E+00  0.00000000000E+00  0.13387129604E+03  0.13387129604E+03  0.00000000000E+00 0. -1.
          2   -1    0    0  501    0  0.00000000000E+00 -0.00000000000E+00 -0.17784902891E+03  0.17784902891E+03  0.00000000000E+00 0. -1.
         25    1    1    2    0    0 -0.69821638513E+02  0.21100951835E+02  0.42599051897E+02  0.14674805142E+03  0.12000000000E+03 0.  0.
         25    1    1    2    0    0  0.69821638513E+02 -0.21100951835E+02 -0.86576784772E+02  0.16497227353E+03  0.12000000000E+03 0.  0.
<mgrwt>
<rscale>  0 0.30860253E+03</rscale>
<asrwt>0</asrwt>
<pdfrwt beam="1">  1        2 0.27361389E-01 0.30860253E+03</pdfrwt>
<pdfrwt beam="2">  1       -2 0.20595584E-01 0.30860253E+03</pdfrwt>
<totfact> 0.38793413E+03</totfact>
</mgrwt>
</event>
<event>
 4    1  0.1710914E-004  0.2756572E+03  0.7818608E-02  0.1098085E+00
          2   -1    0    0  501    0  0.00000000000E+00  0.00000000000E+00  0.60275258129E+03  0.60275258129E+03  0.00000000000E+00 0. -1.
         -2   -1    0    0    0  501 -0.00000000000E+00 -0.00000000000E+00 -0.31516616515E+02  0.31516616515E+02  0.00000000000E+00 0. -1.
         25    1    1    2    0    0 -0.21587852052E+02  0.29485627115E+02  0.41701896975E+03  0.43547704726E+03  0.12000000000E+03 0.  0.
         25    1    1    2    0    0  0.21587852052E+02 -0.29485627115E+02  0.15421699503E+03  0.19879215055E+03  0.12000000000E+03 0.  0.
<mgrwt>
<rscale>  0 0.27565719E+03</rscale>
<asrwt>0</asrwt>
<pdfrwt beam="1">  1        2 0.92731158E-01 0.27565719E+03</pdfrwt>
<pdfrwt beam="2">  1       -2 0.48487107E-02 0.27565719E+03</pdfrwt>
<totfact> 0.10250871E+04</totfact>
</mgrwt>
</event>
<event>
 4    1  0.1710914E-004  0.2647638E+03  0.7818608E-02  0.1104314E+00
          3   -1    0    0  501    0  0.00000000000E+00  0.00000000000E+00  0.97384102040E+02  0.97384102040E+02  0.00000000000E+00 0. -1.
         -3   -1    0    0    0  501 -0.00000000000E+00 -0.00000000000E+00 -0.17995720599E+03  0.17995720599E+03  0.00000000000E+00 0. -1.
         25    1    1    2    0    0 -0.79985010504E+01 -0.41237352869E+02 -0.79923364696E+02  0.15017403076E+03  0.12000000000E+03 0.  0.
         25    1    1    2    0    0  0.79985010504E+01  0.41237352869E+02 -0.26497392577E+01  0.12716727727E+03  0.12000000000E+03 0.  0.
<mgrwt>
<rscale>  0 0.26476383E+03</rscale>
<asrwt>0</asrwt>
<pdfrwt beam="1">  1        3 0.14982170E-01 0.26476383E+03</pdfrwt>
<pdfrwt beam="2">  1       -3 0.27685723E-01 0.26476383E+03</pdfrwt>
<totfact> 0.11740247E+03</totfact>
</mgrwt>
</event>
<event>
 4    1  0.1710914E-004  0.4737623E+03  0.7818608E-02  0.1020864E+00
         -1   -1    0    0    0  501 -0.00000000000E+00  0.00000000000E+00  0.67806169113E+02  0.67806169113E+02  0.00000000000E+00 0. -1.
          1   -1    0    0  501    0  0.00000000000E+00 -0.00000000000E+00 -0.82754524774E+03  0.82754524774E+03  0.00000000000E+00 0. -1.
         25    1    1    2    0    0  0.40312136192E+02 -0.10047080428E+03 -0.52570588526E+02  0.16995033867E+03  0.12000000000E+03 0.  0.
         25    1    1    2    0    0 -0.40312136192E+02  0.10047080428E+03 -0.70716849010E+03  0.72540107818E+03  0.12000000000E+03 0.  0.
<mgrwt>
<rscale>  0 0.47376227E+03</rscale>
<asrwt>0</asrwt>
<pdfrwt beam="1">  1        1 0.12731466E+00 0.47376227E+03</pdfrwt>
<pdfrwt beam="2">  1       -1 0.10431718E-01 0.47376227E+03</pdfrwt>
<totfact> 0.12456235E+03</totfact>
</mgrwt>
</event>
<event>
 4    1  0.1710914E-004  0.2566814E+03  0.7818608E-02  0.1109154E+00
         -1   -1    0    0    0  501 -0.00000000000E+00  0.00000000000E+00  0.71123941540E+02  0.71123941540E+02  0.00000000000E+00 0. -1.
          1   -1    0    0  501    0  0.00000000000E+00 -0.00000000000E+00 -0.23158629128E+03  0.23158629128E+03  0.00000000000E+00 0. -1.
         25    1    1    2    0    0  0.28651030139E+02 -0.18457781477E+02 -0.44660192171E+02  0.13249944902E+03  0.12000000000E+03 0.  0.
         25    1    1    2    0    0 -0.28651030139E+02  0.18457781477E+02 -0.11580215757E+03  0.17021078380E+03  0.12000000000E+03 0.  0.
<mgrwt>
<rscale>  0 0.25668136E+03</rscale>
<asrwt>0</asrwt>
<pdfrwt beam="1">  1        1 0.35628660E-01 0.25668136E+03</pdfrwt>
<pdfrwt beam="2">  1       -1 0.10942145E-01 0.25668136E+03</pdfrwt>
<totfact> 0.63725818E+03</totfact>
</mgrwt>
</event>
<event>
 4    1  0.1710914E-004  0.2833242E+03  0.7818608E-02  0.1093887E+00
         -3   -1    0    0    0  501 -0.00000000000E+00  0.00000000000E+00  0.47524805765E+03  0.47524805765E+03  0.00000000000E+00 0.  1.
          3   -1    0    0  501    0  0.00000000000E+00 -0.00000000000E+00 -0.42226677666E+02  0.42226677666E+02  0.00000000000E+00 0.  1.
         25    1    1    2    0    0 -0.32822934406E+02 -0.64334111763E+02  0.25533806459E+03  0.29122800379E+03  0.12000000000E+03 0.  0.
         25    1    1    2    0    0  0.32822934406E+02  0.64334111763E+02  0.17768331539E+03  0.22624673153E+03  0.12000000000E+03 0.  0.
<mgrwt>
<rscale>  0 0.28332417E+03</rscale>
<asrwt>0</asrwt>
<pdfrwt beam="1">  1        3 0.64964123E-02 0.28332417E+03</pdfrwt>
<pdfrwt beam="2">  1       -3 0.73115082E-01 0.28332417E+03</pdfrwt>
<totfact> 0.69130892E+02</totfact>
</mgrwt>
</event>
<event>
 4    1  0.1710914E-004  0.3326718E+03  0.7818608E-02  0.1069961E+00
          2   -1    0    0  501    0  0.00000000000E+00  0.00000000000E+00  0.34036775492E+04  0.34036775492E+04  0.00000000000E+00 0. -1.
         -2   -1    0    0    0  501 -0.00000000000E+00 -0.00000000000E+00 -0.81287483737E+01  0.81287483737E+01  0.00000000000E+00 0. -1.
         25    1    1    2    0    0  0.61341526786E+02  0.37758163511E+02  0.77594220003E+03  0.78846354362E+03  0.12000000000E+03 0.  0.
         25    1    1    2    0    0 -0.61341526786E+02 -0.37758163511E+02  0.26196066008E+04  0.26233427539E+04  0.12000000000E+03 0.  0.
<mgrwt>
<rscale>  0 0.33267184E+03</rscale>
<asrwt>0</asrwt>
<pdfrwt beam="1">  1        2 0.52364156E+00 0.33267184E+03</pdfrwt>
<pdfrwt beam="2">  1       -2 0.12505794E-02 0.33267184E+03</pdfrwt>
<totfact> 0.17895561E+03</totfact>
</mgrwt>
</event>
<event>
 4    1  0.1710914E-004  0.2788371E+03  0.7818608E-02  0.1096326E+00
         -2   -1    0    0    0  501 -0.00000000000E+00  0.00000000000E+00  0.20874613000E+02  0.20874613000E+02  0.00000000000E+00 0.  1.
          2   -1    0    0  501    0  0.00000000000E+00 -0.00000000000E+00 -0.93115671534E+03  0.93115671534E+03  0.00000000000E+00 0.  1.
         25    1    1    2    0    0 -0.27987975898E+02  0.17660322902E+02 -0.66951731612E+03  0.68099093267E+03  0.12000000000E+03 0.  0.
         25    1    1    2    0    0  0.27987975898E+02 -0.17660322902E+02 -0.24076478622E+03  0.27104039567E+03  0.12000000000E+03 0.  0.
<mgrwt>
<rscale>  0 0.27883713E+03</rscale>
<asrwt>0</asrwt>
<pdfrwt beam="1">  1        2 0.14325485E+00 0.27883713E+03</pdfrwt>
<pdfrwt beam="2">  1       -2 0.32114795E-02 0.27883713E+03</pdfrwt>
<totfact> 0.11070456E+04</totfact>
</mgrwt>
</event>
<event>
 4    1  0.1710914E-004  0.2889895E+03  0.7818608E-02  0.1090878E+00
          2   -1    0    0  501    0  0.00000000000E+00  0.00000000000E+00  0.87429857150E+02  0.87429857150E+02  0.00000000000E+00 0.  1.
         -2   -1    0    0    0  501 -0.00000000000E+00 -0.00000000000E+00 -0.23880544935E+03  0.23880544935E+03  0.00000000000E+00 0.  1.
         25    1    1    2    0    0 -0.19904862478E+02  0.64727020342E+02 -0.26572486656E+02  0.14032778684E+03  0.12000000000E+03 0.  0.
         25    1    1    2    0    0  0.19904862478E+02 -0.64727020342E+02 -0.12480310555E+03  0.18590751966E+03  0.12000000000E+03 0.  0.
<mgrwt>
<rscale>  0 0.28898946E+03</rscale>
<asrwt>0</asrwt>
<pdfrwt beam="1">  1        2 0.13450747E-01 0.28898946E+03</pdfrwt>
<pdfrwt beam="2">  1       -2 0.36739299E-01 0.28898946E+03</pdfrwt>
<totfact> 0.31083710E+03</totfact>
</mgrwt>
</event>
<event>
 4    1  0.1710914E-004  0.3079479E+03  0.7818608E-02  0.1081334E+00
          1   -1    0    0  501    0  0.00000000000E+00  0.00000000000E+00  0.15567311453E+03  0.15567311453E+03  0.00000000000E+00 0.  1.
         -1   -1    0    0    0  501 -0.00000000000E+00 -0.00000000000E+00 -0.15229329037E+03  0.15229329037E+03  0.00000000000E+00 0.  1.
         25    1    1    2    0    0  0.75714263597E+02  0.52020778363E+02 -0.27793378728E+02  0.15365963359E+03  0.12000000000E+03 0.  0.
         25    1    1    2    0    0 -0.75714263597E+02 -0.52020778363E+02  0.31173202895E+02  0.15430677131E+03  0.12000000000E+03 0.  0.
<mgrwt>
<rscale>  0 0.30794786E+03</rscale>
<asrwt>0</asrwt>
<pdfrwt beam="1">  1        1 0.23949710E-01 0.30794786E+03</pdfrwt>
<pdfrwt beam="2">  1       -1 0.23429737E-01 0.30794786E+03</pdfrwt>
<totfact> 0.31357948E+03</totfact>
</mgrwt>
</event>
<event>
 4    1  0.1710914E-004  0.3442516E+03  0.7818608E-02  0.1064999E+00
         -2   -1    0    0    0  501 -0.00000000000E+00  0.00000000000E+00  0.42627656311E+02  0.42627656311E+02  0.00000000000E+00 0.  1.
          2   -1    0    0  501    0  0.00000000000E+00 -0.00000000000E+00 -0.69502508424E+03  0.69502508424E+03  0.00000000000E+00 0.  1.
         25    1    1    2    0    0  0.19805917476E+02  0.11371102991E+03 -0.41971832878E+03  0.45153731651E+03  0.12000000000E+03 0.  0.
         25    1    1    2    0    0 -0.19805917476E+02 -0.11371102991E+03 -0.23267909915E+03  0.28611542404E+03  0.12000000000E+03 0.  0.
<mgrwt>
<rscale>  0 0.34425160E+03</rscale>
<asrwt>0</asrwt>
<pdfrwt beam="1">  1        2 0.10692693E+00 0.34425160E+03</pdfrwt>
<pdfrwt beam="2">  1       -2 0.65581016E-02 0.34425160E+03</pdfrwt>
<totfact> 0.54777515E+03</totfact>
</mgrwt>
</event>
<event>
 4    1  0.1710914E-004  0.4024545E+03  0.7818608E-02  0.1042933E+00
          2   -1    0    0  501    0  0.00000000000E+00  0.00000000000E+00  0.78123251817E+02  0.78123251817E+02  0.00000000000E+00 0.  1.
         -2   -1    0    0    0  501 -0.00000000000E+00 -0.00000000000E+00 -0.51831428591E+03  0.51831428591E+03  0.00000000000E+00 0.  1.
         25    1    1    2    0    0  0.97004410957E+02  0.71753406295E+02 -0.60934018136E+02  0.18075221057E+03  0.12000000000E+03 0.  0.
         25    1    1    2    0    0 -0.97004410957E+02 -0.71753406295E+02 -0.37925701596E+03  0.41568532716E+03  0.12000000000E+03 0.  0.
<mgrwt>
<rscale>  0 0.40245446E+03</rscale>
<asrwt>0</asrwt>
<pdfrwt beam="1">  1        2 0.12018961E-01 0.40245446E+03</pdfrwt>
<pdfrwt beam="2">  1       -2 0.79740662E-01 0.40245446E+03</pdfrwt>
<totfact> 0.73643858E+02</totfact>
</mgrwt>
</event>
<event>
 4    1  0.1710914E-004  0.2420321E+03  0.7818608E-02  0.1118446E+00
          2   -1    0    0  501    0  0.00000000000E+00  0.00000000000E+00  0.14299946446E+04  0.14299946446E+04  0.00000000000E+00 0. -1.
         -2   -1    0    0    0  501 -0.00000000000E+00 -0.00000000000E+00 -0.10241217168E+02  0.10241217168E+02  0.00000000000E+00 0. -1.
         25    1    1    2    0    0 -0.35307212043E+01  0.14974065829E+02  0.69283984366E+03  0.70332335209E+03  0.12000000000E+03 0.  0.
         25    1    1    2    0    0  0.35307212043E+01 -0.14974065829E+02  0.72691358375E+03  0.73691250965E+03  0.12000000000E+03 0.  0.
<mgrwt>
<rscale>  0 0.24203211E+03</rscale>
<asrwt>0</asrwt>
<pdfrwt beam="1">  1        2 0.21999902E+00 0.24203211E+03</pdfrwt>
<pdfrwt beam="2">  1       -2 0.15755730E-02 0.24203211E+03</pdfrwt>
<totfact> 0.16255837E+04</totfact>
</mgrwt>
</event>
<event>
 4    1  0.1710914E-004  0.2421248E+03  0.7818608E-02  0.1118385E+00
         -1   -1    0    0    0  501 -0.00000000000E+00  0.00000000000E+00  0.19441650542E+02  0.19441650542E+02  0.00000000000E+00 0.  1.
          1   -1    0    0  501    0  0.00000000000E+00 -0.00000000000E+00 -0.75385058369E+03  0.75385058369E+03  0.00000000000E+00 0.  1.
         25    1    1    2    0    0  0.59202507712E+01 -0.71713568485E+01 -0.40879987434E+03  0.42614999118E+03  0.12000000000E+03 0.  0.
         25    1    1    2    0    0 -0.59202507712E+01  0.71713568485E+01 -0.32560905881E+03  0.34714224305E+03  0.12000000000E+03 0.  0.
<mgrwt>
<rscale>  0 0.24212476E+03</rscale>
<asrwt>0</asrwt>
<pdfrwt beam="1">  1        1 0.11597701E+00 0.24212476E+03</pdfrwt>
<pdfrwt beam="2">  1       -1 0.29910233E-02 0.24212476E+03</pdfrwt>
<totfact> 0.94834433E+03</totfact>
</mgrwt>
</event>
<event>
 4    1  0.1710914E-004  0.2641102E+03  0.7818608E-02  0.1104699E+00
         -1   -1    0    0    0  501 -0.00000000000E+00  0.00000000000E+00  0.16024115022E+02  0.16024115022E+02  0.00000000000E+00 0.  1.
          1   -1    0    0  501    0  0.00000000000E+00 -0.00000000000E+00 -0.10882688272E+04  0.10882688272E+04  0.00000000000E+00 0.  1.
         25    1    1    2    0    0  0.28537316533E+02 -0.42373925317E+02 -0.62268565809E+03  0.63619757684E+03  0.12000000000E+03 0.  0.
         25    1    1    2    0    0 -0.28537316533E+02  0.42373925317E+02 -0.44955905408E+03  0.46809536537E+03  0.12000000000E+03 0.  0.
<mgrwt>
<rscale>  0 0.26411017E+03</rscale>
<asrwt>0</asrwt>
<pdfrwt beam="1">  1        1 0.16742599E+00 0.26411017E+03</pdfrwt>
<pdfrwt beam="2">  1       -1 0.24652481E-02 0.26411017E+03</pdfrwt>
<totfact> 0.69247563E+03</totfact>
</mgrwt>
</event>
<event>
 4    1  0.1710914E-004  0.2948049E+03  0.7818608E-02  0.1087867E+00
          1   -1    0    0  501    0  0.00000000000E+00  0.00000000000E+00  0.11824746372E+04  0.11824746372E+04  0.00000000000E+00 0.  1.
         -1   -1    0    0    0  501 -0.00000000000E+00 -0.00000000000E+00 -0.18374590699E+02  0.18374590699E+02  0.00000000000E+00 0.  1.
         25    1    1    2    0    0  0.85449265154E+02  0.47699831126E+01  0.57481154598E+03  0.59340765335E+03  0.12000000000E+03 0.  0.
         25    1    1    2    0    0 -0.85449265154E+02 -0.47699831126E+01  0.58928850056E+03  0.60744157460E+03  0.12000000000E+03 0.  0.
<mgrwt>
<rscale>  0 0.29480494E+03</rscale>
<asrwt>0</asrwt>
<pdfrwt beam="1">  1        1 0.18191912E+00 0.29480494E+03</pdfrwt>
<pdfrwt beam="2">  1       -1 0.28268610E-02 0.29480494E+03</pdfrwt>
<totfact> 0.48587275E+03</totfact>
</mgrwt>
</event>
<event>
 4    1  0.1710914E-004  0.2743121E+03  0.7818608E-02  0.1098837E+00
         -3   -1    0    0    0  501 -0.00000000000E+00  0.00000000000E+00  0.34500257504E+03  0.34500257504E+03  0.00000000000E+00 0. -1.
          3   -1    0    0  501    0  0.00000000000E+00 -0.00000000000E+00 -0.54526504275E+02  0.54526504275E+02  0.00000000000E+00 0. -1.
         25    1    1    2    0    0 -0.22022320811E+02 -0.38026922207E+02  0.72695064652E+02  0.14702245356E+03  0.12000000000E+03 0.  0.
         25    1    1    2    0    0  0.22022320811E+02  0.38026922207E+02  0.21778100611E+03  0.25250662576E+03  0.12000000000E+03 0.  0.
<mgrwt>
<rscale>  0 0.27431212E+03</rscale>
<asrwt>0</asrwt>
<pdfrwt beam="1">  1        3 0.83886932E-02 0.27431212E+03</pdfrwt>
<pdfrwt beam="2">  1       -3 0.53077318E-01 0.27431212E+03</pdfrwt>
<totfact> 0.88792200E+02</totfact>
</mgrwt>
</event>
<event>
 4    1  0.1710914E-004  0.2775851E+03  0.7818608E-02  0.1097015E+00
         -2   -1    0    0    0  501 -0.00000000000E+00  0.00000000000E+00  0.10773654213E+03  0.10773654213E+03  0.00000000000E+00 0. -1.
          2   -1    0    0  501    0  0.00000000000E+00 -0.00000000000E+00 -0.17880077960E+03  0.17880077960E+03  0.00000000000E+00 0. -1.
         25    1    1    2    0    0 -0.31464108793E+02 -0.47232423797E+02 -0.77366734346E+02  0.15364408086E+03  0.12000000000E+03 0.  0.
         25    1    1    2    0    0  0.31464108793E+02  0.47232423797E+02  0.63024968757E+01  0.13289324086E+03  0.12000000000E+03 0.  0.
<mgrwt>
<rscale>  0 0.27758514E+03</rscale>
<asrwt>0</asrwt>
<pdfrwt beam="1">  1        2 0.27507812E-01 0.27758514E+03</pdfrwt>
<pdfrwt beam="2">  1       -2 0.16574853E-01 0.27758514E+03</pdfrwt>
<totfact> 0.55560891E+03</totfact>
</mgrwt>
</event>
<event>
 4    1  0.1710914E-004  0.2921820E+03  0.7818608E-02  0.1089215E+00
         -2   -1    0    0    0  501 -0.00000000000E+00  0.00000000000E+00  0.29027003824E+02  0.29027003824E+02  0.00000000000E+00 0.  1.
          2   -1    0    0  501    0  0.00000000000E+00 -0.00000000000E+00 -0.73526621129E+03  0.73526621129E+03  0.00000000000E+00 0.  1.
         25    1    1    2    0    0 -0.76334912052E+02 -0.33362595317E+02 -0.34898896972E+03  0.37832972729E+03  0.12000000000E+03 0.  0.
         25    1    1    2    0    0  0.76334912052E+02  0.33362595317E+02 -0.35725023774E+03  0.38596348782E+03  0.12000000000E+03 0.  0.
<mgrwt>
<rscale>  0 0.29218196E+03</rscale>
<asrwt>0</asrwt>
<pdfrwt beam="1">  1        2 0.11311787E+00 0.29218196E+03</pdfrwt>
<pdfrwt beam="2">  1       -2 0.44656931E-02 0.29218196E+03</pdfrwt>
<totfact> 0.91711195E+03</totfact>
</mgrwt>
</event>
<event>
 4    1  0.1710914E-004  0.2699475E+03  0.7818608E-02  0.1101310E+00
         -2   -1    0    0    0  501 -0.00000000000E+00  0.00000000000E+00  0.46499323947E+02  0.46499323947E+02  0.00000000000E+00 0.  1.
          2   -1    0    0  501    0  0.00000000000E+00 -0.00000000000E+00 -0.39178877578E+03  0.39178877578E+03  0.00000000000E+00 0.  1.
         25    1    1    2    0    0 -0.17958085684E+02 -0.22887621659E+02 -0.84138489568E+02  0.14941760771E+03  0.12000000000E+03 0.  0.
         25    1    1    2    0    0  0.17958085684E+02  0.22887621659E+02 -0.26115096227E+03  0.28887049202E+03  0.12000000000E+03 0.  0.
<mgrwt>
<rscale>  0 0.26994750E+03</rscale>
<asrwt>0</asrwt>
<pdfrwt beam="1">  1        2 0.60275196E-01 0.26994750E+03</pdfrwt>
<pdfrwt beam="2">  1       -2 0.71537422E-02 0.26994750E+03</pdfrwt>
<totfact> 0.91285213E+03</totfact>
</mgrwt>
</event>
<event>
 4    1  0.1710914E-004  0.2457535E+03  0.7818608E-02  0.1116018E+00
          2   -1    0    0  501    0  0.00000000000E+00  0.00000000000E+00  0.13043278670E+04  0.13043278670E+04  0.00000000000E+00 0.  1.
         -2   -1    0    0    0  501 -0.00000000000E+00 -0.00000000000E+00 -0.11575843223E+02  0.11575843223E+02  0.00000000000E+00 0.  1.
         25    1    1    2    0    0  0.16880035997E+02  0.96467510067E+01  0.55048596326E+03  0.56374887243E+03  0.12000000000E+03 0.  0.
         25    1    1    2    0    0 -0.16880035997E+02 -0.96467510067E+01  0.74226606053E+03  0.75215483781E+03  0.12000000000E+03 0.  0.
<mgrwt>
<rscale>  0 0.24575349E+03</rscale>
<asrwt>0</asrwt>
<pdfrwt beam="1">  1        2 0.20066571E+00 0.24575349E+03</pdfrwt>
<pdfrwt beam="2">  1       -2 0.17809000E-02 0.24575349E+03</pdfrwt>
<totfact> 0.15916976E+04</totfact>
</mgrwt>
</event>
<event>
 4    1  0.1710914E-004  0.3241776E+03  0.7818608E-02  0.1073743E+00
         -4   -1    0    0    0  501 -0.00000000000E+00  0.00000000000E+00  0.40041192782E+02  0.40041192782E+02  0.00000000000E+00 0. -1.
          4   -1    0    0  501    0  0.00000000000E+00 -0.00000000000E+00 -0.65614385513E+03  0.65614385513E+03  0.00000000000E+00 0. -1.
         25    1    1    2    0    0 -0.15798878636E+02 -0.97030414861E+02 -0.40896927593E+03  0.43740184571E+03  0.12000000000E+03 0.  0.
         25    1    1    2    0    0  0.15798878636E+02  0.97030414861E+02 -0.20713338642E+03  0.25878320221E+03  0.12000000000E+03 0.  0.
<mgrwt>
<rscale>  0 0.32417762E+03</rscale>
<asrwt>0</asrwt>
<pdfrwt beam="1">  1        4 0.10094521E+00 0.32417762E+03</pdfrwt>
<pdfrwt beam="2">  1       -4 0.61601834E-02 0.32417762E+03</pdfrwt>
<totfact> 0.27058205E+02</totfact>
</mgrwt>
</event>
<event>
 4    1  0.1710914E-004  0.2551672E+03  0.7818608E-02  0.1110082E+00
          2   -1    0    0  501    0  0.00000000000E+00  0.00000000000E+00  0.30271243031E+03  0.30271243031E+03  0.00000000000E+00 0. -1.
         -2   -1    0    0    0  501 -0.00000000000E+00 -0.00000000000E+00 -0.53772414250E+02  0.53772414250E+02  0.00000000000E+00 0. -1.
         25    1    1    2    0    0 -0.93638238188E+01  0.39676637637E+02  0.10395354835E+03  0.16391539581E+03  0.12000000000E+03 0.  0.
         25    1    1    2    0    0  0.93638238188E+01 -0.39676637637E+02  0.14498646771E+03  0.19256944874E+03  0.12000000000E+03 0.  0.
<mgrwt>
<rscale>  0 0.25516723E+03</rscale>
<asrwt>0</asrwt>
<pdfrwt beam="1">  1        2 0.46571142E-01 0.25516723E+03</pdfrwt>
<pdfrwt beam="2">  1       -2 0.82726793E-02 0.25516723E+03</pdfrwt>
<totfact> 0.95906561E+03</totfact>
</mgrwt>
</event>
<event>
 4    1  0.1710914E-004  0.2621918E+03  0.7818608E-02  0.1105833E+00
         -2   -1    0    0    0  501 -0.00000000000E+00  0.00000000000E+00  0.29481061272E+02  0.29481061272E+02  0.00000000000E+00 0. -1.
          2   -1    0    0  501    0  0.00000000000E+00 -0.00000000000E+00 -0.58295503292E+03  0.58295503292E+03  0.00000000000E+00 0. -1.
         25    1    1    2    0    0  0.36342623763E+02 -0.10126867454E+02 -0.36296664952E+03  0.38414597279E+03  0.12000000000E+03 0.  0.
         25    1    1    2    0    0 -0.36342623763E+02  0.10126867454E+02 -0.19050732213E+03  0.22829012141E+03  0.12000000000E+03 0.  0.
<mgrwt>
<rscale>  0 0.26219179E+03</rscale>
<asrwt>0</asrwt>
<pdfrwt beam="1">  1        2 0.89685390E-01 0.26219179E+03</pdfrwt>
<pdfrwt beam="2">  1       -2 0.45355479E-02 0.26219179E+03</pdfrwt>
<totfact> 0.11764998E+04</totfact>
</mgrwt>
</event>
<event>
 4    1  0.1710914E-004  0.3657340E+03  0.7818608E-02  0.1056336E+00
         -2   -1    0    0    0  501 -0.00000000000E+00  0.00000000000E+00  0.20110820112E+02  0.20110820112E+02  0.00000000000E+00 0. -1.
          2   -1    0    0  501    0  0.00000000000E+00 -0.00000000000E+00 -0.16628035040E+04  0.16628035040E+04  0.00000000000E+00 0. -1.
         25    1    1    2    0    0  0.77439295058E+02  0.12934916700E+02 -0.29920236801E+03  0.33179242534E+03  0.12000000000E+03 0.  0.
         25    1    1    2    0    0 -0.77439295058E+02 -0.12934916700E+02 -0.13434903159E+04  0.13511218987E+04  0.12000000000E+03 0.  0.
<mgrwt>
<rscale>  0 0.36573401E+03</rscale>
<asrwt>0</asrwt>
<pdfrwt beam="1">  1        2 0.25581588E+00 0.36573401E+03</pdfrwt>
<pdfrwt beam="2">  1       -2 0.30939729E-02 0.36573401E+03</pdfrwt>
<totfact> 0.45249401E+03</totfact>
</mgrwt>
</event>
<event>
 4    1  0.1710914E-004  0.2550779E+03  0.7818608E-02  0.1110137E+00
         -2   -1    0    0    0  501 -0.00000000000E+00  0.00000000000E+00  0.19361342339E+02  0.19361342339E+02  0.00000000000E+00 0.  1.
          2   -1    0    0  501    0  0.00000000000E+00 -0.00000000000E+00 -0.84013718036E+03  0.84013718036E+03  0.00000000000E+00 0.  1.
         25    1    1    2    0    0 -0.35111096102E+02 -0.23089015494E+02 -0.37664325290E+03  0.39752488182E+03  0.12000000000E+03 0.  0.
         25    1    1    2    0    0  0.35111096102E+02  0.23089015494E+02 -0.44413258512E+03  0.46197364088E+03  0.12000000000E+03 0.  0.
<mgrwt>
<rscale>  0 0.25507790E+03</rscale>
<asrwt>0</asrwt>
<pdfrwt beam="1">  1        2 0.12925188E+00 0.25507790E+03</pdfrwt>
<pdfrwt beam="2">  1       -2 0.29786680E-02 0.25507790E+03</pdfrwt>
<totfact> 0.14148561E+04</totfact>
</mgrwt>
</event>
<event>
 4    1  0.1710914E-004  0.2847316E+03  0.7818608E-02  0.1093132E+00
          2   -1    0    0  501    0  0.00000000000E+00  0.00000000000E+00  0.43516173338E+03  0.43516173338E+03  0.00000000000E+00 0.  1.
         -2   -1    0    0    0  501 -0.00000000000E+00 -0.00000000000E+00 -0.46575830358E+02  0.46575830358E+02  0.00000000000E+00 0.  1.
         25    1    1    2    0    0 -0.52093127185E+02  0.55222121617E+02  0.21161676333E+03  0.25484275767E+03  0.12000000000E+03 0.  0.
         25    1    1    2    0    0  0.52093127185E+02 -0.55222121617E+02  0.17696913969E+03  0.22689480606E+03  0.12000000000E+03 0.  0.
<mgrwt>
<rscale>  0 0.28473159E+03</rscale>
<asrwt>0</asrwt>
<pdfrwt beam="1">  1        2 0.66947956E-01 0.28473159E+03</pdfrwt>
<pdfrwt beam="2">  1       -2 0.71655126E-02 0.28473159E+03</pdfrwt>
<totfact> 0.81362754E+03</totfact>
</mgrwt>
</event>
<event>
 4    1  0.1710914E-004  0.2551544E+03  0.7818608E-02  0.1110090E+00
         -2   -1    0    0    0  501 -0.00000000000E+00  0.00000000000E+00  0.57761980692E+03  0.57761980692E+03  0.00000000000E+00 0.  1.
          2   -1    0    0  501    0  0.00000000000E+00 -0.00000000000E+00 -0.28177593225E+02  0.28177593225E+02  0.00000000000E+00 0.  1.
         25    1    1    2    0    0  0.73389225224E+01 -0.26839970088E+02  0.19591596470E+03  0.23142452118E+03  0.12000000000E+03 0.  0.
         25    1    1    2    0    0 -0.73389225224E+01  0.26839970088E+02  0.35352624900E+03  0.37437287897E+03  0.12000000000E+03 0.  0.
<mgrwt>
<rscale>  0 0.25515435E+03</rscale>
<asrwt>0</asrwt>
<pdfrwt beam="1">  1        2 0.43350148E-02 0.25515435E+03</pdfrwt>
<pdfrwt beam="2">  1       -2 0.88864577E-01 0.25515435E+03</pdfrwt>
<totfact> 0.21299961E+03</totfact>
</mgrwt>
</event>
<event>
 4    1  0.1710914E-004  0.3423529E+03  0.7818608E-02  0.1065798E+00
          2   -1    0    0  501    0  0.00000000000E+00  0.00000000000E+00  0.16037262912E+04  0.16037262912E+04  0.00000000000E+00 0. -1.
         -2   -1    0    0    0  501 -0.00000000000E+00 -0.00000000000E+00 -0.18270807405E+02  0.18270807405E+02  0.00000000000E+00 0. -1.
         25    1    1    2    0    0 -0.10664360847E+03  0.40996710740E+02  0.99638587762E+03  0.10100685158E+04  0.12000000000E+03 0.  0.
         25    1    1    2    0    0  0.10664360847E+03 -0.40996710740E+02  0.58906960620E+03  0.61192858282E+03  0.12000000000E+03 0.  0.
<mgrwt>
<rscale>  0 0.34235288E+03</rscale>
<asrwt>0</asrwt>
<pdfrwt beam="1">  1        2 0.24672701E+00 0.34235288E+03</pdfrwt>
<pdfrwt beam="2">  1       -2 0.28108947E-02 0.34235288E+03</pdfrwt>
<totfact> 0.56183082E+03</totfact>
</mgrwt>
</event>
<event>
 4    1  0.1710914E-004  0.2840963E+03  0.7818608E-02  0.1093472E+00
         -2   -1    0    0    0  501 -0.00000000000E+00  0.00000000000E+00  0.27058982706E+02  0.27058982706E+02  0.00000000000E+00 0. -1.
          2   -1    0    0  501    0  0.00000000000E+00 -0.00000000000E+00 -0.74569243870E+03  0.74569243870E+03  0.00000000000E+00 0. -1.
         25    1    1    2    0    0 -0.57401458090E+02  0.32822947791E+02 -0.25734611251E+03  0.29154638553E+03  0.12000000000E+03 0.  0.
         25    1    1    2    0    0  0.57401458090E+02 -0.32822947791E+02 -0.46128734348E+03  0.48120503587E+03  0.12000000000E+03 0.  0.
<mgrwt>
<rscale>  0 0.28409631E+03</rscale>
<asrwt>0</asrwt>
<pdfrwt beam="1">  1        2 0.11472191E+00 0.28409631E+03</pdfrwt>
<pdfrwt beam="2">  1       -2 0.41629206E-02 0.28409631E+03</pdfrwt>
<totfact> 0.10012538E+04</totfact>
</mgrwt>
</event>
<event>
 4    1  0.1710914E-004  0.3038655E+03  0.7818608E-02  0.1083324E+00
          2   -1    0    0  501    0  0.00000000000E+00  0.00000000000E+00  0.30326633912E+03  0.30326633912E+03  0.00000000000E+00 0. -1.
         -2   -1    0    0    0  501 -0.00000000000E+00 -0.00000000000E+00 -0.76116467755E+02  0.76116467755E+02  0.00000000000E+00 0. -1.
         25    1    1    2    0    0 -0.66504198062E+02 -0.36816797154E+02  0.46278811757E+02  0.14939883979E+03  0.12000000000E+03 0.  0.
         25    1    1    2    0    0  0.66504198062E+02  0.36816797154E+02  0.18087105960E+03  0.22998396708E+03  0.12000000000E+03 0.  0.
<mgrwt>
<rscale>  0 0.30386551E+03</rscale>
<asrwt>0</asrwt>
<pdfrwt beam="1">  1        2 0.46656359E-01 0.30386551E+03</pdfrwt>
<pdfrwt beam="2">  1       -2 0.11710226E-01 0.30386551E+03</pdfrwt>
<totfact> 0.55469706E+03</totfact>
</mgrwt>
</event>
<event>
 4    1  0.1710914E-004  0.2688348E+03  0.7818608E-02  0.1101948E+00
         -2   -1    0    0    0  501 -0.00000000000E+00  0.00000000000E+00  0.34320449267E+02  0.34320449267E+02  0.00000000000E+00 0. -1.
          2   -1    0    0  501    0  0.00000000000E+00 -0.00000000000E+00 -0.52645098715E+03  0.52645098715E+03  0.00000000000E+00 0. -1.
         25    1    1    2    0    0  0.46029171604E+02 -0.15040185043E+02 -0.17018938581E+03  0.21379737802E+03  0.12000000000E+03 0.  0.
         25    1    1    2    0    0 -0.46029171604E+02  0.15040185043E+02 -0.32194115207E+03  0.34697405840E+03  0.12000000000E+03 0.  0.
<mgrwt>
<rscale>  0 0.26883478E+03</rscale>
<asrwt>0</asrwt>
<pdfrwt beam="1">  1        2 0.80992458E-01 0.26883478E+03</pdfrwt>
<pdfrwt beam="2">  1       -2 0.52800692E-02 0.26883478E+03</pdfrwt>
<totfact> 0.10503899E+04</totfact>
</mgrwt>
</event>
<event>
 4    1  0.1710914E-004  0.5798200E+03  0.7818608E-02  0.9948181E-01
         -2   -1    0    0    0  501 -0.00000000000E+00  0.00000000000E+00  0.31506738288E+03  0.31506738288E+03  0.00000000000E+00 0. -1.
          2   -1    0    0  501    0  0.00000000000E+00 -0.00000000000E+00 -0.26676134029E+03  0.26676134029E+03  0.00000000000E+00 0. -1.
         25    1    1    2    0    0  0.20629236906E+03  0.16368670676E+03  0.68329271361E+01  0.28947636932E+03  0.12000000000E+03 0.  0.
         25    1    1    2    0    0 -0.20629236906E+03 -0.16368670676E+03  0.41473115454E+02  0.29235235386E+03  0.12000000000E+03 0.  0.
<mgrwt>
<rscale>  0 0.57981996E+03</rscale>
<asrwt>0</asrwt>
<pdfrwt beam="1">  1        2 0.41040206E-01 0.57981996E+03</pdfrwt>
<pdfrwt beam="2">  1       -2 0.48471905E-01 0.57981996E+03</pdfrwt>
<totfact> 0.50872336E+02</totfact>
</mgrwt>
</event>
<event>
 4    1  0.1710914E-004  0.2492875E+03  0.7818608E-02  0.1113756E+00
         -1   -1    0    0    0  501 -0.00000000000E+00  0.00000000000E+00  0.43909817248E+02  0.43909817248E+02  0.00000000000E+00 0.  1.
          1   -1    0    0  501    0  0.00000000000E+00 -0.00000000000E+00 -0.35381751524E+03  0.35381751524E+03  0.00000000000E+00 0.  1.
         25    1    1    2    0    0 -0.24486138004E+01 -0.49873206968E+01 -0.10191377814E+03  0.15753503500E+03  0.12000000000E+03 0.  0.
         25    1    1    2    0    0  0.24486138004E+01  0.49873206968E+01 -0.20799391986E+03  0.24019229750E+03  0.12000000000E+03 0.  0.
<mgrwt>
<rscale>  0 0.24928748E+03</rscale>
<asrwt>0</asrwt>
<pdfrwt beam="1">  1        1 0.54433466E-01 0.24928748E+03</pdfrwt>
<pdfrwt beam="2">  1       -1 0.67553562E-02 0.24928748E+03</pdfrwt>
<totfact> 0.78224884E+03</totfact>
</mgrwt>
</event>
<event>
 4    1  0.1710914E-004  0.2913628E+03  0.7818608E-02  0.1089640E+00
         -1   -1    0    0    0  501 -0.00000000000E+00  0.00000000000E+00  0.56930351182E+02  0.56930351182E+02  0.00000000000E+00 0.  1.
          1   -1    0    0  501    0  0.00000000000E+00 -0.00000000000E+00 -0.37279019209E+03  0.37279019209E+03  0.00000000000E+00 0.  1.
         25    1    1    2    0    0  0.80429460936E+01 -0.36435335552E+02 -0.49240816163E+02  0.13496992493E+03  0.12000000000E+03 0.  0.
         25    1    1    2    0    0 -0.80429460936E+01  0.36435335552E+02 -0.26661902474E+03  0.29475061834E+03  0.12000000000E+03 0.  0.
<mgrwt>
<rscale>  0 0.29136284E+03</rscale>
<asrwt>0</asrwt>
<pdfrwt beam="1">  1        1 0.57352340E-01 0.29136284E+03</pdfrwt>
<pdfrwt beam="2">  1       -1 0.87585152E-02 0.29136284E+03</pdfrwt>
<totfact> 0.49529867E+03</totfact>
</mgrwt>
</event>
<event>
 4    1  0.1710914E-004  0.2497098E+03  0.7818608E-02  0.1113488E+00
          2   -1    0    0  501    0  0.00000000000E+00  0.00000000000E+00  0.15482107007E+04  0.15482107007E+04  0.00000000000E+00 0. -1.
         -2   -1    0    0    0  501 -0.00000000000E+00 -0.00000000000E+00 -0.10068882222E+02  0.10068882222E+02  0.00000000000E+00 0. -1.
         25    1    1    2    0    0  0.14508734230E+02 -0.73051382524E+01  0.95885205751E+03  0.96646838366E+03  0.12000000000E+03 0.  0.
         25    1    1    2    0    0 -0.14508734230E+02  0.73051382524E+01  0.57928976093E+03  0.59181119923E+03  0.12000000000E+03 0.  0.
<mgrwt>
<rscale>  0 0.24970984E+03</rscale>
<asrwt>0</asrwt>
<pdfrwt beam="1">  1        2 0.23818607E+00 0.24970984E+03</pdfrwt>
<pdfrwt beam="2">  1       -2 0.15490600E-02 0.24970984E+03</pdfrwt>
<totfact> 0.14423850E+04</totfact>
</mgrwt>
</event>
