<event>
 5    1  0.1129390E+001  0.2739043E+03  0.7818608E-02  0.1099066E+00
         -2   -1    0    0    0  501 -0.00000000000E+00  0.00000000000E+00  0.13371369190E+03  0.13371369190E+03  0.00000000000E+00 0. -1.
          2   -1    0    0  501    0  0.00000000000E+00 -0.00000000000E+00 -0.14026905112E+03  0.14026905112E+03  0.00000000000E+00 0. -1.
         35    2    1    2    0    0  0.00000000000E+00  0.00000000000E+00 -0.65553592132E+01  0.27398274302E+03  0.27390430945E+03 0.  0.
         25    1    3    3    0    0 -0.48082550507E+02  0.36945181205E+02 -0.29343050110E+02  0.13761501614E+03  0.12000000000E+03 0.  0.
         25    1    3    3    0    0  0.48082550507E+02 -0.36945181205E+02  0.22787690897E+02  0.13636772688E+03  0.12000000000E+03 0.  0.
<mgrwt>
<rscale>  0 0.27390431E+03</rscale>
<asrwt>0</asrwt>
<pdfrwt beam="1">  1        2 0.21579854E-01 0.27390431E+03</pdfrwt>
<pdfrwt beam="2">  1       -2 0.20571337E-01 0.27390431E+03</pdfrwt>
<totfact> 0.50565448E+03</totfact>
</mgrwt>
</event>
<event>
 5    1  0.1129390E+001  0.2735515E+03  0.7818608E-02  0.1099264E+00
         -1   -1    0    0    0  501 -0.00000000000E+00  0.00000000000E+00  0.29263357830E+02  0.29263357830E+02  0.00000000000E+00 0.  1.
          1   -1    0    0  501    0  0.00000000000E+00 -0.00000000000E+00 -0.63928449722E+03  0.63928449722E+03  0.00000000000E+00 0.  1.
         35    2    1    2    0    0  0.00000000000E+00  0.00000000000E+00 -0.61002113939E+03  0.66854785505E+03  0.27355153809E+03 0.  0.
         25    1    3    3    0    0 -0.21981396918E+02  0.56809590971E+02 -0.36473014555E+03  0.38876546980E+03  0.12000000000E+03 0.  0.
         25    1    3    3    0    0  0.21981396918E+02 -0.56809590971E+02 -0.24529099384E+03  0.27978238525E+03  0.12000000000E+03 0.  0.
<mgrwt>
<rscale>  0 0.27355154E+03</rscale>
<asrwt>0</asrwt>
<pdfrwt beam="1">  1        1 0.98351466E-01 0.27355154E+03</pdfrwt>
<pdfrwt beam="2">  1       -1 0.45020548E-02 0.27355154E+03</pdfrwt>
<totfact> 0.66015651E+03</totfact>
</mgrwt>
</event>
<event>
 5    1  0.1129390E+001  0.2747195E+03  0.7818608E-02  0.1098609E+00
          1   -1    0    0  501    0  0.00000000000E+00  0.00000000000E+00  0.63378341124E+03  0.63378341124E+03  0.00000000000E+00 0.  1.
         -1   -1    0    0    0  501 -0.00000000000E+00 -0.00000000000E+00 -0.29769946304E+02  0.29769946304E+02  0.00000000000E+00 0.  1.
         35    2    1    2    0    0  0.00000000000E+00  0.00000000000E+00  0.60401346494E+03  0.66355335754E+03  0.27471947962E+03 0.  0.
         25    1    3    3    0    0 -0.10538313963E+02  0.30337162870E+02  0.44359649194E+03  0.46066174920E+03  0.12000000000E+03 0.  0.
         25    1    3    3    0    0  0.10538313963E+02 -0.30337162870E+02  0.16041697299E+03  0.20289160834E+03  0.12000000000E+03 0.  0.
<mgrwt>
<rscale>  0 0.27471948E+03</rscale>
<asrwt>0</asrwt>
<pdfrwt beam="1">  1        1 0.97505130E-01 0.27471948E+03</pdfrwt>
<pdfrwt beam="2">  1       -1 0.45799922E-02 0.27471948E+03</pdfrwt>
<totfact> 0.65143913E+03</totfact>
</mgrwt>
</event>
<event>
 5    1  0.1129390E+001  0.2755677E+03  0.7818608E-02  0.1098135E+00
          1   -1    0    0  501    0  0.00000000000E+00  0.00000000000E+00  0.71757892926E+03  0.71757892926E+03  0.00000000000E+00 0.  1.
         -1   -1    0    0    0  501 -0.00000000000E+00 -0.00000000000E+00 -0.26456171937E+02  0.26456171937E+02  0.00000000000E+00 0.  1.
         35    2    1    2    0    0  0.00000000000E+00  0.00000000000E+00  0.69112275733E+03  0.74403510120E+03  0.27556771604E+03 0.  0.
         25    1    3    3    0    0 -0.33162907026E+02 -0.35198466432E+02  0.21761172082E+03  0.25316708214E+03  0.12000000000E+03 0.  0.
         25    1    3    3    0    0  0.33162907026E+02  0.35198466432E+02  0.47351103651E+03  0.49086801906E+03  0.12000000000E+03 0.  0.
<mgrwt>
<rscale>  0 0.27556772E+03</rscale>
<asrwt>0</asrwt>
<pdfrwt beam="1">  1        1 0.11039674E+00 0.27556772E+03</pdfrwt>
<pdfrwt beam="2">  1       -1 0.40701808E-02 0.27556772E+03</pdfrwt>
<totfact> 0.64951969E+03</totfact>
</mgrwt>
</event>
<event>
 5    1  0.1129390E+001  0.2747322E+03  0.7818608E-02  0.1098601E+00
         -2   -1    0    0    0  501 -0.00000000000E+00  0.00000000000E+00  0.15396579847E+02  0.15396579847E+02  0.00000000000E+00 0. -1.
          2   -1    0    0  501    0  0.00000000000E+00 -0.00000000000E+00 -0.12255608900E+04  0.12255608900E+04  0.00000000000E+00 0. -1.
         35    2    1    2    0    0  0.00000000000E+00  0.00000000000E+00 -0.12101643101E+04  0.12409574698E+04  0.27473220488E+03 0.  0.
         25    1    3    3    0    0 -0.25205438157E+02 -0.27098790636E+02 -0.85656785183E+03  0.86572405728E+03  0.12000000000E+03 0.  0.
         25    1    3    3    0    0  0.25205438157E+02  0.27098790636E+02 -0.35359645831E+03  0.37523341255E+03  0.12000000000E+03 0.  0.
<mgrwt>
<rscale>  0 0.27473220E+03</rscale>
<asrwt>0</asrwt>
<pdfrwt beam="1">  1        2 0.18854780E+00 0.27473220E+03</pdfrwt>
<pdfrwt beam="2">  1       -2 0.23687050E-02 0.27473220E+03</pdfrwt>
<totfact> 0.11618188E+04</totfact>
</mgrwt>
</event>
<event>
 5    1  0.1129390E+001  0.2744649E+03  0.7818608E-02  0.1098751E+00
          2   -1    0    0  501    0  0.00000000000E+00  0.00000000000E+00  0.19768253041E+04  0.19768253041E+04  0.00000000000E+00 0. -1.
         -2   -1    0    0    0  501 -0.00000000000E+00 -0.00000000000E+00 -0.95267648277E+01  0.95267648277E+01  0.00000000000E+00 0. -1.
         35    2    1    2    0    0  0.00000000000E+00  0.00000000000E+00  0.19672985393E+04  0.19863520689E+04  0.27446493239E+03 0.  0.
         25    1    3    3    0    0 -0.77146832126E+01 -0.39494221845E+01  0.50590574016E+03  0.52001512690E+03  0.12000000000E+03 0.  0.
         25    1    3    3    0    0  0.77146832126E+01  0.39494221845E+01  0.14613927991E+04  0.14663369420E+04  0.12000000000E+03 0.  0.
<mgrwt>
<rscale>  0 0.27446493E+03</rscale>
<asrwt>0</asrwt>
<pdfrwt beam="1">  1        2 0.30412664E+00 0.27446493E+03</pdfrwt>
<pdfrwt beam="2">  1       -2 0.14656577E-02 0.27446493E+03</pdfrwt>
<totfact> 0.93256209E+03</totfact>
</mgrwt>
</event>
<event>
 5    1  0.1129390E+001  0.2756643E+03  0.7818608E-02  0.1098081E+00
          2   -1    0    0  501    0  0.00000000000E+00  0.00000000000E+00  0.44466357441E+02  0.44466357441E+02  0.00000000000E+00 0. -1.
         -2   -1    0    0    0  501 -0.00000000000E+00 -0.00000000000E+00 -0.42723761064E+03  0.42723761064E+03  0.00000000000E+00 0. -1.
         35    2    1    2    0    0  0.00000000000E+00  0.00000000000E+00 -0.38277125320E+03  0.47170396808E+03  0.27566429081E+03 0.  0.
         25    1    3    3    0    0  0.47172213438E+02  0.32186668946E+02 -0.25394230060E+03  0.28661453455E+03  0.12000000000E+03 0.  0.
         25    1    3    3    0    0 -0.47172213438E+02 -0.32186668946E+02 -0.12882895259E+03  0.18508943353E+03  0.12000000000E+03 0.  0.
<mgrwt>
<rscale>  0 0.27566429E+03</rscale>
<asrwt>0</asrwt>
<pdfrwt beam="1">  1        2 0.68409783E-02 0.27566429E+03</pdfrwt>
<pdfrwt beam="2">  1       -2 0.65728861E-01 0.27566429E+03</pdfrwt>
<totfact> 0.22660404E+03</totfact>
</mgrwt>
</event>
<event>
 5    1  0.1129390E+001  0.2750484E+03  0.7818608E-02  0.1098425E+00
         -2   -1    0    0    0  501 -0.00000000000E+00  0.00000000000E+00  0.80169185675E+01  0.80169185675E+01  0.00000000000E+00 0. -1.
          2   -1    0    0  501    0  0.00000000000E+00 -0.00000000000E+00 -0.23591239196E+04  0.23591239196E+04  0.00000000000E+00 0. -1.
         35    2    1    2    0    0  0.00000000000E+00  0.00000000000E+00 -0.23511070011E+04  0.23671408382E+04  0.27504839105E+03 0.  0.
         25    1    3    3    0    0  0.25056361697E+02 -0.62190627048E+02 -0.12114623841E+04  0.12192360737E+04  0.12000000000E+03 0.  0.
         25    1    3    3    0    0 -0.25056361697E+02  0.62190627048E+02 -0.11396446169E+04  0.11479047645E+04  0.12000000000E+03 0.  0.
<mgrwt>
<rscale>  0 0.27504839E+03</rscale>
<asrwt>0</asrwt>
<pdfrwt beam="1">  1        2 0.36294212E+00 0.27504839E+03</pdfrwt>
<pdfrwt beam="2">  1       -2 0.12333722E-02 0.27504839E+03</pdfrwt>
<totfact> 0.75153502E+03</totfact>
</mgrwt>
</event>
<event>
 5    1  0.1129390E+001  0.2760551E+03  0.7818608E-02  0.1097863E+00
         -1   -1    0    0    0  501 -0.00000000000E+00  0.00000000000E+00  0.56184180508E+01  0.56184180508E+01  0.00000000000E+00 0. -1.
          1   -1    0    0  501    0  0.00000000000E+00 -0.00000000000E+00 -0.33909202407E+04  0.33909202407E+04  0.00000000000E+00 0. -1.
         35    2    1    2    0    0  0.00000000000E+00  0.00000000000E+00 -0.33853018227E+04  0.33965386588E+04  0.27605512123E+03 0.  0.
         25    1    3    3    0    0 -0.45084732549E+02  0.51104516644E+02 -0.16594014788E+04  0.16651298966E+04  0.12000000000E+03 0.  0.
         25    1    3    3    0    0  0.45084732549E+02 -0.51104516644E+02 -0.17259003439E+04  0.17314087622E+04  0.12000000000E+03 0.  0.
<mgrwt>
<rscale>  0 0.27605512E+03</rscale>
<asrwt>0</asrwt>
<pdfrwt beam="1">  1        1 0.52167941E+00 0.27605512E+03</pdfrwt>
<pdfrwt beam="2">  1       -1 0.86437305E-03 0.27605512E+03</pdfrwt>
<totfact> 0.87923324E+02</totfact>
</mgrwt>
</event>
<event>
 5    1  0.1129390E+001  0.2809498E+03  0.7818608E-02  0.1095171E+00
         -1   -1    0    0    0  501 -0.00000000000E+00  0.00000000000E+00  0.34392867577E+03  0.34392867577E+03  0.00000000000E+00 0. -1.
          1   -1    0    0  501    0  0.00000000000E+00 -0.00000000000E+00 -0.57375825498E+02  0.57375825498E+02  0.00000000000E+00 0. -1.
         35    2    1    2    0    0  0.00000000000E+00  0.00000000000E+00  0.28655285027E+03  0.40130450127E+03  0.28094975839E+03 0.  0.
         25    1    3    3    0    0 -0.37850034025E+02  0.54340323394E+02  0.18724879380E+03  0.23205087072E+03  0.12000000000E+03 0.  0.
         25    1    3    3    0    0  0.37850034025E+02 -0.54340323394E+02  0.99304056475E+02  0.16925363055E+03  0.12000000000E+03 0.  0.
<mgrwt>
<rscale>  0 0.28094976E+03</rscale>
<asrwt>0</asrwt>
<pdfrwt beam="1">  1        1 0.88270503E-02 0.28094976E+03</pdfrwt>
<pdfrwt beam="2">  1       -1 0.52912103E-01 0.28094976E+03</pdfrwt>
<totfact> 0.28014588E+03</totfact>
</mgrwt>
</event>
<event>
 5    1  0.1129390E+001  0.2713203E+03  0.7818608E-02  0.1100526E+00
         -1   -1    0    0    0  501 -0.00000000000E+00  0.00000000000E+00  0.44094415669E+03  0.44094415669E+03  0.00000000000E+00 0.  1.
          1   -1    0    0  501    0  0.00000000000E+00 -0.00000000000E+00 -0.41736982018E+02  0.41736982018E+02  0.00000000000E+00 0.  1.
         35    2    1    2    0    0  0.00000000000E+00  0.00000000000E+00  0.39920717467E+03  0.48268113871E+03  0.27132031504E+03 0.  0.
         25    1    3    3    0    0 -0.13895489835E+01  0.18031993864E+02  0.30747364074E+03  0.33055577956E+03  0.12000000000E+03 0.  0.
         25    1    3    3    0    0  0.13895489835E+01 -0.18031993864E+02  0.91733533933E+02  0.15212535915E+03  0.12000000000E+03 0.  0.
<mgrwt>
<rscale>  0 0.27132032E+03</rscale>
<asrwt>0</asrwt>
<pdfrwt beam="1">  1        1 0.64210745E-02 0.27132032E+03</pdfrwt>
<pdfrwt beam="2">  1       -1 0.67837559E-01 0.27132032E+03</pdfrwt>
<totfact> 0.26777357E+03</totfact>
</mgrwt>
</event>
<event>
 5    1  0.1129390E+001  0.2771928E+03  0.7818608E-02  0.1097232E+00
         -2   -1    0    0    0  501 -0.00000000000E+00  0.00000000000E+00  0.12664318976E+03  0.12664318976E+03  0.00000000000E+00 0.  1.
          2   -1    0    0  501    0  0.00000000000E+00 -0.00000000000E+00 -0.15167786599E+03  0.15167786599E+03  0.00000000000E+00 0.  1.
         35    2    1    2    0    0  0.00000000000E+00  0.00000000000E+00 -0.25034676224E+02  0.27832105575E+03  0.27719284814E+03 0.  0.
         25    1    3    3    0    0 -0.66096883939E+02 -0.29869969843E+00 -0.33580840546E+02  0.14105516701E+03  0.12000000000E+03 0.  0.
         25    1    3    3    0    0  0.66096883939E+02  0.29869969843E+00  0.85461643215E+01  0.13726588874E+03  0.12000000000E+03 0.  0.
<mgrwt>
<rscale>  0 0.27719285E+03</rscale>
<asrwt>0</asrwt>
<pdfrwt beam="1">  1        2 0.23335056E-01 0.27719285E+03</pdfrwt>
<pdfrwt beam="2">  1       -2 0.19483568E-01 0.27719285E+03</pdfrwt>
<totfact> 0.50817524E+03</totfact>
</mgrwt>
</event>
<event>
 5    1  0.1129390E+001  0.2738971E+03  0.7818608E-02  0.1099070E+00
          1   -1    0    0  501    0  0.00000000000E+00  0.00000000000E+00  0.12888690033E+04  0.12888690033E+04  0.00000000000E+00 0. -1.
         -1   -1    0    0    0  501 -0.00000000000E+00 -0.00000000000E+00 -0.14551444348E+02  0.14551444348E+02  0.00000000000E+00 0. -1.
         35    2    1    2    0    0  0.00000000000E+00  0.00000000000E+00  0.12743175589E+04  0.13034204476E+04  0.27389710166E+03 0.  0.
         25    1    3    3    0    0  0.10495510695E+02  0.64039209321E+02  0.58010688788E+03  0.59593219198E+03  0.12000000000E+03 0.  0.
         25    1    3    3    0    0 -0.10495510695E+02 -0.64039209321E+02  0.69421067107E+03  0.70748825566E+03  0.12000000000E+03 0.  0.
<mgrwt>
<rscale>  0 0.27389710E+03</rscale>
<asrwt>0</asrwt>
<pdfrwt beam="1">  1        1 0.19828745E+00 0.27389710E+03</pdfrwt>
<pdfrwt beam="2">  1       -1 0.22386848E-02 0.27389710E+03</pdfrwt>
<totfact> 0.57706333E+03</totfact>
</mgrwt>
</event>
<event>
 5    1  0.1129390E+001  0.2793595E+03  0.7818608E-02  0.1096039E+00
          1   -1    0    0  501    0  0.00000000000E+00  0.00000000000E+00  0.58551353989E+03  0.58551353989E+03  0.00000000000E+00 0.  1.
         -1   -1    0    0    0  501 -0.00000000000E+00 -0.00000000000E+00 -0.33321920722E+02  0.33321920722E+02  0.00000000000E+00 0.  1.
         35    2    1    2    0    0  0.00000000000E+00  0.00000000000E+00  0.55219161916E+03  0.61883546061E+03  0.27935952289E+03 0.  0.
         25    1    3    3    0    0  0.50265017258E+02 -0.47740943785E+02  0.23743029744E+03  0.27491619780E+03  0.12000000000E+03 0.  0.
         25    1    3    3    0    0 -0.50265017258E+02  0.47740943785E+02  0.31476132173E+03  0.34391926280E+03  0.12000000000E+03 0.  0.
<mgrwt>
<rscale>  0 0.27935952E+03</rscale>
<asrwt>0</asrwt>
<pdfrwt beam="1">  1        1 0.90078999E-01 0.27935952E+03</pdfrwt>
<pdfrwt beam="2">  1       -1 0.51264498E-02 0.27935952E+03</pdfrwt>
<totfact> 0.61491312E+03</totfact>
</mgrwt>
</event>
<event>
 5    1  0.1129390E+001  0.2746899E+03  0.7818608E-02  0.1098625E+00
         -2   -1    0    0    0  501 -0.00000000000E+00  0.00000000000E+00  0.19081487980E+02  0.19081487980E+02  0.00000000000E+00 0. -1.
          2   -1    0    0  501    0  0.00000000000E+00 -0.00000000000E+00 -0.98858330473E+03  0.98858330473E+03  0.00000000000E+00 0. -1.
         35    2    1    2    0    0  0.00000000000E+00  0.00000000000E+00 -0.96950181675E+03  0.10076647927E+04  0.27468993754E+03 0.  0.
         25    1    3    3    0    0 -0.50853619489E+02  0.43306858292E+02 -0.49002349050E+03  0.50890529161E+03  0.12000000000E+03 0.  0.
         25    1    3    3    0    0  0.50853619489E+02 -0.43306858292E+02 -0.47947832625E+03  0.49875950110E+03  0.12000000000E+03 0.  0.
<mgrwt>
<rscale>  0 0.27468994E+03</rscale>
<asrwt>0</asrwt>
<pdfrwt beam="1">  1        2 0.15208972E+00 0.27468994E+03</pdfrwt>
<pdfrwt beam="2">  1       -2 0.29356139E-02 0.27468994E+03</pdfrwt>
<totfact> 0.11645793E+04</totfact>
</mgrwt>
</event>
<event>
 5    1  0.1129390E+001  0.2755263E+03  0.7818608E-02  0.1098158E+00
         -2   -1    0    0    0  501 -0.00000000000E+00  0.00000000000E+00  0.42637135187E+02  0.42637135187E+02  0.00000000000E+00 0.  1.
          2   -1    0    0  501    0  0.00000000000E+00 -0.00000000000E+00 -0.44512104162E+03  0.44512104162E+03  0.00000000000E+00 0.  1.
         35    2    1    2    0    0  0.00000000000E+00  0.00000000000E+00 -0.40248390643E+03  0.48775817680E+03  0.27552630383E+03 0.  0.
         25    1    3    3    0    0  0.30375369220E+02 -0.31225219367E+02 -0.29290422141E+03  0.31951613465E+03  0.12000000000E+03 0.  0.
         25    1    3    3    0    0 -0.30375369220E+02  0.31225219367E+02 -0.10957968502E+03  0.16824204215E+03  0.12000000000E+03 0.  0.
<mgrwt>
<rscale>  0 0.27552630E+03</rscale>
<asrwt>0</asrwt>
<pdfrwt beam="1">  1        2 0.68480168E-01 0.27552630E+03</pdfrwt>
<pdfrwt beam="2">  1       -2 0.65595585E-02 0.27552630E+03</pdfrwt>
<totfact> 0.90882933E+03</totfact>
</mgrwt>
</event>
<event>
 5    1  0.1129390E+001  0.2751753E+03  0.7818608E-02  0.1098354E+00
         -3   -1    0    0    0  501 -0.00000000000E+00  0.00000000000E+00  0.15588797477E+04  0.15588797477E+04  0.00000000000E+00 0. -1.
          3   -1    0    0  501    0  0.00000000000E+00 -0.00000000000E+00 -0.12143567525E+02  0.12143567525E+02  0.00000000000E+00 0. -1.
         35    2    1    2    0    0  0.00000000000E+00  0.00000000000E+00  0.15467361802E+04  0.15710233152E+04  0.27517530034E+03 0.  0.
         25    1    3    3    0    0  0.76414221684E+01  0.79471784086E+01  0.11524508169E+04  0.11587339791E+04  0.12000000000E+03 0.  0.
         25    1    3    3    0    0 -0.76414221684E+01 -0.79471784086E+01  0.39428536324E+03  0.41228933608E+03  0.12000000000E+03 0.  0.
<mgrwt>
<rscale>  0 0.27517530E+03</rscale>
<asrwt>0</asrwt>
<pdfrwt beam="1">  1        3 0.18682424E-02 0.27517530E+03</pdfrwt>
<pdfrwt beam="2">  1       -3 0.23982749E+00 0.27517530E+03</pdfrwt>
<totfact> 0.25006943E+02</totfact>
</mgrwt>
</event>
<event>
 5    1  0.1129390E+001  0.2761204E+03  0.7818608E-02  0.1097827E+00
         -1   -1    0    0    0  501 -0.00000000000E+00  0.00000000000E+00  0.85172081685E+02  0.85172081685E+02  0.00000000000E+00 0. -1.
          1   -1    0    0  501    0  0.00000000000E+00 -0.00000000000E+00 -0.22378957954E+03  0.22378957954E+03  0.00000000000E+00 0. -1.
         35    2    1    2    0    0  0.00000000000E+00  0.00000000000E+00 -0.13861749786E+03  0.30896166123E+03  0.27612044002E+03 0.  0.
         25    1    3    3    0    0 -0.13642073552E+02  0.56926217019E+02 -0.30003528206E+02  0.13684630817E+03  0.12000000000E+03 0.  0.
         25    1    3    3    0    0  0.13642073552E+02 -0.56926217019E+02 -0.10861396965E+03  0.17211535306E+03  0.12000000000E+03 0.  0.
<mgrwt>
<rscale>  0 0.27612044E+03</rscale>
<asrwt>0</asrwt>
<pdfrwt beam="1">  1        1 0.34429166E-01 0.27612044E+03</pdfrwt>
<pdfrwt beam="2">  1       -1 0.13103397E-01 0.27612044E+03</pdfrwt>
<totfact> 0.50338701E+03</totfact>
</mgrwt>
</event>
<event>
 5    1  0.1129390E+001  0.2749374E+03  0.7818608E-02  0.1098487E+00
          2   -1    0    0  501    0  0.00000000000E+00  0.00000000000E+00  0.18186493706E+04  0.18186493706E+04  0.00000000000E+00 0. -1.
         -2   -1    0    0    0  501 -0.00000000000E+00 -0.00000000000E+00 -0.10391030312E+02  0.10391030312E+02  0.00000000000E+00 0. -1.
         35    2    1    2    0    0  0.00000000000E+00  0.00000000000E+00  0.18082583402E+04  0.18290404009E+04  0.27493738004E+03 0.  0.
         25    1    3    3    0    0 -0.41355023699E+02 -0.43706583876E+02  0.70710328248E+03  0.71973297518E+03  0.12000000000E+03 0.  0.
         25    1    3    3    0    0  0.41355023699E+02  0.43706583876E+02  0.11011550578E+04  0.11093074257E+04  0.12000000000E+03 0.  0.
<mgrwt>
<rscale>  0 0.27493738E+03</rscale>
<asrwt>0</asrwt>
<pdfrwt beam="1">  1        2 0.27979196E+00 0.27493738E+03</pdfrwt>
<pdfrwt beam="2">  1       -2 0.15986215E-02 0.27493738E+03</pdfrwt>
<totfact> 0.99437266E+03</totfact>
</mgrwt>
</event>
<event>
 5    1  0.1129390E+001  0.2765397E+03  0.7818608E-02  0.1097594E+00
          2   -1    0    0  501    0  0.00000000000E+00  0.00000000000E+00  0.59393499151E+02  0.59393499151E+02  0.00000000000E+00 0.  1.
         -2   -1    0    0    0  501 -0.00000000000E+00 -0.00000000000E+00 -0.32189628359E+03  0.32189628359E+03  0.00000000000E+00 0.  1.
         35    2    1    2    0    0  0.00000000000E+00  0.00000000000E+00 -0.26250278444E+03  0.38128978274E+03  0.27653966548E+03 0.  0.
         25    1    3    3    0    0  0.24667147736E+02  0.11213873729E+02 -0.21828264788E+03  0.25056243435E+03  0.12000000000E+03 0.  0.
         25    1    3    3    0    0 -0.24667147736E+02 -0.11213873729E+02 -0.44220136567E+02  0.13072734840E+03  0.12000000000E+03 0.  0.
<mgrwt>
<rscale>  0 0.27653967E+03</rscale>
<asrwt>0</asrwt>
<pdfrwt beam="1">  1        2 0.91374614E-02 0.27653967E+03</pdfrwt>
<pdfrwt beam="2">  1       -2 0.49522505E-01 0.27653967E+03</pdfrwt>
<totfact> 0.28018383E+03</totfact>
</mgrwt>
</event>
<event>
 5    1  0.1129390E+001  0.2760150E+03  0.7818608E-02  0.1097886E+00
          1   -1    0    0  501    0  0.00000000000E+00  0.00000000000E+00  0.50146772154E+03  0.50146772154E+03  0.00000000000E+00 0.  1.
         -1   -1    0    0    0  501 -0.00000000000E+00 -0.00000000000E+00 -0.37980656999E+02  0.37980656999E+02  0.00000000000E+00 0.  1.
         35    2    1    2    0    0  0.00000000000E+00  0.00000000000E+00  0.46348706454E+03  0.53944837854E+03  0.27601502516E+03 0.  0.
         25    1    3    3    0    0  0.34490199498E+02  0.58243660180E+02  0.24740031511E+03  0.28317629443E+03  0.12000000000E+03 0.  0.
         25    1    3    3    0    0 -0.34490199498E+02 -0.58243660180E+02  0.21608674944E+03  0.25627208411E+03  0.12000000000E+03 0.  0.
<mgrwt>
<rscale>  0 0.27601503E+03</rscale>
<asrwt>0</asrwt>
<pdfrwt beam="1">  1        1 0.77148876E-01 0.27601503E+03</pdfrwt>
<pdfrwt beam="2">  1       -1 0.58431783E-02 0.27601503E+03</pdfrwt>
<totfact> 0.62274185E+03</totfact>
</mgrwt>
</event>
<event>
 5    1  0.1129390E+001  0.2746665E+03  0.7818608E-02  0.1098638E+00
          2   -1    0    0  501    0  0.00000000000E+00  0.00000000000E+00  0.17065002494E+04  0.17065002494E+04  0.00000000000E+00 0.  1.
         -2   -1    0    0    0  501 -0.00000000000E+00 -0.00000000000E+00 -0.11052103149E+02  0.11052103149E+02  0.00000000000E+00 0.  1.
         35    2    1    2    0    0  0.00000000000E+00  0.00000000000E+00  0.16954481462E+04  0.17175523525E+04  0.27466646522E+03 0.  0.
         25    1    3    3    0    0  0.44125828341E+02 -0.49705695220E+02  0.88857250705E+03  0.89909890732E+03  0.12000000000E+03 0.  0.
         25    1    3    3    0    0 -0.44125828341E+02  0.49705695220E+02  0.80687563916E+03  0.81845344518E+03  0.12000000000E+03 0.  0.
<mgrwt>
<rscale>  0 0.27466647E+03</rscale>
<asrwt>0</asrwt>
<pdfrwt beam="1">  1        2 0.26253829E+00 0.27466647E+03</pdfrwt>
<pdfrwt beam="2">  1       -2 0.17003249E-02 0.27466647E+03</pdfrwt>
<totfact> 0.10404704E+04</totfact>
</mgrwt>
</event>
<event>
 5    1  0.1129390E+001  0.2690052E+03  0.7818608E-02  0.1101850E+00
         -2   -1    0    0    0  501 -0.00000000000E+00  0.00000000000E+00  0.63173168056E+01  0.63173168056E+01  0.00000000000E+00 0. -1.
          2   -1    0    0  501    0  0.00000000000E+00 -0.00000000000E+00 -0.28637077095E+04  0.28637077095E+04  0.00000000000E+00 0. -1.
         35    2    1    2    0    0  0.00000000000E+00  0.00000000000E+00 -0.28573903927E+04  0.28700250263E+04  0.26900519578E+03 0.  0.
         25    1    3    3    0    0 -0.14813404283E+02  0.47005488671E+02 -0.10496822960E+04  0.10576681311E+04  0.12000000000E+03 0.  0.
         25    1    3    3    0    0  0.14813404283E+02 -0.47005488671E+02 -0.18077080967E+04  0.18123568952E+04  0.12000000000E+03 0.  0.
<mgrwt>
<rscale>  0 0.26900520E+03</rscale>
<asrwt>0</asrwt>
<pdfrwt beam="1">  1        2 0.44057032E+00 0.26900520E+03</pdfrwt>
<pdfrwt beam="2">  1       -2 0.97189511E-03 0.26900520E+03</pdfrwt>
<totfact> 0.55661407E+03</totfact>
</mgrwt>
</event>
<event>
 5    1  0.1129390E+001  0.2758671E+03  0.7818608E-02  0.1097968E+00
         -4   -1    0    0    0  501 -0.00000000000E+00  0.00000000000E+00  0.98819161789E+01  0.98819161789E+01  0.00000000000E+00 0. -1.
          4   -1    0    0  501    0  0.00000000000E+00 -0.00000000000E+00 -0.19253013335E+04  0.19253013335E+04  0.00000000000E+00 0. -1.
         35    2    1    2    0    0  0.00000000000E+00  0.00000000000E+00 -0.19154194173E+04  0.19351832497E+04  0.27586711581E+03 0.  0.
         25    1    3    3    0    0 -0.66849722294E+02 -0.65583825300E+01 -0.10325324221E+04  0.10416501814E+04  0.12000000000E+03 0.  0.
         25    1    3    3    0    0  0.66849722294E+02  0.65583825300E+01 -0.88288699525E+03  0.89353306830E+03  0.12000000000E+03 0.  0.
<mgrwt>
<rscale>  0 0.27586712E+03</rscale>
<asrwt>0</asrwt>
<pdfrwt beam="1">  1        4 0.29620021E+00 0.27586712E+03</pdfrwt>
<pdfrwt beam="2">  1       -4 0.15202948E-02 0.27586712E+03</pdfrwt>
<totfact> 0.11079666E+02</totfact>
</mgrwt>
</event>
<event>
 5    1  0.1129390E+001  0.2723883E+03  0.7818608E-02  0.1099920E+00
          3   -1    0    0  501    0  0.00000000000E+00  0.00000000000E+00  0.77998980052E+02  0.77998980052E+02  0.00000000000E+00 0.  1.
         -3   -1    0    0    0  501 -0.00000000000E+00 -0.00000000000E+00 -0.23780876747E+03  0.23780876747E+03  0.00000000000E+00 0.  1.
         35    2    1    2    0    0  0.00000000000E+00  0.00000000000E+00 -0.15980978742E+03  0.31580774752E+03  0.27238826194E+03 0.  0.
         25    1    3    3    0    0  0.56232691629E+02 -0.23747331580E+02 -0.10374437034E+03  0.16996748437E+03  0.12000000000E+03 0.  0.
         25    1    3    3    0    0 -0.56232691629E+02  0.23747331580E+02 -0.56065417078E+02  0.14584026315E+03  0.12000000000E+03 0.  0.
<mgrwt>
<rscale>  0 0.27238826E+03</rscale>
<asrwt>0</asrwt>
<pdfrwt beam="1">  1        3 0.11999843E-01 0.27238826E+03</pdfrwt>
<pdfrwt beam="2">  1       -3 0.36585964E-01 0.27238826E+03</pdfrwt>
<totfact> 0.10182277E+03</totfact>
</mgrwt>
</event>
<event>
 4    1  0.1129390E+001  0.2580608E+03  0.7818608E-02  0.1108314E+00
          4   -1    0    0  501    0  0.00000000000E+00  0.00000000000E+00  0.26775405556E+02  0.26775405556E+02  0.00000000000E+00 0. -1.
         -4   -1    0    0    0  501 -0.00000000000E+00 -0.00000000000E+00 -0.62179630582E+03  0.62179630582E+03  0.00000000000E+00 0. -1.
         25    1    1    2    0    0  0.18056938372E+02 -0.43479317521E+02 -0.28321710038E+03  0.31117266915E+03  0.12000000000E+03 0.  0.
         25    1    1    2    0    0 -0.18056938372E+02  0.43479317521E+02 -0.31180379988E+03  0.33739904223E+03  0.12000000000E+03 0.  0.
<mgrwt>
<rscale>  0 0.25806083E+03</rscale>
<asrwt>0</asrwt>
<pdfrwt beam="1">  1        4 0.41192931E-02 0.25806083E+03</pdfrwt>
<pdfrwt beam="2">  1       -4 0.95660971E-01 0.25806083E+03</pdfrwt>
<totfact> 0.57364938E+02</totfact>
</mgrwt>
</event>
<event>
 5    1  0.1129390E+001  0.2808245E+03  0.7818608E-02  0.1095239E+00
          2   -1    0    0  501    0  0.00000000000E+00  0.00000000000E+00  0.23792189999E+03  0.23792189999E+03  0.00000000000E+00 0. -1.
         -2   -1    0    0    0  501 -0.00000000000E+00 -0.00000000000E+00 -0.82865836369E+02  0.82865836369E+02  0.00000000000E+00 0. -1.
         35    2    1    2    0    0  0.00000000000E+00  0.00000000000E+00  0.15505606362E+03  0.32078773636E+03  0.28082448065E+03 0.  0.
         25    1    3    3    0    0  0.44127171440E+02 -0.57921574903E+02  0.81722201744E+02  0.16242116351E+03  0.12000000000E+03 0.  0.
         25    1    3    3    0    0 -0.44127171440E+02  0.57921574903E+02  0.73333861881E+02  0.15836657285E+03  0.12000000000E+03 0.  0.
<mgrwt>
<rscale>  0 0.28082448E+03</rscale>
<asrwt>0</asrwt>
<pdfrwt beam="1">  1        2 0.36603369E-01 0.28082448E+03</pdfrwt>
<pdfrwt beam="2">  1       -2 0.12748590E-01 0.28082448E+03</pdfrwt>
<totfact> 0.62665305E+03</totfact>
</mgrwt>
</event>
<event>
 5    1  0.1129390E+001  0.2739024E+03  0.7818608E-02  0.1099067E+00
         -2   -1    0    0    0  501 -0.00000000000E+00  0.00000000000E+00  0.53580237519E+01  0.53580237519E+01  0.00000000000E+00 0.  1.
          2   -1    0    0  501    0  0.00000000000E+00 -0.00000000000E+00 -0.35004747126E+04  0.35004747126E+04  0.00000000000E+00 0.  1.
         35    2    1    2    0    0  0.00000000000E+00  0.00000000000E+00 -0.34951166888E+04  0.35058327363E+04  0.27390236693E+03 0.  0.
         25    1    3    3    0    0  0.64671207563E+02 -0.51687190670E+01 -0.19025050175E+04  0.19073894260E+04  0.12000000000E+03 0.  0.
         25    1    3    3    0    0 -0.64671207563E+02  0.51687190670E+01 -0.15926116713E+04  0.15984433103E+04  0.12000000000E+03 0.  0.
<mgrwt>
<rscale>  0 0.27390237E+03</rscale>
<asrwt>0</asrwt>
<pdfrwt beam="1">  1        2 0.53853407E+00 0.27390237E+03</pdfrwt>
<pdfrwt beam="2">  1       -2 0.82431211E-03 0.27390237E+03</pdfrwt>
<totfact> 0.28605199E+03</totfact>
</mgrwt>
</event>
<event>
 5    1  0.1129390E+001  0.2726488E+03  0.7818608E-02  0.1099773E+00
         -1   -1    0    0    0  501 -0.00000000000E+00  0.00000000000E+00  0.90087185672E+01  0.90087185672E+01  0.00000000000E+00 0. -1.
          1   -1    0    0  501    0  0.00000000000E+00 -0.00000000000E+00 -0.20629288022E+04  0.20629288022E+04  0.00000000000E+00 0. -1.
         35    2    1    2    0    0  0.00000000000E+00  0.00000000000E+00 -0.20539200836E+04  0.20719375207E+04  0.27264882177E+03 0.  0.
         25    1    3    3    0    0  0.32678517250E+02 -0.35626791912E+02 -0.13535696500E+04  0.13597381921E+04  0.12000000000E+03 0.  0.
         25    1    3    3    0    0 -0.32678517250E+02  0.35626791912E+02 -0.70035043361E+03  0.71219932859E+03  0.12000000000E+03 0.  0.
<mgrwt>
<rscale>  0 0.27264882E+03</rscale>
<asrwt>0</asrwt>
<pdfrwt beam="1">  1        1 0.31737354E+00 0.27264882E+03</pdfrwt>
<pdfrwt beam="2">  1       -1 0.13859572E-02 0.27264882E+03</pdfrwt>
<totfact> 0.35959256E+03</totfact>
</mgrwt>
</event>
<event>
 5    1  0.1129390E+001  0.2745558E+03  0.7818608E-02  0.1098700E+00
         -2   -1    0    0    0  501 -0.00000000000E+00  0.00000000000E+00  0.12745345538E+02  0.12745345538E+02  0.00000000000E+00 0. -1.
          2   -1    0    0  501    0  0.00000000000E+00 -0.00000000000E+00 -0.14785967156E+04  0.14785967156E+04  0.00000000000E+00 0. -1.
         35    2    1    2    0    0  0.00000000000E+00  0.00000000000E+00 -0.14658513700E+04  0.14913420611E+04  0.27455583077E+03 0.  0.
         25    1    3    3    0    0 -0.70903030989E+01 -0.11648483761E+02 -0.37842751175E+03  0.39723209994E+03  0.12000000000E+03 0.  0.
         25    1    3    3    0    0  0.70903030989E+01  0.11648483761E+02 -0.10874238583E+04  0.10941099612E+04  0.12000000000E+03 0.  0.
<mgrwt>
<rscale>  0 0.27455583E+03</rscale>
<asrwt>0</asrwt>
<pdfrwt beam="1">  1        2 0.22747641E+00 0.27455583E+03</pdfrwt>
<pdfrwt beam="2">  1       -2 0.19608224E-02 0.27455583E+03</pdfrwt>
<totfact> 0.11150122E+04</totfact>
</mgrwt>
</event>
<event>
 5    1  0.1129390E+001  0.2783574E+03  0.7818608E-02  0.1096589E+00
          2   -1    0    0  501    0  0.00000000000E+00  0.00000000000E+00  0.87642917532E+03  0.87642917532E+03  0.00000000000E+00 0. -1.
         -2   -1    0    0    0  501 -0.00000000000E+00 -0.00000000000E+00 -0.22101855851E+02  0.22101855851E+02  0.00000000000E+00 0. -1.
         35    2    1    2    0    0  0.00000000000E+00  0.00000000000E+00  0.85432731947E+03  0.89853103117E+03  0.27835740548E+03 0.  0.
         25    1    3    3    0    0 -0.13818224515E+02 -0.34600647566E+02  0.23395471523E+03  0.26556158781E+03  0.12000000000E+03 0.  0.
         25    1    3    3    0    0  0.13818224515E+02  0.34600647566E+02  0.62037260423E+03  0.63296944336E+03  0.12000000000E+03 0.  0.
<mgrwt>
<rscale>  0 0.27835741E+03</rscale>
<asrwt>0</asrwt>
<pdfrwt beam="1">  1        2 0.13483523E+00 0.27835741E+03</pdfrwt>
<pdfrwt beam="2">  1       -2 0.34002862E-02 0.27835741E+03</pdfrwt>
<totfact> 0.11025080E+04</totfact>
</mgrwt>
</event>
<event>
 5    1  0.1129390E+001  0.2747952E+03  0.7818608E-02  0.1098566E+00
          1   -1    0    0  501    0  0.00000000000E+00  0.00000000000E+00  0.42622008459E+04  0.42622008459E+04  0.00000000000E+00 0.  1.
         -1   -1    0    0    0  501 -0.00000000000E+00 -0.00000000000E+00 -0.44291920212E+01  0.44291920212E+01  0.00000000000E+00 0.  1.
         35    2    1    2    0    0  0.00000000000E+00  0.00000000000E+00  0.42577716538E+04  0.42666300379E+04  0.27479523998E+03 0.  0.
         25    1    3    3    0    0 -0.30168713337E+02  0.43160280805E+02  0.14877405858E+04  0.14935009246E+04  0.12000000000E+03 0.  0.
         25    1    3    3    0    0  0.30168713337E+02 -0.43160280805E+02  0.27700310681E+04  0.27731291133E+04  0.12000000000E+03 0.  0.
<mgrwt>
<rscale>  0 0.27479524E+03</rscale>
<asrwt>0</asrwt>
<pdfrwt beam="1">  1        1 0.65571993E+00 0.27479524E+03</pdfrwt>
<pdfrwt beam="2">  1       -1 0.68141757E-03 0.27479524E+03</pdfrwt>
<totfact> 0.24229407E+02</totfact>
</mgrwt>
</event>
<event>
 5    1  0.1129390E+001  0.2742633E+03  0.7818608E-02  0.1098864E+00
         -2   -1    0    0    0  501 -0.00000000000E+00  0.00000000000E+00  0.24718066470E+03  0.24718066470E+03  0.00000000000E+00 0. -1.
          2   -1    0    0  501    0  0.00000000000E+00 -0.00000000000E+00 -0.76078330025E+02  0.76078330025E+02  0.00000000000E+00 0. -1.
         35    2    1    2    0    0  0.00000000000E+00  0.00000000000E+00  0.17110233468E+03  0.32325899473E+03  0.27426332008E+03 0.  0.
         25    1    3    3    0    0  0.40639904356E+02  0.61724679093E+01  0.14696964901E+03  0.19413855597E+03  0.12000000000E+03 0.  0.
         25    1    3    3    0    0 -0.40639904356E+02 -0.61724679093E+01  0.24132685670E+02  0.12912043875E+03  0.12000000000E+03 0.  0.
<mgrwt>
<rscale>  0 0.27426332E+03</rscale>
<asrwt>0</asrwt>
<pdfrwt beam="1">  1        2 0.11704359E-01 0.27426332E+03</pdfrwt>
<pdfrwt beam="2">  1       -2 0.38027794E-01 0.27426332E+03</pdfrwt>
<totfact> 0.34421247E+03</totfact>
</mgrwt>
</event>
<event>
 5    1  0.1129390E+001  0.2752814E+03  0.7818608E-02  0.1098294E+00
          3   -1    0    0  501    0  0.00000000000E+00  0.00000000000E+00  0.11108818262E+03  0.11108818262E+03  0.00000000000E+00 0. -1.
         -3   -1    0    0    0  501 -0.00000000000E+00 -0.00000000000E+00 -0.17053988041E+03  0.17053988041E+03  0.00000000000E+00 0. -1.
         35    2    1    2    0    0  0.00000000000E+00  0.00000000000E+00 -0.59451697790E+02  0.28162806304E+03  0.27528142241E+03 0.  0.
         25    1    3    3    0    0 -0.17530348515E+02 -0.70618571275E+01  0.36479195340E+02  0.12683814347E+03  0.12000000000E+03 0.  0.
         25    1    3    3    0    0  0.17530348515E+02  0.70618571275E+01 -0.95930893130E+02  0.15478991957E+03  0.12000000000E+03 0.  0.
<mgrwt>
<rscale>  0 0.27528142E+03</rscale>
<asrwt>0</asrwt>
<pdfrwt beam="1">  1        3 0.17090490E-01 0.27528142E+03</pdfrwt>
<pdfrwt beam="2">  1       -3 0.26236905E-01 0.27528142E+03</pdfrwt>
<totfact> 0.10355271E+03</totfact>
</mgrwt>
</event>
<event>
 5    1  0.1129390E+001  0.2754011E+03  0.7818608E-02  0.1098228E+00
         -1   -1    0    0    0  501 -0.00000000000E+00  0.00000000000E+00  0.97665813516E+02  0.97665813516E+02  0.00000000000E+00 0.  1.
          1   -1    0    0  501    0  0.00000000000E+00 -0.00000000000E+00 -0.19414618331E+03  0.19414618331E+03  0.00000000000E+00 0.  1.
         35    2    1    2    0    0  0.00000000000E+00  0.00000000000E+00 -0.96480369790E+02  0.29181199682E+03  0.27540112515E+03 0.  0.
         25    1    3    3    0    0  0.23659844897E+01 -0.20744376417E+02  0.19817421375E+02  0.12340444573E+03  0.12000000000E+03 0.  0.
         25    1    3    3    0    0 -0.23659844897E+01  0.20744376417E+02 -0.11629779117E+03  0.16840755109E+03  0.12000000000E+03 0.  0.
<mgrwt>
<rscale>  0 0.27540113E+03</rscale>
<asrwt>0</asrwt>
<pdfrwt beam="1">  1        1 0.29868643E-01 0.27540113E+03</pdfrwt>
<pdfrwt beam="2">  1       -1 0.15025510E-01 0.27540113E+03</pdfrwt>
<totfact> 0.48496247E+03</totfact>
</mgrwt>
</event>
<event>
 5    1  0.1129390E+001  0.2742728E+03  0.7818608E-02  0.1098859E+00
          2   -1    0    0  501    0  0.00000000000E+00  0.00000000000E+00  0.10641746964E+03  0.10641746964E+03  0.00000000000E+00 0.  1.
         -2   -1    0    0    0  501 -0.00000000000E+00 -0.00000000000E+00 -0.17672276264E+03  0.17672276264E+03  0.00000000000E+00 0.  1.
         35    2    1    2    0    0  0.00000000000E+00  0.00000000000E+00 -0.70305293006E+02  0.28314023228E+03  0.27427277829E+03 0.  0.
         25    1    3    3    0    0  0.26133383901E+02  0.22696582542E+02  0.23320492069E+02  0.12705091091E+03  0.12000000000E+03 0.  0.
         25    1    3    3    0    0 -0.26133383901E+02 -0.22696582542E+02 -0.93625785075E+02  0.15608932136E+03  0.12000000000E+03 0.  0.
<mgrwt>
<rscale>  0 0.27427278E+03</rscale>
<asrwt>0</asrwt>
<pdfrwt beam="1">  1        2 0.16371919E-01 0.27427278E+03</pdfrwt>
<pdfrwt beam="2">  1       -2 0.27188117E-01 0.27427278E+03</pdfrwt>
<totfact> 0.42680564E+03</totfact>
</mgrwt>
</event>
<event>
 5    1  0.1129390E+001  0.2748647E+03  0.7818608E-02  0.1098527E+00
         -1   -1    0    0    0  501 -0.00000000000E+00  0.00000000000E+00  0.35924311981E+02  0.35924311981E+02  0.00000000000E+00 0. -1.
          1   -1    0    0  501    0  0.00000000000E+00 -0.00000000000E+00 -0.52576249754E+03  0.52576249754E+03  0.00000000000E+00 0. -1.
         35    2    1    2    0    0  0.00000000000E+00  0.00000000000E+00 -0.48983818555E+03  0.56168680952E+03  0.27486473756E+03 0.  0.
         25    1    3    3    0    0  0.59655718648E+02  0.12335123247E+02 -0.18796817602E+03  0.23117741072E+03  0.12000000000E+03 0.  0.
         25    1    3    3    0    0 -0.59655718648E+02 -0.12335123247E+02 -0.30187000954E+03  0.33050939879E+03  0.12000000000E+03 0.  0.
<mgrwt>
<rscale>  0 0.27486474E+03</rscale>
<asrwt>0</asrwt>
<pdfrwt beam="1">  1        1 0.80886543E-01 0.27486474E+03</pdfrwt>
<pdfrwt beam="2">  1       -1 0.55268169E-02 0.27486474E+03</pdfrwt>
<totfact> 0.63560332E+03</totfact>
</mgrwt>
</event>
<event>
 5    1  0.1129390E+001  0.2749637E+03  0.7818608E-02  0.1098472E+00
         -2   -1    0    0    0  501 -0.00000000000E+00  0.00000000000E+00  0.76354645163E+02  0.76354645163E+02  0.00000000000E+00 0. -1.
          2   -1    0    0  501    0  0.00000000000E+00 -0.00000000000E+00 -0.24754566360E+03  0.24754566360E+03  0.00000000000E+00 0. -1.
         35    2    1    2    0    0  0.00000000000E+00  0.00000000000E+00 -0.17119101844E+03  0.32390030877E+03  0.27496371620E+03 0.  0.
         25    1    3    3    0    0  0.14995302069E+02 -0.16323121319E+02 -0.11001168223E+02  0.12252481004E+03  0.12000000000E+03 0.  0.
         25    1    3    3    0    0 -0.14995302069E+02  0.16323121319E+02 -0.16018985022E+03  0.20137549872E+03  0.12000000000E+03 0.  0.
<mgrwt>
<rscale>  0 0.27496372E+03</rscale>
<asrwt>0</asrwt>
<pdfrwt beam="1">  1        2 0.38083948E-01 0.27496372E+03</pdfrwt>
<pdfrwt beam="2">  1       -2 0.11746869E-01 0.27496372E+03</pdfrwt>
<totfact> 0.68478617E+03</totfact>
</mgrwt>
</event>
<event>
 5    1  0.1129390E+001  0.2749080E+03  0.7818608E-02  0.1098503E+00
         -2   -1    0    0    0  501 -0.00000000000E+00  0.00000000000E+00  0.13485932116E+02  0.13485932116E+02  0.00000000000E+00 0. -1.
          2   -1    0    0  501    0  0.00000000000E+00 -0.00000000000E+00 -0.14009863076E+04  0.14009863076E+04  0.00000000000E+00 0. -1.
         35    2    1    2    0    0  0.00000000000E+00  0.00000000000E+00 -0.13875003755E+04  0.14144722398E+04  0.27490803001E+03 0.  0.
         25    1    3    3    0    0  0.64267861792E+01  0.12941194046E+02 -0.10305514476E+04  0.10376150849E+04  0.12000000000E+03 0.  0.
         25    1    3    3    0    0 -0.64267861792E+01 -0.12941194046E+02 -0.35694892789E+03  0.37685715491E+03  0.12000000000E+03 0.  0.
<mgrwt>
<rscale>  0 0.27490803E+03</rscale>
<asrwt>0</asrwt>
<pdfrwt beam="1">  1        2 0.21553627E+00 0.27490803E+03</pdfrwt>
<pdfrwt beam="2">  1       -2 0.20747596E-02 0.27490803E+03</pdfrwt>
<totfact> 0.11300090E+04</totfact>
</mgrwt>
</event>
<event>
 5    1  0.1129390E+001  0.2748354E+03  0.7818608E-02  0.1098544E+00
          1   -1    0    0  501    0  0.00000000000E+00  0.00000000000E+00  0.13127698490E+04  0.13127698490E+04  0.00000000000E+00 0. -1.
         -1   -1    0    0    0  501 -0.00000000000E+00 -0.00000000000E+00 -0.14384570260E+02  0.14384570260E+02  0.00000000000E+00 0. -1.
         35    2    1    2    0    0  0.00000000000E+00  0.00000000000E+00  0.12983852788E+04  0.13271544193E+04  0.27483544261E+03 0.  0.
         25    1    3    3    0    0  0.27779587403E+02 -0.45491152621E+02  0.84489619795E+03  0.85503844110E+03  0.12000000000E+03 0.  0.
         25    1    3    3    0    0 -0.27779587403E+02  0.45491152621E+02  0.45348908084E+03  0.47211597821E+03  0.12000000000E+03 0.  0.
<mgrwt>
<rscale>  0 0.27483544E+03</rscale>
<asrwt>0</asrwt>
<pdfrwt beam="1">  1        1 0.20196450E+00 0.27483544E+03</pdfrwt>
<pdfrwt beam="2">  1       -1 0.22130118E-02 0.27483544E+03</pdfrwt>
<totfact> 0.56525690E+03</totfact>
</mgrwt>
</event>
<event>
 5    1  0.1129390E+001  0.2823101E+03  0.7818608E-02  0.1094434E+00
          2   -1    0    0  501    0  0.00000000000E+00  0.00000000000E+00  0.14988700625E+04  0.14988700625E+04  0.00000000000E+00 0. -1.
         -2   -1    0    0    0  501 -0.00000000000E+00 -0.00000000000E+00 -0.13293177683E+02  0.13293177683E+02  0.00000000000E+00 0. -1.
         35    2    1    2    0    0  0.00000000000E+00  0.00000000000E+00  0.14855768848E+04  0.15121632402E+04  0.28231008529E+03 0.  0.
         25    1    3    3    0    0  0.66734786708E+02  0.20984509469E+02  0.60825186147E+03  0.62391041695E+03  0.12000000000E+03 0.  0.
         25    1    3    3    0    0 -0.66734786708E+02 -0.20984509469E+02  0.87732502332E+03  0.88825282321E+03  0.12000000000E+03 0.  0.
<mgrwt>
<rscale>  0 0.28231009E+03</rscale>
<asrwt>0</asrwt>
<pdfrwt beam="1">  1        2 0.23059526E+00 0.28231009E+03</pdfrwt>
<pdfrwt beam="2">  1       -2 0.20451054E-02 0.28231009E+03</pdfrwt>
<totfact> 0.10227036E+04</totfact>
</mgrwt>
</event>
<event>
 5    1  0.1129390E+001  0.2753613E+03  0.7818608E-02  0.1098250E+00
          3   -1    0    0  501    0  0.00000000000E+00  0.00000000000E+00  0.18420205698E+03  0.18420205698E+03  0.00000000000E+00 0. -1.
         -3   -1    0    0    0  501 -0.00000000000E+00 -0.00000000000E+00 -0.10290849649E+03  0.10290849649E+03  0.00000000000E+00 0. -1.
         35    2    1    2    0    0  0.00000000000E+00  0.00000000000E+00  0.81293560492E+02  0.28711055346E+03  0.27536126622E+03 0.  0.
         25    1    3    3    0    0 -0.16306504845E+02  0.64183859367E+02  0.27032592869E+02  0.13970050458E+03  0.12000000000E+03 0.  0.
         25    1    3    3    0    0  0.16306504845E+02 -0.64183859367E+02  0.54260967624E+02  0.14741004888E+03  0.12000000000E+03 0.  0.
<mgrwt>
<rscale>  0 0.27536127E+03</rscale>
<asrwt>0</asrwt>
<pdfrwt beam="1">  1        3 0.28338778E-01 0.27536127E+03</pdfrwt>
<pdfrwt beam="2">  1       -3 0.15832076E-01 0.27536127E+03</pdfrwt>
<totfact> 0.10265048E+03</totfact>
</mgrwt>
</event>
<event>
 5    1  0.1129390E+001  0.2768761E+03  0.7818608E-02  0.1097407E+00
         -2   -1    0    0    0  501 -0.00000000000E+00  0.00000000000E+00  0.13614299304E+03  0.13614299304E+03  0.00000000000E+00 0.  1.
          2   -1    0    0  501    0  0.00000000000E+00 -0.00000000000E+00 -0.14077180144E+03  0.14077180144E+03  0.00000000000E+00 0.  1.
         35    2    1    2    0    0  0.00000000000E+00  0.00000000000E+00 -0.46288084023E+01  0.27691479447E+03  0.27687610502E+03 0.  0.
         25    1    3    3    0    0 -0.33099445739E+02 -0.49337539712E+02 -0.37466552254E+02  0.13904498794E+03  0.12000000000E+03 0.  0.
         25    1    3    3    0    0  0.33099445739E+02  0.49337539712E+02  0.32837743851E+02  0.13786980654E+03  0.12000000000E+03 0.  0.
<mgrwt>
<rscale>  0 0.27687611E+03</rscale>
<asrwt>0</asrwt>
<pdfrwt beam="1">  1        2 0.21657200E-01 0.27687611E+03</pdfrwt>
<pdfrwt beam="2">  1       -2 0.20945076E-01 0.27687611E+03</pdfrwt>
<totfact> 0.48843947E+03</totfact>
</mgrwt>
</event>
<event>
 5    1  0.1129390E+001  0.2751400E+03  0.7818608E-02  0.1098373E+00
          2   -1    0    0  501    0  0.00000000000E+00  0.00000000000E+00  0.32120869691E+04  0.32120869691E+04  0.00000000000E+00 0. -1.
         -2   -1    0    0    0  501 -0.00000000000E+00 -0.00000000000E+00 -0.58919659913E+01  0.58919659913E+01  0.00000000000E+00 0. -1.
         35    2    1    2    0    0  0.00000000000E+00  0.00000000000E+00  0.32061950031E+04  0.32179789350E+04  0.27514001659E+03 0.  0.
         25    1    3    3    0    0 -0.23598721874E+02  0.12556460787E+01  0.86644574750E+03  0.87503526196E+03  0.12000000000E+03 0.  0.
         25    1    3    3    0    0  0.23598721874E+02 -0.12556460787E+01  0.23397492556E+04  0.23429436731E+04  0.12000000000E+03 0.  0.
<mgrwt>
<rscale>  0 0.27514002E+03</rscale>
<asrwt>0</asrwt>
<pdfrwt beam="1">  1        2 0.49416583E+00 0.27514002E+03</pdfrwt>
<pdfrwt beam="2">  1       -2 0.90645887E-03 0.27514002E+03</pdfrwt>
<totfact> 0.38117145E+03</totfact>
</mgrwt>
</event>
<event>
 5    1  0.1129390E+001  0.2741545E+03  0.7818608E-02  0.1098925E+00
         -3   -1    0    0    0  501 -0.00000000000E+00  0.00000000000E+00  0.30572717736E+03  0.30572717736E+03  0.00000000000E+00 0.  1.
          3   -1    0    0  501    0  0.00000000000E+00 -0.00000000000E+00 -0.61460588565E+02  0.61460588565E+02  0.00000000000E+00 0.  1.
         35    2    1    2    0    0  0.00000000000E+00  0.00000000000E+00  0.24426658879E+03  0.36718776592E+03  0.27415449849E+03 0.  0.
         25    1    3    3    0    0 -0.23347553448E+02 -0.39130624098E+02  0.57707289259E+02  0.14073537305E+03  0.12000000000E+03 0.  0.
         25    1    3    3    0    0  0.23347553448E+02  0.39130624098E+02  0.18655929953E+03  0.22645239287E+03  0.12000000000E+03 0.  0.
<mgrwt>
<rscale>  0 0.27415450E+03</rscale>
<asrwt>0</asrwt>
<pdfrwt beam="1">  1        3 0.94554753E-02 0.27415450E+03</pdfrwt>
<pdfrwt beam="2">  1       -3 0.47034950E-01 0.27415450E+03</pdfrwt>
<totfact> 0.92929259E+02</totfact>
</mgrwt>
</event>
<event>
 5    1  0.1129390E+001  0.2751076E+03  0.7818608E-02  0.1098391E+00
         -2   -1    0    0    0  501 -0.00000000000E+00  0.00000000000E+00  0.42570937177E+02  0.42570937177E+02  0.00000000000E+00 0.  1.
          2   -1    0    0  501    0  0.00000000000E+00 -0.00000000000E+00 -0.44445933337E+03  0.44445933337E+03  0.00000000000E+00 0.  1.
         35    2    1    2    0    0  0.00000000000E+00  0.00000000000E+00 -0.40188839619E+03  0.48703027054E+03  0.27510761791E+03 0.  0.
         25    1    3    3    0    0  0.55248295514E+02  0.26883901860E+01 -0.13326656916E+03  0.18766880416E+03  0.12000000000E+03 0.  0.
         25    1    3    3    0    0 -0.55248295514E+02 -0.26883901860E+01 -0.26862182703E+03  0.29936146638E+03  0.12000000000E+03 0.  0.
<mgrwt>
<rscale>  0 0.27510762E+03</rscale>
<asrwt>0</asrwt>
<pdfrwt beam="1">  1        2 0.68378358E-01 0.27510762E+03</pdfrwt>
<pdfrwt beam="2">  1       -2 0.65493750E-02 0.27510762E+03</pdfrwt>
<totfact> 0.91244785E+03</totfact>
</mgrwt>
</event>
<event>
 5    1  0.1129390E+001  0.2737648E+03  0.7818608E-02  0.1099144E+00
         -2   -1    0    0    0  501 -0.00000000000E+00  0.00000000000E+00  0.35110996556E+02  0.35110996556E+02  0.00000000000E+00 0.  1.
          2   -1    0    0  501    0  0.00000000000E+00 -0.00000000000E+00 -0.53364436465E+03  0.53364436465E+03  0.00000000000E+00 0.  1.
         35    2    1    2    0    0  0.00000000000E+00  0.00000000000E+00 -0.49853336809E+03  0.56875536120E+03  0.27376475631E+03 0.  0.
         25    1    3    3    0    0  0.50990188898E+02  0.81348707084E+01 -0.33418189631E+03  0.35880874474E+03  0.12000000000E+03 0.  0.
         25    1    3    3    0    0 -0.50990188898E+02 -0.81348707084E+01 -0.16435147178E+03  0.20994661646E+03  0.12000000000E+03 0.  0.
<mgrwt>
<rscale>  0 0.27376476E+03</rscale>
<asrwt>0</asrwt>
<pdfrwt beam="1">  1        2 0.82099127E-01 0.27376476E+03</pdfrwt>
<pdfrwt beam="2">  1       -2 0.54016922E-02 0.27376476E+03</pdfrwt>
<totfact> 0.99982932E+03</totfact>
</mgrwt>
</event>
<event>
 5    1  0.1129390E+001  0.2750898E+03  0.7818608E-02  0.1098401E+00
         -2   -1    0    0    0  501 -0.00000000000E+00  0.00000000000E+00  0.38532677952E+02  0.38532677952E+02  0.00000000000E+00 0.  1.
          2   -1    0    0  501    0  0.00000000000E+00 -0.00000000000E+00 -0.49097552996E+03  0.49097552996E+03  0.00000000000E+00 0.  1.
         35    2    1    2    0    0  0.00000000000E+00  0.00000000000E+00 -0.45244285201E+03  0.52950820791E+03  0.27508981790E+03 0.  0.
         25    1    3    3    0    0  0.50458326579E+02  0.13841963636E+02 -0.14498979412E+03  0.19534503596E+03  0.12000000000E+03 0.  0.
         25    1    3    3    0    0 -0.50458326579E+02 -0.13841963636E+02 -0.30745305790E+03  0.33416317195E+03  0.12000000000E+03 0.  0.
<mgrwt>
<rscale>  0 0.27508982E+03</rscale>
<asrwt>0</asrwt>
<pdfrwt beam="1">  1        2 0.75534693E-01 0.27508982E+03</pdfrwt>
<pdfrwt beam="2">  1       -2 0.59281046E-02 0.27508982E+03</pdfrwt>
<totfact> 0.95259888E+03</totfact>
</mgrwt>
</event>
<event>
 5    1  0.1129390E+001  0.2748634E+03  0.7818608E-02  0.1098528E+00
          1   -1    0    0  501    0  0.00000000000E+00  0.00000000000E+00  0.46947187247E+02  0.46947187247E+02  0.00000000000E+00 0. -1.
         -1   -1    0    0    0  501 -0.00000000000E+00 -0.00000000000E+00 -0.40231328484E+03  0.40231328484E+03  0.00000000000E+00 0. -1.
         35    2    1    2    0    0  0.00000000000E+00  0.00000000000E+00 -0.35536609759E+03  0.44926047208E+03  0.27486343602E+03 0.  0.
         25    1    3    3    0    0  0.57610026452E+02 -0.23628188961E+02 -0.13730526473E+03  0.19269131321E+03  0.12000000000E+03 0.  0.
         25    1    3    3    0    0 -0.57610026452E+02  0.23628188961E+02 -0.21806083285E+03  0.25656915888E+03  0.12000000000E+03 0.  0.
<mgrwt>
<rscale>  0 0.27486344E+03</rscale>
<asrwt>0</asrwt>
<pdfrwt beam="1">  1        1 0.72226440E-02 0.27486344E+03</pdfrwt>
<pdfrwt beam="2">  1       -1 0.61894353E-01 0.27486344E+03</pdfrwt>
<totfact> 0.27289077E+03</totfact>
</mgrwt>
</event>
<event>
 5    1  0.1129390E+001  0.2737465E+03  0.7818608E-02  0.1099154E+00
          2   -1    0    0  501    0  0.00000000000E+00  0.00000000000E+00  0.22589072395E+04  0.22589072395E+04  0.00000000000E+00 0. -1.
         -2   -1    0    0    0  501 -0.00000000000E+00 -0.00000000000E+00 -0.82935177889E+01  0.82935177889E+01  0.00000000000E+00 0. -1.
         35    2    1    2    0    0  0.00000000000E+00  0.00000000000E+00  0.22506137217E+04  0.22672007573E+04  0.27374650591E+03 0.  0.
         25    1    3    3    0    0  0.13776462878E+01  0.49250761593E+02  0.76365684146E+03  0.77459622187E+03  0.12000000000E+03 0.  0.
         25    1    3    3    0    0 -0.13776462878E+01 -0.49250761593E+02  0.14869568803E+04  0.14926045354E+04  0.12000000000E+03 0.  0.
<mgrwt>
<rscale>  0 0.27374651E+03</rscale>
<asrwt>0</asrwt>
<pdfrwt beam="1">  1        2 0.34752370E+00 0.27374651E+03</pdfrwt>
<pdfrwt beam="2">  1       -2 0.12759276E-02 0.27374651E+03</pdfrwt>
<totfact> 0.80959970E+03</totfact>
</mgrwt>
</event>
<event>
 5    1  0.1129390E+001  0.2763925E+03  0.7818608E-02  0.1097676E+00
         -1   -1    0    0    0  501 -0.00000000000E+00  0.00000000000E+00  0.12973211069E+03  0.12973211069E+03  0.00000000000E+00 0.  1.
          1   -1    0    0  501    0  0.00000000000E+00 -0.00000000000E+00 -0.14721264983E+03  0.14721264983E+03  0.00000000000E+00 0.  1.
         35    2    1    2    0    0  0.00000000000E+00  0.00000000000E+00 -0.17480539134E+02  0.27694476052E+03  0.27639253089E+03 0.  0.
         25    1    3    3    0    0 -0.39034296224E+02 -0.30713626455E+02 -0.56070274944E+02  0.14145981360E+03  0.12000000000E+03 0.  0.
         25    1    3    3    0    0  0.39034296224E+02  0.30713626455E+02  0.38589735810E+02  0.13548494692E+03  0.12000000000E+03 0.  0.
<mgrwt>
<rscale>  0 0.27639253E+03</rscale>
<asrwt>0</asrwt>
<pdfrwt beam="1">  1        1 0.22648100E-01 0.27639253E+03</pdfrwt>
<pdfrwt beam="2">  1       -1 0.19958786E-01 0.27639253E+03</pdfrwt>
<totfact> 0.43700662E+03</totfact>
</mgrwt>
</event>
<event>
 5    1  0.1129390E+001  0.2751747E+03  0.7818608E-02  0.1098354E+00
         -2   -1    0    0    0  501 -0.00000000000E+00  0.00000000000E+00  0.23878589836E+02  0.23878589836E+02  0.00000000000E+00 0. -1.
          2   -1    0    0  501    0  0.00000000000E+00 -0.00000000000E+00 -0.79277203192E+03  0.79277203192E+03  0.00000000000E+00 0. -1.
         35    2    1    2    0    0  0.00000000000E+00  0.00000000000E+00 -0.76889344208E+03  0.81665062176E+03  0.27517469494E+03 0.  0.
         25    1    3    3    0    0  0.14337119026E+02 -0.37704493821E+02 -0.22454301549E+03  0.25777266660E+03  0.12000000000E+03 0.  0.
         25    1    3    3    0    0 -0.14337119026E+02  0.37704493821E+02 -0.54435042659E+03  0.55887795516E+03  0.12000000000E+03 0.  0.
<mgrwt>
<rscale>  0 0.27517469E+03</rscale>
<asrwt>0</asrwt>
<pdfrwt beam="1">  1        2 0.12196490E+00 0.27517469E+03</pdfrwt>
<pdfrwt beam="2">  1       -2 0.36736301E-02 0.27517469E+03</pdfrwt>
<totfact> 0.11177919E+04</totfact>
</mgrwt>
</event>
<event>
 5    1  0.1129390E+001  0.2754026E+03  0.7818608E-02  0.1098227E+00
         -1   -1    0    0    0  501 -0.00000000000E+00  0.00000000000E+00  0.60709138001E+02  0.60709138001E+02  0.00000000000E+00 0.  1.
          1   -1    0    0  501    0  0.00000000000E+00 -0.00000000000E+00 -0.31233591030E+03  0.31233591030E+03  0.00000000000E+00 0.  1.
         35    2    1    2    0    0  0.00000000000E+00  0.00000000000E+00 -0.25162677229E+03  0.37304504830E+03  0.27540256993E+03 0.  0.
         25    1    3    3    0    0  0.28882703666E+01 -0.61296723363E+02 -0.16403011423E+03  0.21230051525E+03  0.12000000000E+03 0.  0.
         25    1    3    3    0    0 -0.28882703666E+01  0.61296723363E+02 -0.87596658064E+02  0.16074453305E+03  0.12000000000E+03 0.  0.
<mgrwt>
<rscale>  0 0.27540257E+03</rscale>
<asrwt>0</asrwt>
<pdfrwt beam="1">  1        1 0.48051679E-01 0.27540257E+03</pdfrwt>
<pdfrwt beam="2">  1       -1 0.93398673E-02 0.27540257E+03</pdfrwt>
<totfact> 0.56057202E+03</totfact>
</mgrwt>
</event>
<event>
 5    1  0.1129390E+001  0.2748149E+03  0.7818608E-02  0.1098555E+00
          1   -1    0    0  501    0  0.00000000000E+00  0.00000000000E+00  0.79661398699E+02  0.79661398699E+02  0.00000000000E+00 0. -1.
         -1   -1    0    0    0  501 -0.00000000000E+00 -0.00000000000E+00 -0.23701333089E+03  0.23701333089E+03  0.00000000000E+00 0. -1.
         35    2    1    2    0    0  0.00000000000E+00  0.00000000000E+00 -0.15735193220E+03  0.31667472959E+03  0.27481494464E+03 0.  0.
         25    1    3    3    0    0 -0.64429880464E+01 -0.61868407864E+02 -0.50178429519E+02  0.14417727552E+03  0.12000000000E+03 0.  0.
         25    1    3    3    0    0  0.64429880464E+01  0.61868407864E+02 -0.10717350268E+03  0.17249745408E+03  0.12000000000E+03 0.  0.
<mgrwt>
<rscale>  0 0.27481494E+03</rscale>
<asrwt>0</asrwt>
<pdfrwt beam="1">  1        1 0.12255600E-01 0.27481494E+03</pdfrwt>
<pdfrwt beam="2">  1       -1 0.36463589E-01 0.27481494E+03</pdfrwt>
<totfact> 0.35322891E+03</totfact>
</mgrwt>
</event>
<event>
 5    1  0.1129390E+001  0.2749511E+03  0.7818608E-02  0.1098479E+00
         -2   -1    0    0    0  501 -0.00000000000E+00  0.00000000000E+00  0.25149160919E+02  0.25149160919E+02  0.00000000000E+00 0. -1.
          2   -1    0    0  501    0  0.00000000000E+00 -0.00000000000E+00 -0.75149728841E+03  0.75149728841E+03  0.00000000000E+00 0. -1.
         35    2    1    2    0    0  0.00000000000E+00  0.00000000000E+00 -0.72634812749E+03  0.77664644933E+03  0.27495109555E+03 0.  0.
         25    1    3    3    0    0 -0.40922431610E+02  0.49472128953E+02 -0.41804756719E+03  0.43964292942E+03  0.12000000000E+03 0.  0.
         25    1    3    3    0    0  0.40922431610E+02 -0.49472128953E+02 -0.30830056030E+03  0.33700351991E+03  0.12000000000E+03 0.  0.
<mgrwt>
<rscale>  0 0.27495110E+03</rscale>
<asrwt>0</asrwt>
<pdfrwt beam="1">  1        2 0.11561496E+00 0.27495110E+03</pdfrwt>
<pdfrwt beam="2">  1       -2 0.38691019E-02 0.27495110E+03</pdfrwt>
<totfact> 0.11059049E+04</totfact>
</mgrwt>
</event>
<event>
 5    1  0.1129390E+001  0.2748300E+03  0.7818608E-02  0.1098547E+00
         -2   -1    0    0    0  501 -0.00000000000E+00  0.00000000000E+00  0.19628141133E+02  0.19628141133E+02  0.00000000000E+00 0. -1.
          2   -1    0    0  501    0  0.00000000000E+00 -0.00000000000E+00 -0.96203096912E+03  0.96203096912E+03  0.00000000000E+00 0. -1.
         35    2    1    2    0    0  0.00000000000E+00  0.00000000000E+00 -0.94240282799E+03  0.98165911026E+03  0.27482998116E+03 0.  0.
         25    1    3    3    0    0  0.56084108573E+02  0.36261292229E+02 -0.45423176603E+03  0.47453851879E+03  0.12000000000E+03 0.  0.
         25    1    3    3    0    0 -0.56084108573E+02 -0.36261292229E+02 -0.48817106196E+03  0.50712059146E+03  0.12000000000E+03 0.  0.
<mgrwt>
<rscale>  0 0.27482998E+03</rscale>
<asrwt>0</asrwt>
<pdfrwt beam="1">  1        2 0.14800479E+00 0.27482998E+03</pdfrwt>
<pdfrwt beam="2">  1       -2 0.30197134E-02 0.27482998E+03</pdfrwt>
<totfact> 0.11598049E+04</totfact>
</mgrwt>
</event>
<event>
 5    1  0.1129390E+001  0.2752609E+03  0.7818608E-02  0.1098306E+00
          2   -1    0    0  501    0  0.00000000000E+00  0.00000000000E+00  0.33662004149E+03  0.33662004149E+03  0.00000000000E+00 0. -1.
         -2   -1    0    0    0  501 -0.00000000000E+00 -0.00000000000E+00 -0.56271596509E+02  0.56271596509E+02  0.00000000000E+00 0. -1.
         35    2    1    2    0    0  0.00000000000E+00  0.00000000000E+00  0.28034844498E+03  0.39289163799E+03  0.27526094639E+03 0.  0.
         25    1    3    3    0    0 -0.19148535576E+02 -0.36045908410E+02  0.63625894962E+02  0.14182463974E+03  0.12000000000E+03 0.  0.
         25    1    3    3    0    0  0.19148535576E+02  0.36045908410E+02  0.21672255001E+03  0.25106699825E+03  0.12000000000E+03 0.  0.
<mgrwt>
<rscale>  0 0.27526095E+03</rscale>
<asrwt>0</asrwt>
<pdfrwt beam="1">  1        2 0.51787698E-01 0.27526095E+03</pdfrwt>
<pdfrwt beam="2">  1       -2 0.86571689E-02 0.27526095E+03</pdfrwt>
<totfact> 0.79929358E+03</totfact>
</mgrwt>
</event>
<event>
 5    1  0.1129390E+001  0.2762212E+03  0.7818608E-02  0.1097771E+00
         -1   -1    0    0    0  501 -0.00000000000E+00  0.00000000000E+00  0.12417003024E+02  0.12417003024E+02  0.00000000000E+00 0. -1.
          1   -1    0    0  501    0  0.00000000000E+00 -0.00000000000E+00 -0.15361626781E+04  0.15361626781E+04  0.00000000000E+00 0. -1.
         35    2    1    2    0    0  0.00000000000E+00  0.00000000000E+00 -0.15237456750E+04  0.15485796811E+04  0.27622119121E+03 0.  0.
         25    1    3    3    0    0  0.13661900428E+02 -0.47967214542E+02 -0.49968987195E+03  0.51631140732E+03  0.12000000000E+03 0.  0.
         25    1    3    3    0    0 -0.13661900428E+02  0.47967214542E+02 -0.10240558031E+04  0.10322682738E+04  0.12000000000E+03 0.  0.
<mgrwt>
<rscale>  0 0.27622119E+03</rscale>
<asrwt>0</asrwt>
<pdfrwt beam="1">  1        1 0.23633275E+00 0.27622119E+03</pdfrwt>
<pdfrwt beam="2">  1       -1 0.19103079E-02 0.27622119E+03</pdfrwt>
<totfact> 0.49666562E+03</totfact>
</mgrwt>
</event>
<event>
 5    1  0.1129390E+001  0.2718158E+03  0.7818608E-02  0.1100245E+00
          2   -1    0    0  501    0  0.00000000000E+00  0.00000000000E+00  0.22896808820E+03  0.22896808820E+03  0.00000000000E+00 0. -1.
         -2   -1    0    0    0  501 -0.00000000000E+00 -0.00000000000E+00 -0.80670453785E+02  0.80670453785E+02  0.00000000000E+00 0. -1.
         35    2    1    2    0    0  0.00000000000E+00  0.00000000000E+00  0.14829763441E+03  0.30963854198E+03  0.27181581688E+03 0.  0.
         25    1    3    3    0    0  0.19923551288E+02  0.44663209531E+02  0.12082901816E+03  0.17717618861E+03  0.12000000000E+03 0.  0.
         25    1    3    3    0    0 -0.19923551288E+02 -0.44663209531E+02  0.27468616253E+02  0.13246235337E+03  0.12000000000E+03 0.  0.
<mgrwt>
<rscale>  0 0.27181582E+03</rscale>
<asrwt>0</asrwt>
<pdfrwt beam="1">  1        2 0.35225859E-01 0.27181582E+03</pdfrwt>
<pdfrwt beam="2">  1       -2 0.12410839E-01 0.27181582E+03</pdfrwt>
<totfact> 0.68153321E+03</totfact>
</mgrwt>
</event>
<event>
 5    1  0.1129390E+001  0.2754415E+03  0.7818608E-02  0.1098205E+00
         -2   -1    0    0    0  501 -0.00000000000E+00  0.00000000000E+00  0.15292441363E+02  0.15292441363E+02  0.00000000000E+00 0.  1.
          2   -1    0    0  501    0  0.00000000000E+00 -0.00000000000E+00 -0.12402858570E+04  0.12402858570E+04  0.00000000000E+00 0.  1.
         35    2    1    2    0    0  0.00000000000E+00  0.00000000000E+00 -0.12249934157E+04  0.12555782984E+04  0.27544145470E+03 0.  0.
         25    1    3    3    0    0  0.16490354733E+02 -0.35029110307E+02 -0.86498670834E+03  0.87412869531E+03  0.12000000000E+03 0.  0.
         25    1    3    3    0    0 -0.16490354733E+02  0.35029110307E+02 -0.36000670735E+03  0.38144960310E+03  0.12000000000E+03 0.  0.
<mgrwt>
<rscale>  0 0.27544145E+03</rscale>
<asrwt>0</asrwt>
<pdfrwt beam="1">  1        2 0.19081320E+00 0.27544145E+03</pdfrwt>
<pdfrwt beam="2">  1       -2 0.23526835E-02 0.27544145E+03</pdfrwt>
<totfact> 0.11514158E+04</totfact>
</mgrwt>
</event>
<event>
 5    1  0.1129390E+001  0.2748509E+03  0.7818608E-02  0.1098535E+00
         -1   -1    0    0    0  501 -0.00000000000E+00  0.00000000000E+00  0.42065788191E+02  0.42065788191E+02  0.00000000000E+00 0. -1.
          1   -1    0    0  501    0  0.00000000000E+00 -0.00000000000E+00 -0.44895765699E+03  0.44895765699E+03  0.00000000000E+00 0. -1.
         35    2    1    2    0    0  0.00000000000E+00  0.00000000000E+00 -0.40689186880E+03  0.49102344518E+03  0.27485092472E+03 0.  0.
         25    1    3    3    0    0  0.57768329728E+02  0.27461485581E+02 -0.23892711251E+03  0.27491358316E+03  0.12000000000E+03 0.  0.
         25    1    3    3    0    0 -0.57768329728E+02 -0.27461485581E+02 -0.16796475628E+03  0.21610986202E+03  0.12000000000E+03 0.  0.
<mgrwt>
<rscale>  0 0.27485092E+03</rscale>
<asrwt>0</asrwt>
<pdfrwt beam="1">  1        1 0.69070411E-01 0.27485092E+03</pdfrwt>
<pdfrwt beam="2">  1       -1 0.64716595E-02 0.27485092E+03</pdfrwt>
<totfact> 0.61725986E+03</totfact>
</mgrwt>
</event>
<event>
 5    1  0.1129390E+001  0.2748218E+03  0.7818608E-02  0.1098551E+00
          2   -1    0    0  501    0  0.00000000000E+00  0.00000000000E+00  0.20186907005E+02  0.20186907005E+02  0.00000000000E+00 0.  1.
         -2   -1    0    0    0  501 -0.00000000000E+00 -0.00000000000E+00 -0.93534666802E+03  0.93534666802E+03  0.00000000000E+00 0.  1.
         35    2    1    2    0    0  0.00000000000E+00  0.00000000000E+00 -0.91515976102E+03  0.95553357503E+03  0.27482180558E+03 0.  0.
         25    1    3    3    0    0  0.58328772736E+02  0.12874645967E+02 -0.35247826274E+03  0.37710599033E+03  0.12000000000E+03 0.  0.
         25    1    3    3    0    0 -0.58328772736E+02 -0.12874645967E+02 -0.56268149828E+03  0.57842758470E+03  0.12000000000E+03 0.  0.
<mgrwt>
<rscale>  0 0.27482181E+03</rscale>
<asrwt>0</asrwt>
<pdfrwt beam="1">  1        2 0.31056774E-02 0.27482181E+03</pdfrwt>
<pdfrwt beam="2">  1       -2 0.14389952E+00 0.27482181E+03</pdfrwt>
<totfact> 0.10546846E+03</totfact>
</mgrwt>
</event>
<event>
 5    1  0.1129390E+001  0.2694011E+03  0.7818608E-02  0.1101623E+00
         -3   -1    0    0    0  501 -0.00000000000E+00  0.00000000000E+00  0.87351996912E+03  0.87351996912E+03  0.00000000000E+00 0.  1.
          3   -1    0    0  501    0  0.00000000000E+00 -0.00000000000E+00 -0.20771408040E+02  0.20771408040E+02  0.00000000000E+00 0.  1.
         35    2    1    2    0    0  0.00000000000E+00  0.00000000000E+00  0.85274856108E+03  0.89429137716E+03  0.26940111143E+03 0.  0.
         25    1    3    3    0    0  0.25582503259E+02 -0.33676536858E+02  0.57317460457E+03  0.58712664812E+03  0.12000000000E+03 0.  0.
         25    1    3    3    0    0 -0.25582503259E+02  0.33676536858E+02  0.27957395651E+03  0.30716472904E+03  0.12000000000E+03 0.  0.
<mgrwt>
<rscale>  0 0.26940111E+03</rscale>
<asrwt>0</asrwt>
<pdfrwt beam="1">  1        3 0.31956019E-02 0.26940111E+03</pdfrwt>
<pdfrwt beam="2">  1       -3 0.13438766E+00 0.26940111E+03</pdfrwt>
<totfact> 0.52538788E+02</totfact>
</mgrwt>
</event>
<event>
 5    1  0.1129390E+001  0.2748572E+03  0.7818608E-02  0.1098531E+00
         -2   -1    0    0    0  501 -0.00000000000E+00  0.00000000000E+00  0.78659858331E+02  0.78659858331E+02  0.00000000000E+00 0.  1.
          2   -1    0    0  501    0  0.00000000000E+00 -0.00000000000E+00 -0.24010491402E+03  0.24010491402E+03  0.00000000000E+00 0.  1.
         35    2    1    2    0    0  0.00000000000E+00  0.00000000000E+00 -0.16144505569E+03  0.31876477235E+03  0.27485718853E+03 0.  0.
         25    1    3    3    0    0 -0.22245134830E+02 -0.38160794117E+02 -0.22324621220E+02  0.12980555051E+03  0.12000000000E+03 0.  0.
         25    1    3    3    0    0  0.22245134830E+02  0.38160794117E+02 -0.13912043447E+03  0.18895922184E+03  0.12000000000E+03 0.  0.
<mgrwt>
<rscale>  0 0.27485719E+03</rscale>
<asrwt>0</asrwt>
<pdfrwt beam="1">  1        2 0.36939218E-01 0.27485719E+03</pdfrwt>
<pdfrwt beam="2">  1       -2 0.12101517E-01 0.27485719E+03</pdfrwt>
<totfact> 0.67459680E+03</totfact>
</mgrwt>
</event>
<event>
 5    1  0.1129390E+001  0.2741083E+03  0.7818608E-02  0.1098951E+00
          1   -1    0    0  501    0  0.00000000000E+00  0.00000000000E+00  0.10681810589E+03  0.10681810589E+03  0.00000000000E+00 0. -1.
         -1   -1    0    0    0  501 -0.00000000000E+00 -0.00000000000E+00 -0.17584878543E+03  0.17584878543E+03  0.00000000000E+00 0. -1.
         35    2    1    2    0    0  0.00000000000E+00  0.00000000000E+00 -0.69030679544E+02  0.28266689133E+03  0.27410825732E+03 0.  0.
         25    1    3    3    0    0  0.48283678719E+02  0.44010692102E+02 -0.23428869612E+02  0.13862599533E+03  0.12000000000E+03 0.  0.
         25    1    3    3    0    0 -0.48283678719E+02 -0.44010692102E+02 -0.45601809932E+02  0.14404089600E+03  0.12000000000E+03 0.  0.
<mgrwt>
<rscale>  0 0.27410826E+03</rscale>
<asrwt>0</asrwt>
<pdfrwt beam="1">  1        1 0.16433555E-01 0.27410826E+03</pdfrwt>
<pdfrwt beam="2">  1       -1 0.27053659E-01 0.27410826E+03</pdfrwt>
<totfact> 0.40018418E+03</totfact>
</mgrwt>
</event>
<event>
 5    1  0.1129390E+001  0.2723066E+03  0.7818608E-02  0.1099967E+00
          1   -1    0    0  501    0  0.00000000000E+00  0.00000000000E+00  0.32325407844E+02  0.32325407844E+02  0.00000000000E+00 0. -1.
         -1   -1    0    0    0  501 -0.00000000000E+00 -0.00000000000E+00 -0.57347226724E+03  0.57347226724E+03  0.00000000000E+00 0. -1.
         35    2    1    2    0    0  0.00000000000E+00  0.00000000000E+00 -0.54114685940E+03  0.60579767509E+03  0.27230662809E+03 0.  0.
         25    1    3    3    0    0  0.30018720229E+02  0.14759239210E+02 -0.39280520813E+03  0.41208602286E+03  0.12000000000E+03 0.  0.
         25    1    3    3    0    0 -0.30018720229E+02 -0.14759239210E+02 -0.14834165127E+03  0.19371165223E+03  0.12000000000E+03 0.  0.
<mgrwt>
<rscale>  0 0.27230663E+03</rscale>
<asrwt>0</asrwt>
<pdfrwt beam="1">  1        1 0.49731397E-02 0.27230663E+03</pdfrwt>
<pdfrwt beam="2">  1       -1 0.88226502E-01 0.27230663E+03</pdfrwt>
<totfact> 0.22200267E+03</totfact>
</mgrwt>
</event>
<event>
 5    1  0.1129390E+001  0.2743349E+03  0.7818608E-02  0.1098824E+00
         -1   -1    0    0    0  501 -0.00000000000E+00  0.00000000000E+00  0.65153680498E+02  0.65153680498E+02  0.00000000000E+00 0. -1.
          1   -1    0    0  501    0  0.00000000000E+00 -0.00000000000E+00 -0.28877731849E+03  0.28877731849E+03  0.00000000000E+00 0. -1.
         35    2    1    2    0    0  0.00000000000E+00  0.00000000000E+00 -0.22362363799E+03  0.35393099899E+03  0.27433486941E+03 0.  0.
         25    1    3    3    0    0 -0.21245941912E+02  0.19814787816E+02 -0.18890674252E+03  0.22567625757E+03  0.12000000000E+03 0.  0.
         25    1    3    3    0    0  0.21245941912E+02 -0.19814787816E+02 -0.34716895476E+02  0.12825474141E+03  0.12000000000E+03 0.  0.
<mgrwt>
<rscale>  0 0.27433487E+03</rscale>
<asrwt>0</asrwt>
<pdfrwt beam="1">  1        1 0.44427280E-01 0.27433487E+03</pdfrwt>
<pdfrwt beam="2">  1       -1 0.10023643E-01 0.27433487E+03</pdfrwt>
<totfact> 0.55472613E+03</totfact>
</mgrwt>
</event>
<event>
 5    1  0.1129390E+001  0.2747898E+03  0.7818608E-02  0.1098569E+00
         -2   -1    0    0    0  501 -0.00000000000E+00  0.00000000000E+00  0.20831390280E+03  0.20831390280E+03  0.00000000000E+00 0. -1.
          2   -1    0    0  501    0  0.00000000000E+00 -0.00000000000E+00 -0.90619769055E+02  0.90619769055E+02  0.00000000000E+00 0. -1.
         35    2    1    2    0    0  0.00000000000E+00  0.00000000000E+00  0.11769413374E+03  0.29893367185E+03  0.27478979430E+03 0.  0.
         25    1    3    3    0    0 -0.22579979888E+01  0.65582870408E+02  0.73078807364E+02  0.15507006007E+03  0.12000000000E+03 0.  0.
         25    1    3    3    0    0  0.22579979888E+01 -0.65582870408E+02  0.44615326377E+02  0.14386361178E+03  0.12000000000E+03 0.  0.
<mgrwt>
<rscale>  0 0.27478979E+03</rscale>
<asrwt>0</asrwt>
<pdfrwt beam="1">  1        2 0.13941503E-01 0.27478979E+03</pdfrwt>
<pdfrwt beam="2">  1       -2 0.32048293E-01 0.27478979E+03</pdfrwt>
<totfact> 0.38328714E+03</totfact>
</mgrwt>
</event>
<event>
 5    1  0.1129390E+001  0.2747954E+03  0.7818608E-02  0.1098566E+00
         -2   -1    0    0    0  501 -0.00000000000E+00  0.00000000000E+00  0.99933568535E+02  0.99933568535E+02  0.00000000000E+00 0.  1.
          2   -1    0    0  501    0  0.00000000000E+00 -0.00000000000E+00 -0.18890671494E+03  0.18890671494E+03  0.00000000000E+00 0.  1.
         35    2    1    2    0    0  0.00000000000E+00  0.00000000000E+00 -0.88973146410E+02  0.28884028348E+03  0.27479535764E+03 0.  0.
         25    1    3    3    0    0 -0.62540708907E+02  0.62445807401E+01 -0.20338763174E+02  0.13698175187E+03  0.12000000000E+03 0.  0.
         25    1    3    3    0    0  0.62540708907E+02 -0.62445807401E+01 -0.68634383235E+02  0.15185853161E+03  0.12000000000E+03 0.  0.
<mgrwt>
<rscale>  0 0.27479536E+03</rscale>
<asrwt>0</asrwt>
<pdfrwt beam="1">  1        2 0.29062571E-01 0.27479536E+03</pdfrwt>
<pdfrwt beam="2">  1       -2 0.15374395E-01 0.27479536E+03</pdfrwt>
<totfact> 0.59236665E+03</totfact>
</mgrwt>
</event>
<event>
 5    1  0.1129390E+001  0.2748514E+03  0.7818608E-02  0.1098535E+00
         -3   -1    0    0    0  501 -0.00000000000E+00  0.00000000000E+00  0.17475654807E+02  0.17475654807E+02  0.00000000000E+00 0. -1.
          3   -1    0    0  501    0  0.00000000000E+00 -0.00000000000E+00 -0.10806934371E+04  0.10806934371E+04  0.00000000000E+00 0. -1.
         35    2    1    2    0    0  0.00000000000E+00  0.00000000000E+00 -0.10632177823E+04  0.10981690919E+04  0.27485141775E+03 0.  0.
         25    1    3    3    0    0  0.38456163242E+02  0.29297237899E+02 -0.34640456607E+03  0.36977469901E+03  0.12000000000E+03 0.  0.
         25    1    3    3    0    0 -0.38456163242E+02 -0.29297237899E+02 -0.71681321627E+03  0.72839439293E+03  0.12000000000E+03 0.  0.
<mgrwt>
<rscale>  0 0.27485142E+03</rscale>
<asrwt>0</asrwt>
<pdfrwt beam="1">  1        3 0.16626056E+00 0.27485142E+03</pdfrwt>
<pdfrwt beam="2">  1       -3 0.26885619E-02 0.27485142E+03</pdfrwt>
<totfact> 0.40385550E+02</totfact>
</mgrwt>
</event>
<event>
 5    1  0.1129390E+001  0.2749708E+03  0.7818608E-02  0.1098468E+00
          2   -1    0    0  501    0  0.00000000000E+00  0.00000000000E+00  0.27411404276E+03  0.27411404276E+03  0.00000000000E+00 0. -1.
         -2   -1    0    0    0  501 -0.00000000000E+00 -0.00000000000E+00 -0.68957577260E+02  0.68957577260E+02  0.00000000000E+00 0. -1.
         35    2    1    2    0    0  0.00000000000E+00  0.00000000000E+00  0.20515646550E+03  0.34307162002E+03  0.27497083686E+03 0.  0.
         25    1    3    3    0    0 -0.45221875247E+02 -0.44284826782E+02  0.74789263373E+02  0.15491803575E+03  0.12000000000E+03 0.  0.
         25    1    3    3    0    0  0.45221875247E+02  0.44284826782E+02  0.13036720212E+03  0.18815358427E+03  0.12000000000E+03 0.  0.
<mgrwt>
<rscale>  0 0.27497084E+03</rscale>
<asrwt>0</asrwt>
<pdfrwt beam="1">  1        2 0.42171391E-01 0.27497084E+03</pdfrwt>
<pdfrwt beam="2">  1       -2 0.10608858E-01 0.27497084E+03</pdfrwt>
<totfact> 0.72245565E+03</totfact>
</mgrwt>
</event>
<event>
 5    1  0.1129390E+001  0.2691219E+03  0.7818608E-02  0.1101783E+00
         -1   -1    0    0    0  501 -0.00000000000E+00  0.00000000000E+00  0.27430677389E+02  0.27430677389E+02  0.00000000000E+00 0.  1.
          1   -1    0    0  501    0  0.00000000000E+00 -0.00000000000E+00 -0.66008734228E+03  0.66008734228E+03  0.00000000000E+00 0.  1.
         35    2    1    2    0    0  0.00000000000E+00  0.00000000000E+00 -0.63265666489E+03  0.68751801967E+03  0.26912185295E+03 0.  0.
         25    1    3    3    0    0  0.43876107367E+02  0.28118210265E+02 -0.23591107760E+03  0.26975874978E+03  0.12000000000E+03 0.  0.
         25    1    3    3    0    0 -0.43876107367E+02 -0.28118210265E+02 -0.39674558729E+03  0.41775926989E+03  0.12000000000E+03 0.  0.
<mgrwt>
<rscale>  0 0.26912185E+03</rscale>
<asrwt>0</asrwt>
<pdfrwt beam="1">  1        1 0.10155189E+00 0.26912185E+03</pdfrwt>
<pdfrwt beam="2">  1       -1 0.42201045E-02 0.26912185E+03</pdfrwt>
<totfact> 0.69428118E+03</totfact>
</mgrwt>
</event>
<event>
 5    1  0.1129390E+001  0.2747381E+03  0.7818608E-02  0.1098598E+00
          1   -1    0    0  501    0  0.00000000000E+00  0.00000000000E+00  0.87188156441E+03  0.87188156441E+03  0.00000000000E+00 0.  1.
         -1   -1    0    0    0  501 -0.00000000000E+00 -0.00000000000E+00 -0.21643140956E+02  0.21643140956E+02  0.00000000000E+00 0.  1.
         35    2    1    2    0    0  0.00000000000E+00  0.00000000000E+00  0.85023842346E+03  0.89352470537E+03  0.27473809780E+03 0.  0.
         25    1    3    3    0    0 -0.23800088893E+00 -0.17326502753E+02  0.63513659835E+03  0.64660556981E+03  0.12000000000E+03 0.  0.
         25    1    3    3    0    0  0.23800088893E+00  0.17326502753E+02  0.21510182511E+03  0.24691913556E+03  0.12000000000E+03 0.  0.
<mgrwt>
<rscale>  0 0.27473810E+03</rscale>
<asrwt>0</asrwt>
<pdfrwt beam="1">  1        1 0.13413560E+00 0.27473810E+03</pdfrwt>
<pdfrwt beam="2">  1       -1 0.33297147E-02 0.27473810E+03</pdfrwt>
<totfact> 0.64892190E+03</totfact>
</mgrwt>
</event>
<event>
 5    1  0.1129390E+001  0.2738905E+03  0.7818608E-02  0.1099073E+00
         -1   -1    0    0    0  501 -0.00000000000E+00  0.00000000000E+00  0.56727011826E+02  0.56727011826E+02  0.00000000000E+00 0. -1.
          1   -1    0    0  501    0  0.00000000000E+00 -0.00000000000E+00 -0.33060101849E+03  0.33060101849E+03  0.00000000000E+00 0. -1.
         35    2    1    2    0    0  0.00000000000E+00  0.00000000000E+00 -0.27387400666E+03  0.38732803031E+03  0.27389054665E+03 0.  0.
         25    1    3    3    0    0  0.29842199987E+02  0.39811196652E+02 -0.75644162510E+02  0.15032474048E+03  0.12000000000E+03 0.  0.
         25    1    3    3    0    0 -0.29842199987E+02 -0.39811196652E+02 -0.19822984415E+03  0.23700328983E+03  0.12000000000E+03 0.  0.
<mgrwt>
<rscale>  0 0.27389055E+03</rscale>
<asrwt>0</asrwt>
<pdfrwt beam="1">  1        1 0.50861696E-01 0.27389055E+03</pdfrwt>
<pdfrwt beam="2">  1       -1 0.87272325E-02 0.27389055E+03</pdfrwt>
<totfact> 0.57903010E+03</totfact>
</mgrwt>
</event>
<event>
 5    1  0.1129390E+001  0.2776498E+03  0.7818608E-02  0.1096980E+00
          1   -1    0    0  501    0  0.00000000000E+00  0.00000000000E+00  0.23700858109E+03  0.23700858109E+03  0.00000000000E+00 0. -1.
         -1   -1    0    0    0  501 -0.00000000000E+00 -0.00000000000E+00 -0.81314982158E+02  0.81314982158E+02  0.00000000000E+00 0. -1.
         35    2    1    2    0    0  0.00000000000E+00  0.00000000000E+00  0.15569359893E+03  0.31832356325E+03  0.27764976890E+03 0.  0.
         25    1    3    3    0    0 -0.22474215119E+02 -0.64675835123E+02  0.93411032175E+02  0.16677432334E+03  0.12000000000E+03 0.  0.
         25    1    3    3    0    0  0.22474215119E+02  0.64675835123E+02  0.62282566755E+02  0.15154923990E+03  0.12000000000E+03 0.  0.
<mgrwt>
<rscale>  0 0.27764977E+03</rscale>
<asrwt>0</asrwt>
<pdfrwt beam="1">  1        1 0.36462858E-01 0.27764977E+03</pdfrwt>
<pdfrwt beam="2">  1       -1 0.12509997E-01 0.27764977E+03</pdfrwt>
<totfact> 0.50377394E+03</totfact>
</mgrwt>
</event>
<event>
 5    1  0.1129390E+001  0.2751079E+03  0.7818608E-02  0.1098391E+00
          1   -1    0    0  501    0  0.00000000000E+00  0.00000000000E+00  0.63196319869E+03  0.63196319869E+03  0.00000000000E+00 0. -1.
         -1   -1    0    0    0  501 -0.00000000000E+00 -0.00000000000E+00 -0.29940177494E+02  0.29940177494E+02  0.00000000000E+00 0. -1.
         35    2    1    2    0    0  0.00000000000E+00  0.00000000000E+00  0.60202302119E+03  0.66190337618E+03  0.27510790856E+03 0.  0.
         25    1    3    3    0    0 -0.38485243643E+02 -0.94173576813E+01  0.17030493259E+03  0.21206973068E+03  0.12000000000E+03 0.  0.
         25    1    3    3    0    0  0.38485243643E+02  0.94173576813E+01  0.43171808860E+03  0.44983364551E+03  0.12000000000E+03 0.  0.
<mgrwt>
<rscale>  0 0.27510791E+03</rscale>
<asrwt>0</asrwt>
<pdfrwt beam="1">  1        1 0.97225098E-01 0.27510791E+03</pdfrwt>
<pdfrwt beam="2">  1       -1 0.46061816E-02 0.27510791E+03</pdfrwt>
<totfact> 0.64856609E+03</totfact>
</mgrwt>
</event>
<event>
 5    1  0.1129390E+001  0.2756600E+03  0.7818608E-02  0.1098083E+00
         -3   -1    0    0    0  501 -0.00000000000E+00  0.00000000000E+00  0.12438890026E+04  0.12438890026E+04  0.00000000000E+00 0.  1.
          3   -1    0    0  501    0  0.00000000000E+00 -0.00000000000E+00 -0.15272346416E+02  0.15272346416E+02  0.00000000000E+00 0.  1.
         35    2    1    2    0    0  0.00000000000E+00  0.00000000000E+00  0.12286166562E+04  0.12591613490E+04  0.27565996264E+03 0.  0.
         25    1    3    3    0    0 -0.84443530451E+01 -0.47088949732E+02  0.83377360011E+03  0.84372216548E+03  0.12000000000E+03 0.  0.
         25    1    3    3    0    0  0.84443530451E+01  0.47088949732E+02  0.39484305608E+03  0.41543918354E+03  0.12000000000E+03 0.  0.
<mgrwt>
<rscale>  0 0.27565996E+03</rscale>
<asrwt>0</asrwt>
<pdfrwt beam="1">  1        3 0.23495927E-02 0.27565996E+03</pdfrwt>
<pdfrwt beam="2">  1       -3 0.19136746E+00 0.27565996E+03</pdfrwt>
<totfact> 0.33960983E+02</totfact>
</mgrwt>
</event>
<event>
 5    1  0.1129390E+001  0.2753004E+03  0.7818608E-02  0.1098284E+00
         -2   -1    0    0    0  501 -0.00000000000E+00  0.00000000000E+00  0.89836568170E+01  0.89836568170E+01  0.00000000000E+00 0.  1.
          2   -1    0    0  501    0  0.00000000000E+00 -0.00000000000E+00 -0.21091162342E+04  0.21091162342E+04  0.00000000000E+00 0.  1.
         35    2    1    2    0    0  0.00000000000E+00  0.00000000000E+00 -0.21001325774E+04  0.21180998911E+04  0.27530039183E+03 0.  0.
         25    1    3    3    0    0  0.45592869844E+02 -0.86690030615E+01 -0.67364356511E+03  0.68582032210E+03  0.12000000000E+03 0.  0.
         25    1    3    3    0    0 -0.45592869844E+02  0.86690030615E+01 -0.14264890123E+04  0.14322795690E+04  0.12000000000E+03 0.  0.
<mgrwt>
<rscale>  0 0.27530039E+03</rscale>
<asrwt>0</asrwt>
<pdfrwt beam="1">  1        2 0.32447960E+00 0.27530039E+03</pdfrwt>
<pdfrwt beam="2">  1       -2 0.13821003E-02 0.27530039E+03</pdfrwt>
<totfact> 0.86539507E+03</totfact>
</mgrwt>
</event>
<event>
 5    1  0.1129390E+001  0.2758228E+03  0.7818608E-02  0.1097993E+00
         -4   -1    0    0    0  501 -0.00000000000E+00  0.00000000000E+00  0.20785395004E+03  0.20785395004E+03  0.00000000000E+00 0. -1.
          4   -1    0    0  501    0  0.00000000000E+00 -0.00000000000E+00 -0.91504423496E+02  0.91504423496E+02  0.00000000000E+00 0. -1.
         35    2    1    2    0    0  0.00000000000E+00  0.00000000000E+00  0.11634952655E+03  0.29935837354E+03  0.27582281175E+03 0.  0.
         25    1    3    3    0    0 -0.21413934739E+02 -0.26363157307E+02 -0.57213521906E+01  0.12484513020E+03  0.12000000000E+03 0.  0.
         25    1    3    3    0    0  0.21413934739E+02  0.26363157307E+02  0.12207087874E+03  0.17451324334E+03  0.12000000000E+03 0.  0.
<mgrwt>
<rscale>  0 0.27582281E+03</rscale>
<asrwt>0</asrwt>
<pdfrwt beam="1">  1        4 0.14077604E-01 0.27582281E+03</pdfrwt>
<pdfrwt beam="2">  1       -4 0.31977531E-01 0.27582281E+03</pdfrwt>
<totfact> 0.74376152E+02</totfact>
</mgrwt>
</event>
<event>
 5    1  0.1129390E+001  0.2749633E+03  0.7818608E-02  0.1098472E+00
         -2   -1    0    0    0  501 -0.00000000000E+00  0.00000000000E+00  0.24984435732E+02  0.24984435732E+02  0.00000000000E+00 0.  1.
          2   -1    0    0  501    0  0.00000000000E+00 -0.00000000000E+00 -0.75651906990E+03  0.75651906990E+03  0.00000000000E+00 0.  1.
         35    2    1    2    0    0  0.00000000000E+00  0.00000000000E+00 -0.73153463417E+03  0.78150350563E+03  0.27496328542E+03 0.  0.
         25    1    3    3    0    0 -0.23716701140E+02 -0.53935237396E+02 -0.27456334389E+03  0.30537930767E+03  0.12000000000E+03 0.  0.
         25    1    3    3    0    0  0.23716701140E+02  0.53935237396E+02 -0.45697129027E+03  0.47612419796E+03  0.12000000000E+03 0.  0.
<mgrwt>
<rscale>  0 0.27496329E+03</rscale>
<asrwt>0</asrwt>
<pdfrwt beam="1">  1        2 0.11638755E+00 0.27496329E+03</pdfrwt>
<pdfrwt beam="2">  1       -2 0.38437593E-02 0.27496329E+03</pdfrwt>
<totfact> 0.11076566E+04</totfact>
</mgrwt>
</event>
<event>
 5    1  0.1129390E+001  0.2756491E+03  0.7818608E-02  0.1098089E+00
          2   -1    0    0  501    0  0.00000000000E+00  0.00000000000E+00  0.65899932083E+03  0.65899932083E+03  0.00000000000E+00 0. -1.
         -2   -1    0    0    0  501 -0.00000000000E+00 -0.00000000000E+00 -0.28824923161E+02  0.28824923161E+02  0.00000000000E+00 0. -1.
         35    2    1    2    0    0  0.00000000000E+00  0.00000000000E+00  0.63017439767E+03  0.68782424399E+03  0.27564908697E+03 0.  0.
         25    1    3    3    0    0 -0.16913913658E+02  0.54931494978E+02  0.22539359989E+03  0.26173617344E+03  0.12000000000E+03 0.  0.
         25    1    3    3    0    0  0.16913913658E+02 -0.54931494978E+02  0.40478079778E+03  0.42608807055E+03  0.12000000000E+03 0.  0.
<mgrwt>
<rscale>  0 0.27564909E+03</rscale>
<asrwt>0</asrwt>
<pdfrwt beam="1">  1        2 0.10138450E+00 0.27564909E+03</pdfrwt>
<pdfrwt beam="2">  1       -2 0.44346041E-02 0.27564909E+03</pdfrwt>
<totfact> 0.10565180E+04</totfact>
</mgrwt>
</event>
<event>
 5    1  0.1129390E+001  0.2720369E+03  0.7818608E-02  0.1100119E+00
          2   -1    0    0  501    0  0.00000000000E+00  0.00000000000E+00  0.65997633424E+03  0.65997633424E+03  0.00000000000E+00 0. -1.
         -2   -1    0    0    0  501 -0.00000000000E+00 -0.00000000000E+00 -0.28032852929E+02  0.28032852929E+02  0.00000000000E+00 0. -1.
         35    2    1    2    0    0  0.00000000000E+00  0.00000000000E+00  0.63194348131E+03  0.68800918717E+03  0.27203690569E+03 0.  0.
         25    1    3    3    0    0 -0.37677552901E+02 -0.51780873672E+02  0.31699170414E+03  0.34494144048E+03  0.12000000000E+03 0.  0.
         25    1    3    3    0    0  0.37677552901E+02  0.51780873672E+02  0.31495177717E+03  0.34306774668E+03  0.12000000000E+03 0.  0.
<mgrwt>
<rscale>  0 0.27203691E+03</rscale>
<asrwt>0</asrwt>
<pdfrwt beam="1">  1        2 0.10153481E+00 0.27203691E+03</pdfrwt>
<pdfrwt beam="2">  1       -2 0.43127471E-02 0.27203691E+03</pdfrwt>
<totfact> 0.10994346E+04</totfact>
</mgrwt>
</event>
<event>
 5    1  0.1129390E+001  0.2767855E+03  0.7818608E-02  0.1097458E+00
          2   -1    0    0  501    0  0.00000000000E+00  0.00000000000E+00  0.92348815882E+03  0.92348815882E+03  0.00000000000E+00 0.  1.
         -2   -1    0    0    0  501 -0.00000000000E+00 -0.00000000000E+00 -0.20739357351E+02  0.20739357351E+02  0.00000000000E+00 0.  1.
         35    2    1    2    0    0  0.00000000000E+00  0.00000000000E+00  0.90274880147E+03  0.94422751617E+03  0.27678548326E+03 0.  0.
         25    1    3    3    0    0 -0.20950230223E+01  0.30800886535E+02  0.66165281514E+03  0.67315490900E+03  0.12000000000E+03 0.  0.
         25    1    3    3    0    0  0.20950230223E+01 -0.30800886535E+02  0.24109598633E+03  0.27107260717E+03  0.12000000000E+03 0.  0.
<mgrwt>
<rscale>  0 0.27678548E+03</rscale>
<asrwt>0</asrwt>
<pdfrwt beam="1">  1        2 0.14207507E+00 0.27678548E+03</pdfrwt>
<pdfrwt beam="2">  1       -2 0.31906711E-02 0.27678548E+03</pdfrwt>
<totfact> 0.11301941E+04</totfact>
</mgrwt>
</event>
<event>
 5    1  0.1129390E+001  0.2753959E+03  0.7818608E-02  0.1098230E+00
         -2   -1    0    0    0  501 -0.00000000000E+00  0.00000000000E+00  0.12585181638E+02  0.12585181638E+02  0.00000000000E+00 0.  1.
          2   -1    0    0  501    0  0.00000000000E+00 -0.00000000000E+00 -0.15065916077E+04  0.15065916077E+04  0.00000000000E+00 0.  1.
         35    2    1    2    0    0  0.00000000000E+00  0.00000000000E+00 -0.14940064260E+04  0.15191767893E+04  0.27539592616E+03 0.  0.
         25    1    3    3    0    0 -0.63918246571E+02  0.11065297735E+02 -0.85060848146E+03  0.86147708721E+03  0.12000000000E+03 0.  0.
         25    1    3    3    0    0  0.63918246571E+02 -0.11065297735E+02 -0.64339794457E+03  0.65769970209E+03  0.12000000000E+03 0.  0.
<mgrwt>
<rscale>  0 0.27539593E+03</rscale>
<asrwt>0</asrwt>
<pdfrwt beam="1">  1        2 0.23178321E+00 0.27539593E+03</pdfrwt>
<pdfrwt beam="2">  1       -2 0.19361827E-02 0.27539593E+03</pdfrwt>
<totfact> 0.10974477E+04</totfact>
</mgrwt>
</event>
<event>
 5    1  0.1129390E+001  0.2753449E+03  0.7818608E-02  0.1098259E+00
          3   -1    0    0  501    0  0.00000000000E+00  0.00000000000E+00  0.68778931032E+02  0.68778931032E+02  0.00000000000E+00 0.  1.
         -3   -1    0    0    0  501 -0.00000000000E+00 -0.00000000000E+00 -0.27557421775E+03  0.27557421775E+03  0.00000000000E+00 0.  1.
         35    2    1    2    0    0  0.00000000000E+00  0.00000000000E+00 -0.20679528672E+03  0.34435314879E+03  0.27534487551E+03 0.  0.
         25    1    3    3    0    0 -0.37530561100E+02  0.44158156526E+02 -0.60161200853E+02  0.14621168179E+03  0.12000000000E+03 0.  0.
         25    1    3    3    0    0  0.37530561100E+02 -0.44158156526E+02 -0.14663408587E+03  0.19814146700E+03  0.12000000000E+03 0.  0.
<mgrwt>
<rscale>  0 0.27534488E+03</rscale>
<asrwt>0</asrwt>
<pdfrwt beam="1">  1        3 0.10581374E-01 0.27534488E+03</pdfrwt>
<pdfrwt beam="2">  1       -3 0.42396034E-01 0.27534488E+03</pdfrwt>
<totfact> 0.94642765E+02</totfact>
</mgrwt>
</event>
<event>
 5    1  0.1129390E+001  0.2747653E+03  0.7818608E-02  0.1098583E+00
          1   -1    0    0  501    0  0.00000000000E+00  0.00000000000E+00  0.39271826885E+02  0.39271826885E+02  0.00000000000E+00 0.  1.
         -1   -1    0    0    0  501 -0.00000000000E+00 -0.00000000000E+00 -0.48059869148E+03  0.48059869148E+03  0.00000000000E+00 0.  1.
         35    2    1    2    0    0  0.00000000000E+00  0.00000000000E+00 -0.44132686459E+03  0.51987051836E+03  0.27476527155E+03 0.  0.
         25    1    3    3    0    0  0.14903051788E+02  0.61446658047E+02 -0.17937521193E+03  0.22488499148E+03  0.12000000000E+03 0.  0.
         25    1    3    3    0    0 -0.14903051788E+02 -0.61446658047E+02 -0.26195165267E+03  0.29498552689E+03  0.12000000000E+03 0.  0.
<mgrwt>
<rscale>  0 0.27476527E+03</rscale>
<asrwt>0</asrwt>
<pdfrwt beam="1">  1        1 0.60418196E-02 0.27476527E+03</pdfrwt>
<pdfrwt beam="2">  1       -1 0.73938260E-01 0.27476527E+03</pdfrwt>
<totfact> 0.24505988E+03</totfact>
</mgrwt>
</event>
<event>
 5    1  0.1129390E+001  0.2755807E+03  0.7818608E-02  0.1098127E+00
          2   -1    0    0  501    0  0.00000000000E+00  0.00000000000E+00  0.56911821992E+02  0.56911821992E+02  0.00000000000E+00 0.  1.
         -2   -1    0    0    0  501 -0.00000000000E+00 -0.00000000000E+00 -0.33360694093E+03  0.33360694093E+03  0.00000000000E+00 0.  1.
         35    2    1    2    0    0  0.00000000000E+00  0.00000000000E+00 -0.27669511893E+03  0.39051876292E+03  0.27558068755E+03 0.  0.
         25    1    3    3    0    0 -0.65935003116E+02  0.10557309766E+02 -0.15433588243E+03  0.20658762313E+03  0.12000000000E+03 0.  0.
         25    1    3    3    0    0  0.65935003116E+02 -0.10557309766E+02 -0.12235923650E+03  0.18393113979E+03  0.12000000000E+03 0.  0.
<mgrwt>
<rscale>  0 0.27558069E+03</rscale>
<asrwt>0</asrwt>
<pdfrwt beam="1">  1        2 0.87556649E-02 0.27558069E+03</pdfrwt>
<pdfrwt beam="2">  1       -2 0.51324145E-01 0.27558069E+03</pdfrwt>
<totfact> 0.27522440E+03</totfact>
</mgrwt>
</event>
<event>
 5    1  0.1129390E+001  0.2748176E+03  0.7818608E-02  0.1098554E+00
         -1   -1    0    0    0  501 -0.00000000000E+00  0.00000000000E+00  0.18576670382E+03  0.18576670382E+03  0.00000000000E+00 0. -1.
          1   -1    0    0  501    0  0.00000000000E+00 -0.00000000000E+00 -0.10163916530E+03  0.10163916530E+03  0.00000000000E+00 0. -1.
         35    2    1    2    0    0  0.00000000000E+00  0.00000000000E+00  0.84127538525E+02  0.28740586912E+03  0.27481755923E+03 0.  0.
         25    1    3    3    0    0  0.53638580502E+02 -0.37085930884E+02  0.57879632601E+02  0.14833244911E+03  0.12000000000E+03 0.  0.
         25    1    3    3    0    0 -0.53638580502E+02  0.37085930884E+02  0.26247905924E+02  0.13907342001E+03  0.12000000000E+03 0.  0.
<mgrwt>
<rscale>  0 0.27481756E+03</rscale>
<asrwt>0</asrwt>
<pdfrwt beam="1">  1        1 0.15636795E-01 0.27481756E+03</pdfrwt>
<pdfrwt beam="2">  1       -1 0.28579493E-01 0.27481756E+03</pdfrwt>
<totfact> 0.38935878E+03</totfact>
</mgrwt>
</event>
<event>
 5    1  0.1129390E+001  0.2762204E+03  0.7818608E-02  0.1097771E+00
         -2   -1    0    0    0  501 -0.00000000000E+00  0.00000000000E+00  0.17364085435E+02  0.17364085435E+02  0.00000000000E+00 0. -1.
          2   -1    0    0  501    0  0.00000000000E+00 -0.00000000000E+00 -0.10984986491E+04  0.10984986491E+04  0.00000000000E+00 0. -1.
         35    2    1    2    0    0  0.00000000000E+00  0.00000000000E+00 -0.10811345636E+04  0.11158627345E+04  0.27622037863E+03 0.  0.
         25    1    3    3    0    0  0.72438025873E+01 -0.66036027704E+02 -0.47527869178E+03  0.49467470574E+03  0.12000000000E+03 0.  0.
         25    1    3    3    0    0 -0.72438025873E+01  0.66036027704E+02 -0.60585587185E+03  0.62118802877E+03  0.12000000000E+03 0.  0.
<mgrwt>
<rscale>  0 0.27622038E+03</rscale>
<asrwt>0</asrwt>
<pdfrwt beam="1">  1        2 0.16899979E+00 0.27622038E+03</pdfrwt>
<pdfrwt beam="2">  1       -2 0.26713978E-02 0.27622038E+03</pdfrwt>
<totfact> 0.11507811E+04</totfact>
</mgrwt>
</event>
<event>
 5    1  0.1129390E+001  0.2756796E+03  0.7818608E-02  0.1098072E+00
          1   -1    0    0  501    0  0.00000000000E+00  0.00000000000E+00  0.69581274361E+03  0.69581274361E+03  0.00000000000E+00 0. -1.
         -1   -1    0    0    0  501 -0.00000000000E+00 -0.00000000000E+00 -0.27305916838E+02  0.27305916838E+02  0.00000000000E+00 0. -1.
         35    2    1    2    0    0  0.00000000000E+00  0.00000000000E+00  0.66850682677E+03  0.72311866044E+03  0.27567955972E+03 0.  0.
         25    1    3    3    0    0  0.80986249909E+01 -0.29274361989E+02  0.49331500932E+03  0.50860817376E+03  0.12000000000E+03 0.  0.
         25    1    3    3    0    0 -0.80986249909E+01  0.29274361989E+02  0.17519181745E+03  0.21451048669E+03  0.12000000000E+03 0.  0.
<mgrwt>
<rscale>  0 0.27567956E+03</rscale>
<asrwt>0</asrwt>
<pdfrwt beam="1">  1        1 0.10704810E+00 0.27567956E+03</pdfrwt>
<pdfrwt beam="2">  1       -1 0.42009108E-02 0.27567956E+03</pdfrwt>
<totfact> 0.64826170E+03</totfact>
</mgrwt>
</event>
<event>
 5    1  0.1129390E+001  0.2712354E+03  0.7818608E-02  0.1100575E+00
         -2   -1    0    0    0  501 -0.00000000000E+00  0.00000000000E+00  0.15268282207E+02  0.15268282207E+02  0.00000000000E+00 0. -1.
          2   -1    0    0  501    0  0.00000000000E+00 -0.00000000000E+00 -0.12045992215E+04  0.12045992215E+04  0.00000000000E+00 0. -1.
         35    2    1    2    0    0  0.00000000000E+00  0.00000000000E+00 -0.11893309393E+04  0.12198675037E+04  0.27123540227E+03 0.  0.
         25    1    3    3    0    0  0.52874990027E+02 -0.16705324101E+02 -0.45844928345E+03  0.47712742315E+03  0.12000000000E+03 0.  0.
         25    1    3    3    0    0 -0.52874990027E+02  0.16705324101E+02 -0.73088165588E+03  0.74274008059E+03  0.12000000000E+03 0.  0.
<mgrwt>
<rscale>  0 0.27123540E+03</rscale>
<asrwt>0</asrwt>
<pdfrwt beam="1">  1        2 0.18532297E+00 0.27123540E+03</pdfrwt>
<pdfrwt beam="2">  1       -2 0.23489664E-02 0.27123540E+03</pdfrwt>
<totfact> 0.12083958E+04</totfact>
</mgrwt>
</event>
<event>
 5    1  0.1129390E+001  0.2748002E+03  0.7818608E-02  0.1098563E+00
         -2   -1    0    0    0  501 -0.00000000000E+00  0.00000000000E+00  0.53752025150E+02  0.53752025150E+02  0.00000000000E+00 0.  1.
          2   -1    0    0  501    0  0.00000000000E+00 -0.00000000000E+00 -0.35121990823E+03  0.35121990823E+03  0.00000000000E+00 0.  1.
         35    2    1    2    0    0  0.00000000000E+00  0.00000000000E+00 -0.29746788308E+03  0.40497193338E+03  0.27480015532E+03 0.  0.
         25    1    3    3    0    0  0.58314113736E+02 -0.30473866841E+02 -0.16675821070E+03  0.21572550442E+03  0.12000000000E+03 0.  0.
         25    1    3    3    0    0 -0.58314113736E+02  0.30473866841E+02 -0.13070967238E+03  0.18924642896E+03  0.12000000000E+03 0.  0.
<mgrwt>
<rscale>  0 0.27480016E+03</rscale>
<asrwt>0</asrwt>
<pdfrwt beam="1">  1        2 0.54033835E-01 0.27480016E+03</pdfrwt>
<pdfrwt beam="2">  1       -2 0.82695419E-02 0.27480016E+03</pdfrwt>
<totfact> 0.82034028E+03</totfact>
</mgrwt>
</event>
<event>
 5    1  0.1129390E+001  0.2751764E+03  0.7818608E-02  0.1098353E+00
          2   -1    0    0  501    0  0.00000000000E+00  0.00000000000E+00  0.50713635700E+03  0.50713635700E+03  0.00000000000E+00 0.  1.
         -2   -1    0    0    0  501 -0.00000000000E+00 -0.00000000000E+00 -0.37328255456E+02  0.37328255456E+02  0.00000000000E+00 0.  1.
         35    2    1    2    0    0  0.00000000000E+00  0.00000000000E+00  0.46980810155E+03  0.54446461246E+03  0.27517641967E+03 0.  0.
         25    1    3    3    0    0  0.35373257773E+01  0.33811775000E+02  0.11996163549E+03  0.17305069428E+03  0.12000000000E+03 0.  0.
         25    1    3    3    0    0 -0.35373257773E+01 -0.33811775000E+02  0.34984646606E+03  0.37141391818E+03  0.12000000000E+03 0.  0.
<mgrwt>
<rscale>  0 0.27517642E+03</rscale>
<asrwt>0</asrwt>
<pdfrwt beam="1">  1        2 0.78020973E-01 0.27517642E+03</pdfrwt>
<pdfrwt beam="2">  1       -2 0.57428089E-02 0.27517642E+03</pdfrwt>
<totfact> 0.96451659E+03</totfact>
</mgrwt>
</event>
<event>
 5    1  0.1129390E+001  0.2751195E+03  0.7818608E-02  0.1098385E+00
         -2   -1    0    0    0  501 -0.00000000000E+00  0.00000000000E+00  0.12771293209E+03  0.12771293209E+03  0.00000000000E+00 0.  1.
          2   -1    0    0  501    0  0.00000000000E+00 -0.00000000000E+00 -0.14816581045E+03  0.14816581045E+03  0.00000000000E+00 0.  1.
         35    2    1    2    0    0  0.00000000000E+00  0.00000000000E+00 -0.20452878361E+02  0.27587874253E+03  0.27511953829E+03 0.  0.
         25    1    3    3    0    0 -0.81895233847E+00 -0.54676687383E+02  0.29028481739E+02  0.13502912122E+03  0.12000000000E+03 0.  0.
         25    1    3    3    0    0  0.81895233847E+00  0.54676687383E+02 -0.49481360100E+02  0.14084962131E+03  0.12000000000E+03 0.  0.
<mgrwt>
<rscale>  0 0.27511954E+03</rscale>
<asrwt>0</asrwt>
<pdfrwt beam="1">  1        2 0.22794740E-01 0.27511954E+03</pdfrwt>
<pdfrwt beam="2">  1       -2 0.19648143E-01 0.27511954E+03</pdfrwt>
<totfact> 0.51420406E+03</totfact>
</mgrwt>
</event>
<event>
 5    1  0.1129390E+001  0.2745805E+03  0.7818608E-02  0.1098686E+00
         -3   -1    0    0    0  501 -0.00000000000E+00  0.00000000000E+00  0.75394443387E+03  0.75394443387E+03  0.00000000000E+00 0.  1.
          3   -1    0    0  501    0  0.00000000000E+00 -0.00000000000E+00 -0.24999995807E+02  0.24999995807E+02  0.00000000000E+00 0.  1.
         35    2    1    2    0    0  0.00000000000E+00  0.00000000000E+00  0.72894443806E+03  0.77894442968E+03  0.27458046315E+03 0.  0.
         25    1    3    3    0    0  0.12791802445E+02 -0.65455591924E+02  0.36656258031E+03  0.39142839704E+03  0.12000000000E+03 0.  0.
         25    1    3    3    0    0 -0.12791802445E+02  0.65455591924E+02  0.36238185775E+03  0.38751603263E+03  0.12000000000E+03 0.  0.
<mgrwt>
<rscale>  0 0.27458046E+03</rscale>
<asrwt>0</asrwt>
<pdfrwt beam="1">  1        3 0.38461538E-02 0.27458046E+03</pdfrwt>
<pdfrwt beam="2">  1       -3 0.11599143E+00 0.27458046E+03</pdfrwt>
<totfact> 0.56121768E+02</totfact>
</mgrwt>
</event>
<event>
 5    1  0.1129390E+001  0.2750315E+03  0.7818608E-02  0.1098434E+00
         -2   -1    0    0    0  501 -0.00000000000E+00  0.00000000000E+00  0.31884612276E+02  0.31884612276E+02  0.00000000000E+00 0.  1.
          2   -1    0    0  501    0  0.00000000000E+00 -0.00000000000E+00 -0.59309443380E+03  0.59309443380E+03  0.00000000000E+00 0.  1.
         35    2    1    2    0    0  0.00000000000E+00  0.00000000000E+00 -0.56120982153E+03  0.62497904608E+03  0.27503153321E+03 0.  0.
         25    1    3    3    0    0 -0.28175143512E+02  0.60601465577E+02 -0.26549569708E+03  0.29892196559E+03  0.12000000000E+03 0.  0.
         25    1    3    3    0    0  0.28175143512E+02 -0.60601465577E+02 -0.29571412445E+03  0.32605708049E+03  0.12000000000E+03 0.  0.
<mgrwt>
<rscale>  0 0.27503153E+03</rscale>
<asrwt>0</asrwt>
<pdfrwt beam="1">  1        2 0.91245302E-01 0.27503153E+03</pdfrwt>
<pdfrwt beam="2">  1       -2 0.49053247E-02 0.27503153E+03</pdfrwt>
<totfact> 0.10261550E+04</totfact>
</mgrwt>
</event>
<event>
 5    1  0.1129390E+001  0.2749570E+03  0.7818608E-02  0.1098476E+00
          2   -1    0    0  501    0  0.00000000000E+00  0.00000000000E+00  0.31747301885E+02  0.31747301885E+02  0.00000000000E+00 0. -1.
         -2   -1    0    0    0  501 -0.00000000000E+00 -0.00000000000E+00 -0.59533688571E+03  0.59533688571E+03  0.00000000000E+00 0. -1.
         35    2    1    2    0    0  0.00000000000E+00  0.00000000000E+00 -0.56358958383E+03  0.62708418759E+03  0.27495701361E+03 0.  0.
         25    1    3    3    0    0 -0.80483670948E+01  0.71873845417E+01 -0.13078968991E+03  0.17782681940E+03  0.12000000000E+03 0.  0.
         25    1    3    3    0    0  0.80483670948E+01 -0.71873845417E+01 -0.43279989391E+03  0.44925736820E+03  0.12000000000E+03 0.  0.
<mgrwt>
<rscale>  0 0.27495701E+03</rscale>
<asrwt>0</asrwt>
<pdfrwt beam="1">  1        2 0.48842005E-02 0.27495701E+03</pdfrwt>
<pdfrwt beam="2">  1       -2 0.91590286E-01 0.27495701E+03</pdfrwt>
<totfact> 0.17015545E+03</totfact>
</mgrwt>
</event>
<event>
 5    1  0.1129390E+001  0.2736231E+03  0.7818608E-02  0.1099224E+00
          2   -1    0    0  501    0  0.00000000000E+00  0.00000000000E+00  0.52035372078E+03  0.52035372078E+03  0.00000000000E+00 0.  1.
         -2   -1    0    0    0  501 -0.00000000000E+00 -0.00000000000E+00 -0.35970537246E+02  0.35970537246E+02  0.00000000000E+00 0.  1.
         35    2    1    2    0    0  0.00000000000E+00  0.00000000000E+00  0.48438318354E+03  0.55632425803E+03  0.27362311960E+03 0.  0.
         25    1    3    3    0    0 -0.22681495138E+02 -0.76789060049E+01  0.11778529063E+03  0.16984342939E+03  0.12000000000E+03 0.  0.
         25    1    3    3    0    0  0.22681495138E+02  0.76789060049E+01  0.36659789291E+03  0.38648082864E+03  0.12000000000E+03 0.  0.
<mgrwt>
<rscale>  0 0.27362312E+03</rscale>
<asrwt>0</asrwt>
<pdfrwt beam="1">  1        2 0.80054413E-01 0.27362312E+03</pdfrwt>
<pdfrwt beam="2">  1       -2 0.55339292E-02 0.27362312E+03</pdfrwt>
<totfact> 0.99141333E+03</totfact>
</mgrwt>
</event>
<event>
 5    1  0.1129390E+001  0.2743293E+03  0.7818608E-02  0.1098827E+00
          2   -1    0    0  501    0  0.00000000000E+00  0.00000000000E+00  0.16514835736E+03  0.16514835736E+03  0.00000000000E+00 0.  1.
         -2   -1    0    0    0  501 -0.00000000000E+00 -0.00000000000E+00 -0.11392265363E+03  0.11392265363E+03  0.00000000000E+00 0.  1.
         35    2    1    2    0    0  0.00000000000E+00  0.00000000000E+00  0.51225703736E+02  0.27907101099E+03  0.27432928471E+03 0.  0.
         25    1    3    3    0    0  0.20593090980E+02  0.58066281390E+02  0.50909734158E+02  0.14417894944E+03  0.12000000000E+03 0.  0.
         25    1    3    3    0    0 -0.20593090980E+02 -0.58066281390E+02  0.31596957819E+00  0.13489206154E+03  0.12000000000E+03 0.  0.
<mgrwt>
<rscale>  0 0.27432928E+03</rscale>
<asrwt>0</asrwt>
<pdfrwt beam="1">  1        2 0.25407439E-01 0.27432928E+03</pdfrwt>
<pdfrwt beam="2">  1       -2 0.17526562E-01 0.27432928E+03</pdfrwt>
<totfact> 0.55242921E+03</totfact>
</mgrwt>
</event>
<event>
 5    1  0.1129390E+001  0.2742563E+03  0.7818608E-02  0.1098868E+00
          3   -1    0    0  501    0  0.00000000000E+00  0.00000000000E+00  0.32421490432E+03  0.32421490432E+03  0.00000000000E+00 0. -1.
         -3   -1    0    0    0  501 -0.00000000000E+00 -0.00000000000E+00 -0.57998977665E+02  0.57998977665E+02  0.00000000000E+00 0. -1.
         35    2    1    2    0    0  0.00000000000E+00  0.00000000000E+00  0.26621592665E+03  0.38221388198E+03  0.27425632532E+03 0.  0.
         25    1    3    3    0    0  0.51336242420E+02  0.35607449689E+02  0.16429658321E+03  0.21283013770E+03  0.12000000000E+03 0.  0.
         25    1    3    3    0    0 -0.51336242420E+02 -0.35607449689E+02  0.10191934344E+03  0.16938374428E+03  0.12000000000E+03 0.  0.
<mgrwt>
<rscale>  0 0.27425633E+03</rscale>
<asrwt>0</asrwt>
<pdfrwt beam="1">  1        3 0.49879215E-01 0.27425633E+03</pdfrwt>
<pdfrwt beam="2">  1       -3 0.89229198E-02 0.27425633E+03</pdfrwt>
<totfact> 0.90994618E+02</totfact>
</mgrwt>
</event>
<event>
 5    1  0.1129390E+001  0.2718912E+03  0.7818608E-02  0.1100202E+00
          1   -1    0    0  501    0  0.00000000000E+00  0.00000000000E+00  0.75923025672E+03  0.75923025672E+03  0.00000000000E+00 0. -1.
         -1   -1    0    0    0  501 -0.00000000000E+00 -0.00000000000E+00 -0.24342030289E+02  0.24342030289E+02  0.00000000000E+00 0. -1.
         35    2    1    2    0    0  0.00000000000E+00  0.00000000000E+00  0.73488822643E+03  0.78357228701E+03  0.27189119813E+03 0.  0.
         25    1    3    3    0    0 -0.14883772003E+02  0.30000060302E+02  0.52422964255E+03  0.53883044496E+03  0.12000000000E+03 0.  0.
         25    1    3    3    0    0  0.14883772003E+02 -0.30000060302E+02  0.21065858388E+03  0.24474184205E+03  0.12000000000E+03 0.  0.
<mgrwt>
<rscale>  0 0.27189120E+03</rscale>
<asrwt>0</asrwt>
<pdfrwt beam="1">  1        1 0.11680464E+00 0.27189120E+03</pdfrwt>
<pdfrwt beam="2">  1       -1 0.37449283E-02 0.27189120E+03</pdfrwt>
<totfact> 0.67563230E+03</totfact>
</mgrwt>
</event>
<event>
 5    1  0.1129390E+001  0.2747961E+03  0.7818608E-02  0.1098566E+00
         -2   -1    0    0    0  501 -0.00000000000E+00  0.00000000000E+00  0.45663863365E+02  0.45663863365E+02  0.00000000000E+00 0.  1.
          2   -1    0    0  501    0  0.00000000000E+00 -0.00000000000E+00 -0.41341728440E+03  0.41341728440E+03  0.00000000000E+00 0.  1.
         35    2    1    2    0    0  0.00000000000E+00  0.00000000000E+00 -0.36775342103E+03  0.45908114776E+03  0.27479614544E+03 0.  0.
         25    1    3    3    0    0 -0.66550656922E+02  0.54524060860E+01 -0.17649721651E+03  0.22362912624E+03  0.12000000000E+03 0.  0.
         25    1    3    3    0    0  0.66550656922E+02 -0.54524060860E+01 -0.19125620452E+03  0.23545202152E+03  0.12000000000E+03 0.  0.
<mgrwt>
<rscale>  0 0.27479615E+03</rscale>
<asrwt>0</asrwt>
<pdfrwt beam="1">  1        2 0.63602662E-01 0.27479615E+03</pdfrwt>
<pdfrwt beam="2">  1       -2 0.70252094E-02 0.27479615E+03</pdfrwt>
<totfact> 0.88620028E+03</totfact>
</mgrwt>
</event>
<event>
 5    1  0.1129390E+001  0.2713015E+03  0.7818608E-02  0.1100537E+00
          1   -1    0    0  501    0  0.00000000000E+00  0.00000000000E+00  0.25608421965E+02  0.25608421965E+02  0.00000000000E+00 0.  1.
         -1   -1    0    0    0  501 -0.00000000000E+00 -0.00000000000E+00 -0.71855781079E+03  0.71855781079E+03  0.00000000000E+00 0.  1.
         35    2    1    2    0    0  0.00000000000E+00  0.00000000000E+00 -0.69294938882E+03  0.74416623275E+03  0.27130154165E+03 0.  0.
         25    1    3    3    0    0  0.52303299877E+02  0.10931255949E+02 -0.43933086769E+03  0.45854851308E+03  0.12000000000E+03 0.  0.
         25    1    3    3    0    0 -0.52303299877E+02 -0.10931255949E+02 -0.25361852113E+03  0.28561771968E+03  0.12000000000E+03 0.  0.
<mgrwt>
<rscale>  0 0.27130154E+03</rscale>
<asrwt>0</asrwt>
<pdfrwt beam="1">  1        1 0.39397576E-02 0.27130154E+03</pdfrwt>
<pdfrwt beam="2">  1       -1 0.11054735E+00 0.27130154E+03</pdfrwt>
<totfact> 0.18606311E+03</totfact>
</mgrwt>
</event>
<event>
 5    1  0.1129390E+001  0.2760893E+03  0.7818608E-02  0.1097844E+00
         -2   -1    0    0    0  501 -0.00000000000E+00  0.00000000000E+00  0.12182266647E+02  0.12182266647E+02  0.00000000000E+00 0. -1.
          2   -1    0    0  501    0  0.00000000000E+00 -0.00000000000E+00 -0.15642670915E+04  0.15642670915E+04  0.00000000000E+00 0. -1.
         35    2    1    2    0    0  0.00000000000E+00  0.00000000000E+00 -0.15520848249E+04  0.15764493582E+04  0.27608925236E+03 0.  0.
         25    1    3    3    0    0  0.44965373043E+02 -0.23295726780E+02 -0.51489561644E+03  0.53111399105E+03  0.12000000000E+03 0.  0.
         25    1    3    3    0    0 -0.44965373043E+02  0.23295726780E+02 -0.10371892085E+04  0.10453353671E+04  0.12000000000E+03 0.  0.
<mgrwt>
<rscale>  0 0.27608925E+03</rscale>
<asrwt>0</asrwt>
<pdfrwt beam="1">  1        2 0.24065642E+00 0.27608925E+03</pdfrwt>
<pdfrwt beam="2">  1       -2 0.18741953E-02 0.27608925E+03</pdfrwt>
<totfact> 0.10725558E+04</totfact>
</mgrwt>
</event>
<event>
 5    1  0.1129390E+001  0.2801108E+03  0.7818608E-02  0.1095628E+00
          2   -1    0    0  501    0  0.00000000000E+00  0.00000000000E+00  0.43478793165E+03  0.43478793165E+03  0.00000000000E+00 0. -1.
         -2   -1    0    0    0  501 -0.00000000000E+00 -0.00000000000E+00 -0.45115133949E+02  0.45115133949E+02  0.00000000000E+00 0. -1.
         35    2    1    2    0    0  0.00000000000E+00  0.00000000000E+00  0.38967279771E+03  0.47990306560E+03  0.28011080505E+03 0.  0.
         25    1    3    3    0    0  0.65753928241E+02 -0.99816445552E+01  0.14661170922E+03  0.20079393813E+03  0.12000000000E+03 0.  0.
         25    1    3    3    0    0 -0.65753928241E+02  0.99816445552E+01  0.24306108848E+03  0.27910912748E+03  0.12000000000E+03 0.  0.
<mgrwt>
<rscale>  0 0.28011081E+03</rscale>
<asrwt>0</asrwt>
<pdfrwt beam="1">  1        2 0.66890448E-01 0.28011081E+03</pdfrwt>
<pdfrwt beam="2">  1       -2 0.69407901E-02 0.28011081E+03</pdfrwt>
<totfact> 0.85514856E+03</totfact>
</mgrwt>
</event>
<event>
 5    1  0.1129390E+001  0.2751457E+03  0.7818608E-02  0.1098370E+00
         -1   -1    0    0    0  501 -0.00000000000E+00  0.00000000000E+00  0.17272603362E+03  0.17272603362E+03  0.00000000000E+00 0.  1.
          1   -1    0    0  501    0  0.00000000000E+00 -0.00000000000E+00 -0.10957407788E+03  0.10957407788E+03  0.00000000000E+00 0.  1.
         35    2    1    2    0    0  0.00000000000E+00  0.00000000000E+00  0.63151955739E+02  0.28230011150E+03  0.27514574945E+03 0.  0.
         25    1    3    3    0    0  0.20194666008E+02 -0.56965175425E+02  0.61898464164E+02  0.14793334855E+03  0.12000000000E+03 0.  0.
         25    1    3    3    0    0 -0.20194666008E+02  0.56965175425E+02  0.12534915755E+01  0.13436676296E+03  0.12000000000E+03 0.  0.
<mgrwt>
<rscale>  0 0.27514575E+03</rscale>
<asrwt>0</asrwt>
<pdfrwt beam="1">  1        1 0.16857550E-01 0.27514575E+03</pdfrwt>
<pdfrwt beam="2">  1       -1 0.26573236E-01 0.27514575E+03</pdfrwt>
<totfact> 0.39896475E+03</totfact>
</mgrwt>
</event>
<event>
 5    1  0.1129390E+001  0.2760514E+03  0.7818608E-02  0.1097865E+00
          2   -1    0    0  501    0  0.00000000000E+00  0.00000000000E+00  0.10200266450E+04  0.10200266450E+04  0.00000000000E+00 0.  1.
         -2   -1    0    0    0  501 -0.00000000000E+00 -0.00000000000E+00 -0.18677058478E+02  0.18677058478E+02  0.00000000000E+00 0.  1.
         35    2    1    2    0    0  0.00000000000E+00  0.00000000000E+00  0.10013495865E+04  0.10387037035E+04  0.27605142490E+03 0.  0.
         25    1    3    3    0    0 -0.90421440042E+01 -0.39545497628E+02  0.70695586070E+03  0.71821458892E+03  0.12000000000E+03 0.  0.
         25    1    3    3    0    0  0.90421440042E+01  0.39545497628E+02  0.29439372583E+03  0.32048911457E+03  0.12000000000E+03 0.  0.
<mgrwt>
<rscale>  0 0.27605142E+03</rscale>
<asrwt>0</asrwt>
<pdfrwt beam="1">  1        2 0.15692713E+00 0.27605142E+03</pdfrwt>
<pdfrwt beam="2">  1       -2 0.28733944E-02 0.27605142E+03</pdfrwt>
<totfact> 0.11503862E+04</totfact>
</mgrwt>
</event>
<event>
 5    1  0.1129390E+001  0.2751990E+03  0.7818608E-02  0.1098340E+00
         -2   -1    0    0    0  501 -0.00000000000E+00  0.00000000000E+00  0.16853384987E+02  0.16853384987E+02  0.00000000000E+00 0.  1.
          2   -1    0    0  501    0  0.00000000000E+00 -0.00000000000E+00 -0.11234311377E+04  0.11234311377E+04  0.00000000000E+00 0.  1.
         35    2    1    2    0    0  0.00000000000E+00  0.00000000000E+00 -0.11065777527E+04  0.11402845227E+04  0.27519896417E+03 0.  0.
         25    1    3    3    0    0  0.16227212946E+02 -0.81925117346E+01 -0.28465838000E+03  0.30945247292E+03  0.12000000000E+03 0.  0.
         25    1    3    3    0    0 -0.16227212946E+02  0.81925117346E+01 -0.82191937268E+03  0.83083204974E+03  0.12000000000E+03 0.  0.
<mgrwt>
<rscale>  0 0.27519896E+03</rscale>
<asrwt>0</asrwt>
<pdfrwt beam="1">  1        2 0.17283560E+00 0.27519896E+03</pdfrwt>
<pdfrwt beam="2">  1       -2 0.25928278E-02 0.27519896E+03</pdfrwt>
<totfact> 0.11629837E+04</totfact>
</mgrwt>
</event>
<event>
 5    1  0.1129390E+001  0.2757173E+03  0.7818608E-02  0.1098051E+00
          1   -1    0    0  501    0  0.00000000000E+00  0.00000000000E+00  0.21499220767E+04  0.21499220767E+04  0.00000000000E+00 0.  1.
         -1   -1    0    0    0  501 -0.00000000000E+00 -0.00000000000E+00 -0.88398610561E+01  0.88398610561E+01  0.00000000000E+00 0.  1.
         35    2    1    2    0    0  0.00000000000E+00  0.00000000000E+00  0.21410822157E+04  0.21587619378E+04  0.27571733670E+03 0.  0.
         25    1    3    3    0    0  0.36888913227E+02 -0.56055719644E+02  0.99147481050E+03  0.10009622048E+04  0.12000000000E+03 0.  0.
         25    1    3    3    0    0 -0.36888913227E+02  0.56055719644E+02  0.11496074052E+04  0.11577997330E+04  0.12000000000E+03 0.  0.
<mgrwt>
<rscale>  0 0.27571734E+03</rscale>
<asrwt>0</asrwt>
<pdfrwt beam="1">  1        1 0.33075683E+00 0.27571734E+03</pdfrwt>
<pdfrwt beam="2">  1       -1 0.13599803E-02 0.27571734E+03</pdfrwt>
<totfact> 0.32441968E+03</totfact>
</mgrwt>
</event>
<event>
 5    1  0.1129390E+001  0.2772170E+03  0.7818608E-02  0.1097219E+00
          2   -1    0    0  501    0  0.00000000000E+00  0.00000000000E+00  0.69732761343E+03  0.69732761343E+03  0.00000000000E+00 0. -1.
         -2   -1    0    0    0  501 -0.00000000000E+00 -0.00000000000E+00 -0.27551339035E+02  0.27551339035E+02  0.00000000000E+00 0. -1.
         35    2    1    2    0    0  0.00000000000E+00  0.00000000000E+00  0.66977627439E+03  0.72487895246E+03  0.27721695111E+03 0.  0.
         25    1    3    3    0    0 -0.24494184957E+02 -0.64393760549E+02  0.35609708168E+03  0.38203619341E+03  0.12000000000E+03 0.  0.
         25    1    3    3    0    0  0.24494184957E+02  0.64393760549E+02  0.31367919272E+03  0.34284275906E+03  0.12000000000E+03 0.  0.
<mgrwt>
<rscale>  0 0.27721695E+03</rscale>
<asrwt>0</asrwt>
<pdfrwt beam="1">  1        2 0.10728116E+00 0.27721695E+03</pdfrwt>
<pdfrwt beam="2">  1       -2 0.42386681E-02 0.27721695E+03</pdfrwt>
<totfact> 0.10570427E+04</totfact>
</mgrwt>
</event>
<event>
 5    1  0.1129390E+001  0.2752623E+03  0.7818608E-02  0.1098305E+00
         -3   -1    0    0    0  501 -0.00000000000E+00  0.00000000000E+00  0.20092264633E+02  0.20092264633E+02  0.00000000000E+00 0.  1.
          3   -1    0    0  501    0  0.00000000000E+00 -0.00000000000E+00 -0.94276715570E+03  0.94276715570E+03  0.00000000000E+00 0.  1.
         35    2    1    2    0    0  0.00000000000E+00  0.00000000000E+00 -0.92267489107E+03  0.96285942033E+03  0.27526225444E+03 0.  0.
         25    1    3    3    0    0  0.12738319527E+02 -0.13475377562E+02 -0.23468412315E+03  0.26423566800E+03  0.12000000000E+03 0.  0.
         25    1    3    3    0    0 -0.12738319527E+02  0.13475377562E+02 -0.68799076791E+03  0.69862375233E+03  0.12000000000E+03 0.  0.
<mgrwt>
<rscale>  0 0.27526225E+03</rscale>
<asrwt>0</asrwt>
<pdfrwt beam="1">  1        3 0.14504110E+00 0.27526225E+03</pdfrwt>
<pdfrwt beam="2">  1       -3 0.30911176E-02 0.27526225E+03</pdfrwt>
<totfact> 0.46056715E+02</totfact>
</mgrwt>
</event>
<event>
 5    1  0.1129390E+001  0.2817582E+03  0.7818608E-02  0.1094733E+00
          1   -1    0    0  501    0  0.00000000000E+00  0.00000000000E+00  0.11685537312E+03  0.11685537312E+03  0.00000000000E+00 0. -1.
         -1   -1    0    0    0  501 -0.00000000000E+00 -0.00000000000E+00 -0.16984174332E+03  0.16984174332E+03  0.00000000000E+00 0. -1.
         35    2    1    2    0    0  0.00000000000E+00  0.00000000000E+00 -0.52986370201E+02  0.28669711644E+03  0.28175819624E+03 0.  0.
         25    1    3    3    0    0 -0.70495283762E+02  0.58730917528E+01 -0.50804969593E+01  0.13939113920E+03  0.12000000000E+03 0.  0.
         25    1    3    3    0    0  0.70495283762E+02 -0.58730917528E+01 -0.47905873241E+02  0.14730597724E+03  0.12000000000E+03 0.  0.
<mgrwt>
<rscale>  0 0.28175820E+03</rscale>
<asrwt>0</asrwt>
<pdfrwt beam="1">  1        1 0.17977750E-01 0.28175820E+03</pdfrwt>
<pdfrwt beam="2">  1       -1 0.26129499E-01 0.28175820E+03</pdfrwt>
<totfact> 0.37769027E+03</totfact>
</mgrwt>
</event>
<event>
 5    1  0.1129390E+001  0.2738094E+03  0.7818608E-02  0.1099119E+00
         -2   -1    0    0    0  501 -0.00000000000E+00  0.00000000000E+00  0.29404070834E+02  0.29404070834E+02  0.00000000000E+00 0. -1.
          2   -1    0    0  501    0  0.00000000000E+00 -0.00000000000E+00 -0.63742505915E+03  0.63742505915E+03  0.00000000000E+00 0. -1.
         35    2    1    2    0    0  0.00000000000E+00  0.00000000000E+00 -0.60802098832E+03  0.66682912998E+03  0.27380936135E+03 0.  0.
         25    1    3    3    0    0  0.19837561381E+02 -0.61877201864E+02 -0.27726847128E+03  0.30903094039E+03  0.12000000000E+03 0.  0.
         25    1    3    3    0    0 -0.19837561381E+02  0.61877201864E+02 -0.33075251703E+03  0.35779818959E+03  0.12000000000E+03 0.  0.
<mgrwt>
<rscale>  0 0.27380936E+03</rscale>
<asrwt>0</asrwt>
<pdfrwt beam="1">  1        2 0.98065395E-01 0.27380936E+03</pdfrwt>
<pdfrwt beam="2">  1       -2 0.45237032E-02 0.27380936E+03</pdfrwt>
<totfact> 0.10662210E+04</totfact>
</mgrwt>
</event>
<event>
 5    1  0.1129390E+001  0.2752269E+03  0.7818608E-02  0.1098325E+00
          1   -1    0    0  501    0  0.00000000000E+00  0.00000000000E+00  0.71625866708E+02  0.71625866708E+02  0.00000000000E+00 0. -1.
         -1   -1    0    0    0  501 -0.00000000000E+00 -0.00000000000E+00 -0.26439409637E+03  0.26439409637E+03  0.00000000000E+00 0. -1.
         35    2    1    2    0    0  0.00000000000E+00  0.00000000000E+00 -0.19276822966E+03  0.33601996308E+03  0.27522686137E+03 0.  0.
         25    1    3    3    0    0  0.38260645963E+02  0.47684536889E+02 -0.13091082878E+03  0.18781729734E+03  0.12000000000E+03 0.  0.
         25    1    3    3    0    0 -0.38260645963E+02 -0.47684536889E+02 -0.61857400880E+02  0.14820266574E+03  0.12000000000E+03 0.  0.
<mgrwt>
<rscale>  0 0.27522686E+03</rscale>
<asrwt>0</asrwt>
<pdfrwt beam="1">  1        1 0.11019364E-01 0.27522686E+03</pdfrwt>
<pdfrwt beam="2">  1       -1 0.40676014E-01 0.27522686E+03</pdfrwt>
<totfact> 0.33563082E+03</totfact>
</mgrwt>
</event>
<event>
 5    1  0.1129390E+001  0.2740906E+03  0.7818608E-02  0.1098961E+00
         -1   -1    0    0    0  501 -0.00000000000E+00  0.00000000000E+00  0.18649534833E+02  0.18649534833E+02  0.00000000000E+00 0. -1.
          1   -1    0    0  501    0  0.00000000000E+00 -0.00000000000E+00 -0.10070717615E+04  0.10070717615E+04  0.00000000000E+00 0. -1.
         35    2    1    2    0    0  0.00000000000E+00  0.00000000000E+00 -0.98842222671E+03  0.10257212964E+04  0.27409064119E+03 0.  0.
         25    1    3    3    0    0 -0.24409638898E+02 -0.83148791101E+01 -0.26607216142E+03  0.29301768337E+03  0.12000000000E+03 0.  0.
         25    1    3    3    0    0  0.24409638898E+02  0.83148791101E+01 -0.72235006529E+03  0.73270361301E+03  0.12000000000E+03 0.  0.
<mgrwt>
<rscale>  0 0.27409064E+03</rscale>
<asrwt>0</asrwt>
<pdfrwt beam="1">  1        1 0.15493411E+00 0.27409064E+03</pdfrwt>
<pdfrwt beam="2">  1       -1 0.28691593E-02 0.27409064E+03</pdfrwt>
<totfact> 0.63601655E+03</totfact>
</mgrwt>
</event>
<event>
 5    1  0.1129390E+001  0.2749554E+03  0.7818608E-02  0.1098477E+00
          1   -1    0    0  501    0  0.00000000000E+00  0.00000000000E+00  0.22160783139E+03  0.22160783139E+03  0.00000000000E+00 0.  1.
         -1   -1    0    0    0  501 -0.00000000000E+00 -0.00000000000E+00 -0.85286352131E+02  0.85286352131E+02  0.00000000000E+00 0.  1.
         35    2    1    2    0    0  0.00000000000E+00  0.00000000000E+00  0.13632147926E+03  0.30689418353E+03  0.27495544034E+03 0.  0.
         25    1    3    3    0    0 -0.27887436917E+02  0.53314297686E+02  0.35050090655E+02  0.13873944043E+03  0.12000000000E+03 0.  0.
         25    1    3    3    0    0  0.27887436917E+02 -0.53314297686E+02  0.10127138861E+03  0.16815474310E+03  0.12000000000E+03 0.  0.
<mgrwt>
<rscale>  0 0.27495544E+03</rscale>
<asrwt>0</asrwt>
<pdfrwt beam="1">  1        1 0.34093512E-01 0.27495544E+03</pdfrwt>
<pdfrwt beam="2">  1       -1 0.13120977E-01 0.27495544E+03</pdfrwt>
<totfact> 0.50848372E+03</totfact>
</mgrwt>
</event>
<event>
 5    1  0.1129390E+001  0.2743868E+03  0.7818608E-02  0.1098795E+00
          1   -1    0    0  501    0  0.00000000000E+00  0.00000000000E+00  0.62803787444E+03  0.62803787444E+03  0.00000000000E+00 0. -1.
         -1   -1    0    0    0  501 -0.00000000000E+00 -0.00000000000E+00 -0.29969572877E+02  0.29969572877E+02  0.00000000000E+00 0. -1.
         35    2    1    2    0    0  0.00000000000E+00  0.00000000000E+00  0.59806830156E+03  0.65800744731E+03  0.27438678428E+03 0.  0.
         25    1    3    3    0    0  0.55464070575E+02  0.17828076346E+02  0.37592028029E+03  0.39888614988E+03  0.12000000000E+03 0.  0.
         25    1    3    3    0    0 -0.55464070575E+02 -0.17828076346E+02  0.22214802127E+03  0.25912129744E+03  0.12000000000E+03 0.  0.
<mgrwt>
<rscale>  0 0.27438678E+03</rscale>
<asrwt>0</asrwt>
<pdfrwt beam="1">  1        1 0.96621202E-01 0.27438678E+03</pdfrwt>
<pdfrwt beam="2">  1       -1 0.46107040E-02 0.27438678E+03</pdfrwt>
<totfact> 0.65327669E+03</totfact>
</mgrwt>
</event>
<event>
 5    1  0.1129390E+001  0.2723970E+03  0.7818608E-02  0.1099916E+00
         -2   -1    0    0    0  501 -0.00000000000E+00  0.00000000000E+00  0.18792731122E+03  0.18792731122E+03  0.00000000000E+00 0.  1.
          2   -1    0    0  501    0  0.00000000000E+00 -0.00000000000E+00 -0.98708541462E+02  0.98708541462E+02  0.00000000000E+00 0.  1.
         35    2    1    2    0    0  0.00000000000E+00  0.00000000000E+00  0.89218769762E+02  0.28663585269E+03  0.27239699552E+03 0.  0.
         25    1    3    3    0    0  0.65989935785E+01  0.29199316270E+02  0.10463397897E+03  0.16200128500E+03  0.12000000000E+03 0.  0.
         25    1    3    3    0    0 -0.65989935785E+01 -0.29199316270E+02 -0.15415209209E+02  0.12463456768E+03  0.12000000000E+03 0.  0.
<mgrwt>
<rscale>  0 0.27239700E+03</rscale>
<asrwt>0</asrwt>
<pdfrwt beam="1">  1        2 0.15185929E-01 0.27239700E+03</pdfrwt>
<pdfrwt beam="2">  1       -2 0.28911894E-01 0.27239700E+03</pdfrwt>
<totfact> 0.41749660E+03</totfact>
</mgrwt>
</event>
<event>
 5    1  0.1129390E+001  0.2754615E+03  0.7818608E-02  0.1098194E+00
          1   -1    0    0  501    0  0.00000000000E+00  0.00000000000E+00  0.36137449897E+03  0.36137449897E+03  0.00000000000E+00 0. -1.
         -1   -1    0    0    0  501 -0.00000000000E+00 -0.00000000000E+00 -0.52493341374E+02  0.52493341374E+02  0.00000000000E+00 0. -1.
         35    2    1    2    0    0  0.00000000000E+00  0.00000000000E+00  0.30888115760E+03  0.41386784034E+03  0.27546146691E+03 0.  0.
         25    1    3    3    0    0 -0.13825651500E+02  0.39192788599E+02  0.23454444489E+03  0.26671767835E+03  0.12000000000E+03 0.  0.
         25    1    3    3    0    0  0.13825651500E+02 -0.39192788599E+02  0.74336712706E+02  0.14715016199E+03  0.12000000000E+03 0.  0.
<mgrwt>
<rscale>  0 0.27546147E+03</rscale>
<asrwt>0</asrwt>
<pdfrwt beam="1">  1        1 0.55596075E-01 0.27546147E+03</pdfrwt>
<pdfrwt beam="2">  1       -1 0.80758989E-02 0.27546147E+03</pdfrwt>
<totfact> 0.58260878E+03</totfact>
</mgrwt>
</event>
<event>
 5    1  0.1129390E+001  0.2741848E+03  0.7818608E-02  0.1098908E+00
          2   -1    0    0  501    0  0.00000000000E+00  0.00000000000E+00  0.47128486773E+03  0.47128486773E+03  0.00000000000E+00 0.  1.
         -2   -1    0    0    0  501 -0.00000000000E+00 -0.00000000000E+00 -0.39878920575E+02  0.39878920575E+02  0.00000000000E+00 0.  1.
         35    2    1    2    0    0  0.00000000000E+00  0.00000000000E+00  0.43140594715E+03  0.51116378831E+03  0.27418484137E+03 0.  0.
         25    1    3    3    0    0  0.57485103236E+02 -0.20272310268E+02  0.16712979082E+03  0.21458767587E+03  0.12000000000E+03 0.  0.
         25    1    3    3    0    0 -0.57485103236E+02  0.20272310268E+02  0.26427615634E+03  0.29657611243E+03  0.12000000000E+03 0.  0.
<mgrwt>
<rscale>  0 0.27418484E+03</rscale>
<asrwt>0</asrwt>
<pdfrwt beam="1">  1        2 0.72505360E-01 0.27418484E+03</pdfrwt>
<pdfrwt beam="2">  1       -2 0.61352189E-02 0.27418484E+03</pdfrwt>
<totfact> 0.94565203E+03</totfact>
</mgrwt>
</event>
<event>
 5    1  0.1129390E+001  0.2730574E+03  0.7818608E-02  0.1099542E+00
         -4   -1    0    0    0  501 -0.00000000000E+00  0.00000000000E+00  0.12510134744E+04  0.12510134744E+04  0.00000000000E+00 0.  1.
          4   -1    0    0  501    0  0.00000000000E+00 -0.00000000000E+00 -0.14899983509E+02  0.14899983509E+02  0.00000000000E+00 0.  1.
         35    2    1    2    0    0  0.00000000000E+00  0.00000000000E+00  0.12361134909E+04  0.12659134580E+04  0.27305735763E+03 0.  0.
         25    1    3    3    0    0 -0.72162220691E+00 -0.56427692517E+02  0.76867377983E+03  0.78002819502E+03  0.12000000000E+03 0.  0.
         25    1    3    3    0    0  0.72162220691E+00  0.56427692517E+02  0.46743971111E+03  0.48588526294E+03  0.12000000000E+03 0.  0.
<mgrwt>
<rscale>  0 0.27305736E+03</rscale>
<asrwt>0</asrwt>
<pdfrwt beam="1">  1        4 0.22923061E-02 0.27305736E+03</pdfrwt>
<pdfrwt beam="2">  1       -4 0.19246353E+00 0.27305736E+03</pdfrwt>
<totfact> 0.24720420E+02</totfact>
</mgrwt>
</event>
<event>
 5    1  0.1129390E+001  0.2747910E+03  0.7818608E-02  0.1098568E+00
          2   -1    0    0  501    0  0.00000000000E+00  0.00000000000E+00  0.64443934190E+03  0.64443934190E+03  0.00000000000E+00 0.  1.
         -2   -1    0    0    0  501 -0.00000000000E+00 -0.00000000000E+00 -0.29292943738E+02  0.29292943738E+02  0.00000000000E+00 0.  1.
         35    2    1    2    0    0  0.00000000000E+00  0.00000000000E+00  0.61514639817E+03  0.67373228564E+03  0.27479101430E+03 0.  0.
         25    1    3    3    0    0 -0.20803920360E+02 -0.61693505692E+02  0.34544802659E+03  0.37144748057E+03  0.12000000000E+03 0.  0.
         25    1    3    3    0    0  0.20803920360E+02  0.61693505692E+02  0.26969837158E+03  0.30228480507E+03  0.12000000000E+03 0.  0.
<mgrwt>
<rscale>  0 0.27479101E+03</rscale>
<asrwt>0</asrwt>
<pdfrwt beam="1">  1        2 0.99144503E-01 0.27479101E+03</pdfrwt>
<pdfrwt beam="2">  1       -2 0.45066072E-02 0.27479101E+03</pdfrwt>
<totfact> 0.10587057E+04</totfact>
</mgrwt>
</event>
<event>
 5    1  0.1129390E+001  0.2747912E+03  0.7818608E-02  0.1098568E+00
         -2   -1    0    0    0  501 -0.00000000000E+00  0.00000000000E+00  0.33411315422E+02  0.33411315422E+02  0.00000000000E+00 0.  1.
          2   -1    0    0  501    0  0.00000000000E+00 -0.00000000000E+00 -0.56500465916E+03  0.56500465916E+03  0.00000000000E+00 0.  1.
         35    2    1    2    0    0  0.00000000000E+00  0.00000000000E+00 -0.53159334373E+03  0.59841597458E+03  0.27479118532E+03 0.  0.
         25    1    3    3    0    0  0.30976067701E+00  0.37098630774E+02 -0.38706890762E+03  0.40693825527E+03  0.12000000000E+03 0.  0.
         25    1    3    3    0    0 -0.30976067701E+00 -0.37098630774E+02 -0.14452443612E+03  0.19147771931E+03  0.12000000000E+03 0.  0.
<mgrwt>
<rscale>  0 0.27479119E+03</rscale>
<asrwt>0</asrwt>
<pdfrwt beam="1">  1        2 0.86923784E-01 0.27479119E+03</pdfrwt>
<pdfrwt beam="2">  1       -2 0.51402029E-02 0.27479119E+03</pdfrwt>
<totfact> 0.10106263E+04</totfact>
</mgrwt>
</event>
<event>
 5    1  0.1129390E+001  0.2772696E+03  0.7818608E-02  0.1097190E+00
         -2   -1    0    0    0  501 -0.00000000000E+00  0.00000000000E+00  0.62835766409E+01  0.62835766409E+01  0.00000000000E+00 0. -1.
          2   -1    0    0  501    0  0.00000000000E+00 -0.00000000000E+00 -0.30587053444E+04  0.30587053444E+04  0.00000000000E+00 0. -1.
         35    2    1    2    0    0  0.00000000000E+00  0.00000000000E+00 -0.30524217677E+04  0.30649889210E+04  0.27726961213E+03 0.  0.
         25    1    3    3    0    0 -0.51854951267E+02 -0.24746885562E+02 -0.10954855225E+04  0.11035351713E+04  0.12000000000E+03 0.  0.
         25    1    3    3    0    0  0.51854951267E+02  0.24746885562E+02 -0.19569362452E+04  0.19614537497E+04  0.12000000000E+03 0.  0.
<mgrwt>
<rscale>  0 0.27726961E+03</rscale>
<asrwt>0</asrwt>
<pdfrwt beam="1">  1        2 0.47056968E+00 0.27726961E+03</pdfrwt>
<pdfrwt beam="2">  1       -2 0.96670486E-03 0.27726961E+03</pdfrwt>
<totfact> 0.43043264E+03</totfact>
</mgrwt>
</event>
<event>
 5    1  0.1129390E+001  0.2754253E+03  0.7818608E-02  0.1098214E+00
         -2   -1    0    0    0  501 -0.00000000000E+00  0.00000000000E+00  0.65148915403E+03  0.65148915403E+03  0.00000000000E+00 0. -1.
          2   -1    0    0  501    0  0.00000000000E+00 -0.00000000000E+00 -0.29109884449E+02  0.29109884449E+02  0.00000000000E+00 0. -1.
         35    2    1    2    0    0  0.00000000000E+00  0.00000000000E+00  0.62237926958E+03  0.68059903848E+03  0.27542530017E+03 0.  0.
         25    1    3    3    0    0 -0.24511048208E+02 -0.55509030187E+02  0.38460745093E+03  0.40743703222E+03  0.12000000000E+03 0.  0.
         25    1    3    3    0    0  0.24511048208E+02  0.55509030187E+02  0.23777181865E+03  0.27316200625E+03  0.12000000000E+03 0.  0.
<mgrwt>
<rscale>  0 0.27542530E+03</rscale>
<asrwt>0</asrwt>
<pdfrwt beam="1">  1        2 0.44784443E-02 0.27542530E+03</pdfrwt>
<pdfrwt beam="2">  1       -2 0.10022909E+00 0.27542530E+03</pdfrwt>
<totfact> 0.15522756E+03</totfact>
</mgrwt>
</event>
<event>
 5    1  0.1129390E+001  0.2730894E+03  0.7818608E-02  0.1099524E+00
          1   -1    0    0  501    0  0.00000000000E+00  0.00000000000E+00  0.13372585715E+04  0.13372585715E+04  0.00000000000E+00 0. -1.
         -1   -1    0    0    0  501 -0.00000000000E+00 -0.00000000000E+00 -0.13942292353E+02  0.13942292353E+02  0.00000000000E+00 0. -1.
         35    2    1    2    0    0  0.00000000000E+00  0.00000000000E+00  0.13233162791E+04  0.13512008638E+04  0.27308936233E+03 0.  0.
         25    1    3    3    0    0 -0.46513437799E+02 -0.24628883279E+02  0.85164261046E+03  0.86166421403E+03  0.12000000000E+03 0.  0.
         25    1    3    3    0    0  0.46513437799E+02  0.24628883279E+02  0.47167366868E+03  0.48953664981E+03  0.12000000000E+03 0.  0.
<mgrwt>
<rscale>  0 0.27308936E+03</rscale>
<asrwt>0</asrwt>
<pdfrwt beam="1">  1        1 0.20573199E+00 0.27308936E+03</pdfrwt>
<pdfrwt beam="2">  1       -1 0.21449691E-02 0.27308936E+03</pdfrwt>
<totfact> 0.56939634E+03</totfact>
</mgrwt>
</event>
<event>
 5    1  0.1129390E+001  0.2755932E+03  0.7818608E-02  0.1098120E+00
         -2   -1    0    0    0  501 -0.00000000000E+00  0.00000000000E+00  0.28762819640E+03  0.28762819640E+03  0.00000000000E+00 0. -1.
          2   -1    0    0  501    0  0.00000000000E+00 -0.00000000000E+00 -0.66015427041E+02  0.66015427041E+02  0.00000000000E+00 0. -1.
         35    2    1    2    0    0  0.00000000000E+00  0.00000000000E+00  0.22161276935E+03  0.35364362344E+03  0.27559316547E+03 0.  0.
         25    1    3    3    0    0  0.65137552681E+02 -0.71177752891E+01  0.88791412760E+02  0.16302600552E+03  0.12000000000E+03 0.  0.
         25    1    3    3    0    0 -0.65137552681E+02  0.71177752891E+01  0.13282135659E+03  0.19061761792E+03  0.12000000000E+03 0.  0.
<mgrwt>
<rscale>  0 0.27559317E+03</rscale>
<asrwt>0</asrwt>
<pdfrwt beam="1">  1        2 0.10156220E-01 0.27559317E+03</pdfrwt>
<pdfrwt beam="2">  1       -2 0.44250491E-01 0.27559317E+03</pdfrwt>
<totfact> 0.30647276E+03</totfact>
</mgrwt>
</event>
<event>
 5    1  0.1129390E+001  0.2754073E+03  0.7818608E-02  0.1098224E+00
          2   -1    0    0  501    0  0.00000000000E+00  0.00000000000E+00  0.10494697307E+03  0.10494697307E+03  0.00000000000E+00 0.  1.
         -2   -1    0    0    0  501 -0.00000000000E+00 -0.00000000000E+00 -0.18068449876E+03  0.18068449876E+03  0.00000000000E+00 0.  1.
         35    2    1    2    0    0  0.00000000000E+00  0.00000000000E+00 -0.75737525685E+02  0.28563147183E+03  0.27540727097E+03 0.  0.
         25    1    3    3    0    0  0.43164688546E+02  0.43428010387E+02 -0.82951088647E+01  0.13497403919E+03  0.12000000000E+03 0.  0.
         25    1    3    3    0    0 -0.43164688546E+02 -0.43428010387E+02 -0.67442416821E+02  0.15065743264E+03  0.12000000000E+03 0.  0.
<mgrwt>
<rscale>  0 0.27540727E+03</rscale>
<asrwt>0</asrwt>
<pdfrwt beam="1">  1        2 0.16145688E-01 0.27540727E+03</pdfrwt>
<pdfrwt beam="2">  1       -2 0.27797615E-01 0.27540727E+03</pdfrwt>
<totfact> 0.41700417E+03</totfact>
</mgrwt>
</event>
<event>
 5    1  0.1129390E+001  0.2731941E+03  0.7818608E-02  0.1099465E+00
          2   -1    0    0  501    0  0.00000000000E+00  0.00000000000E+00  0.68764926132E+03  0.68764926132E+03  0.00000000000E+00 0. -1.
         -2   -1    0    0    0  501 -0.00000000000E+00 -0.00000000000E+00 -0.27134114473E+02  0.27134114473E+02  0.00000000000E+00 0. -1.
         35    2    1    2    0    0  0.00000000000E+00  0.00000000000E+00  0.66051514684E+03  0.71478337579E+03  0.27319409784E+03 0.  0.
         25    1    3    3    0    0  0.29048214253E+02  0.58132431944E+02  0.31465206586E+03  0.34297099141E+03  0.12000000000E+03 0.  0.
         25    1    3    3    0    0 -0.29048214253E+02 -0.58132431944E+02  0.34586308098E+03  0.37181238438E+03  0.12000000000E+03 0.  0.
<mgrwt>
<rscale>  0 0.27319410E+03</rscale>
<asrwt>0</asrwt>
<pdfrwt beam="1">  1        2 0.10579218E+00 0.27319410E+03</pdfrwt>
<pdfrwt beam="2">  1       -2 0.41744796E-02 0.27319410E+03</pdfrwt>
<totfact> 0.10994891E+04</totfact>
</mgrwt>
</event>
<event>
 5    1  0.1129390E+001  0.2752907E+03  0.7818608E-02  0.1098289E+00
         -1   -1    0    0    0  501 -0.00000000000E+00  0.00000000000E+00  0.75331689801E+02  0.75331689801E+02  0.00000000000E+00 0.  1.
          1   -1    0    0  501    0  0.00000000000E+00 -0.00000000000E+00 -0.25150428715E+03  0.25150428715E+03  0.00000000000E+00 0.  1.
         35    2    1    2    0    0  0.00000000000E+00  0.00000000000E+00 -0.17617259734E+03  0.32683597695E+03  0.27529070411E+03 0.  0.
         25    1    3    3    0    0  0.25734411388E+02 -0.62072154080E+02 -0.94699840509E+02  0.16698284952E+03  0.12000000000E+03 0.  0.
         25    1    3    3    0    0 -0.25734411388E+02  0.62072154080E+02 -0.81472756835E+02  0.15985312743E+03  0.12000000000E+03 0.  0.
<mgrwt>
<rscale>  0 0.27529070E+03</rscale>
<asrwt>0</asrwt>
<pdfrwt beam="1">  1        1 0.38692968E-01 0.27529070E+03</pdfrwt>
<pdfrwt beam="2">  1       -1 0.11589491E-01 0.27529070E+03</pdfrwt>
<totfact> 0.52675345E+03</totfact>
</mgrwt>
</event>
<event>
 5    1  0.1129390E+001  0.2735064E+03  0.7818608E-02  0.1099289E+00
          2   -1    0    0  501    0  0.00000000000E+00  0.00000000000E+00  0.84007295310E+02  0.84007295310E+02  0.00000000000E+00 0. -1.
         -2   -1    0    0    0  501 -0.00000000000E+00 -0.00000000000E+00 -0.22261678744E+03  0.22261678744E+03  0.00000000000E+00 0. -1.
         35    2    1    2    0    0  0.00000000000E+00  0.00000000000E+00 -0.13860949213E+03  0.30662408275E+03  0.27350637436E+03 0.  0.
         25    1    3    3    0    0 -0.40466274674E+02 -0.17178899968E+02 -0.14741144832E+02  0.12864655200E+03  0.12000000000E+03 0.  0.
         25    1    3    3    0    0  0.40466274674E+02  0.17178899968E+02 -0.12386834730E+03  0.17797753075E+03  0.12000000000E+03 0.  0.
<mgrwt>
<rscale>  0 0.27350637E+03</rscale>
<asrwt>0</asrwt>
<pdfrwt beam="1">  1        2 0.12924200E-01 0.27350637E+03</pdfrwt>
<pdfrwt beam="2">  1       -2 0.34248736E-01 0.27350637E+03</pdfrwt>
<totfact> 0.37130353E+03</totfact>
</mgrwt>
</event>
<event>
 5    1  0.1129390E+001  0.2736256E+03  0.7818608E-02  0.1099222E+00
          2   -1    0    0  501    0  0.00000000000E+00  0.00000000000E+00  0.60574947480E+03  0.60574947480E+03  0.00000000000E+00 0.  1.
         -2   -1    0    0    0  501 -0.00000000000E+00 -0.00000000000E+00 -0.30900147431E+02  0.30900147431E+02  0.00000000000E+00 0.  1.
         35    2    1    2    0    0  0.00000000000E+00  0.00000000000E+00  0.57484932737E+03  0.63664962224E+03  0.27362564264E+03 0.  0.
         25    1    3    3    0    0  0.18823927753E+02  0.58588770498E+02  0.34102831035E+03  0.36672509151E+03  0.12000000000E+03 0.  0.
         25    1    3    3    0    0 -0.18823927753E+02 -0.58588770498E+02  0.23382101702E+03  0.26992453072E+03  0.12000000000E+03 0.  0.
<mgrwt>
<rscale>  0 0.27362564E+03</rscale>
<asrwt>0</asrwt>
<pdfrwt beam="1">  1        2 0.93192218E-01 0.27362564E+03</pdfrwt>
<pdfrwt beam="2">  1       -2 0.47538693E-02 0.27362564E+03</pdfrwt>
<totfact> 0.10498914E+04</totfact>
</mgrwt>
</event>
<event>
 5    1  0.1129390E+001  0.2750300E+03  0.7818608E-02  0.1098435E+00
          2   -1    0    0  501    0  0.00000000000E+00  0.00000000000E+00  0.61877025737E+03  0.61877025737E+03  0.00000000000E+00 0. -1.
         -2   -1    0    0    0  501 -0.00000000000E+00 -0.00000000000E+00 -0.30561216852E+02  0.30561216852E+02  0.00000000000E+00 0. -1.
         35    2    1    2    0    0  0.00000000000E+00  0.00000000000E+00  0.58820904052E+03  0.64933147422E+03  0.27502997667E+03 0.  0.
         25    1    3    3    0    0  0.24313117544E+02 -0.22265502268E+02  0.15596400720E+03  0.19952857394E+03  0.12000000000E+03 0.  0.
         25    1    3    3    0    0 -0.24313117544E+02  0.22265502268E+02  0.43224503332E+03  0.44980290029E+03  0.12000000000E+03 0.  0.
<mgrwt>
<rscale>  0 0.27502998E+03</rscale>
<asrwt>0</asrwt>
<pdfrwt beam="1">  1        2 0.95195414E-01 0.27502998E+03</pdfrwt>
<pdfrwt beam="2">  1       -2 0.47017262E-02 0.27502998E+03</pdfrwt>
<totfact> 0.10416098E+04</totfact>
</mgrwt>
</event>
<event>
 5    1  0.1129390E+001  0.2758712E+03  0.7818608E-02  0.1097966E+00
         -2   -1    0    0    0  501 -0.00000000000E+00  0.00000000000E+00  0.15235555896E+02  0.15235555896E+02  0.00000000000E+00 0.  1.
          2   -1    0    0  501    0  0.00000000000E+00 -0.00000000000E+00 -0.12488041188E+04  0.12488041188E+04  0.00000000000E+00 0.  1.
         35    2    1    2    0    0  0.00000000000E+00  0.00000000000E+00 -0.12335685629E+04  0.12640396747E+04  0.27587116525E+03 0.  0.
         25    1    3    3    0    0 -0.36680309456E+02 -0.56477043114E+02 -0.66052334519E+03  0.67470452129E+03  0.12000000000E+03 0.  0.
         25    1    3    3    0    0  0.36680309456E+02  0.56477043114E+02 -0.57304521768E+03  0.58933515337E+03  0.12000000000E+03 0.  0.
<mgrwt>
<rscale>  0 0.27587117E+03</rscale>
<asrwt>0</asrwt>
<pdfrwt beam="1">  1        2 0.19212379E+00 0.27587117E+03</pdfrwt>
<pdfrwt beam="2">  1       -2 0.23439307E-02 0.27587117E+03</pdfrwt>
<totfact> 0.11451418E+04</totfact>
</mgrwt>
</event>
<event>
 5    1  0.1129390E+001  0.2747999E+03  0.7818608E-02  0.1098563E+00
         -2   -1    0    0    0  501 -0.00000000000E+00  0.00000000000E+00  0.19673154998E+02  0.19673154998E+02  0.00000000000E+00 0. -1.
          2   -1    0    0  501    0  0.00000000000E+00 -0.00000000000E+00 -0.95961993338E+03  0.95961993338E+03  0.00000000000E+00 0. -1.
         35    2    1    2    0    0  0.00000000000E+00  0.00000000000E+00 -0.93994677838E+03  0.97929308838E+03  0.27479993951E+03 0.  0.
         25    1    3    3    0    0 -0.38100344163E+02 -0.43888812269E+02 -0.58821424127E+03  0.60313668244E+03  0.12000000000E+03 0.  0.
         25    1    3    3    0    0  0.38100344163E+02  0.43888812269E+02 -0.35173253711E+03  0.37615640594E+03  0.12000000000E+03 0.  0.
<mgrwt>
<rscale>  0 0.27479994E+03</rscale>
<asrwt>0</asrwt>
<pdfrwt beam="1">  1        2 0.14763383E+00 0.27479994E+03</pdfrwt>
<pdfrwt beam="2">  1       -2 0.30266393E-02 0.27479994E+03</pdfrwt>
<totfact> 0.11598667E+04</totfact>
</mgrwt>
</event>
<event>
 5    1  0.1129390E+001  0.2750957E+03  0.7818608E-02  0.1098398E+00
          1   -1    0    0  501    0  0.00000000000E+00  0.00000000000E+00  0.14466383972E+04  0.14466383972E+04  0.00000000000E+00 0. -1.
         -1   -1    0    0    0  501 -0.00000000000E+00 -0.00000000000E+00 -0.13078186660E+02  0.13078186660E+02  0.00000000000E+00 0. -1.
         35    2    1    2    0    0  0.00000000000E+00  0.00000000000E+00  0.14335602105E+04  0.14597165838E+04  0.27509567054E+03 0.  0.
         25    1    3    3    0    0  0.44913531327E+00 -0.21567472650E+02  0.37892591928E+03  0.39805804841E+03  0.12000000000E+03 0.  0.
         25    1    3    3    0    0 -0.44913531327E+00  0.21567472650E+02  0.10546342912E+04  0.10616585354E+04  0.12000000000E+03 0.  0.
<mgrwt>
<rscale>  0 0.27509567E+03</rscale>
<asrwt>0</asrwt>
<pdfrwt beam="1">  1        1 0.22255963E+00 0.27509567E+03</pdfrwt>
<pdfrwt beam="2">  1       -1 0.20120299E-02 0.27509567E+03</pdfrwt>
<totfact> 0.52788038E+03</totfact>
</mgrwt>
</event>
<event>
 5    1  0.1129390E+001  0.2757027E+03  0.7818608E-02  0.1098059E+00
         -2   -1    0    0    0  501 -0.00000000000E+00  0.00000000000E+00  0.17610866692E+02  0.17610866692E+02  0.00000000000E+00 0. -1.
          2   -1    0    0  501    0  0.00000000000E+00 -0.00000000000E+00 -0.10790495189E+04  0.10790495189E+04  0.00000000000E+00 0. -1.
         35    2    1    2    0    0  0.00000000000E+00  0.00000000000E+00 -0.10614386522E+04  0.10966603856E+04  0.27570271838E+03 0.  0.
         25    1    3    3    0    0 -0.50606264135E+02 -0.40699405578E+02 -0.45261447280E+03  0.47273385384E+03  0.12000000000E+03 0.  0.
         25    1    3    3    0    0  0.50606264135E+02  0.40699405578E+02 -0.60882417939E+03  0.62392653173E+03  0.12000000000E+03 0.  0.
<mgrwt>
<rscale>  0 0.27570272E+03</rscale>
<asrwt>0</asrwt>
<pdfrwt beam="1">  1        2 0.16600767E+00 0.27570272E+03</pdfrwt>
<pdfrwt beam="2">  1       -2 0.27093632E-02 0.27570272E+03</pdfrwt>
<totfact> 0.11570521E+04</totfact>
</mgrwt>
</event>
<event>
 5    1  0.1129390E+001  0.2746028E+03  0.7818608E-02  0.1098674E+00
         -1   -1    0    0    0  501 -0.00000000000E+00  0.00000000000E+00  0.26109641572E+02  0.26109641572E+02  0.00000000000E+00 0. -1.
          1   -1    0    0  501    0  0.00000000000E+00 -0.00000000000E+00 -0.72201942883E+03  0.72201942883E+03  0.00000000000E+00 0. -1.
         35    2    1    2    0    0  0.00000000000E+00  0.00000000000E+00 -0.69590978726E+03  0.74812907040E+03  0.27460275668E+03 0.  0.
         25    1    3    3    0    0  0.98575513242E+01  0.65698618344E+02 -0.33111888217E+03  0.35840367451E+03  0.12000000000E+03 0.  0.
         25    1    3    3    0    0 -0.98575513242E+01 -0.65698618344E+02 -0.36479090509E+03  0.38972539589E+03  0.12000000000E+03 0.  0.
<mgrwt>
<rscale>  0 0.27460276E+03</rscale>
<asrwt>0</asrwt>
<pdfrwt beam="1">  1        1 0.11107990E+00 0.27460276E+03</pdfrwt>
<pdfrwt beam="2">  1       -1 0.40168684E-02 0.27460276E+03</pdfrwt>
<totfact> 0.65632574E+03</totfact>
</mgrwt>
</event>
<event>
 5    1  0.1129390E+001  0.2744899E+03  0.7818608E-02  0.1098737E+00
          1   -1    0    0  501    0  0.00000000000E+00  0.00000000000E+00  0.19248468225E+03  0.19248468225E+03  0.00000000000E+00 0. -1.
         -1   -1    0    0    0  501 -0.00000000000E+00 -0.00000000000E+00 -0.97858022965E+02  0.97858022965E+02  0.00000000000E+00 0. -1.
         35    2    1    2    0    0  0.00000000000E+00  0.00000000000E+00  0.94626659289E+02  0.29034270522E+03  0.27448985742E+03 0.  0.
         25    1    3    3    0    0 -0.32975555649E+02 -0.54158378041E+02  0.25748292019E+02  0.13814301185E+03  0.12000000000E+03 0.  0.
         25    1    3    3    0    0  0.32975555649E+02  0.54158378041E+02  0.68878367270E+02  0.15219969336E+03  0.12000000000E+03 0.  0.
<mgrwt>
<rscale>  0 0.27448986E+03</rscale>
<asrwt>0</asrwt>
<pdfrwt beam="1">  1        1 0.29613028E-01 0.27448986E+03</pdfrwt>
<pdfrwt beam="2">  1       -1 0.15055081E-01 0.27448986E+03</pdfrwt>
<totfact> 0.48867286E+03</totfact>
</mgrwt>
</event>
<event>
 5    1  0.1129390E+001  0.2725409E+03  0.7818608E-02  0.1099834E+00
         -1   -1    0    0    0  501 -0.00000000000E+00  0.00000000000E+00  0.43271790082E+02  0.43271790082E+02  0.00000000000E+00 0. -1.
          1   -1    0    0  501    0  0.00000000000E+00 -0.00000000000E+00 -0.42913964691E+03  0.42913964691E+03  0.00000000000E+00 0. -1.
         35    2    1    2    0    0  0.00000000000E+00  0.00000000000E+00 -0.38586785683E+03  0.47241143699E+03  0.27254093796E+03 0.  0.
         25    1    3    3    0    0  0.18832371627E+02 -0.17272500753E+02 -0.29572438881E+03  0.32016544417E+03  0.12000000000E+03 0.  0.
         25    1    3    3    0    0 -0.18832371627E+02  0.17272500753E+02 -0.90143468014E+02  0.15224599282E+03  0.12000000000E+03 0.  0.
<mgrwt>
<rscale>  0 0.27254094E+03</rscale>
<asrwt>0</asrwt>
<pdfrwt beam="1">  1        1 0.66021483E-01 0.27254094E+03</pdfrwt>
<pdfrwt beam="2">  1       -1 0.66571986E-02 0.27254094E+03</pdfrwt>
<totfact> 0.62694256E+03</totfact>
</mgrwt>
</event>
<event>
 5    1  0.1129390E+001  0.2635375E+03  0.7818608E-02  0.1105036E+00
         -2   -1    0    0    0  501 -0.00000000000E+00  0.00000000000E+00  0.89484280452E+02  0.89484280452E+02  0.00000000000E+00 0. -1.
          2   -1    0    0  501    0  0.00000000000E+00 -0.00000000000E+00 -0.19403407147E+03  0.19403407147E+03  0.00000000000E+00 0. -1.
         35    2    1    2    0    0  0.00000000000E+00  0.00000000000E+00 -0.10454979102E+03  0.28351835193E+03  0.26353746807E+03 0.  0.
         25    1    3    3    0    0 -0.25745373788E+02 -0.44188698224E+02 -0.32219214069E+02  0.13436347375E+03  0.12000000000E+03 0.  0.
         25    1    3    3    0    0  0.25745373788E+02  0.44188698224E+02 -0.72330576952E+02  0.14915487818E+03  0.12000000000E+03 0.  0.
<mgrwt>
<rscale>  0 0.26353747E+03</rscale>
<asrwt>0</asrwt>
<pdfrwt beam="1">  1        2 0.29851395E-01 0.26353747E+03</pdfrwt>
<pdfrwt beam="2">  1       -2 0.13766813E-01 0.26353747E+03</pdfrwt>
<totfact> 0.68877510E+03</totfact>
</mgrwt>
</event>
<event>
 5    1  0.1129390E+001  0.2751432E+03  0.7818608E-02  0.1098372E+00
         -2   -1    0    0    0  501 -0.00000000000E+00  0.00000000000E+00  0.43002482106E+02  0.43002482106E+02  0.00000000000E+00 0.  1.
          2   -1    0    0  501    0  0.00000000000E+00 -0.00000000000E+00 -0.44011285787E+03  0.44011285787E+03  0.00000000000E+00 0.  1.
         35    2    1    2    0    0  0.00000000000E+00  0.00000000000E+00 -0.39711037576E+03  0.48311533998E+03  0.27514320123E+03 0.  0.
         25    1    3    3    0    0 -0.38647797948E+01  0.57414512714E+02 -0.25974872425E+03  0.29185743530E+03  0.12000000000E+03 0.  0.
         25    1    3    3    0    0  0.38647797948E+01 -0.57414512714E+02 -0.13736165152E+03  0.19125790467E+03  0.12000000000E+03 0.  0.
<mgrwt>
<rscale>  0 0.27514320E+03</rscale>
<asrwt>0</asrwt>
<pdfrwt beam="1">  1        2 0.67709668E-01 0.27514320E+03</pdfrwt>
<pdfrwt beam="2">  1       -2 0.66157667E-02 0.27514320E+03</pdfrwt>
<totfact> 0.90811658E+03</totfact>
</mgrwt>
</event>
<event>
 5    1  0.1129390E+001  0.2760391E+03  0.7818608E-02  0.1097872E+00
          3   -1    0    0  501    0  0.00000000000E+00  0.00000000000E+00  0.91940809045E+03  0.91940809045E+03  0.00000000000E+00 0.  1.
         -3   -1    0    0    0  501 -0.00000000000E+00 -0.00000000000E+00 -0.20719201564E+02  0.20719201564E+02  0.00000000000E+00 0.  1.
         35    2    1    2    0    0  0.00000000000E+00  0.00000000000E+00  0.89868888889E+03  0.94012729201E+03  0.27603913886E+03 0.  0.
         25    1    3    3    0    0 -0.57262759527E+02 -0.25331196716E+02  0.35740690391E+03  0.38217847679E+03  0.12000000000E+03 0.  0.
         25    1    3    3    0    0  0.57262759527E+02  0.25331196716E+02  0.54128198498E+03  0.55794881523E+03  0.12000000000E+03 0.  0.
<mgrwt>
<rscale>  0 0.27603914E+03</rscale>
<asrwt>0</asrwt>
<pdfrwt beam="1">  1        3 0.14144737E+00 0.27603914E+03</pdfrwt>
<pdfrwt beam="2">  1       -3 0.31875702E-02 0.27603914E+03</pdfrwt>
<totfact> 0.46745144E+02</totfact>
</mgrwt>
</event>
<event>
 5    1  0.1129390E+001  0.2745020E+03  0.7818608E-02  0.1098730E+00
         -1   -1    0    0    0  501 -0.00000000000E+00  0.00000000000E+00  0.81078712765E+02  0.81078712765E+02  0.00000000000E+00 0.  1.
          1   -1    0    0  501    0  0.00000000000E+00 -0.00000000000E+00 -0.23234004983E+03  0.23234004983E+03  0.00000000000E+00 0.  1.
         35    2    1    2    0    0  0.00000000000E+00  0.00000000000E+00 -0.15126133707E+03  0.31341876260E+03  0.27450196476E+03 0.  0.
         25    1    3    3    0    0  0.33977227488E+02  0.17872387836E+02 -0.13779131921E+03  0.18670919068E+03  0.12000000000E+03 0.  0.
         25    1    3    3    0    0 -0.33977227488E+02 -0.17872387836E+02 -0.13470017859E+02  0.12670957192E+03  0.12000000000E+03 0.  0.
<mgrwt>
<rscale>  0 0.27450196E+03</rscale>
<asrwt>0</asrwt>
<pdfrwt beam="1">  1        1 0.35744623E-01 0.27450196E+03</pdfrwt>
<pdfrwt beam="2">  1       -1 0.12473648E-01 0.27450196E+03</pdfrwt>
<totfact> 0.51869287E+03</totfact>
</mgrwt>
</event>
<event>
 5    1  0.1129390E+001  0.2773094E+03  0.7818608E-02  0.1097168E+00
         -2   -1    0    0    0  501 -0.00000000000E+00  0.00000000000E+00  0.55994273640E+01  0.55994273640E+01  0.00000000000E+00 0. -1.
          2   -1    0    0  501    0  0.00000000000E+00 -0.00000000000E+00 -0.34334080494E+04  0.34334080494E+04  0.00000000000E+00 0. -1.
         35    2    1    2    0    0  0.00000000000E+00  0.00000000000E+00 -0.34278086220E+04  0.34390074767E+04  0.27730935061E+03 0.  0.
         25    1    3    3    0    0 -0.59385702536E+02  0.27532432494E+02 -0.14256105070E+04  0.14321487402E+04  0.12000000000E+03 0.  0.
         25    1    3    3    0    0  0.59385702536E+02 -0.27532432494E+02 -0.20021981150E+04  0.20068587365E+04  0.12000000000E+03 0.  0.
<mgrwt>
<rscale>  0 0.27730935E+03</rscale>
<asrwt>0</asrwt>
<pdfrwt beam="1">  1        2 0.52821543E+00 0.27730935E+03</pdfrwt>
<pdfrwt beam="2">  1       -2 0.86145232E-03 0.27730935E+03</pdfrwt>
<totfact> 0.29687320E+03</totfact>
</mgrwt>
</event>
<event>
 5    1  0.1129390E+001  0.2747039E+03  0.7818608E-02  0.1098617E+00
          2   -1    0    0  501    0  0.00000000000E+00  0.00000000000E+00  0.91079369330E+02  0.91079369330E+02  0.00000000000E+00 0.  1.
         -2   -1    0    0    0  501 -0.00000000000E+00 -0.00000000000E+00 -0.20713315958E+03  0.20713315958E+03  0.00000000000E+00 0.  1.
         35    2    1    2    0    0  0.00000000000E+00  0.00000000000E+00 -0.11605379025E+03  0.29821252891E+03  0.27470389544E+03 0.  0.
         25    1    3    3    0    0 -0.51052811318E+02  0.31428029846E+02 -0.90073464314E+02  0.16157765804E+03  0.12000000000E+03 0.  0.
         25    1    3    3    0    0  0.51052811318E+02 -0.31428029846E+02 -0.25980325940E+02  0.13663487088E+03  0.12000000000E+03 0.  0.
<mgrwt>
<rscale>  0 0.27470390E+03</rscale>
<asrwt>0</asrwt>
<pdfrwt beam="1">  1        2 0.14012211E-01 0.27470390E+03</pdfrwt>
<pdfrwt beam="2">  1       -2 0.31866639E-01 0.27470390E+03</pdfrwt>
<totfact> 0.38496756E+03</totfact>
</mgrwt>
</event>
<event>
 5    1  0.1129390E+001  0.2745113E+03  0.7818608E-02  0.1098725E+00
         -2   -1    0    0    0  501 -0.00000000000E+00  0.00000000000E+00  0.14788462185E+03  0.14788462185E+03  0.00000000000E+00 0.  1.
          2   -1    0    0  501    0  0.00000000000E+00 -0.00000000000E+00 -0.12739064278E+03  0.12739064278E+03  0.00000000000E+00 0.  1.
         35    2    1    2    0    0  0.00000000000E+00  0.00000000000E+00  0.20493979063E+02  0.27527526463E+03  0.27451132607E+03 0.  0.
         25    1    3    3    0    0  0.59475430138E+02 -0.28103689916E+02 -0.36418119499E+00  0.13684764085E+03  0.12000000000E+03 0.  0.
         25    1    3    3    0    0 -0.59475430138E+02  0.28103689916E+02  0.20858160258E+02  0.13842762378E+03  0.12000000000E+03 0.  0.
<mgrwt>
<rscale>  0 0.27451133E+03</rscale>
<asrwt>0</asrwt>
<pdfrwt beam="1">  1        2 0.19598560E-01 0.27451133E+03</pdfrwt>
<pdfrwt beam="2">  1       -2 0.22751480E-01 0.27451133E+03</pdfrwt>
<totfact> 0.47424404E+03</totfact>
</mgrwt>
</event>
<event>
 5    1  0.1129390E+001  0.2796089E+03  0.7818608E-02  0.1095903E+00
          1   -1    0    0  501    0  0.00000000000E+00  0.00000000000E+00  0.13575451190E+03  0.13575451190E+03  0.00000000000E+00 0. -1.
         -1   -1    0    0    0  501 -0.00000000000E+00 -0.00000000000E+00 -0.14397517482E+03  0.14397517482E+03  0.00000000000E+00 0. -1.
         35    2    1    2    0    0  0.00000000000E+00  0.00000000000E+00 -0.82206629188E+01  0.27972968672E+03  0.27960886670E+03 0.  0.
         25    1    3    3    0    0 -0.65431195391E+02  0.74737795691E+00 -0.33508053592E+02  0.14072878014E+03  0.12000000000E+03 0.  0.
         25    1    3    3    0    0  0.65431195391E+02 -0.74737795691E+00  0.25287390674E+02  0.13900090658E+03  0.12000000000E+03 0.  0.
<mgrwt>
<rscale>  0 0.27960887E+03</rscale>
<asrwt>0</asrwt>
<pdfrwt beam="1">  1        1 0.20885310E-01 0.27960887E+03</pdfrwt>
<pdfrwt beam="2">  1       -1 0.22150027E-01 0.27960887E+03</pdfrwt>
<totfact> 0.40912254E+03</totfact>
</mgrwt>
</event>
<event>
 5    1  0.1129390E+001  0.2750745E+03  0.7818608E-02  0.1098410E+00
          1   -1    0    0  501    0  0.00000000000E+00  0.00000000000E+00  0.23455222530E+04  0.23455222530E+04  0.00000000000E+00 0. -1.
         -1   -1    0    0    0  501 -0.00000000000E+00 -0.00000000000E+00 -0.80649396371E+01  0.80649396371E+01  0.00000000000E+00 0. -1.
         35    2    1    2    0    0  0.00000000000E+00  0.00000000000E+00  0.23374573134E+04  0.23535871927E+04  0.27507450182E+03 0.  0.
         25    1    3    3    0    0 -0.47075972186E+02  0.46919430035E+02  0.12538251628E+04  0.12613069091E+04  0.12000000000E+03 0.  0.
         25    1    3    3    0    0  0.47075972186E+02 -0.46919430035E+02  0.10836321506E+04  0.10922802836E+04  0.12000000000E+03 0.  0.
<mgrwt>
<rscale>  0 0.27507450E+03</rscale>
<asrwt>0</asrwt>
<pdfrwt beam="1">  1        1 0.36084903E+00 0.27507450E+03</pdfrwt>
<pdfrwt beam="2">  1       -1 0.12407618E-02 0.27507450E+03</pdfrwt>
<totfact> 0.27601754E+03</totfact>
</mgrwt>
</event>
<event>
 5    1  0.1129390E+001  0.2744508E+03  0.7818608E-02  0.1098759E+00
          2   -1    0    0  501    0  0.00000000000E+00  0.00000000000E+00  0.40053814455E+04  0.40053814455E+04  0.00000000000E+00 0. -1.
         -2   -1    0    0    0  501 -0.00000000000E+00 -0.00000000000E+00 -0.47013771818E+01  0.47013771818E+01  0.00000000000E+00 0. -1.
         35    2    1    2    0    0  0.00000000000E+00  0.00000000000E+00  0.40006800683E+04  0.40100828226E+04  0.27445078927E+03 0.  0.
         25    1    3    3    0    0  0.45781715475E+02  0.28231836173E+02  0.25733204247E+04  0.25766782900E+04  0.12000000000E+03 0.  0.
         25    1    3    3    0    0 -0.45781715475E+02 -0.28231836173E+02  0.14273596436E+04  0.14334045326E+04  0.12000000000E+03 0.  0.
<mgrwt>
<rscale>  0 0.27445079E+03</rscale>
<asrwt>0</asrwt>
<pdfrwt beam="1">  1        2 0.61620980E+00 0.27445079E+03</pdfrwt>
<pdfrwt beam="2">  1       -2 0.72329200E-03 0.27445079E+03</pdfrwt>
<totfact> 0.15110169E+03</totfact>
</mgrwt>
</event>
<event>
 5    1  0.1129390E+001  0.2743515E+03  0.7818608E-02  0.1098815E+00
          1   -1    0    0  501    0  0.00000000000E+00  0.00000000000E+00  0.71945334512E+03  0.71945334512E+03  0.00000000000E+00 0. -1.
         -1   -1    0    0    0  501 -0.00000000000E+00 -0.00000000000E+00 -0.26154839336E+02  0.26154839336E+02  0.00000000000E+00 0. -1.
         35    2    1    2    0    0  0.00000000000E+00  0.00000000000E+00  0.69329850579E+03  0.74560818446E+03  0.27435150192E+03 0.  0.
         25    1    3    3    0    0  0.59473531226E+02 -0.28437095516E+02  0.32368220685E+03  0.35144834663E+03  0.12000000000E+03 0.  0.
         25    1    3    3    0    0 -0.59473531226E+02  0.28437095516E+02  0.36961629894E+03  0.39415983783E+03  0.12000000000E+03 0.  0.
<mgrwt>
<rscale>  0 0.27435150E+03</rscale>
<asrwt>0</asrwt>
<pdfrwt beam="1">  1        1 0.11068511E+00 0.27435150E+03</pdfrwt>
<pdfrwt beam="2">  1       -1 0.40238220E-02 0.27435150E+03</pdfrwt>
<totfact> 0.65807027E+03</totfact>
</mgrwt>
</event>
<event>
 5    1  0.1129390E+001  0.2779298E+03  0.7818608E-02  0.1096825E+00
          1   -1    0    0  501    0  0.00000000000E+00  0.00000000000E+00  0.25968040684E+03  0.25968040684E+03  0.00000000000E+00 0. -1.
         -1   -1    0    0    0  501 -0.00000000000E+00 -0.00000000000E+00 -0.74365436621E+02  0.74365436621E+02  0.00000000000E+00 0. -1.
         35    2    1    2    0    0  0.00000000000E+00  0.00000000000E+00  0.18531497022E+03  0.33404584346E+03  0.27792982450E+03 0.  0.
         25    1    3    3    0    0 -0.15809978554E+02 -0.62010455302E+02  0.58324257918E+02  0.14797625164E+03  0.12000000000E+03 0.  0.
         25    1    3    3    0    0  0.15809978554E+02  0.62010455302E+02  0.12699071230E+03  0.18606959182E+03  0.12000000000E+03 0.  0.
<mgrwt>
<rscale>  0 0.27792982E+03</rscale>
<asrwt>0</asrwt>
<pdfrwt beam="1">  1        1 0.39950831E-01 0.27792982E+03</pdfrwt>
<pdfrwt beam="2">  1       -1 0.11440837E-01 0.27792982E+03</pdfrwt>
<totfact> 0.51646141E+03</totfact>
</mgrwt>
</event>
<event>
 5    1  0.1129390E+001  0.2738755E+03  0.7818608E-02  0.1099082E+00
         -2   -1    0    0    0  501 -0.00000000000E+00  0.00000000000E+00  0.10428153438E+03  0.10428153438E+03  0.00000000000E+00 0. -1.
          2   -1    0    0  501    0  0.00000000000E+00 -0.00000000000E+00 -0.17982035062E+03  0.17982035062E+03  0.00000000000E+00 0. -1.
         35    2    1    2    0    0  0.00000000000E+00  0.00000000000E+00 -0.75538816232E+02  0.28410188500E+03  0.27387546130E+03 0.  0.
         25    1    3    3    0    0 -0.32330021961E+02  0.47287238013E+02 -0.38271704830E+01  0.13302616447E+03  0.12000000000E+03 0.  0.
         25    1    3    3    0    0  0.32330021961E+02 -0.47287238013E+02 -0.71711645749E+02  0.15107572053E+03  0.12000000000E+03 0.  0.
<mgrwt>
<rscale>  0 0.27387546E+03</rscale>
<asrwt>0</asrwt>
<pdfrwt beam="1">  1        2 0.27664669E-01 0.27387546E+03</pdfrwt>
<pdfrwt beam="2">  1       -2 0.16043313E-01 0.27387546E+03</pdfrwt>
<totfact> 0.58268727E+03</totfact>
</mgrwt>
</event>
<event>
 5    1  0.1129390E+001  0.2753197E+03  0.7818608E-02  0.1098273E+00
          2   -1    0    0  501    0  0.00000000000E+00  0.00000000000E+00  0.14996648804E+04  0.14996648804E+04  0.00000000000E+00 0.  1.
         -2   -1    0    0    0  501 -0.00000000000E+00 -0.00000000000E+00 -0.12636314500E+02  0.12636314500E+02  0.00000000000E+00 0.  1.
         35    2    1    2    0    0  0.00000000000E+00  0.00000000000E+00  0.14870285659E+04  0.15123011949E+04  0.27531972013E+03 0.  0.
         25    1    3    3    0    0 -0.55272163408E+02 -0.13786293008E+02  0.94195618350E+03  0.95127626143E+03  0.12000000000E+03 0.  0.
         25    1    3    3    0    0  0.55272163408E+02  0.13786293008E+02  0.54507238240E+03  0.56102493348E+03  0.12000000000E+03 0.  0.
<mgrwt>
<rscale>  0 0.27531972E+03</rscale>
<asrwt>0</asrwt>
<pdfrwt beam="1">  1        2 0.23071753E+00 0.27531972E+03</pdfrwt>
<pdfrwt beam="2">  1       -2 0.19440496E-02 0.27531972E+03</pdfrwt>
<totfact> 0.11002690E+04</totfact>
</mgrwt>
</event>
<event>
 5    1  0.1129390E+001  0.2750065E+03  0.7818608E-02  0.1098448E+00
          2   -1    0    0  501    0  0.00000000000E+00  0.00000000000E+00  0.46407203055E+03  0.46407203055E+03  0.00000000000E+00 0. -1.
         -2   -1    0    0    0  501 -0.00000000000E+00 -0.00000000000E+00 -0.40741834007E+02  0.40741834007E+02  0.00000000000E+00 0. -1.
         35    2    1    2    0    0  0.00000000000E+00  0.00000000000E+00  0.42333019654E+03  0.50481386456E+03  0.27500651364E+03 0.  0.
         25    1    3    3    0    0  0.69643753816E+01  0.66748072478E+02  0.20831137656E+03  0.24959454583E+03  0.12000000000E+03 0.  0.
         25    1    3    3    0    0 -0.69643753816E+01 -0.66748072478E+02  0.21501881998E+03  0.25521931873E+03  0.12000000000E+03 0.  0.
<mgrwt>
<rscale>  0 0.27500651E+03</rscale>
<asrwt>0</asrwt>
<pdfrwt beam="1">  1        2 0.71395693E-01 0.27500651E+03</pdfrwt>
<pdfrwt beam="2">  1       -2 0.62679748E-02 0.27500651E+03</pdfrwt>
<totfact> 0.93090122E+03</totfact>
</mgrwt>
</event>
<event>
 5    1  0.1129390E+001  0.2751034E+03  0.7818608E-02  0.1098394E+00
         -4   -1    0    0    0  501 -0.00000000000E+00  0.00000000000E+00  0.12767421345E+03  0.12767421345E+03  0.00000000000E+00 0. -1.
          4   -1    0    0  501    0  0.00000000000E+00 -0.00000000000E+00 -0.14819340708E+03  0.14819340708E+03  0.00000000000E+00 0. -1.
         35    2    1    2    0    0  0.00000000000E+00  0.00000000000E+00 -0.20519193633E+02  0.27586762053E+03  0.27510344736E+03 0.  0.
         25    1    3    3    0    0 -0.46249299978E+02 -0.48126677816E+02 -0.21561955908E+01  0.13733107458E+03  0.12000000000E+03 0.  0.
         25    1    3    3    0    0  0.46249299978E+02  0.48126677816E+02 -0.18362998042E+02  0.13853654595E+03  0.12000000000E+03 0.  0.
<mgrwt>
<rscale>  0 0.27510345E+03</rscale>
<asrwt>0</asrwt>
<pdfrwt beam="1">  1        4 0.22798986E-01 0.27510345E+03</pdfrwt>
<pdfrwt beam="2">  1       -4 0.19642187E-01 0.27510345E+03</pdfrwt>
<totfact> 0.77671130E+02</totfact>
</mgrwt>
</event>
<event>
 5    1  0.1129390E+001  0.2748694E+03  0.7818608E-02  0.1098525E+00
         -1   -1    0    0    0  501 -0.00000000000E+00  0.00000000000E+00  0.82471051681E+02  0.82471051681E+02  0.00000000000E+00 0. -1.
          1   -1    0    0  501    0  0.00000000000E+00 -0.00000000000E+00 -0.22902947176E+03  0.22902947176E+03  0.00000000000E+00 0. -1.
         35    2    1    2    0    0  0.00000000000E+00  0.00000000000E+00 -0.14655842008E+03  0.31150052344E+03  0.27486943374E+03 0.  0.
         25    1    3    3    0    0  0.18321695521E+02 -0.49366837118E+02 -0.26340432081E+02  0.13366595489E+03  0.12000000000E+03 0.  0.
         25    1    3    3    0    0 -0.18321695521E+02  0.49366837118E+02 -0.12021798800E+03  0.17783456855E+03  0.12000000000E+03 0.  0.
<mgrwt>
<rscale>  0 0.27486943E+03</rscale>
<asrwt>0</asrwt>
<pdfrwt beam="1">  1        1 0.35235303E-01 0.27486943E+03</pdfrwt>
<pdfrwt beam="2">  1       -1 0.12687854E-01 0.27486943E+03</pdfrwt>
<totfact> 0.51424919E+03</totfact>
</mgrwt>
</event>
<event>
 5    1  0.1129390E+001  0.2748060E+03  0.7818608E-02  0.1098560E+00
          3   -1    0    0  501    0  0.00000000000E+00  0.00000000000E+00  0.30894624643E+02  0.30894624643E+02  0.00000000000E+00 0. -1.
         -3   -1    0    0    0  501 -0.00000000000E+00 -0.00000000000E+00 -0.61109622798E+03  0.61109622798E+03  0.00000000000E+00 0. -1.
         35    2    1    2    0    0  0.00000000000E+00  0.00000000000E+00 -0.58020160333E+03  0.64199085262E+03  0.27480603039E+03 0.  0.
         25    1    3    3    0    0  0.48870572809E+01  0.49137946589E+02 -0.18455477238E+03  0.22560781265E+03  0.12000000000E+03 0.  0.
         25    1    3    3    0    0 -0.48870572809E+01 -0.49137946589E+02 -0.39564683096E+03  0.41638303997E+03  0.12000000000E+03 0.  0.
<mgrwt>
<rscale>  0 0.27480603E+03</rscale>
<asrwt>0</asrwt>
<pdfrwt beam="1">  1        3 0.47530193E-02 0.27480603E+03</pdfrwt>
<pdfrwt beam="2">  1       -3 0.94014801E-01 0.27480603E+03</pdfrwt>
<totfact> 0.65315052E+02</totfact>
</mgrwt>
</event>
<event>
 5    1  0.1129390E+001  0.2749379E+03  0.7818608E-02  0.1098486E+00
         -2   -1    0    0    0  501 -0.00000000000E+00  0.00000000000E+00  0.43523161853E+02  0.43523161853E+02  0.00000000000E+00 0.  1.
          2   -1    0    0  501    0  0.00000000000E+00 -0.00000000000E+00 -0.43419890421E+03  0.43419890421E+03  0.00000000000E+00 0.  1.
         35    2    1    2    0    0  0.00000000000E+00  0.00000000000E+00 -0.39067574235E+03  0.47772206606E+03  0.27493787796E+03 0.  0.
         25    1    3    3    0    0 -0.66358988756E+01  0.33620907491E+02 -0.95170549425E+02  0.15694532186E+03  0.12000000000E+03 0.  0.
         25    1    3    3    0    0  0.66358988756E+01 -0.33620907491E+02 -0.29550519293E+03  0.32077674420E+03  0.12000000000E+03 0.  0.
<mgrwt>
<rscale>  0 0.27493788E+03</rscale>
<asrwt>0</asrwt>
<pdfrwt beam="1">  1        2 0.66799831E-01 0.27493788E+03</pdfrwt>
<pdfrwt beam="2">  1       -2 0.66958711E-02 0.27493788E+03</pdfrwt>
<totfact> 0.90470237E+03</totfact>
</mgrwt>
</event>
<event>
 5    1  0.1129390E+001  0.2781266E+03  0.7818608E-02  0.1096717E+00
         -1   -1    0    0    0  501 -0.00000000000E+00  0.00000000000E+00  0.25879755015E+02  0.25879755015E+02  0.00000000000E+00 0. -1.
          1   -1    0    0  501    0  0.00000000000E+00 -0.00000000000E+00 -0.74724821761E+03  0.74724821761E+03  0.00000000000E+00 0. -1.
         35    2    1    2    0    0  0.00000000000E+00  0.00000000000E+00 -0.72136846260E+03  0.77312797263E+03  0.27812659569E+03 0.  0.
         25    1    3    3    0    0  0.45021736421E+02 -0.30186341592E+02 -0.23635580969E+03  0.27055912615E+03  0.12000000000E+03 0.  0.
         25    1    3    3    0    0 -0.45021736421E+02  0.30186341592E+02 -0.48501265291E+03  0.50256884647E+03  0.12000000000E+03 0.  0.
<mgrwt>
<rscale>  0 0.27812660E+03</rscale>
<asrwt>0</asrwt>
<pdfrwt beam="1">  1        1 0.11496126E+00 0.27812660E+03</pdfrwt>
<pdfrwt beam="2">  1       -1 0.39815009E-02 0.27812660E+03</pdfrwt>
<totfact> 0.63213809E+03</totfact>
</mgrwt>
</event>
<event>
 5    1  0.1129390E+001  0.2750609E+03  0.7818608E-02  0.1098418E+00
         -4   -1    0    0    0  501 -0.00000000000E+00  0.00000000000E+00  0.14393375170E+04  0.14393375170E+04  0.00000000000E+00 0. -1.
          4   -1    0    0  501    0  0.00000000000E+00 -0.00000000000E+00 -0.13141198792E+02  0.13141198792E+02  0.00000000000E+00 0. -1.
         35    2    1    2    0    0  0.00000000000E+00  0.00000000000E+00  0.14261963182E+04  0.14524787158E+04  0.27506086919E+03 0.  0.
         25    1    3    3    0    0  0.67166714851E+02 -0.60270322192E+00  0.72207451705E+03  0.73505328992E+03  0.12000000000E+03 0.  0.
         25    1    3    3    0    0 -0.67166714851E+02  0.60270322192E+00  0.70412180117E+03  0.71742542589E+03  0.12000000000E+03 0.  0.
<mgrwt>
<rscale>  0 0.27506087E+03</rscale>
<asrwt>0</asrwt>
<pdfrwt beam="1">  1        4 0.20217240E-02 0.27506087E+03</pdfrwt>
<pdfrwt beam="2">  1       -4 0.22143642E+00 0.27506087E+03</pdfrwt>
<totfact> 0.19807854E+02</totfact>
</mgrwt>
</event>
<event>
 5    1  0.1129390E+001  0.2749100E+03  0.7818608E-02  0.1098502E+00
          2   -1    0    0  501    0  0.00000000000E+00  0.00000000000E+00  0.82420453045E+02  0.82420453045E+02  0.00000000000E+00 0. -1.
         -2   -1    0    0    0  501 -0.00000000000E+00 -0.00000000000E+00 -0.22923780001E+03  0.22923780001E+03  0.00000000000E+00 0. -1.
         35    2    1    2    0    0  0.00000000000E+00  0.00000000000E+00 -0.14681734696E+03  0.31165825305E+03  0.27491004588E+03 0.  0.
         25    1    3    3    0    0  0.55668669496E+02 -0.36105802131E+02 -0.62579057074E+02  0.15072746298E+03  0.12000000000E+03 0.  0.
         25    1    3    3    0    0 -0.55668669496E+02  0.36105802131E+02 -0.84238289888E+02  0.16093079008E+03  0.12000000000E+03 0.  0.
<mgrwt>
<rscale>  0 0.27491005E+03</rscale>
<asrwt>0</asrwt>
<pdfrwt beam="1">  1        2 0.12680070E-01 0.27491005E+03</pdfrwt>
<pdfrwt beam="2">  1       -2 0.35267354E-01 0.27491005E+03</pdfrwt>
<totfact> 0.35983830E+03</totfact>
</mgrwt>
</event>
<event>
 5    1  0.1129390E+001  0.2731172E+03  0.7818608E-02  0.1099509E+00
         -1   -1    0    0    0  501 -0.00000000000E+00  0.00000000000E+00  0.12491473364E+03  0.12491473364E+03  0.00000000000E+00 0. -1.
          1   -1    0    0  501    0  0.00000000000E+00 -0.00000000000E+00 -0.14928783246E+03  0.14928783246E+03  0.00000000000E+00 0. -1.
         35    2    1    2    0    0  0.00000000000E+00  0.00000000000E+00 -0.24373098825E+02  0.27420256610E+03  0.27311718970E+03 0.  0.
         25    1    3    3    0    0  0.55883492126E+02  0.21552672336E+02  0.13621001965E+02  0.13480732202E+03  0.12000000000E+03 0.  0.
         25    1    3    3    0    0 -0.55883492126E+02 -0.21552672336E+02 -0.37994100790E+02  0.13939524408E+03  0.12000000000E+03 0.  0.
<mgrwt>
<rscale>  0 0.27311719E+03</rscale>
<asrwt>0</asrwt>
<pdfrwt beam="1">  1        1 0.22967359E-01 0.27311719E+03</pdfrwt>
<pdfrwt beam="2">  1       -1 0.19217651E-01 0.27311719E+03</pdfrwt>
<totfact> 0.45626567E+03</totfact>
</mgrwt>
</event>
<event>
 5    1  0.1129390E+001  0.2721237E+03  0.7818608E-02  0.1100070E+00
         -1   -1    0    0    0  501 -0.00000000000E+00  0.00000000000E+00  0.38391213974E+02  0.38391213974E+02  0.00000000000E+00 0. -1.
          1   -1    0    0  501    0  0.00000000000E+00 -0.00000000000E+00 -0.48221530207E+03  0.48221530207E+03  0.00000000000E+00 0. -1.
         35    2    1    2    0    0  0.00000000000E+00  0.00000000000E+00 -0.44382408810E+03  0.52060651605E+03  0.27212372806E+03 0.  0.
         25    1    3    3    0    0 -0.18322862807E+02  0.44760263568E+02 -0.30248211824E+03  0.32899033474E+03  0.12000000000E+03 0.  0.
         25    1    3    3    0    0  0.18322862807E+02 -0.44760263568E+02 -0.14134196986E+03  0.19161618131E+03  0.12000000000E+03 0.  0.
<mgrwt>
<rscale>  0 0.27212373E+03</rscale>
<asrwt>0</asrwt>
<pdfrwt beam="1">  1        1 0.74186969E-01 0.27212373E+03</pdfrwt>
<pdfrwt beam="2">  1       -1 0.59063407E-02 0.27212373E+03</pdfrwt>
<totfact> 0.64505096E+03</totfact>
</mgrwt>
</event>
<event>
 5    1  0.1129390E+001  0.2749107E+03  0.7818608E-02  0.1098502E+00
          2   -1    0    0  501    0  0.00000000000E+00  0.00000000000E+00  0.18727308745E+04  0.18727308745E+04  0.00000000000E+00 0.  1.
         -2   -1    0    0    0  501 -0.00000000000E+00 -0.00000000000E+00 -0.10088992300E+02  0.10088992300E+02  0.00000000000E+00 0.  1.
         35    2    1    2    0    0  0.00000000000E+00  0.00000000000E+00  0.18626418822E+04  0.18828198668E+04  0.27491065729E+03 0.  0.
         25    1    3    3    0    0 -0.22559026459E+02  0.53465353167E+02  0.11611926035E+04  0.11688180851E+04  0.12000000000E+03 0.  0.
         25    1    3    3    0    0  0.22559026459E+02 -0.53465353167E+02  0.70144927878E+03  0.71400178176E+03  0.12000000000E+03 0.  0.
<mgrwt>
<rscale>  0 0.27491066E+03</rscale>
<asrwt>0</asrwt>
<pdfrwt beam="1">  1        2 0.28811217E+00 0.27491066E+03</pdfrwt>
<pdfrwt beam="2">  1       -2 0.15521542E-02 0.27491066E+03</pdfrwt>
<totfact> 0.97257043E+03</totfact>
</mgrwt>
</event>
<event>
 5    1  0.1129390E+001  0.2736063E+03  0.7818608E-02  0.1099233E+00
         -1   -1    0    0    0  501 -0.00000000000E+00  0.00000000000E+00  0.11688447656E+04  0.11688447656E+04  0.00000000000E+00 0.  1.
          1   -1    0    0  501    0  0.00000000000E+00 -0.00000000000E+00 -0.16011628813E+02  0.16011628813E+02  0.00000000000E+00 0.  1.
         35    2    1    2    0    0  0.00000000000E+00  0.00000000000E+00  0.11528331368E+04  0.11848563945E+04  0.27360634881E+03 0.  0.
         25    1    3    3    0    0 -0.18376772234E+02 -0.61549327891E+02  0.63596437858E+03  0.65036660150E+03  0.12000000000E+03 0.  0.
         25    1    3    3    0    0  0.18376772234E+02  0.61549327891E+02  0.51686875825E+03  0.53448979296E+03  0.12000000000E+03 0.  0.
<mgrwt>
<rscale>  0 0.27360635E+03</rscale>
<asrwt>0</asrwt>
<pdfrwt beam="1">  1        1 0.24633284E-02 0.27360635E+03</pdfrwt>
<pdfrwt beam="2">  1       -1 0.17982220E+00 0.27360635E+03</pdfrwt>
<totfact> 0.10325445E+03</totfact>
</mgrwt>
</event>
<event>
 5    1  0.1129390E+001  0.2739357E+03  0.7818608E-02  0.1099048E+00
          2   -1    0    0  501    0  0.00000000000E+00  0.00000000000E+00  0.28958587812E+03  0.28958587812E+03  0.00000000000E+00 0. -1.
         -2   -1    0    0    0  501 -0.00000000000E+00 -0.00000000000E+00 -0.64782808393E+02  0.64782808393E+02  0.00000000000E+00 0. -1.
         35    2    1    2    0    0  0.00000000000E+00  0.00000000000E+00  0.22480306973E+03  0.35436868651E+03  0.27393566001E+03 0.  0.
         25    1    3    3    0    0 -0.48053644646E+02  0.26626180106E+02  0.65010520276E+02  0.14712061031E+03  0.12000000000E+03 0.  0.
         25    1    3    3    0    0  0.48053644646E+02 -0.26626180106E+02  0.15979254945E+03  0.20724807621E+03  0.12000000000E+03 0.  0.
<mgrwt>
<rscale>  0 0.27393566E+03</rscale>
<asrwt>0</asrwt>
<pdfrwt beam="1">  1        2 0.44551673E-01 0.27393566E+03</pdfrwt>
<pdfrwt beam="2">  1       -2 0.99665861E-02 0.27393566E+03</pdfrwt>
<totfact> 0.75215034E+03</totfact>
</mgrwt>
</event>
<event>
 5    1  0.1129390E+001  0.2741737E+03  0.7818608E-02  0.1098914E+00
         -2   -1    0    0    0  501 -0.00000000000E+00  0.00000000000E+00  0.70889411484E+01  0.70889411484E+01  0.00000000000E+00 0.  1.
          2   -1    0    0  501    0  0.00000000000E+00 -0.00000000000E+00 -0.26510038452E+04  0.26510038452E+04  0.00000000000E+00 0.  1.
         35    2    1    2    0    0  0.00000000000E+00  0.00000000000E+00 -0.26439149041E+04  0.26580927864E+04  0.27417374231E+03 0.  0.
         25    1    3    3    0    0 -0.35175593779E+02  0.49027734030E+02 -0.10561381433E+04  0.10646449262E+04  0.12000000000E+03 0.  0.
         25    1    3    3    0    0  0.35175593779E+02 -0.49027734030E+02 -0.15877767608E+04  0.15934478602E+04  0.12000000000E+03 0.  0.
<mgrwt>
<rscale>  0 0.27417374E+03</rscale>
<asrwt>0</asrwt>
<pdfrwt beam="1">  1        2 0.40784685E+00 0.27417374E+03</pdfrwt>
<pdfrwt beam="2">  1       -2 0.10906061E-02 0.27417374E+03</pdfrwt>
<totfact> 0.62172559E+03</totfact>
</mgrwt>
</event>
<event>
 5    1  0.1129390E+001  0.2748308E+03  0.7818608E-02  0.1098546E+00
          2   -1    0    0  501    0  0.00000000000E+00  0.00000000000E+00  0.27831531064E+03  0.27831531064E+03  0.00000000000E+00 0. -1.
         -2   -1    0    0    0  501 -0.00000000000E+00 -0.00000000000E+00 -0.67847492471E+02  0.67847492471E+02  0.00000000000E+00 0. -1.
         35    2    1    2    0    0  0.00000000000E+00  0.00000000000E+00  0.21046781817E+03  0.34616280311E+03  0.27483082755E+03 0.  0.
         25    1    3    3    0    0  0.38186192190E+02  0.54326928777E+02  0.94443209368E+02  0.16652063013E+03  0.12000000000E+03 0.  0.
         25    1    3    3    0    0 -0.38186192190E+02 -0.54326928777E+02  0.11602460880E+03  0.17964217297E+03  0.12000000000E+03 0.  0.
<mgrwt>
<rscale>  0 0.27483083E+03</rscale>
<asrwt>0</asrwt>
<pdfrwt beam="1">  1        2 0.42817739E-01 0.27483083E+03</pdfrwt>
<pdfrwt beam="2">  1       -2 0.10438076E-01 0.27483083E+03</pdfrwt>
<totfact> 0.72936501E+03</totfact>
</mgrwt>
</event>
<event>
 5    1  0.1129390E+001  0.2735455E+03  0.7818608E-02  0.1099267E+00
         -2   -1    0    0    0  501 -0.00000000000E+00  0.00000000000E+00  0.14570374067E+02  0.14570374067E+02  0.00000000000E+00 0. -1.
          2   -1    0    0  501    0  0.00000000000E+00 -0.00000000000E+00 -0.12838914894E+04  0.12838914894E+04  0.00000000000E+00 0. -1.
         35    2    1    2    0    0  0.00000000000E+00  0.00000000000E+00 -0.12693211153E+04  0.12984618635E+04  0.27354545701E+03 0.  0.
         25    1    3    3    0    0 -0.60121724749E+02 -0.25455232824E+02 -0.60310653007E+03  0.61838505583E+03  0.12000000000E+03 0.  0.
         25    1    3    3    0    0  0.60121724749E+02  0.25455232824E+02 -0.66621458525E+03  0.68007680762E+03  0.12000000000E+03 0.  0.
<mgrwt>
<rscale>  0 0.27354546E+03</rscale>
<asrwt>0</asrwt>
<pdfrwt beam="1">  1        2 0.19752175E+00 0.27354546E+03</pdfrwt>
<pdfrwt beam="2">  1       -2 0.22415962E-02 0.27354546E+03</pdfrwt>
<totfact> 0.11689615E+04</totfact>
</mgrwt>
</event>
<event>
 5    1  0.1129390E+001  0.2753179E+03  0.7818608E-02  0.1098274E+00
          1   -1    0    0  501    0  0.00000000000E+00  0.00000000000E+00  0.16520051697E+03  0.16520051697E+03  0.00000000000E+00 0.  1.
         -1   -1    0    0    0  501 -0.00000000000E+00 -0.00000000000E+00 -0.11470898240E+03  0.11470898240E+03  0.00000000000E+00 0.  1.
         35    2    1    2    0    0  0.00000000000E+00  0.00000000000E+00  0.50491534570E+02  0.27990949937E+03  0.27531787587E+03 0.  0.
         25    1    3    3    0    0  0.63945776513E+02  0.14604285258E+02  0.41244657728E+02  0.14284071294E+03  0.12000000000E+03 0.  0.
         25    1    3    3    0    0 -0.63945776513E+02 -0.14604285258E+02  0.92468768413E+01  0.13706878643E+03  0.12000000000E+03 0.  0.
<mgrwt>
<rscale>  0 0.27531788E+03</rscale>
<asrwt>0</asrwt>
<pdfrwt beam="1">  1        1 0.25415464E-01 0.27531788E+03</pdfrwt>
<pdfrwt beam="2">  1       -1 0.17647536E-01 0.27531788E+03</pdfrwt>
<totfact> 0.46021800E+03</totfact>
</mgrwt>
</event>
<event>
 5    1  0.1129390E+001  0.2745800E+03  0.7818608E-02  0.1098687E+00
         -2   -1    0    0    0  501 -0.00000000000E+00  0.00000000000E+00  0.26404607587E+02  0.26404607587E+02  0.00000000000E+00 0. -1.
          2   -1    0    0  501    0  0.00000000000E+00 -0.00000000000E+00 -0.71383533849E+03  0.71383533849E+03  0.00000000000E+00 0. -1.
         35    2    1    2    0    0  0.00000000000E+00  0.00000000000E+00 -0.68743073090E+03  0.74023994607E+03  0.27457998467E+03 0.  0.
         25    1    3    3    0    0 -0.45113084637E+02  0.29766679094E+02 -0.44907282882E+03  0.46796116418E+03  0.12000000000E+03 0.  0.
         25    1    3    3    0    0  0.45113084637E+02 -0.29766679094E+02 -0.23835790207E+03  0.27227878190E+03  0.12000000000E+03 0.  0.
<mgrwt>
<rscale>  0 0.27457998E+03</rscale>
<asrwt>0</asrwt>
<pdfrwt beam="1">  1        2 0.10982081E+00 0.27457998E+03</pdfrwt>
<pdfrwt beam="2">  1       -2 0.40622476E-02 0.27457998E+03</pdfrwt>
<totfact> 0.10949515E+04</totfact>
</mgrwt>
</event>
<event>
 5    1  0.1129390E+001  0.2761368E+03  0.7818608E-02  0.1097818E+00
         -2   -1    0    0    0  501 -0.00000000000E+00  0.00000000000E+00  0.20727182868E+02  0.20727182868E+02  0.00000000000E+00 0.  1.
          2   -1    0    0  501    0  0.00000000000E+00 -0.00000000000E+00 -0.91970420379E+03  0.91970420379E+03  0.00000000000E+00 0.  1.
         35    2    1    2    0    0  0.00000000000E+00  0.00000000000E+00 -0.89897702092E+03  0.94043138666E+03  0.27613675754E+03 0.  0.
         25    1    3    3    0    0 -0.52843856268E+02 -0.20085361131E+02 -0.31904714481E+03  0.34552420391E+03  0.12000000000E+03 0.  0.
         25    1    3    3    0    0  0.52843856268E+02  0.20085361131E+02 -0.57992987611E+03  0.59490718275E+03  0.12000000000E+03 0.  0.
<mgrwt>
<rscale>  0 0.27613676E+03</rscale>
<asrwt>0</asrwt>
<pdfrwt beam="1">  1        2 0.14149298E+00 0.27613676E+03</pdfrwt>
<pdfrwt beam="2">  1       -2 0.31887968E-02 0.27613676E+03</pdfrwt>
<totfact> 0.11374040E+04</totfact>
</mgrwt>
</event>
<event>
 5    1  0.1129390E+001  0.2713706E+03  0.7818608E-02  0.1100498E+00
          1   -1    0    0  501    0  0.00000000000E+00  0.00000000000E+00  0.63417772888E+03  0.63417772888E+03  0.00000000000E+00 0. -1.
         -1   -1    0    0    0  501 -0.00000000000E+00 -0.00000000000E+00 -0.29030504162E+02  0.29030504162E+02  0.00000000000E+00 0. -1.
         35    2    1    2    0    0  0.00000000000E+00  0.00000000000E+00  0.60514722472E+03  0.66320823304E+03  0.27137058940E+03 0.  0.
         25    1    3    3    0    0  0.50584969130E+02 -0.25856924326E+02  0.23418401055E+03  0.26920172815E+03  0.12000000000E+03 0.  0.
         25    1    3    3    0    0 -0.50584969130E+02  0.25856924326E+02  0.37096321416E+03  0.39400650489E+03  0.12000000000E+03 0.  0.
<mgrwt>
<rscale>  0 0.27137059E+03</rscale>
<asrwt>0</asrwt>
<pdfrwt beam="1">  1        1 0.97565794E-01 0.27137059E+03</pdfrwt>
<pdfrwt beam="2">  1       -1 0.44662319E-02 0.27137059E+03</pdfrwt>
<totfact> 0.67553161E+03</totfact>
</mgrwt>
</event>
<event>
 5    1  0.1129390E+001  0.2690417E+03  0.7818608E-02  0.1101829E+00
          1   -1    0    0  501    0  0.00000000000E+00  0.00000000000E+00  0.22943693532E+02  0.22943693532E+02  0.00000000000E+00 0. -1.
         -1   -1    0    0    0  501 -0.00000000000E+00 -0.00000000000E+00 -0.78870729599E+03  0.78870729599E+03  0.00000000000E+00 0. -1.
         35    2    1    2    0    0  0.00000000000E+00  0.00000000000E+00 -0.76576360246E+03  0.81165098952E+03  0.26904169555E+03 0.  0.
         25    1    3    3    0    0  0.60735539311E+02 -0.26552669730E+01 -0.38302672129E+03  0.40596222164E+03  0.12000000000E+03 0.  0.
         25    1    3    3    0    0 -0.60735539311E+02  0.26552669730E+01 -0.38273688117E+03  0.40568876788E+03  0.12000000000E+03 0.  0.
<mgrwt>
<rscale>  0 0.26904170E+03</rscale>
<asrwt>0</asrwt>
<pdfrwt beam="1">  1        1 0.35297990E-02 0.26904170E+03</pdfrwt>
<pdfrwt beam="2">  1       -1 0.12133959E+00 0.26904170E+03</pdfrwt>
<totfact> 0.17431305E+03</totfact>
</mgrwt>
</event>
<event>
 5    1  0.1129390E+001  0.2751607E+03  0.7818608E-02  0.1098362E+00
          1   -1    0    0  501    0  0.00000000000E+00  0.00000000000E+00  0.56763607379E+03  0.56763607379E+03  0.00000000000E+00 0.  1.
         -1   -1    0    0    0  501 -0.00000000000E+00 -0.00000000000E+00 -0.33345936528E+02  0.33345936528E+02  0.00000000000E+00 0.  1.
         35    2    1    2    0    0  0.00000000000E+00  0.00000000000E+00  0.53429013727E+03  0.60098201032E+03  0.27516072749E+03 0.  0.
         25    1    3    3    0    0 -0.65276643213E+02 -0.38415256142E+01  0.30185521657E+03  0.33134931604E+03  0.12000000000E+03 0.  0.
         25    1    3    3    0    0  0.65276643213E+02  0.38415256142E+01  0.23243492069E+03  0.26963269428E+03  0.12000000000E+03 0.  0.
<mgrwt>
<rscale>  0 0.27516073E+03</rscale>
<asrwt>0</asrwt>
<pdfrwt beam="1">  1        1 0.87328619E-01 0.27516073E+03</pdfrwt>
<pdfrwt beam="2">  1       -1 0.51301445E-02 0.27516073E+03</pdfrwt>
<totfact> 0.64070900E+03</totfact>
</mgrwt>
</event>
<event>
 5    1  0.1129390E+001  0.2769888E+03  0.7818608E-02  0.1097345E+00
          3   -1    0    0  501    0  0.00000000000E+00  0.00000000000E+00  0.29913578151E+02  0.29913578151E+02  0.00000000000E+00 0.  1.
         -3   -1    0    0    0  501 -0.00000000000E+00 -0.00000000000E+00 -0.64120363894E+03  0.64120363894E+03  0.00000000000E+00 0.  1.
         35    2    1    2    0    0  0.00000000000E+00  0.00000000000E+00 -0.61129006079E+03  0.67111721709E+03  0.27698877352E+03 0.  0.
         25    1    3    3    0    0  0.29711707075E+02  0.60833472062E+02 -0.27162083996E+03  0.30456752546E+03  0.12000000000E+03 0.  0.
         25    1    3    3    0    0 -0.29711707075E+02 -0.60833472062E+02 -0.33966922082E+03  0.36654969163E+03  0.12000000000E+03 0.  0.
<mgrwt>
<rscale>  0 0.27698877E+03</rscale>
<asrwt>0</asrwt>
<pdfrwt beam="1">  1        3 0.46020890E-02 0.27698877E+03</pdfrwt>
<pdfrwt beam="2">  1       -3 0.98646712E-01 0.27698877E+03</pdfrwt>
<totfact> 0.61672707E+02</totfact>
</mgrwt>
</event>
<event>
 5    1  0.1129390E+001  0.2752806E+03  0.7818608E-02  0.1098295E+00
         -3   -1    0    0    0  501 -0.00000000000E+00  0.00000000000E+00  0.14008149445E+03  0.14008149445E+03  0.00000000000E+00 0.  1.
          3   -1    0    0  501    0  0.00000000000E+00 -0.00000000000E+00 -0.13524161648E+03  0.13524161648E+03  0.00000000000E+00 0.  1.
         35    2    1    2    0    0  0.00000000000E+00  0.00000000000E+00  0.48398779691E+01  0.27532311093E+03  0.27528056777E+03 0.  0.
         25    1    3    3    0    0 -0.60501894363E+02  0.13254615094E+02 -0.24205289062E+02  0.13719351319E+03  0.12000000000E+03 0.  0.
         25    1    3    3    0    0  0.60501894363E+02 -0.13254615094E+02  0.29045167031E+02  0.13812959774E+03  0.12000000000E+03 0.  0.
<mgrwt>
<rscale>  0 0.27528057E+03</rscale>
<asrwt>0</asrwt>
<pdfrwt beam="1">  1        3 0.20806403E-01 0.27528057E+03</pdfrwt>
<pdfrwt beam="2">  1       -3 0.21550999E-01 0.27528057E+03</pdfrwt>
<totfact> 0.10451203E+03</totfact>
</mgrwt>
</event>
<event>
 5    1  0.1129390E+001  0.2756204E+03  0.7818608E-02  0.1098105E+00
          2   -1    0    0  501    0  0.00000000000E+00  0.00000000000E+00  0.16462064576E+04  0.16462064576E+04  0.00000000000E+00 0. -1.
         -2   -1    0    0    0  501 -0.00000000000E+00 -0.00000000000E+00 -0.11536617958E+02  0.11536617958E+02  0.00000000000E+00 0. -1.
         35    2    1    2    0    0  0.00000000000E+00  0.00000000000E+00  0.16346698396E+04  0.16577430755E+04  0.27562042726E+03 0.  0.
         25    1    3    3    0    0 -0.19549230521E+02  0.60720673785E+02  0.95481558660E+03  0.96443868496E+03  0.12000000000E+03 0.  0.
         25    1    3    3    0    0  0.19549230521E+02 -0.60720673785E+02  0.67985425300E+03  0.69330439055E+03  0.12000000000E+03 0.  0.
<mgrwt>
<rscale>  0 0.27562043E+03</rscale>
<asrwt>0</asrwt>
<pdfrwt beam="1">  1        2 0.25326235E+00 0.27562043E+03</pdfrwt>
<pdfrwt beam="2">  1       -2 0.17748656E-02 0.27562043E+03</pdfrwt>
<totfact> 0.10512753E+04</totfact>
</mgrwt>
</event>
<event>
 5    1  0.1129390E+001  0.2751371E+03  0.7818608E-02  0.1098375E+00
          1   -1    0    0  501    0  0.00000000000E+00  0.00000000000E+00  0.20240896075E+03  0.20240896075E+03  0.00000000000E+00 0.  1.
         -1   -1    0    0    0  501 -0.00000000000E+00 -0.00000000000E+00 -0.93499329040E+02  0.93499329040E+02  0.00000000000E+00 0.  1.
         35    2    1    2    0    0  0.00000000000E+00  0.00000000000E+00  0.10890963171E+03  0.29590828979E+03  0.27513707145E+03 0.  0.
         25    1    3    3    0    0  0.12750333315E+02  0.57706742579E+02  0.89012548905E+02  0.16067318694E+03  0.12000000000E+03 0.  0.
         25    1    3    3    0    0 -0.12750333315E+02 -0.57706742579E+02  0.19897082803E+02  0.13523510285E+03  0.12000000000E+03 0.  0.
<mgrwt>
<rscale>  0 0.27513707E+03</rscale>
<asrwt>0</asrwt>
<pdfrwt beam="1">  1        1 0.31139840E-01 0.27513707E+03</pdfrwt>
<pdfrwt beam="2">  1       -1 0.14384512E-01 0.27513707E+03</pdfrwt>
<totfact> 0.49302195E+03</totfact>
</mgrwt>
</event>
<event>
 5    1  0.1129390E+001  0.2751041E+03  0.7818608E-02  0.1098393E+00
          2   -1    0    0  501    0  0.00000000000E+00  0.00000000000E+00  0.41181096849E+03  0.41181096849E+03  0.00000000000E+00 0. -1.
         -2   -1    0    0    0  501 -0.00000000000E+00 -0.00000000000E+00 -0.45944772711E+02  0.45944772711E+02  0.00000000000E+00 0. -1.
         35    2    1    2    0    0  0.00000000000E+00  0.00000000000E+00  0.36586619578E+03  0.45775574120E+03  0.27510406283E+03 0.  0.
         25    1    3    3    0    0 -0.19515034859E+02  0.33065672664E+02  0.27477254592E+03  0.30228153646E+03  0.12000000000E+03 0.  0.
         25    1    3    3    0    0  0.19515034859E+02 -0.33065672664E+02  0.91093649858E+02  0.15547420474E+03  0.12000000000E+03 0.  0.
<mgrwt>
<rscale>  0 0.27510406E+03</rscale>
<asrwt>0</asrwt>
<pdfrwt beam="1">  1        2 0.63355531E-01 0.27510406E+03</pdfrwt>
<pdfrwt beam="2">  1       -2 0.70684269E-02 0.27510406E+03</pdfrwt>
<totfact> 0.88159174E+03</totfact>
</mgrwt>
</event>
<event>
 5    1  0.1129390E+001  0.2772900E+03  0.7818608E-02  0.1097178E+00
          1   -1    0    0  501    0  0.00000000000E+00  0.00000000000E+00  0.22199679578E+03  0.22199679578E+03  0.00000000000E+00 0. -1.
         -1   -1    0    0    0  501 -0.00000000000E+00 -0.00000000000E+00 -0.86588787564E+02  0.86588787564E+02  0.00000000000E+00 0. -1.
         35    2    1    2    0    0  0.00000000000E+00  0.00000000000E+00  0.13540800821E+03  0.30858558334E+03  0.27728998099E+03 0.  0.
         25    1    3    3    0    0 -0.52223023632E+02  0.81774847653E+01  0.11782382035E+03  0.17628547330E+03  0.12000000000E+03 0.  0.
         25    1    3    3    0    0  0.52223023632E+02 -0.81774847653E+01  0.17584187864E+02  0.13230011004E+03  0.12000000000E+03 0.  0.
<mgrwt>
<rscale>  0 0.27728998E+03</rscale>
<asrwt>0</asrwt>
<pdfrwt beam="1">  1        1 0.34153353E-01 0.27728998E+03</pdfrwt>
<pdfrwt beam="2">  1       -1 0.13321352E-01 0.27728998E+03</pdfrwt>
<totfact> 0.49554823E+03</totfact>
</mgrwt>
</event>
<event>
 5    1  0.1129390E+001  0.2755107E+03  0.7818608E-02  0.1098166E+00
          2   -1    0    0  501    0  0.00000000000E+00  0.00000000000E+00  0.19184713731E+03  0.19184713731E+03  0.00000000000E+00 0.  1.
         -2   -1    0    0    0  501 -0.00000000000E+00 -0.00000000000E+00 -0.98914890682E+02  0.98914890682E+02  0.00000000000E+00 0.  1.
         35    2    1    2    0    0  0.00000000000E+00  0.00000000000E+00  0.92932246630E+02  0.29076202799E+03  0.27551071569E+03 0.  0.
         25    1    3    3    0    0  0.57322052216E+02 -0.33527058339E+02  0.60090334596E+02  0.14973553227E+03  0.12000000000E+03 0.  0.
         25    1    3    3    0    0 -0.57322052216E+02  0.33527058339E+02  0.32841912034E+02  0.14102649573E+03  0.12000000000E+03 0.  0.
<mgrwt>
<rscale>  0 0.27551072E+03</rscale>
<asrwt>0</asrwt>
<pdfrwt beam="1">  1        2 0.29514944E-01 0.27551072E+03</pdfrwt>
<pdfrwt beam="2">  1       -2 0.15217676E-01 0.27551072E+03</pdfrwt>
<totfact> 0.59240924E+03</totfact>
</mgrwt>
</event>
<event>
 5    1  0.1129390E+001  0.2747751E+03  0.7818608E-02  0.1098577E+00
          2   -1    0    0  501    0  0.00000000000E+00  0.00000000000E+00  0.25021305560E+03  0.25021305560E+03  0.00000000000E+00 0. -1.
         -2   -1    0    0    0  501 -0.00000000000E+00 -0.00000000000E+00 -0.75437082782E+02  0.75437082782E+02  0.00000000000E+00 0. -1.
         35    2    1    2    0    0  0.00000000000E+00  0.00000000000E+00  0.17477597281E+03  0.32565013838E+03  0.27477512979E+03 0.  0.
         25    1    3    3    0    0  0.34517092475E+02 -0.18692832464E+02  0.23187212883E+02  0.12836860403E+03  0.12000000000E+03 0.  0.
         25    1    3    3    0    0 -0.34517092475E+02  0.18692832464E+02  0.15158875993E+03  0.19728153435E+03  0.12000000000E+03 0.  0.
<mgrwt>
<rscale>  0 0.27477513E+03</rscale>
<asrwt>0</asrwt>
<pdfrwt beam="1">  1        2 0.38494316E-01 0.27477513E+03</pdfrwt>
<pdfrwt beam="2">  1       -2 0.11605705E-01 0.27477513E+03</pdfrwt>
<totfact> 0.69019010E+03</totfact>
</mgrwt>
</event>
<event>
 5    1  0.1129390E+001  0.2745587E+03  0.7818608E-02  0.1098699E+00
          1   -1    0    0  501    0  0.00000000000E+00  0.00000000000E+00  0.12564579880E+03  0.12564579880E+03  0.00000000000E+00 0. -1.
         -1   -1    0    0    0  501 -0.00000000000E+00 -0.00000000000E+00 -0.14999002345E+03  0.14999002345E+03  0.00000000000E+00 0. -1.
         35    2    1    2    0    0  0.00000000000E+00  0.00000000000E+00 -0.24344224655E+02  0.27563582225E+03  0.27455867357E+03 0.  0.
         25    1    3    3    0    0  0.32148541062E+02 -0.40505405716E+01 -0.70673196702E+02  0.14298474151E+03  0.12000000000E+03 0.  0.
         25    1    3    3    0    0 -0.32148541062E+02  0.40505405716E+01  0.46328972047E+02  0.13265108074E+03  0.12000000000E+03 0.  0.
<mgrwt>
<rscale>  0 0.27455867E+03</rscale>
<asrwt>0</asrwt>
<pdfrwt beam="1">  1        1 0.19330123E-01 0.27455867E+03</pdfrwt>
<pdfrwt beam="2">  1       -1 0.23075388E-01 0.27455867E+03</pdfrwt>
<totfact> 0.42234233E+03</totfact>
</mgrwt>
</event>
<event>
 5    1  0.1129390E+001  0.2742889E+03  0.7818608E-02  0.1098850E+00
         -1   -1    0    0    0  501 -0.00000000000E+00  0.00000000000E+00  0.60308670101E+02  0.60308670101E+02  0.00000000000E+00 0. -1.
          1   -1    0    0  501    0  0.00000000000E+00 -0.00000000000E+00 -0.31187228512E+03  0.31187228512E+03  0.00000000000E+00 0. -1.
         35    2    1    2    0    0  0.00000000000E+00  0.00000000000E+00 -0.25156361502E+03  0.37218095522E+03  0.27428891889E+03 0.  0.
         25    1    3    3    0    0  0.54822803532E+01  0.66092307163E+02 -0.12141558252E+03  0.18313926980E+03  0.12000000000E+03 0.  0.
         25    1    3    3    0    0 -0.54822803532E+01 -0.66092307163E+02 -0.13014803250E+03  0.18904168542E+03  0.12000000000E+03 0.  0.
<mgrwt>
<rscale>  0 0.27428892E+03</rscale>
<asrwt>0</asrwt>
<pdfrwt beam="1">  1        1 0.47980352E-01 0.27428892E+03</pdfrwt>
<pdfrwt beam="2">  1       -1 0.92782568E-02 0.27428892E+03</pdfrwt>
<totfact> 0.56729812E+03</totfact>
</mgrwt>
</event>
<event>
 5    1  0.1129390E+001  0.2756294E+03  0.7818608E-02  0.1098100E+00
          2   -1    0    0  501    0  0.00000000000E+00  0.00000000000E+00  0.20004426362E+03  0.20004426362E+03  0.00000000000E+00 0.  1.
         -2   -1    0    0    0  501 -0.00000000000E+00 -0.00000000000E+00 -0.94943462065E+02  0.94943462065E+02  0.00000000000E+00 0.  1.
         35    2    1    2    0    0  0.00000000000E+00  0.00000000000E+00  0.10510080156E+03  0.29498772569E+03  0.27562942480E+03 0.  0.
         25    1    3    3    0    0  0.17784848768E+02 -0.53335692837E+02  0.93048478052E+02  0.16192287128E+03  0.12000000000E+03 0.  0.
         25    1    3    3    0    0 -0.17784848768E+02  0.53335692837E+02  0.12052323505E+02  0.13306485441E+03  0.12000000000E+03 0.  0.
<mgrwt>
<rscale>  0 0.27562942E+03</rscale>
<asrwt>0</asrwt>
<pdfrwt beam="1">  1        2 0.30776040E-01 0.27562942E+03</pdfrwt>
<pdfrwt beam="2">  1       -2 0.14606687E-01 0.27562942E+03</pdfrwt>
<totfact> 0.60544697E+03</totfact>
</mgrwt>
</event>
<event>
 5    1  0.1129390E+001  0.2747174E+03  0.7818608E-02  0.1098610E+00
         -2   -1    0    0    0  501 -0.00000000000E+00  0.00000000000E+00  0.72717867563E+02  0.72717867563E+02  0.00000000000E+00 0. -1.
          2   -1    0    0  501    0  0.00000000000E+00 -0.00000000000E+00 -0.25946044354E+03  0.25946044354E+03  0.00000000000E+00 0. -1.
         35    2    1    2    0    0  0.00000000000E+00  0.00000000000E+00 -0.18674257598E+03  0.33217831111E+03  0.27471738330E+03 0.  0.
         25    1    3    3    0    0 -0.35175610754E+02  0.50612021086E+02 -0.62107683098E+02  0.14851351646E+03  0.12000000000E+03 0.  0.
         25    1    3    3    0    0  0.35175610754E+02 -0.50612021086E+02 -0.12463489288E+03  0.18366479465E+03  0.12000000000E+03 0.  0.
<mgrwt>
<rscale>  0 0.27471738E+03</rscale>
<asrwt>0</asrwt>
<pdfrwt beam="1">  1        2 0.39916991E-01 0.27471738E+03</pdfrwt>
<pdfrwt beam="2">  1       -2 0.11187364E-01 0.27471738E+03</pdfrwt>
<totfact> 0.70400333E+03</totfact>
</mgrwt>
</event>
<event>
 5    1  0.1129390E+001  0.2757681E+03  0.7818608E-02  0.1098023E+00
          2   -1    0    0  501    0  0.00000000000E+00  0.00000000000E+00  0.10125989529E+04  0.10125989529E+04  0.00000000000E+00 0. -1.
         -2   -1    0    0    0  501 -0.00000000000E+00 -0.00000000000E+00 -0.18775455732E+02  0.18775455732E+02  0.00000000000E+00 0. -1.
         35    2    1    2    0    0  0.00000000000E+00  0.00000000000E+00  0.99382349719E+03  0.10313744087E+04  0.27576806787E+03 0.  0.
         25    1    3    3    0    0  0.25971363269E+02 -0.61558587040E+02  0.54241634455E+03  0.55953504107E+03  0.12000000000E+03 0.  0.
         25    1    3    3    0    0 -0.25971363269E+02  0.61558587040E+02  0.45140715264E+03  0.47183936758E+03  0.12000000000E+03 0.  0.
<mgrwt>
<rscale>  0 0.27576807E+03</rscale>
<asrwt>0</asrwt>
<pdfrwt beam="1">  1        2 0.15578441E+00 0.27576807E+03</pdfrwt>
<pdfrwt beam="2">  1       -2 0.28885324E-02 0.27576807E+03</pdfrwt>
<totfact> 0.11533323E+04</totfact>
</mgrwt>
</event>
<event>
 5    1  0.1129390E+001  0.2747440E+03  0.7818608E-02  0.1098595E+00
         -2   -1    0    0    0  501 -0.00000000000E+00  0.00000000000E+00  0.95655833212E+02  0.95655833212E+02  0.00000000000E+00 0.  1.
          2   -1    0    0  501    0  0.00000000000E+00 -0.00000000000E+00 -0.19728092817E+03  0.19728092817E+03  0.00000000000E+00 0.  1.
         35    2    1    2    0    0  0.00000000000E+00  0.00000000000E+00 -0.10162509496E+03  0.29293676138E+03  0.27474403768E+03 0.  0.
         25    1    3    3    0    0 -0.65424858243E+02 -0.12953992057E+02 -0.45715453176E+02  0.14470010589E+03  0.12000000000E+03 0.  0.
         25    1    3    3    0    0  0.65424858243E+02  0.12953992057E+02 -0.55909641781E+02  0.14823665549E+03  0.12000000000E+03 0.  0.
<mgrwt>
<rscale>  0 0.27474404E+03</rscale>
<asrwt>0</asrwt>
<pdfrwt beam="1">  1        2 0.30350912E-01 0.27474404E+03</pdfrwt>
<pdfrwt beam="2">  1       -2 0.14716282E-01 0.27474404E+03</pdfrwt>
<totfact> 0.60714892E+03</totfact>
</mgrwt>
</event>
<event>
 5    1  0.1129390E+001  0.2755990E+03  0.7818608E-02  0.1098117E+00
          2   -1    0    0  501    0  0.00000000000E+00  0.00000000000E+00  0.12635978149E+04  0.12635978149E+04  0.00000000000E+00 0. -1.
         -2   -1    0    0    0  501 -0.00000000000E+00 -0.00000000000E+00 -0.15027491226E+02  0.15027491226E+02  0.00000000000E+00 0. -1.
         35    2    1    2    0    0  0.00000000000E+00  0.00000000000E+00  0.12485703237E+04  0.12786253062E+04  0.27559902088E+03 0.  0.
         25    1    3    3    0    0 -0.27986396653E+02 -0.12793275925E+01  0.33814674169E+03  0.35990011669E+03  0.12000000000E+03 0.  0.
         25    1    3    3    0    0  0.27986396653E+02  0.12793275925E+01  0.91042358203E+03  0.91872518948E+03  0.12000000000E+03 0.  0.
<mgrwt>
<rscale>  0 0.27559902E+03</rscale>
<asrwt>0</asrwt>
<pdfrwt beam="1">  1        2 0.19439958E+00 0.27559902E+03</pdfrwt>
<pdfrwt beam="2">  1       -2 0.23119227E-02 0.27559902E+03</pdfrwt>
<totfact> 0.11465404E+04</totfact>
</mgrwt>
</event>
<event>
 5    1  0.1129390E+001  0.2744279E+03  0.7818608E-02  0.1098772E+00
         -2   -1    0    0    0  501 -0.00000000000E+00  0.00000000000E+00  0.44960202693E+01  0.44960202693E+01  0.00000000000E+00 0.  1.
          2   -1    0    0  501    0  0.00000000000E+00 -0.00000000000E+00 -0.41876298809E+04  0.41876298809E+04  0.00000000000E+00 0.  1.
         35    2    1    2    0    0  0.00000000000E+00  0.00000000000E+00 -0.41831338606E+04  0.41921259011E+04  0.27442790547E+03 0.  0.
         25    1    3    3    0    0 -0.64462298060E+02  0.12782204190E+02 -0.22509757800E+04  0.22551298710E+04  0.12000000000E+03 0.  0.
         25    1    3    3    0    0  0.64462298060E+02 -0.12782204190E+02 -0.19321580806E+04  0.19369960302E+04  0.12000000000E+03 0.  0.
<mgrwt>
<rscale>  0 0.27442791E+03</rscale>
<asrwt>0</asrwt>
<pdfrwt beam="1">  1        2 0.64424923E+00 0.27442791E+03</pdfrwt>
<pdfrwt beam="2">  1       -2 0.69169706E-03 0.27442791E+03</pdfrwt>
<totfact> 0.11556314E+03</totfact>
</mgrwt>
</event>
<event>
 5    1  0.1129390E+001  0.2752029E+03  0.7818608E-02  0.1098338E+00
          2   -1    0    0  501    0  0.00000000000E+00  0.00000000000E+00  0.65213230631E+02  0.65213230631E+02  0.00000000000E+00 0. -1.
         -2   -1    0    0    0  501 -0.00000000000E+00 -0.00000000000E+00 -0.29034227849E+03  0.29034227849E+03  0.00000000000E+00 0. -1.
         35    2    1    2    0    0  0.00000000000E+00  0.00000000000E+00 -0.22512904785E+03  0.35555550912E+03  0.27520289220E+03 0.  0.
         25    1    3    3    0    0  0.22549777292E+02 -0.51088506202E+02 -0.16117493620E+03  0.20855667810E+03  0.12000000000E+03 0.  0.
         25    1    3    3    0    0 -0.22549777292E+02  0.51088506202E+02 -0.63954111653E+02  0.14699883101E+03  0.12000000000E+03 0.  0.
<mgrwt>
<rscale>  0 0.27520289E+03</rscale>
<asrwt>0</asrwt>
<pdfrwt beam="1">  1        2 0.10032804E-01 0.27520289E+03</pdfrwt>
<pdfrwt beam="2">  1       -2 0.44668044E-01 0.27520289E+03</pdfrwt>
<totfact> 0.30550164E+03</totfact>
</mgrwt>
</event>
<event>
 5    1  0.1129390E+001  0.2863943E+03  0.7818608E-02  0.1092247E+00
         -4   -1    0    0    0  501 -0.00000000000E+00  0.00000000000E+00  0.80052784870E+02  0.80052784870E+02  0.00000000000E+00 0. -1.
          4   -1    0    0  501    0  0.00000000000E+00 -0.00000000000E+00 -0.25614879207E+03  0.25614879207E+03  0.00000000000E+00 0. -1.
         35    2    1    2    0    0  0.00000000000E+00  0.00000000000E+00 -0.17609600720E+03  0.33620157694E+03  0.28639430264E+03 0.  0.
         25    1    3    3    0    0 -0.11291106783E+02  0.95765610456E+00 -0.17880448540E+03  0.21563731170E+03  0.12000000000E+03 0.  0.
         25    1    3    3    0    0  0.11291106783E+02 -0.95765610456E+00  0.27084782053E+01  0.12056426524E+03  0.12000000000E+03 0.  0.
<mgrwt>
<rscale>  0 0.28639430E+03</rscale>
<asrwt>0</asrwt>
<pdfrwt beam="1">  1        4 0.39407506E-01 0.28639430E+03</pdfrwt>
<pdfrwt beam="2">  1       -4 0.12315813E-01 0.28639430E+03</pdfrwt>
<totfact> 0.62732954E+02</totfact>
</mgrwt>
</event>
<event>
 5    1  0.1129390E+001  0.2708824E+03  0.7818608E-02  0.1100776E+00
         -4   -1    0    0    0  501 -0.00000000000E+00  0.00000000000E+00  0.78671100500E+02  0.78671100500E+02  0.00000000000E+00 0. -1.
          4   -1    0    0  501    0  0.00000000000E+00 -0.00000000000E+00 -0.23317739931E+03  0.23317739931E+03  0.00000000000E+00 0. -1.
         35    2    1    2    0    0  0.00000000000E+00  0.00000000000E+00 -0.15450629881E+03  0.31184849981E+03  0.27088242922E+03 0.  0.
         25    1    3    3    0    0 -0.46437929428E+02 -0.37230321465E+02 -0.10032794103E+03  0.16735672641E+03  0.12000000000E+03 0.  0.
         25    1    3    3    0    0  0.46437929428E+02  0.37230321465E+02 -0.54178357782E+02  0.14449177339E+03  0.12000000000E+03 0.  0.
<mgrwt>
<rscale>  0 0.27088243E+03</rscale>
<asrwt>0</asrwt>
<pdfrwt beam="1">  1        4 0.35873446E-01 0.27088243E+03</pdfrwt>
<pdfrwt beam="2">  1       -4 0.12103246E-01 0.27088243E+03</pdfrwt>
<totfact> 0.77200535E+02</totfact>
</mgrwt>
</event>
<event>
 5    1  0.1129390E+001  0.2746279E+03  0.7818608E-02  0.1098660E+00
         -3   -1    0    0    0  501 -0.00000000000E+00  0.00000000000E+00  0.82867595415E+02  0.82867595415E+02  0.00000000000E+00 0. -1.
          3   -1    0    0  501    0  0.00000000000E+00 -0.00000000000E+00 -0.22753302956E+03  0.22753302956E+03  0.00000000000E+00 0. -1.
         35    2    1    2    0    0  0.00000000000E+00  0.00000000000E+00 -0.14466543414E+03  0.31040062497E+03  0.27462785756E+03 0.  0.
         25    1    3    3    0    0  0.21333762895E+02  0.39921782905E+02 -0.16889657981E+02  0.12936049913E+03  0.12000000000E+03 0.  0.
         25    1    3    3    0    0 -0.21333762895E+02 -0.39921782905E+02 -0.12777577616E+03  0.18104012584E+03  0.12000000000E+03 0.  0.
<mgrwt>
<rscale>  0 0.27462786E+03</rscale>
<asrwt>0</asrwt>
<pdfrwt beam="1">  1        3 0.35005082E-01 0.27462786E+03</pdfrwt>
<pdfrwt beam="2">  1       -3 0.12748861E-01 0.27462786E+03</pdfrwt>
<totfact> 0.10009580E+03</totfact>
</mgrwt>
</event>
<event>
 5    1  0.1129390E+001  0.2747693E+03  0.7818608E-02  0.1098581E+00
         -2   -1    0    0    0  501 -0.00000000000E+00  0.00000000000E+00  0.95429289039E+01  0.95429289039E+01  0.00000000000E+00 0.  1.
          2   -1    0    0  501    0  0.00000000000E+00 -0.00000000000E+00 -0.19778559649E+04  0.19778559649E+04  0.00000000000E+00 0.  1.
         35    2    1    2    0    0  0.00000000000E+00  0.00000000000E+00 -0.19683130360E+04  0.19873988938E+04  0.27476927671E+03 0.  0.
         25    1    3    3    0    0  0.46106893197E+02 -0.39277822697E+02 -0.77881828607E+03  0.79033316752E+03  0.12000000000E+03 0.  0.
         25    1    3    3    0    0 -0.46106893197E+02  0.39277822697E+02 -0.11894947500E+04  0.11970657263E+04  0.12000000000E+03 0.  0.
<mgrwt>
<rscale>  0 0.27476928E+03</rscale>
<asrwt>0</asrwt>
<pdfrwt beam="1">  1        2 0.30428589E+00 0.27476928E+03</pdfrwt>
<pdfrwt beam="2">  1       -2 0.14681412E-02 0.27476928E+03</pdfrwt>
<totfact> 0.92910175E+03</totfact>
</mgrwt>
</event>
<event>
 5    1  0.1129390E+001  0.2749252E+03  0.7818608E-02  0.1098493E+00
          2   -1    0    0  501    0  0.00000000000E+00  0.00000000000E+00  0.15656016464E+03  0.15656016464E+03  0.00000000000E+00 0.  1.
         -2   -1    0    0    0  501 -0.00000000000E+00 -0.00000000000E+00 -0.12069455998E+03  0.12069455998E+03  0.00000000000E+00 0.  1.
         35    2    1    2    0    0  0.00000000000E+00  0.00000000000E+00  0.35865604668E+02  0.27725472462E+03  0.27492515477E+03 0.  0.
         25    1    3    3    0    0 -0.24019139941E+02  0.33388717594E+02 -0.35470935089E+02  0.13171906765E+03  0.12000000000E+03 0.  0.
         25    1    3    3    0    0  0.24019139941E+02 -0.33388717594E+02  0.71336539757E+02  0.14553565697E+03  0.12000000000E+03 0.  0.
<mgrwt>
<rscale>  0 0.27492515E+03</rscale>
<asrwt>0</asrwt>
<pdfrwt beam="1">  1        2 0.24086179E-01 0.27492515E+03</pdfrwt>
<pdfrwt beam="2">  1       -2 0.18568394E-01 0.27492515E+03</pdfrwt>
<totfact> 0.53203137E+03</totfact>
</mgrwt>
</event>
<event>
 5    1  0.1129390E+001  0.2755704E+03  0.7818608E-02  0.1098133E+00
          2   -1    0    0  501    0  0.00000000000E+00  0.00000000000E+00  0.69065886782E+03  0.69065886782E+03  0.00000000000E+00 0.  1.
         -2   -1    0    0    0  501 -0.00000000000E+00 -0.00000000000E+00 -0.27487906723E+02  0.27487906723E+02  0.00000000000E+00 0.  1.
         35    2    1    2    0    0  0.00000000000E+00  0.00000000000E+00  0.66317096110E+03  0.71814677454E+03  0.27557043772E+03 0.  0.
         25    1    3    3    0    0 -0.18129492353E+02  0.23977480110E+02  0.17347034811E+03  0.21306233764E+03  0.12000000000E+03 0.  0.
         25    1    3    3    0    0  0.18129492353E+02 -0.23977480110E+02  0.48970061299E+03  0.50508443691E+03  0.12000000000E+03 0.  0.
<mgrwt>
<rscale>  0 0.27557044E+03</rscale>
<asrwt>0</asrwt>
<pdfrwt beam="1">  1        2 0.10625520E+00 0.27557044E+03</pdfrwt>
<pdfrwt beam="2">  1       -2 0.42289093E-02 0.27557044E+03</pdfrwt>
<totfact> 0.10729019E+04</totfact>
</mgrwt>
</event>
<event>
 5    1  0.1129390E+001  0.2748774E+03  0.7818608E-02  0.1098520E+00
         -2   -1    0    0    0  501 -0.00000000000E+00  0.00000000000E+00  0.30969840763E+02  0.30969840763E+02  0.00000000000E+00 0.  1.
          2   -1    0    0  501    0  0.00000000000E+00 -0.00000000000E+00 -0.60992878095E+03  0.60992878095E+03  0.00000000000E+00 0.  1.
         35    2    1    2    0    0  0.00000000000E+00  0.00000000000E+00 -0.57895894019E+03  0.64089862171E+03  0.27487740702E+03 0.  0.
         25    1    3    3    0    0  0.54184931852E+01 -0.66070427484E+02 -0.31217327299E+03  0.34094986996E+03  0.12000000000E+03 0.  0.
         25    1    3    3    0    0 -0.54184931852E+01  0.66070427484E+02 -0.26678566720E+03  0.29994875175E+03  0.12000000000E+03 0.  0.
<mgrwt>
<rscale>  0 0.27487741E+03</rscale>
<asrwt>0</asrwt>
<pdfrwt beam="1">  1        2 0.93835192E-01 0.27487741E+03</pdfrwt>
<pdfrwt beam="2">  1       -2 0.47645911E-02 0.27487741E+03</pdfrwt>
<totfact> 0.10381420E+04</totfact>
</mgrwt>
</event>
<event>
 5    1  0.1129390E+001  0.2749521E+03  0.7818608E-02  0.1098478E+00
          2   -1    0    0  501    0  0.00000000000E+00  0.00000000000E+00  0.67791392991E+03  0.67791392991E+03  0.00000000000E+00 0. -1.
         -2   -1    0    0    0  501 -0.00000000000E+00 -0.00000000000E+00 -0.27879158790E+02  0.27879158790E+02  0.00000000000E+00 0. -1.
         35    2    1    2    0    0  0.00000000000E+00  0.00000000000E+00  0.65003477112E+03  0.70579308870E+03  0.27495214200E+03 0.  0.
         25    1    3    3    0    0  0.29011567628E+02  0.51628319576E+02  0.40588767133E+03  0.42737800152E+03  0.12000000000E+03 0.  0.
         25    1    3    3    0    0 -0.29011567628E+02 -0.51628319576E+02  0.24414709978E+03  0.27841508718E+03  0.12000000000E+03 0.  0.
<mgrwt>
<rscale>  0 0.27495214E+03</rscale>
<asrwt>0</asrwt>
<pdfrwt beam="1">  1        2 0.10429444E+00 0.27495214E+03</pdfrwt>
<pdfrwt beam="2">  1       -2 0.42891018E-02 0.27495214E+03</pdfrwt>
<totfact> 0.10740185E+04</totfact>
</mgrwt>
</event>
<event>
 5    1  0.1129390E+001  0.2730503E+03  0.7818608E-02  0.1099546E+00
          1   -1    0    0  501    0  0.00000000000E+00  0.00000000000E+00  0.74309509882E+03  0.74309509882E+03  0.00000000000E+00 0. -1.
         -1   -1    0    0    0  501 -0.00000000000E+00 -0.00000000000E+00 -0.25083089723E+02  0.25083089723E+02  0.00000000000E+00 0. -1.
         35    2    1    2    0    0  0.00000000000E+00  0.00000000000E+00  0.71801200909E+03  0.76817818854E+03  0.27305033262E+03 0.  0.
         25    1    3    3    0    0  0.31284292027E+02 -0.56776797579E+02  0.34193738390E+03  0.36813514663E+03  0.12000000000E+03 0.  0.
         25    1    3    3    0    0 -0.31284292027E+02  0.56776797579E+02  0.37607462519E+03  0.40004304191E+03  0.12000000000E+03 0.  0.
<mgrwt>
<rscale>  0 0.27305033E+03</rscale>
<asrwt>0</asrwt>
<pdfrwt beam="1">  1        1 0.11432231E+00 0.27305033E+03</pdfrwt>
<pdfrwt beam="2">  1       -1 0.38589374E-02 0.27305033E+03</pdfrwt>
<totfact> 0.66742363E+03</totfact>
</mgrwt>
</event>
<event>
 5    1  0.1129390E+001  0.2743942E+03  0.7818608E-02  0.1098791E+00
         -3   -1    0    0    0  501 -0.00000000000E+00  0.00000000000E+00  0.40006834827E+03  0.40006834827E+03  0.00000000000E+00 0.  1.
          3   -1    0    0  501    0  0.00000000000E+00 -0.00000000000E+00 -0.47049554500E+02  0.47049554500E+02  0.00000000000E+00 0.  1.
         35    2    1    2    0    0  0.00000000000E+00  0.00000000000E+00  0.35301879377E+03  0.44711790277E+03  0.27439415122E+03 0.  0.
         25    1    3    3    0    0  0.44773369368E+02 -0.47577911027E+02  0.15624060221E+03  0.20755586718E+03  0.12000000000E+03 0.  0.
         25    1    3    3    0    0 -0.44773369368E+02  0.47577911027E+02  0.19677819157E+03  0.23956203560E+03  0.12000000000E+03 0.  0.
<mgrwt>
<rscale>  0 0.27439415E+03</rscale>
<asrwt>0</asrwt>
<pdfrwt beam="1">  1        3 0.72383933E-02 0.27439415E+03</pdfrwt>
<pdfrwt beam="2">  1       -3 0.61548974E-01 0.27439415E+03</pdfrwt>
<totfact> 0.83314438E+02</totfact>
</mgrwt>
</event>
<event>
 5    1  0.1129390E+001  0.2747388E+03  0.7818608E-02  0.1098598E+00
         -2   -1    0    0    0  501 -0.00000000000E+00  0.00000000000E+00  0.13346338702E+02  0.13346338702E+02  0.00000000000E+00 0.  1.
          2   -1    0    0  501    0  0.00000000000E+00 -0.00000000000E+00 -0.14138976618E+04  0.14138976618E+04  0.00000000000E+00 0.  1.
         35    2    1    2    0    0  0.00000000000E+00  0.00000000000E+00 -0.14005513231E+04  0.14272440005E+04  0.27473883660E+03 0.  0.
         25    1    3    3    0    0  0.14131167668E+02  0.21598610705E+02 -0.10206870690E+04  0.10280409927E+04  0.12000000000E+03 0.  0.
         25    1    3    3    0    0 -0.14131167668E+02 -0.21598610705E+02 -0.37986425414E+03  0.39920300782E+03  0.12000000000E+03 0.  0.
<mgrwt>
<rscale>  0 0.27473884E+03</rscale>
<asrwt>0</asrwt>
<pdfrwt beam="1">  1        2 0.21752269E+00 0.27473884E+03</pdfrwt>
<pdfrwt beam="2">  1       -2 0.20532831E-02 0.27473884E+03</pdfrwt>
<totfact> 0.11290857E+04</totfact>
</mgrwt>
</event>
<event>
 5    1  0.1129390E+001  0.2663610E+03  0.7818608E-02  0.1103381E+00
          2   -1    0    0  501    0  0.00000000000E+00  0.00000000000E+00  0.30195411674E+03  0.30195411674E+03  0.00000000000E+00 0. -1.
         -2   -1    0    0    0  501 -0.00000000000E+00 -0.00000000000E+00 -0.58740858357E+02  0.58740858357E+02  0.00000000000E+00 0. -1.
         35    2    1    2    0    0  0.00000000000E+00  0.00000000000E+00  0.24321325839E+03  0.36069497510E+03  0.26636098815E+03 0.  0.
         25    1    3    3    0    0 -0.33605955428E+02 -0.71706135976E+01  0.18448780422E+03  0.22274767753E+03  0.12000000000E+03 0.  0.
         25    1    3    3    0    0  0.33605955428E+02  0.71706135976E+01  0.58725454165E+02  0.13794729757E+03  0.12000000000E+03 0.  0.
<mgrwt>
<rscale>  0 0.26636099E+03</rscale>
<asrwt>0</asrwt>
<pdfrwt beam="1">  1        2 0.46454479E-01 0.26636099E+03</pdfrwt>
<pdfrwt beam="2">  1       -2 0.90370553E-02 0.26636099E+03</pdfrwt>
<totfact> 0.83863687E+03</totfact>
</mgrwt>
</event>
<event>
 5    1  0.1129390E+001  0.2748660E+03  0.7818608E-02  0.1098527E+00
          1   -1    0    0  501    0  0.00000000000E+00  0.00000000000E+00  0.68515460804E+03  0.68515460804E+03  0.00000000000E+00 0. -1.
         -1   -1    0    0    0  501 -0.00000000000E+00 -0.00000000000E+00 -0.27567244819E+02  0.27567244819E+02  0.00000000000E+00 0. -1.
         35    2    1    2    0    0  0.00000000000E+00  0.00000000000E+00  0.65758736322E+03  0.71272185286E+03  0.27486596602E+03 0.  0.
         25    1    3    3    0    0 -0.65476226563E+02  0.33194743614E+01  0.36450435534E+03  0.38930910626E+03  0.12000000000E+03 0.  0.
         25    1    3    3    0    0  0.65476226563E+02 -0.33194743614E+01  0.29308300788E+03  0.32341274660E+03  0.12000000000E+03 0.  0.
<mgrwt>
<rscale>  0 0.27486597E+03</rscale>
<asrwt>0</asrwt>
<pdfrwt beam="1">  1        1 0.10540839E+00 0.27486597E+03</pdfrwt>
<pdfrwt beam="2">  1       -1 0.42411151E-02 0.27486597E+03</pdfrwt>
<totfact> 0.65356835E+03</totfact>
</mgrwt>
</event>
<event>
 5    1  0.1129390E+001  0.2749646E+03  0.7818608E-02  0.1098471E+00
         -2   -1    0    0    0  501 -0.00000000000E+00  0.00000000000E+00  0.69621246561E+03  0.69621246561E+03  0.00000000000E+00 0.  1.
          2   -1    0    0  501    0  0.00000000000E+00 -0.00000000000E+00 -0.27148875003E+02  0.27148875003E+02  0.00000000000E+00 0.  1.
         35    2    1    2    0    0  0.00000000000E+00  0.00000000000E+00  0.66906359061E+03  0.72336134061E+03  0.27496461739E+03 0.  0.
         25    1    3    3    0    0  0.64308914659E+02 -0.54568595210E+01  0.28631152655E+03  0.31707996477E+03  0.12000000000E+03 0.  0.
         25    1    3    3    0    0 -0.64308914659E+02  0.54568595210E+01  0.38275206406E+03  0.40628137585E+03  0.12000000000E+03 0.  0.
<mgrwt>
<rscale>  0 0.27496462E+03</rscale>
<asrwt>0</asrwt>
<pdfrwt beam="1">  1        2 0.41767505E-02 0.27496462E+03</pdfrwt>
<pdfrwt beam="2">  1       -2 0.10710960E+00 0.27496462E+03</pdfrwt>
<totfact> 0.14578822E+03</totfact>
</mgrwt>
</event>
<event>
 4    1  0.1129390E+001  0.2916356E+03  0.7818608E-02  0.1089498E+00
          2   -1    0    0  501    0  0.00000000000E+00  0.00000000000E+00  0.11285291349E+03  0.11285291349E+03  0.00000000000E+00 0. -1.
         -2   -1    0    0    0  501 -0.00000000000E+00 -0.00000000000E+00 -0.18841189981E+03  0.18841189981E+03  0.00000000000E+00 0. -1.
         25    1    1    2    0    0  0.34001552448E+02  0.43024509642E+02  0.26364331638E+02  0.13454475828E+03  0.12000000000E+03 0.  0.
         25    1    1    2    0    0 -0.34001552448E+02 -0.43024509642E+02 -0.10192331796E+03  0.16672005501E+03  0.12000000000E+03 0.  0.
<mgrwt>
<rscale>  0 0.29163561E+03</rscale>
<asrwt>0</asrwt>
<pdfrwt beam="1">  1        2 0.17361987E-01 0.29163561E+03</pdfrwt>
<pdfrwt beam="2">  1       -2 0.28986446E-01 0.29163561E+03</pdfrwt>
<totfact> 0.35577120E+03</totfact>
</mgrwt>
</event>
<event>
 5    1  0.1129390E+001  0.2741988E+03  0.7818608E-02  0.1098900E+00
          3   -1    0    0  501    0  0.00000000000E+00  0.00000000000E+00  0.10776628103E+04  0.10776628103E+04  0.00000000000E+00 0. -1.
         -3   -1    0    0    0  501 -0.00000000000E+00 -0.00000000000E+00 -0.17441675416E+02  0.17441675416E+02  0.00000000000E+00 0. -1.
         35    2    1    2    0    0  0.00000000000E+00  0.00000000000E+00  0.10602211349E+04  0.10951044857E+04  0.27419879610E+03 0.  0.
         25    1    3    3    0    0 -0.65652848331E+02  0.35520207217E+01  0.56431131492E+03  0.58066356308E+03  0.12000000000E+03 0.  0.
         25    1    3    3    0    0  0.65652848331E+02 -0.35520207217E+01  0.49590982000E+03  0.51444092267E+03  0.12000000000E+03 0.  0.
<mgrwt>
<rscale>  0 0.27419880E+03</rscale>
<asrwt>0</asrwt>
<pdfrwt beam="1">  1        3 0.16579423E+00 0.27419880E+03</pdfrwt>
<pdfrwt beam="2">  1       -3 0.26833355E-02 0.27419880E+03</pdfrwt>
<totfact> 0.40797283E+02</totfact>
</mgrwt>
</event>
<event>
 5    1  0.1129390E+001  0.2752846E+03  0.7818608E-02  0.1098293E+00
         -1   -1    0    0    0  501 -0.00000000000E+00  0.00000000000E+00  0.10147570755E+02  0.10147570755E+02  0.00000000000E+00 0.  1.
          1   -1    0    0  501    0  0.00000000000E+00 -0.00000000000E+00 -0.18669896162E+04  0.18669896162E+04  0.00000000000E+00 0.  1.
         35    2    1    2    0    0  0.00000000000E+00  0.00000000000E+00 -0.18568420454E+04  0.18771371869E+04  0.27528464708E+03 0.  0.
         25    1    3    3    0    0  0.41335594911E+02  0.33423441284E+02 -0.12111916079E+04  0.12182819333E+04  0.12000000000E+03 0.  0.
         25    1    3    3    0    0 -0.41335594911E+02 -0.33423441284E+02 -0.64565043751E+03  0.65885525367E+03  0.12000000000E+03 0.  0.
<mgrwt>
<rscale>  0 0.27528465E+03</rscale>
<asrwt>0</asrwt>
<pdfrwt beam="1">  1        1 0.28722929E+00 0.27528465E+03</pdfrwt>
<pdfrwt beam="2">  1       -1 0.15611641E-02 0.27528465E+03</pdfrwt>
<totfact> 0.40530992E+03</totfact>
</mgrwt>
</event>
<event>
 5    1  0.1129390E+001  0.2757337E+03  0.7818608E-02  0.1098042E+00
         -2   -1    0    0    0  501 -0.00000000000E+00  0.00000000000E+00  0.17449423691E+02  0.17449423691E+02  0.00000000000E+00 0. -1.
          2   -1    0    0  501    0  0.00000000000E+00 -0.00000000000E+00 -0.10892780424E+04  0.10892780424E+04  0.00000000000E+00 0. -1.
         35    2    1    2    0    0  0.00000000000E+00  0.00000000000E+00 -0.10718286187E+04  0.11067274661E+04  0.27573374171E+03 0.  0.
         25    1    3    3    0    0  0.19057900378E+02  0.45476575871E+02 -0.34868433173E+03  0.37203774770E+03  0.12000000000E+03 0.  0.
         25    1    3    3    0    0 -0.19057900378E+02 -0.45476575871E+02 -0.72314428699E+03  0.73468971840E+03  0.12000000000E+03 0.  0.
<mgrwt>
<rscale>  0 0.27573374E+03</rscale>
<asrwt>0</asrwt>
<pdfrwt beam="1">  1        2 0.16758128E+00 0.27573374E+03</pdfrwt>
<pdfrwt beam="2">  1       -2 0.26845261E-02 0.27573374E+03</pdfrwt>
<totfact> 0.11567564E+04</totfact>
</mgrwt>
</event>
<event>
 5    1  0.1129390E+001  0.2738834E+03  0.7818608E-02  0.1099077E+00
         -1   -1    0    0    0  501 -0.00000000000E+00  0.00000000000E+00  0.13991635599E+03  0.13991635599E+03  0.00000000000E+00 0.  1.
          1   -1    0    0  501    0  0.00000000000E+00 -0.00000000000E+00 -0.13403032799E+03  0.13403032799E+03  0.00000000000E+00 0.  1.
         35    2    1    2    0    0  0.00000000000E+00  0.00000000000E+00  0.58860279913E+01  0.27394668398E+03  0.27388344298E+03 0.  0.
         25    1    3    3    0    0 -0.53170090611E+02 -0.47812107627E+01  0.41722013550E+02  0.13780654893E+03  0.12000000000E+03 0.  0.
         25    1    3    3    0    0  0.53170090611E+02  0.47812107627E+01 -0.35835985559E+02  0.13614013506E+03  0.12000000000E+03 0.  0.
<mgrwt>
<rscale>  0 0.27388344E+03</rscale>
<asrwt>0</asrwt>
<pdfrwt beam="1">  1        1 0.20620050E-01 0.27388344E+03</pdfrwt>
<pdfrwt beam="2">  1       -1 0.21525593E-01 0.27388344E+03</pdfrwt>
<totfact> 0.43559946E+03</totfact>
</mgrwt>
</event>
<event>
 5    1  0.1129390E+001  0.2734893E+03  0.7818608E-02  0.1099299E+00
         -2   -1    0    0    0  501 -0.00000000000E+00  0.00000000000E+00  0.40394795210E+02  0.40394795210E+02  0.00000000000E+00 0. -1.
          2   -1    0    0  501    0  0.00000000000E+00 -0.00000000000E+00 -0.46290870662E+03  0.46290870662E+03  0.00000000000E+00 0. -1.
         35    2    1    2    0    0  0.00000000000E+00  0.00000000000E+00 -0.42251391141E+03  0.50330350183E+03  0.27348932268E+03 0.  0.
         25    1    3    3    0    0  0.47959899097E+02 -0.23637430753E+02 -0.14141693657E+03  0.19302235623E+03  0.12000000000E+03 0.  0.
         25    1    3    3    0    0 -0.47959899097E+02  0.23637430753E+02 -0.28109697483E+03  0.31028114560E+03  0.12000000000E+03 0.  0.
<mgrwt>
<rscale>  0 0.27348932E+03</rscale>
<asrwt>0</asrwt>
<pdfrwt beam="1">  1        2 0.71216726E-01 0.27348932E+03</pdfrwt>
<pdfrwt beam="2">  1       -2 0.62145837E-02 0.27348932E+03</pdfrwt>
<totfact> 0.94564622E+03</totfact>
</mgrwt>
</event>
<event>
 5    1  0.1129390E+001  0.2738402E+03  0.7818608E-02  0.1099102E+00
          4   -1    0    0  501    0  0.00000000000E+00  0.00000000000E+00  0.17642174712E+02  0.17642174712E+02  0.00000000000E+00 0.  1.
         -4   -1    0    0    0  501 -0.00000000000E+00 -0.00000000000E+00 -0.10626301642E+04  0.10626301642E+04  0.00000000000E+00 0.  1.
         35    2    1    2    0    0  0.00000000000E+00  0.00000000000E+00 -0.10449879895E+04  0.10802723389E+04  0.27384015054E+03 0.  0.
         25    1    3    3    0    0  0.15610364339E+02 -0.64024616453E+02 -0.51434032685E+03  0.53224882039E+03  0.12000000000E+03 0.  0.
         25    1    3    3    0    0 -0.15610364339E+02  0.64024616453E+02 -0.53064766267E+03  0.54802351855E+03  0.12000000000E+03 0.  0.
<mgrwt>
<rscale>  0 0.27384015E+03</rscale>
<asrwt>0</asrwt>
<pdfrwt beam="1">  1        4 0.27141811E-02 0.27384015E+03</pdfrwt>
<pdfrwt beam="2">  1       -4 0.16348154E+00 0.27384015E+03</pdfrwt>
<totfact> 0.29793700E+02</totfact>
</mgrwt>
</event>
<event>
 5    1  0.1129390E+001  0.2684457E+03  0.7818608E-02  0.1102173E+00
         -2   -1    0    0    0  501 -0.00000000000E+00  0.00000000000E+00  0.28019937323E+03  0.28019937323E+03  0.00000000000E+00 0.  1.
          2   -1    0    0  501    0  0.00000000000E+00 -0.00000000000E+00 -0.64296245114E+02  0.64296245114E+02  0.00000000000E+00 0.  1.
         35    2    1    2    0    0  0.00000000000E+00  0.00000000000E+00  0.21590312811E+03  0.34449561834E+03  0.26844565619E+03 0.  0.
         25    1    3    3    0    0 -0.31029621228E+02 -0.50533442076E+02  0.12073963544E+03  0.18026238023E+03  0.12000000000E+03 0.  0.
         25    1    3    3    0    0  0.31029621228E+02  0.50533442076E+02  0.95163492677E+02  0.16423323811E+03  0.12000000000E+03 0.  0.
<mgrwt>
<rscale>  0 0.26844566E+03</rscale>
<asrwt>0</asrwt>
<pdfrwt beam="1">  1        2 0.98917302E-02 0.26844566E+03</pdfrwt>
<pdfrwt beam="2">  1       -2 0.43107595E-01 0.26844566E+03</pdfrwt>
<totfact> 0.33291633E+03</totfact>
</mgrwt>
</event>
<event>
 5    1  0.1129390E+001  0.2735094E+03  0.7818608E-02  0.1099288E+00
          1   -1    0    0  501    0  0.00000000000E+00  0.00000000000E+00  0.75867477625E+03  0.75867477625E+03  0.00000000000E+00 0. -1.
         -1   -1    0    0    0  501 -0.00000000000E+00 -0.00000000000E+00 -0.24650678683E+02  0.24650678683E+02  0.00000000000E+00 0. -1.
         35    2    1    2    0    0  0.00000000000E+00  0.00000000000E+00  0.73402409757E+03  0.78332545494E+03  0.27350940119E+03 0.  0.
         25    1    3    3    0    0 -0.50155376769E+02  0.83229527882E+01  0.48568643568E+03  0.50286792219E+03  0.12000000000E+03 0.  0.
         25    1    3    3    0    0  0.50155376769E+02 -0.83229527882E+01  0.24833766189E+03  0.28045753275E+03  0.12000000000E+03 0.  0.
<mgrwt>
<rscale>  0 0.27350940E+03</rscale>
<asrwt>0</asrwt>
<pdfrwt beam="1">  1        1 0.11671918E+00 0.27350940E+03</pdfrwt>
<pdfrwt beam="2">  1       -1 0.37924127E-02 0.27350940E+03</pdfrwt>
<totfact> 0.66395038E+03</totfact>
</mgrwt>
</event>
<event>
 5    1  0.1129390E+001  0.2750192E+03  0.7818608E-02  0.1098441E+00
         -1   -1    0    0    0  501 -0.00000000000E+00  0.00000000000E+00  0.14496418216E+02  0.14496418216E+02  0.00000000000E+00 0.  1.
          1   -1    0    0  501    0  0.00000000000E+00 -0.00000000000E+00 -0.13043831478E+04  0.13043831478E+04  0.00000000000E+00 0.  1.
         35    2    1    2    0    0  0.00000000000E+00  0.00000000000E+00 -0.12898867296E+04  0.13188795660E+04  0.27501915296E+03 0.  0.
         25    1    3    3    0    0  0.13056535189E+02  0.45317769512E+02 -0.87416614054E+03  0.88362357065E+03  0.12000000000E+03 0.  0.
         25    1    3    3    0    0 -0.13056535189E+02 -0.45317769512E+02 -0.41572058902E+03  0.43525599534E+03  0.12000000000E+03 0.  0.
<mgrwt>
<rscale>  0 0.27501915E+03</rscale>
<asrwt>0</asrwt>
<pdfrwt beam="1">  1        1 0.20067436E+00 0.27501915E+03</pdfrwt>
<pdfrwt beam="2">  1       -1 0.22302178E-02 0.27501915E+03</pdfrwt>
<totfact> 0.56629750E+03</totfact>
</mgrwt>
</event>
<event>
 5    1  0.1129390E+001  0.2737025E+03  0.7818608E-02  0.1099179E+00
          2   -1    0    0  501    0  0.00000000000E+00  0.00000000000E+00  0.13159267653E+04  0.13159267653E+04  0.00000000000E+00 0. -1.
         -2   -1    0    0    0  501 -0.00000000000E+00 -0.00000000000E+00 -0.14231991619E+02  0.14231991619E+02  0.00000000000E+00 0. -1.
         35    2    1    2    0    0  0.00000000000E+00  0.00000000000E+00  0.13016947737E+04  0.13301587569E+04  0.27370245665E+03 0.  0.
         25    1    3    3    0    0  0.35052245571E+02  0.43849911923E+02  0.81756180449E+03  0.82822628481E+03  0.12000000000E+03 0.  0.
         25    1    3    3    0    0 -0.35052245571E+02 -0.43849911923E+02  0.48413296916E+03  0.50193247208E+03  0.12000000000E+03 0.  0.
<mgrwt>
<rscale>  0 0.27370246E+03</rscale>
<asrwt>0</asrwt>
<pdfrwt beam="1">  1        2 0.20245018E+00 0.27370246E+03</pdfrwt>
<pdfrwt beam="2">  1       -2 0.21895382E-02 0.27370246E+03</pdfrwt>
<totfact> 0.11617676E+04</totfact>
</mgrwt>
</event>
<event>
 5    1  0.1129390E+001  0.2740281E+03  0.7818608E-02  0.1098996E+00
          2   -1    0    0  501    0  0.00000000000E+00  0.00000000000E+00  0.36316638448E+03  0.36316638448E+03  0.00000000000E+00 0.  1.
         -2   -1    0    0    0  501 -0.00000000000E+00 -0.00000000000E+00 -0.51692127881E+02  0.51692127881E+02  0.00000000000E+00 0.  1.
         35    2    1    2    0    0  0.00000000000E+00  0.00000000000E+00  0.31147425660E+03  0.41485851237E+03  0.27402805104E+03 0.  0.
         25    1    3    3    0    0 -0.14035953451E+02  0.64291427091E+02  0.16560064002E+03  0.21483474477E+03  0.12000000000E+03 0.  0.
         25    1    3    3    0    0  0.14035953451E+02 -0.64291427091E+02  0.14587361659E+03  0.20002376760E+03  0.12000000000E+03 0.  0.
<mgrwt>
<rscale>  0 0.27402805E+03</rscale>
<asrwt>0</asrwt>
<pdfrwt beam="1">  1        2 0.55871750E-01 0.27402805E+03</pdfrwt>
<pdfrwt beam="2">  1       -2 0.79526353E-02 0.27402805E+03</pdfrwt>
<totfact> 0.84098574E+03</totfact>
</mgrwt>
</event>
<event>
 5    1  0.1129390E+001  0.2733460E+03  0.7818608E-02  0.1099380E+00
          2   -1    0    0  501    0  0.00000000000E+00  0.00000000000E+00  0.46928164683E+03  0.46928164683E+03  0.00000000000E+00 0. -1.
         -2   -1    0    0    0  501 -0.00000000000E+00 -0.00000000000E+00 -0.39804460912E+02  0.39804460912E+02  0.00000000000E+00 0. -1.
         35    2    1    2    0    0  0.00000000000E+00  0.00000000000E+00  0.42947718591E+03  0.50908610774E+03  0.27334595638E+03 0.  0.
         25    1    3    3    0    0  0.10439909399E+02 -0.27045103542E+02  0.32395787804E+03  0.34668304845E+03  0.12000000000E+03 0.  0.
         25    1    3    3    0    0 -0.10439909399E+02  0.27045103542E+02  0.10551930787E+03  0.16240305929E+03  0.12000000000E+03 0.  0.
<mgrwt>
<rscale>  0 0.27334596E+03</rscale>
<asrwt>0</asrwt>
<pdfrwt beam="1">  1        2 0.72197172E-01 0.27334596E+03</pdfrwt>
<pdfrwt beam="2">  1       -2 0.61237636E-02 0.27334596E+03</pdfrwt>
<totfact> 0.95274204E+03</totfact>
</mgrwt>
</event>
<event>
 5    1  0.1129390E+001  0.2752004E+03  0.7818608E-02  0.1098340E+00
         -2   -1    0    0    0  501 -0.00000000000E+00  0.00000000000E+00  0.11521568918E+03  0.11521568918E+03  0.00000000000E+00 0. -1.
          2   -1    0    0  501    0  0.00000000000E+00 -0.00000000000E+00 -0.16433370826E+03  0.16433370826E+03  0.00000000000E+00 0. -1.
         35    2    1    2    0    0  0.00000000000E+00  0.00000000000E+00 -0.49118019081E+02  0.27954939743E+03  0.27520044660E+03 0.  0.
         25    1    3    3    0    0 -0.63005697441E+01 -0.17834912508E+02 -0.90202514225E+02  0.15130854191E+03  0.12000000000E+03 0.  0.
         25    1    3    3    0    0  0.63005697441E+01  0.17834912508E+02  0.41084495144E+02  0.12824085552E+03  0.12000000000E+03 0.  0.
<mgrwt>
<rscale>  0 0.27520045E+03</rscale>
<asrwt>0</asrwt>
<pdfrwt beam="1">  1        2 0.25282109E-01 0.27520045E+03</pdfrwt>
<pdfrwt beam="2">  1       -2 0.17725491E-01 0.27520045E+03</pdfrwt>
<totfact> 0.54509764E+03</totfact>
</mgrwt>
</event>
<event>
 5    1  0.1129390E+001  0.2745187E+03  0.7818608E-02  0.1098721E+00
         -2   -1    0    0    0  501 -0.00000000000E+00  0.00000000000E+00  0.10030415684E+03  0.10030415684E+03  0.00000000000E+00 0. -1.
          2   -1    0    0  501    0  0.00000000000E+00 -0.00000000000E+00 -0.18783001586E+03  0.18783001586E+03  0.00000000000E+00 0. -1.
         35    2    1    2    0    0  0.00000000000E+00  0.00000000000E+00 -0.87525859016E+02  0.28813417270E+03  0.27451871609E+03 0.  0.
         25    1    3    3    0    0 -0.63517059515E+02  0.19096726909E+02 -0.50486053922E+02  0.14610935449E+03  0.12000000000E+03 0.  0.
         25    1    3    3    0    0  0.63517059515E+02 -0.19096726909E+02 -0.37039805094E+02  0.14202481822E+03  0.12000000000E+03 0.  0.
<mgrwt>
<rscale>  0 0.27451872E+03</rscale>
<asrwt>0</asrwt>
<pdfrwt beam="1">  1        2 0.28896926E-01 0.27451872E+03</pdfrwt>
<pdfrwt beam="2">  1       -2 0.15431409E-01 0.27451872E+03</pdfrwt>
<totfact> 0.59243888E+03</totfact>
</mgrwt>
</event>
<event>
 5    1  0.1129390E+001  0.2754275E+03  0.7818608E-02  0.1098213E+00
         -1   -1    0    0    0  501 -0.00000000000E+00  0.00000000000E+00  0.56194091979E+02  0.56194091979E+02  0.00000000000E+00 0. -1.
          1   -1    0    0  501    0  0.00000000000E+00 -0.00000000000E+00 -0.33749235284E+03  0.33749235284E+03  0.00000000000E+00 0. -1.
         35    2    1    2    0    0  0.00000000000E+00  0.00000000000E+00 -0.28129826086E+03  0.39368644482E+03  0.27542749549E+03 0.  0.
         25    1    3    3    0    0 -0.29321679048E+02  0.56255128091E+02 -0.10741290297E+03  0.17309515309E+03  0.12000000000E+03 0.  0.
         25    1    3    3    0    0  0.29321679048E+02 -0.56255128091E+02 -0.17388535789E+03  0.22059129173E+03  0.12000000000E+03 0.  0.
<mgrwt>
<rscale>  0 0.27542750E+03</rscale>
<asrwt>0</asrwt>
<pdfrwt beam="1">  1        1 0.51921899E-01 0.27542750E+03</pdfrwt>
<pdfrwt beam="2">  1       -1 0.86452451E-02 0.27542750E+03</pdfrwt>
<totfact> 0.57245407E+03</totfact>
</mgrwt>
</event>
<event>
 5    1  0.1129390E+001  0.2744633E+03  0.7818608E-02  0.1098752E+00
         -2   -1    0    0    0  501 -0.00000000000E+00  0.00000000000E+00  0.14365319566E+02  0.14365319566E+02  0.00000000000E+00 0.  1.
          2   -1    0    0  501    0  0.00000000000E+00 -0.00000000000E+00 -0.13109717419E+04  0.13109717419E+04  0.00000000000E+00 0.  1.
         35    2    1    2    0    0  0.00000000000E+00  0.00000000000E+00 -0.12966064223E+04  0.13253370615E+04  0.27446331642E+03 0.  0.
         25    1    3    3    0    0 -0.55558740289E+02 -0.31403551624E+02 -0.73986927990E+03  0.75224963145E+03  0.12000000000E+03 0.  0.
         25    1    3    3    0    0  0.55558740289E+02  0.31403551624E+02 -0.55673714244E+03  0.57308743002E+03  0.12000000000E+03 0.  0.
<mgrwt>
<rscale>  0 0.27446332E+03</rscale>
<asrwt>0</asrwt>
<pdfrwt beam="1">  1        2 0.20168788E+00 0.27446332E+03</pdfrwt>
<pdfrwt beam="2">  1       -2 0.22100500E-02 0.27446332E+03</pdfrwt>
<totfact> 0.11532237E+04</totfact>
</mgrwt>
</event>
<event>
 5    1  0.1129390E+001  0.2740338E+03  0.7818608E-02  0.1098993E+00
         -1   -1    0    0    0  501 -0.00000000000E+00  0.00000000000E+00  0.28056006989E+03  0.28056006989E+03  0.00000000000E+00 0. -1.
          1   -1    0    0  501    0  0.00000000000E+00 -0.00000000000E+00 -0.66914857348E+02  0.66914857348E+02  0.00000000000E+00 0. -1.
         35    2    1    2    0    0  0.00000000000E+00  0.00000000000E+00  0.21364521254E+03  0.34747492724E+03  0.27403384502E+03 0.  0.
         25    1    3    3    0    0  0.12428702364E+02  0.45602527793E+02  0.48170594785E+02  0.13767523156E+03  0.12000000000E+03 0.  0.
         25    1    3    3    0    0 -0.12428702364E+02 -0.45602527793E+02  0.16547461776E+03  0.20979969568E+03  0.12000000000E+03 0.  0.
<mgrwt>
<rscale>  0 0.27403385E+03</rscale>
<asrwt>0</asrwt>
<pdfrwt beam="1">  1        1 0.10294594E-01 0.27403385E+03</pdfrwt>
<pdfrwt beam="2">  1       -1 0.43163087E-01 0.27403385E+03</pdfrwt>
<totfact> 0.33056515E+03</totfact>
</mgrwt>
</event>
<event>
 5    1  0.1129390E+001  0.2751584E+03  0.7818608E-02  0.1098363E+00
          2   -1    0    0  501    0  0.00000000000E+00  0.00000000000E+00  0.11283472384E+04  0.11283472384E+04  0.00000000000E+00 0.  1.
         -2   -1    0    0    0  501 -0.00000000000E+00 -0.00000000000E+00 -0.16775014478E+02  0.16775014478E+02  0.00000000000E+00 0.  1.
         35    2    1    2    0    0  0.00000000000E+00  0.00000000000E+00  0.11115722239E+04  0.11451222529E+04  0.27515843625E+03 0.  0.
         25    1    3    3    0    0 -0.54838111296E+02  0.38326486882E+02  0.52580372925E+03  0.54345717379E+03  0.12000000000E+03 0.  0.
         25    1    3    3    0    0  0.54838111296E+02 -0.38326486882E+02  0.58576849469E+03  0.60166507911E+03  0.12000000000E+03 0.  0.
<mgrwt>
<rscale>  0 0.27515844E+03</rscale>
<asrwt>0</asrwt>
<pdfrwt beam="1">  1        2 0.17359182E+00 0.27515844E+03</pdfrwt>
<pdfrwt beam="2">  1       -2 0.25807723E-02 0.27515844E+03</pdfrwt>
<totfact> 0.11633477E+04</totfact>
</mgrwt>
</event>
<event>
 5    1  0.1129390E+001  0.2745504E+03  0.7818608E-02  0.1098703E+00
         -2   -1    0    0    0  501 -0.00000000000E+00  0.00000000000E+00  0.67868370862E+01  0.67868370862E+01  0.00000000000E+00 0.  1.
          2   -1    0    0  501    0  0.00000000000E+00 -0.00000000000E+00 -0.27766209728E+04  0.27766209728E+04  0.00000000000E+00 0.  1.
         35    2    1    2    0    0  0.00000000000E+00  0.00000000000E+00 -0.27698341357E+04  0.27834078098E+04  0.27455035380E+03 0.  0.
         25    1    3    3    0    0  0.21996964128E+02 -0.62811080331E+02 -0.14246706071E+04  0.14312635806E+04  0.12000000000E+03 0.  0.
         25    1    3    3    0    0 -0.21996964128E+02  0.62811080331E+02 -0.13451635286E+04  0.13521442293E+04  0.12000000000E+03 0.  0.
<mgrwt>
<rscale>  0 0.27455035E+03</rscale>
<asrwt>0</asrwt>
<pdfrwt beam="1">  1        2 0.42717294E+00 0.27455035E+03</pdfrwt>
<pdfrwt beam="2">  1       -2 0.10441276E-02 0.27455035E+03</pdfrwt>
<totfact> 0.56258131E+03</totfact>
</mgrwt>
</event>
<event>
 5    1  0.1129390E+001  0.2742344E+03  0.7818608E-02  0.1098880E+00
         -1   -1    0    0    0  501 -0.00000000000E+00  0.00000000000E+00  0.97230299322E+02  0.97230299322E+02  0.00000000000E+00 0. -1.
          1   -1    0    0  501    0  0.00000000000E+00 -0.00000000000E+00 -0.19336688137E+03  0.19336688137E+03  0.00000000000E+00 0. -1.
         35    2    1    2    0    0  0.00000000000E+00  0.00000000000E+00 -0.96136582044E+02  0.29059718069E+03  0.27423435054E+03 0.  0.
         25    1    3    3    0    0  0.60164515086E+02 -0.77051884978E+01 -0.76541237518E+02  0.15471813031E+03  0.12000000000E+03 0.  0.
         25    1    3    3    0    0 -0.60164515086E+02  0.77051884978E+01 -0.19595344527E+02  0.13587905038E+03  0.12000000000E+03 0.  0.
<mgrwt>
<rscale>  0 0.27423435E+03</rscale>
<asrwt>0</asrwt>
<pdfrwt beam="1">  1        1 0.29748751E-01 0.27423435E+03</pdfrwt>
<pdfrwt beam="2">  1       -1 0.14958508E-01 0.27423435E+03</pdfrwt>
<totfact> 0.49083218E+03</totfact>
</mgrwt>
</event>
<event>
 5    1  0.1129390E+001  0.2745465E+03  0.7818608E-02  0.1098705E+00
         -2   -1    0    0    0  501 -0.00000000000E+00  0.00000000000E+00  0.13299771628E+03  0.13299771628E+03  0.00000000000E+00 0.  1.
          2   -1    0    0  501    0  0.00000000000E+00 -0.00000000000E+00 -0.14168626189E+03  0.14168626189E+03  0.00000000000E+00 0.  1.
         35    2    1    2    0    0  0.00000000000E+00  0.00000000000E+00 -0.86885456117E+01  0.27468397818E+03  0.27454652983E+03 0.  0.
         25    1    3    3    0    0  0.36554991256E+02  0.11500234266E+02 -0.58919051356E+02  0.13906824723E+03  0.12000000000E+03 0.  0.
         25    1    3    3    0    0 -0.36554991256E+02 -0.11500234266E+02  0.50230505745E+02  0.13561573095E+03  0.12000000000E+03 0.  0.
<mgrwt>
<rscale>  0 0.27454653E+03</rscale>
<asrwt>0</asrwt>
<pdfrwt beam="1">  1        2 0.21797886E-01 0.27454653E+03</pdfrwt>
<pdfrwt beam="2">  1       -2 0.20461187E-01 0.27454653E+03</pdfrwt>
<totfact> 0.50458952E+03</totfact>
</mgrwt>
</event>
<event>
 5    1  0.1129390E+001  0.2721196E+03  0.7818608E-02  0.1100073E+00
          2   -1    0    0  501    0  0.00000000000E+00  0.00000000000E+00  0.23741338373E+04  0.23741338373E+04  0.00000000000E+00 0.  1.
         -2   -1    0    0    0  501 -0.00000000000E+00 -0.00000000000E+00 -0.77974816764E+01  0.77974816764E+01  0.00000000000E+00 0.  1.
         35    2    1    2    0    0  0.00000000000E+00  0.00000000000E+00  0.23663363556E+04  0.23819313189E+04  0.27211956999E+03 0.  0.
         25    1    3    3    0    0  0.62988348016E+02 -0.27314289753E+01  0.12857241786E+04  0.12928502064E+04  0.12000000000E+03 0.  0.
         25    1    3    3    0    0 -0.62988348016E+02  0.27314289753E+01  0.10806121770E+04  0.10890811125E+04  0.12000000000E+03 0.  0.
<mgrwt>
<rscale>  0 0.27211957E+03</rscale>
<asrwt>0</asrwt>
<pdfrwt beam="1">  1        2 0.36525078E+00 0.27211957E+03</pdfrwt>
<pdfrwt beam="2">  1       -2 0.11996145E-02 0.27211957E+03</pdfrwt>
<totfact> 0.76809326E+03</totfact>
</mgrwt>
</event>
<event>
 5    1  0.1129390E+001  0.2755590E+03  0.7818608E-02  0.1098140E+00
         -2   -1    0    0    0  501 -0.00000000000E+00  0.00000000000E+00  0.16181922357E+02  0.16181922357E+02  0.00000000000E+00 0. -1.
          2   -1    0    0  501    0  0.00000000000E+00 -0.00000000000E+00 -0.11731107802E+04  0.11731107802E+04  0.00000000000E+00 0. -1.
         35    2    1    2    0    0  0.00000000000E+00  0.00000000000E+00 -0.11569288578E+04  0.11892927026E+04  0.27555897780E+03 0.  0.
         25    1    3    3    0    0 -0.44187597183E+02 -0.44571745539E+02 -0.46893817322E+03  0.48810059880E+03  0.12000000000E+03 0.  0.
         25    1    3    3    0    0  0.44187597183E+02  0.44571745539E+02 -0.68799068462E+03  0.70119210375E+03  0.12000000000E+03 0.  0.
<mgrwt>
<rscale>  0 0.27555898E+03</rscale>
<asrwt>0</asrwt>
<pdfrwt beam="1">  1        2 0.18047851E+00 0.27555898E+03</pdfrwt>
<pdfrwt beam="2">  1       -2 0.24895275E-02 0.27555898E+03</pdfrwt>
<totfact> 0.11562194E+04</totfact>
</mgrwt>
</event>
<event>
 5    1  0.1129390E+001  0.2751261E+03  0.7818608E-02  0.1098381E+00
         -2   -1    0    0    0  501 -0.00000000000E+00  0.00000000000E+00  0.13230470857E+02  0.13230470857E+02  0.00000000000E+00 0.  1.
          2   -1    0    0  501    0  0.00000000000E+00 -0.00000000000E+00 -0.14303040084E+04  0.14303040084E+04  0.00000000000E+00 0.  1.
         35    2    1    2    0    0  0.00000000000E+00  0.00000000000E+00 -0.14170735375E+04  0.14435344793E+04  0.27512612017E+03 0.  0.
         25    1    3    3    0    0 -0.21064763310E+02 -0.57661643063E+02 -0.85270533758E+03  0.86329310323E+03  0.12000000000E+03 0.  0.
         25    1    3    3    0    0  0.21064763310E+02  0.57661643063E+02 -0.56436819997E+03  0.58024137604E+03  0.12000000000E+03 0.  0.
<mgrwt>
<rscale>  0 0.27512612E+03</rscale>
<asrwt>0</asrwt>
<pdfrwt beam="1">  1        2 0.22004676E+00 0.27512612E+03</pdfrwt>
<pdfrwt beam="2">  1       -2 0.20354571E-02 0.27512612E+03</pdfrwt>
<totfact> 0.11205676E+04</totfact>
</mgrwt>
</event>
<event>
 4    1  0.1129390E+001  0.2493161E+03  0.7818608E-02  0.1113738E+00
          1   -1    0    0  501    0  0.00000000000E+00  0.00000000000E+00  0.87473106725E+03  0.87473106725E+03  0.00000000000E+00 0. -1.
         -1   -1    0    0    0  501 -0.00000000000E+00 -0.00000000000E+00 -0.17765043700E+02  0.17765043700E+02  0.00000000000E+00 0. -1.
         25    1    1    2    0    0  0.11988734187E+01  0.30677381600E+02  0.37822613652E+03  0.39799189613E+03  0.12000000000E+03 0.  0.
         25    1    1    2    0    0 -0.11988734187E+01 -0.30677381600E+02  0.47873988702E+03  0.49450421481E+03  0.12000000000E+03 0.  0.
<mgrwt>
<rscale>  0 0.24931615E+03</rscale>
<asrwt>0</asrwt>
<pdfrwt beam="1">  1        1 0.13457398E+00 0.24931615E+03</pdfrwt>
<pdfrwt beam="2">  1       -1 0.27330843E-02 0.24931615E+03</pdfrwt>
<totfact> 0.86130033E+03</totfact>
</mgrwt>
</event>
<event>
 5    1  0.1129390E+001  0.2751737E+03  0.7818608E-02  0.1098355E+00
          2   -1    0    0  501    0  0.00000000000E+00  0.00000000000E+00  0.11539511243E+04  0.11539511243E+04  0.00000000000E+00 0. -1.
         -2   -1    0    0    0  501 -0.00000000000E+00 -0.00000000000E+00 -0.16404624715E+02  0.16404624715E+02  0.00000000000E+00 0. -1.
         35    2    1    2    0    0  0.00000000000E+00  0.00000000000E+00  0.11375464995E+04  0.11703557490E+04  0.27517365523E+03 0.  0.
         25    1    3    3    0    0  0.29019862450E+01 -0.64615397010E+02  0.48959556235E+03  0.50821982028E+03  0.12000000000E+03 0.  0.
         25    1    3    3    0    0 -0.29019862450E+01  0.64615397010E+02  0.64795093720E+03  0.66213592870E+03  0.12000000000E+03 0.  0.
<mgrwt>
<rscale>  0 0.27517366E+03</rscale>
<asrwt>0</asrwt>
<pdfrwt beam="1">  1        2 0.17753088E+00 0.27517366E+03</pdfrwt>
<pdfrwt beam="2">  1       -2 0.25237893E-02 0.27517366E+03</pdfrwt>
<totfact> 0.11621104E+04</totfact>
</mgrwt>
</event>
<event>
 5    1  0.1129390E+001  0.2749774E+03  0.7818608E-02  0.1098464E+00
          3   -1    0    0  501    0  0.00000000000E+00  0.00000000000E+00  0.29344538123E+03  0.29344538123E+03  0.00000000000E+00 0.  1.
         -3   -1    0    0    0  501 -0.00000000000E+00 -0.00000000000E+00 -0.64417909605E+02  0.64417909605E+02  0.00000000000E+00 0.  1.
         35    2    1    2    0    0  0.00000000000E+00  0.00000000000E+00  0.22902747162E+03  0.35786329083E+03  0.27497736665E+03 0.  0.
         25    1    3    3    0    0  0.32452590896E+02  0.37987029262E+02  0.17281645402E+03  0.21624456485E+03  0.12000000000E+03 0.  0.
         25    1    3    3    0    0 -0.32452590896E+02 -0.37987029262E+02  0.56211017601E+02  0.14161872598E+03  0.12000000000E+03 0.  0.
<mgrwt>
<rscale>  0 0.27497737E+03</rscale>
<asrwt>0</asrwt>
<pdfrwt beam="1">  1        3 0.45145442E-01 0.27497737E+03</pdfrwt>
<pdfrwt beam="2">  1       -3 0.99104478E-02 0.27497737E+03</pdfrwt>
<totfact> 0.93310301E+02</totfact>
</mgrwt>
</event>
<event>
 5    1  0.1129390E+001  0.2769885E+03  0.7818608E-02  0.1097345E+00
          2   -1    0    0  501    0  0.00000000000E+00  0.00000000000E+00  0.14170223820E+04  0.14170223820E+04  0.00000000000E+00 0. -1.
         -2   -1    0    0    0  501 -0.00000000000E+00 -0.00000000000E+00 -0.13535891957E+02  0.13535891957E+02  0.00000000000E+00 0. -1.
         35    2    1    2    0    0  0.00000000000E+00  0.00000000000E+00  0.14034864900E+04  0.14305582739E+04  0.27698853308E+03 0.  0.
         25    1    3    3    0    0  0.28185140017E+02 -0.26920859321E+02  0.99669722288E+03  0.10046514266E+04  0.12000000000E+03 0.  0.
         25    1    3    3    0    0 -0.28185140017E+02  0.26920859321E+02  0.40678926715E+03  0.42590684739E+03  0.12000000000E+03 0.  0.
<mgrwt>
<rscale>  0 0.27698853E+03</rscale>
<asrwt>0</asrwt>
<pdfrwt beam="1">  1        2 0.21800333E+00 0.27698853E+03</pdfrwt>
<pdfrwt beam="2">  1       -2 0.20824460E-02 0.27698853E+03</pdfrwt>
<totfact> 0.11017782E+04</totfact>
</mgrwt>
</event>
<event>
 5    1  0.1129390E+001  0.2749133E+03  0.7818608E-02  0.1098500E+00
          4   -1    0    0  501    0  0.00000000000E+00  0.00000000000E+00  0.28744200957E+02  0.28744200957E+02  0.00000000000E+00 0.  1.
         -4   -1    0    0    0  501 -0.00000000000E+00 -0.00000000000E+00 -0.65732689434E+03  0.65732689434E+03  0.00000000000E+00 0.  1.
         35    2    1    2    0    0  0.00000000000E+00  0.00000000000E+00 -0.62858269339E+03  0.68607109530E+03  0.27491334159E+03 0.  0.
         25    1    3    3    0    0 -0.54572672569E+02  0.38898178031E+02 -0.30990343424E+03  0.33901531440E+03  0.12000000000E+03 0.  0.
         25    1    3    3    0    0  0.54572672569E+02 -0.38898178031E+02 -0.31867925915E+03  0.34705578090E+03  0.12000000000E+03 0.  0.
<mgrwt>
<rscale>  0 0.27491334E+03</rscale>
<asrwt>0</asrwt>
<pdfrwt beam="1">  1        4 0.44221850E-02 0.27491334E+03</pdfrwt>
<pdfrwt beam="2">  1       -4 0.10112721E+00 0.27491334E+03</pdfrwt>
<totfact> 0.45344107E+02</totfact>
</mgrwt>
</event>
<event>
 5    1  0.1129390E+001  0.2758785E+03  0.7818608E-02  0.1097962E+00
          1   -1    0    0  501    0  0.00000000000E+00  0.00000000000E+00  0.55142332970E+02  0.55142332970E+02  0.00000000000E+00 0. -1.
         -1   -1    0    0    0  501 -0.00000000000E+00 -0.00000000000E+00 -0.34505679910E+03  0.34505679910E+03  0.00000000000E+00 0. -1.
         35    2    1    2    0    0  0.00000000000E+00  0.00000000000E+00 -0.28991446613E+03  0.40019913207E+03  0.27587850159E+03 0.  0.
         25    1    3    3    0    0  0.19858559033E+02 -0.61254867405E+02 -0.17676275048E+03  0.22314029466E+03  0.12000000000E+03 0.  0.
         25    1    3    3    0    0 -0.19858559033E+02  0.61254867405E+02 -0.11315171565E+03  0.17705883741E+03  0.12000000000E+03 0.  0.
<mgrwt>
<rscale>  0 0.27587850E+03</rscale>
<asrwt>0</asrwt>
<pdfrwt beam="1">  1        1 0.84834358E-02 0.27587850E+03</pdfrwt>
<pdfrwt beam="2">  1       -1 0.53085662E-01 0.27587850E+03</pdfrwt>
<totfact> 0.29368727E+03</totfact>
</mgrwt>
</event>
<event>
 5    1  0.1129390E+001  0.2748834E+03  0.7818608E-02  0.1098517E+00
          1   -1    0    0  501    0  0.00000000000E+00  0.00000000000E+00  0.11861458030E+04  0.11861458030E+04  0.00000000000E+00 0.  1.
         -1   -1    0    0    0  501 -0.00000000000E+00 -0.00000000000E+00 -0.15925712874E+02  0.15925712874E+02  0.00000000000E+00 0.  1.
         35    2    1    2    0    0  0.00000000000E+00  0.00000000000E+00  0.11702200901E+04  0.12020715159E+04  0.27488337517E+03 0.  0.
         25    1    3    3    0    0  0.52107385308E+02  0.17724806367E+01  0.40103243408E+03  0.42183567236E+03  0.12000000000E+03 0.  0.
         25    1    3    3    0    0 -0.52107385308E+02 -0.17724806367E+01  0.76918765606E+03  0.78023584352E+03  0.12000000000E+03 0.  0.
<mgrwt>
<rscale>  0 0.27488338E+03</rscale>
<asrwt>0</asrwt>
<pdfrwt beam="1">  1        1 0.18248390E+00 0.27488338E+03</pdfrwt>
<pdfrwt beam="2">  1       -1 0.24501106E-02 0.27488338E+03</pdfrwt>
<totfact> 0.59562928E+03</totfact>
</mgrwt>
</event>
<event>
 5    1  0.1129390E+001  0.2745110E+03  0.7818608E-02  0.1098725E+00
         -2   -1    0    0    0  501 -0.00000000000E+00  0.00000000000E+00  0.68500521756E+01  0.68500521756E+01  0.00000000000E+00 0.  1.
          2   -1    0    0  501    0  0.00000000000E+00 -0.00000000000E+00 -0.27502079771E+04  0.27502079771E+04  0.00000000000E+00 0.  1.
         35    2    1    2    0    0  0.00000000000E+00  0.00000000000E+00 -0.27433579250E+04  0.27570580293E+04  0.27451096982E+03 0.  0.
         25    1    3    3    0    0 -0.13902470837E+02  0.56272270970E+02 -0.17016238391E+04  0.17068343613E+04  0.12000000000E+03 0.  0.
         25    1    3    3    0    0  0.13902470837E+02 -0.56272270970E+02 -0.10417340859E+04  0.10502236680E+04  0.12000000000E+03 0.  0.
<mgrwt>
<rscale>  0 0.27451097E+03</rscale>
<asrwt>0</asrwt>
<pdfrwt beam="1">  1        2 0.42310867E+00 0.27451097E+03</pdfrwt>
<pdfrwt beam="2">  1       -2 0.10538548E-02 0.27451097E+03</pdfrwt>
<totfact> 0.57459110E+03</totfact>
</mgrwt>
</event>
<event>
 5    1  0.1129390E+001  0.2752900E+03  0.7818608E-02  0.1098290E+00
         -2   -1    0    0    0  501 -0.00000000000E+00  0.00000000000E+00  0.27249062349E+02  0.27249062349E+02  0.00000000000E+00 0.  1.
          2   -1    0    0  501    0  0.00000000000E+00 -0.00000000000E+00 -0.69529531403E+03  0.69529531403E+03  0.00000000000E+00 0.  1.
         35    2    1    2    0    0  0.00000000000E+00  0.00000000000E+00 -0.66804625168E+03  0.72254437638E+03  0.27528999519E+03 0.  0.
         25    1    3    3    0    0 -0.47576098150E+01  0.65213530717E+02 -0.29083911497E+03  0.32134534420E+03  0.12000000000E+03 0.  0.
         25    1    3    3    0    0  0.47576098150E+01 -0.65213530717E+02 -0.37720713670E+03  0.40119903218E+03  0.12000000000E+03 0.  0.
<mgrwt>
<rscale>  0 0.27529000E+03</rscale>
<asrwt>0</asrwt>
<pdfrwt beam="1">  1        2 0.10696849E+00 0.27529000E+03</pdfrwt>
<pdfrwt beam="2">  1       -2 0.41921642E-02 0.27529000E+03</pdfrwt>
<totfact> 0.10783065E+04</totfact>
</mgrwt>
</event>
<event>
 5    1  0.1129390E+001  0.2747677E+03  0.7818608E-02  0.1098582E+00
          2   -1    0    0  501    0  0.00000000000E+00  0.00000000000E+00  0.13079775268E+04  0.13079775268E+04  0.00000000000E+00 0. -1.
         -2   -1    0    0    0  501 -0.00000000000E+00 -0.00000000000E+00 -0.14430153721E+02  0.14430153721E+02  0.00000000000E+00 0. -1.
         35    2    1    2    0    0  0.00000000000E+00  0.00000000000E+00  0.12935473731E+04  0.13224076805E+04  0.27476766022E+03 0.  0.
         25    1    3    3    0    0  0.55097438867E+02  0.72834172264E+01  0.46762673884E+03  0.48596660668E+03  0.12000000000E+03 0.  0.
         25    1    3    3    0    0 -0.55097438867E+02 -0.72834172264E+01  0.82592063422E+03  0.83644107382E+03  0.12000000000E+03 0.  0.
<mgrwt>
<rscale>  0 0.27476766E+03</rscale>
<asrwt>0</asrwt>
<pdfrwt beam="1">  1        2 0.20122722E+00 0.27476766E+03</pdfrwt>
<pdfrwt beam="2">  1       -2 0.22200247E-02 0.27476766E+03</pdfrwt>
<totfact> 0.11499944E+04</totfact>
</mgrwt>
</event>
<event>
 5    1  0.1129390E+001  0.2641465E+03  0.7818608E-02  0.1104677E+00
          1   -1    0    0  501    0  0.00000000000E+00  0.00000000000E+00  0.21339214463E+03  0.21339214463E+03  0.00000000000E+00 0.  1.
         -1   -1    0    0    0  501 -0.00000000000E+00 -0.00000000000E+00 -0.81743146662E+02  0.81743146662E+02  0.00000000000E+00 0.  1.
         35    2    1    2    0    0  0.00000000000E+00  0.00000000000E+00  0.13164899797E+03  0.29513529130E+03  0.26414651522E+03 0.  0.
         25    1    3    3    0    0 -0.84367073381E+00 -0.38196117006E+02  0.11028879070E+03  0.16740153073E+03  0.12000000000E+03 0.  0.
         25    1    3    3    0    0  0.84367073381E+00  0.38196117006E+02  0.21360207268E+02  0.12773376057E+03  0.12000000000E+03 0.  0.
<mgrwt>
<rscale>  0 0.26414652E+03</rscale>
<asrwt>0</asrwt>
<pdfrwt beam="1">  1        1 0.32829560E-01 0.26414652E+03</pdfrwt>
<pdfrwt beam="2">  1       -1 0.12575869E-01 0.26414652E+03</pdfrwt>
<totfact> 0.56913880E+03</totfact>
</mgrwt>
</event>
<event>
 5    1  0.1129390E+001  0.2748589E+03  0.7818608E-02  0.1098530E+00
         -2   -1    0    0    0  501 -0.00000000000E+00  0.00000000000E+00  0.42775002044E+02  0.42775002044E+02  0.00000000000E+00 0.  1.
          2   -1    0    0  501    0  0.00000000000E+00 -0.00000000000E+00 -0.44153951345E+03  0.44153951345E+03  0.00000000000E+00 0.  1.
         35    2    1    2    0    0  0.00000000000E+00  0.00000000000E+00 -0.39876451141E+03  0.48431451550E+03  0.27485889901E+03 0.  0.
         25    1    3    3    0    0  0.40185023929E+02 -0.44461769098E+02 -0.14666290093E+03  0.19875032470E+03  0.12000000000E+03 0.  0.
         25    1    3    3    0    0 -0.40185023929E+02  0.44461769098E+02 -0.25210161048E+03  0.28556419080E+03  0.12000000000E+03 0.  0.
<mgrwt>
<rscale>  0 0.27485890E+03</rscale>
<asrwt>0</asrwt>
<pdfrwt beam="1">  1        2 0.67929155E-01 0.27485890E+03</pdfrwt>
<pdfrwt beam="2">  1       -2 0.65807697E-02 0.27485890E+03</pdfrwt>
<totfact> 0.91229416E+03</totfact>
</mgrwt>
</event>
<event>
 5    1  0.1129390E+001  0.2748065E+03  0.7818608E-02  0.1098560E+00
         -2   -1    0    0    0  501 -0.00000000000E+00  0.00000000000E+00  0.12317414054E+03  0.12317414054E+03  0.00000000000E+00 0.  1.
          2   -1    0    0  501    0  0.00000000000E+00 -0.00000000000E+00 -0.15327614750E+03  0.15327614750E+03  0.00000000000E+00 0.  1.
         35    2    1    2    0    0  0.00000000000E+00  0.00000000000E+00 -0.30102006957E+02  0.27645028803E+03  0.27480653364E+03 0.  0.
         25    1    3    3    0    0 -0.10703037024E+02 -0.48948491657E+02 -0.59691514810E+02  0.14308594193E+03  0.12000000000E+03 0.  0.
         25    1    3    3    0    0  0.10703037024E+02  0.48948491657E+02  0.29589507853E+02  0.13336434611E+03  0.12000000000E+03 0.  0.
<mgrwt>
<rscale>  0 0.27480653E+03</rscale>
<asrwt>0</asrwt>
<pdfrwt beam="1">  1        2 0.23580946E-01 0.27480653E+03</pdfrwt>
<pdfrwt beam="2">  1       -2 0.18949868E-01 0.27480653E+03</pdfrwt>
<totfact> 0.52636817E+03</totfact>
</mgrwt>
</event>
<event>
 5    1  0.1129390E+001  0.2755764E+03  0.7818608E-02  0.1098130E+00
         -2   -1    0    0    0  501 -0.00000000000E+00  0.00000000000E+00  0.90832304446E+01  0.90832304446E+01  0.00000000000E+00 0.  1.
          2   -1    0    0  501    0  0.00000000000E+00 -0.00000000000E+00 -0.20901805396E+04  0.20901805396E+04  0.00000000000E+00 0.  1.
         35    2    1    2    0    0  0.00000000000E+00  0.00000000000E+00 -0.20810973091E+04  0.20992637700E+04  0.27557642506E+03 0.  0.
         25    1    3    3    0    0 -0.30884884105E+02  0.97130294393E+01 -0.58747861258E+03  0.60048258863E+03  0.12000000000E+03 0.  0.
         25    1    3    3    0    0  0.30884884105E+02 -0.97130294393E+01 -0.14936186965E+04  0.14987811814E+04  0.12000000000E+03 0.  0.
<mgrwt>
<rscale>  0 0.27557643E+03</rscale>
<asrwt>0</asrwt>
<pdfrwt beam="1">  1        2 0.32156628E+00 0.27557643E+03</pdfrwt>
<pdfrwt beam="2">  1       -2 0.13974199E-02 0.27557643E+03</pdfrwt>
<totfact> 0.87142821E+03</totfact>
</mgrwt>
</event>
<event>
 5    1  0.1129390E+001  0.2749448E+03  0.7818608E-02  0.1098482E+00
          2   -1    0    0  501    0  0.00000000000E+00  0.00000000000E+00  0.12256937304E+03  0.12256937304E+03  0.00000000000E+00 0.  1.
         -2   -1    0    0    0  501 -0.00000000000E+00 -0.00000000000E+00 -0.15418743999E+03  0.15418743999E+03  0.00000000000E+00 0.  1.
         35    2    1    2    0    0  0.00000000000E+00  0.00000000000E+00 -0.31618066954E+02  0.27675681303E+03  0.27494477882E+03 0.  0.
         25    1    3    3    0    0 -0.44684245894E+02 -0.39868517468E+01  0.34380190884E+02  0.13264454132E+03  0.12000000000E+03 0.  0.
         25    1    3    3    0    0  0.44684245894E+02  0.39868517468E+01 -0.65998257838E+02  0.14411227170E+03  0.12000000000E+03 0.  0.
<mgrwt>
<rscale>  0 0.27494478E+03</rscale>
<asrwt>0</asrwt>
<pdfrwt beam="1">  1        2 0.18856827E-01 0.27494478E+03</pdfrwt>
<pdfrwt beam="2">  1       -2 0.23721144E-01 0.27494478E+03</pdfrwt>
<totfact> 0.46095152E+03</totfact>
</mgrwt>
</event>
<event>
 5    1  0.1129390E+001  0.2754973E+03  0.7818608E-02  0.1098174E+00
         -1   -1    0    0    0  501 -0.00000000000E+00  0.00000000000E+00  0.26033529261E+02  0.26033529261E+02  0.00000000000E+00 0.  1.
          1   -1    0    0  501    0  0.00000000000E+00 -0.00000000000E+00 -0.72885601893E+03  0.72885601893E+03  0.00000000000E+00 0.  1.
         35    2    1    2    0    0  0.00000000000E+00  0.00000000000E+00 -0.70282248967E+03  0.75488954820E+03  0.27549732845E+03 0.  0.
         25    1    3    3    0    0 -0.16629656894E+02 -0.12174910628E+02 -0.17489449909E+03  0.21310293229E+03  0.12000000000E+03 0.  0.
         25    1    3    3    0    0  0.16629656894E+02  0.12174910628E+02 -0.52792799058E+03  0.54178661591E+03  0.12000000000E+03 0.  0.
<mgrwt>
<rscale>  0 0.27549733E+03</rscale>
<asrwt>0</asrwt>
<pdfrwt beam="1">  1        1 0.11213169E+00 0.27549733E+03</pdfrwt>
<pdfrwt beam="2">  1       -1 0.40051586E-02 0.27549733E+03</pdfrwt>
<totfact> 0.65011584E+03</totfact>
</mgrwt>
</event>
<event>
 5    1  0.1129390E+001  0.2736252E+03  0.7818608E-02  0.1099223E+00
          3   -1    0    0  501    0  0.00000000000E+00  0.00000000000E+00  0.10867010605E+03  0.10867010605E+03  0.00000000000E+00 0. -1.
         -3   -1    0    0    0  501 -0.00000000000E+00 -0.00000000000E+00 -0.17224315681E+03  0.17224315681E+03  0.00000000000E+00 0. -1.
         35    2    1    2    0    0  0.00000000000E+00  0.00000000000E+00 -0.63573050757E+02  0.28091326286E+03  0.27362516052E+03 0.  0.
         25    1    3    3    0    0 -0.10413738113E+02  0.64761882809E+02 -0.27792569351E+02  0.13955276535E+03  0.12000000000E+03 0.  0.
         25    1    3    3    0    0  0.10413738113E+02 -0.64761882809E+02 -0.35780481406E+02  0.14136049751E+03  0.12000000000E+03 0.  0.
<mgrwt>
<rscale>  0 0.27362516E+03</rscale>
<asrwt>0</asrwt>
<pdfrwt beam="1">  1        3 0.16718478E-01 0.27362516E+03</pdfrwt>
<pdfrwt beam="2">  1       -3 0.26498947E-01 0.27362516E+03</pdfrwt>
<totfact> 0.10559685E+03</totfact>
</mgrwt>
</event>
<event>
 5    1  0.1129390E+001  0.2754130E+03  0.7818608E-02  0.1098221E+00
         -1   -1    0    0    0  501 -0.00000000000E+00  0.00000000000E+00  0.57539664738E+02  0.57539664738E+02  0.00000000000E+00 0. -1.
          1   -1    0    0  501    0  0.00000000000E+00 -0.00000000000E+00 -0.32956545588E+03  0.32956545588E+03  0.00000000000E+00 0. -1.
         35    2    1    2    0    0  0.00000000000E+00  0.00000000000E+00 -0.27202579114E+03  0.38710512061E+03  0.27541304138E+03 0.  0.
         25    1    3    3    0    0 -0.33018341019E+02  0.58374722818E+02 -0.12465781157E+03  0.18557313678E+03  0.12000000000E+03 0.  0.
         25    1    3    3    0    0  0.33018341019E+02 -0.58374722818E+02 -0.14736797956E+03  0.20153198384E+03  0.12000000000E+03 0.  0.
<mgrwt>
<rscale>  0 0.27541304E+03</rscale>
<asrwt>0</asrwt>
<pdfrwt beam="1">  1        1 0.50702378E-01 0.27541304E+03</pdfrwt>
<pdfrwt beam="2">  1       -1 0.88522561E-02 0.27541304E+03</pdfrwt>
<totfact> 0.56888114E+03</totfact>
</mgrwt>
</event>
<event>
 5    1  0.1129390E+001  0.2749880E+03  0.7818608E-02  0.1098458E+00
          1   -1    0    0  501    0  0.00000000000E+00  0.00000000000E+00  0.70080514752E+03  0.70080514752E+03  0.00000000000E+00 0.  1.
         -1   -1    0    0    0  501 -0.00000000000E+00 -0.00000000000E+00 -0.26975545712E+02  0.26975545712E+02  0.00000000000E+00 0.  1.
         35    2    1    2    0    0  0.00000000000E+00  0.00000000000E+00  0.67382960181E+03  0.72778069323E+03  0.27498800914E+03 0.  0.
         25    1    3    3    0    0 -0.89892960994E+00  0.45504291821E+02  0.46746317014E+03  0.48476103812E+03  0.12000000000E+03 0.  0.
         25    1    3    3    0    0  0.89892960994E+00 -0.45504291821E+02  0.20636643167E+03  0.24301965511E+03  0.12000000000E+03 0.  0.
<mgrwt>
<rscale>  0 0.27498801E+03</rscale>
<asrwt>0</asrwt>
<pdfrwt beam="1">  1        1 0.10781616E+00 0.27498801E+03</pdfrwt>
<pdfrwt beam="2">  1       -1 0.41500845E-02 0.27498801E+03</pdfrwt>
<totfact> 0.65322799E+03</totfact>
</mgrwt>
</event>
<event>
 5    1  0.1129390E+001  0.2748503E+03  0.7818608E-02  0.1098535E+00
         -4   -1    0    0    0  501 -0.00000000000E+00  0.00000000000E+00  0.24418180350E+02  0.24418180350E+02  0.00000000000E+00 0.  1.
          4   -1    0    0  501    0  0.00000000000E+00 -0.00000000000E+00 -0.77342658779E+03  0.77342658779E+03  0.00000000000E+00 0.  1.
         35    2    1    2    0    0  0.00000000000E+00  0.00000000000E+00 -0.74900840744E+03  0.79784476814E+03  0.27485028585E+03 0.  0.
         25    1    3    3    0    0  0.47025849420E+02 -0.34149249765E+02 -0.47113274903E+03  0.48963626191E+03  0.12000000000E+03 0.  0.
         25    1    3    3    0    0 -0.47025849420E+02  0.34149249765E+02 -0.27787565842E+03  0.30820850623E+03  0.12000000000E+03 0.  0.
<mgrwt>
<rscale>  0 0.27485029E+03</rscale>
<asrwt>0</asrwt>
<pdfrwt beam="1">  1        4 0.11898869E+00 0.27485029E+03</pdfrwt>
<pdfrwt beam="2">  1       -4 0.37566436E-02 0.27485029E+03</pdfrwt>
<totfact> 0.39942556E+02</totfact>
</mgrwt>
</event>
<event>
 5    1  0.1129390E+001  0.2752608E+03  0.7818608E-02  0.1098306E+00
         -2   -1    0    0    0  501 -0.00000000000E+00  0.00000000000E+00  0.61091237709E+01  0.61091237709E+01  0.00000000000E+00 0.  1.
          2   -1    0    0  501    0  0.00000000000E+00 -0.00000000000E+00 -0.31006290705E+04  0.31006290705E+04  0.00000000000E+00 0.  1.
         35    2    1    2    0    0  0.00000000000E+00  0.00000000000E+00 -0.30945199468E+04  0.31067381943E+04  0.27526079822E+03 0.  0.
         25    1    3    3    0    0  0.49431116810E+02 -0.21315455355E+02 -0.20049342187E+04  0.20092433912E+04  0.12000000000E+03 0.  0.
         25    1    3    3    0    0 -0.49431116810E+02  0.21315455355E+02 -0.10895857281E+04  0.10974948031E+04  0.12000000000E+03 0.  0.
<mgrwt>
<rscale>  0 0.27526080E+03</rscale>
<asrwt>0</asrwt>
<pdfrwt beam="1">  1        2 0.47701948E+00 0.27526080E+03</pdfrwt>
<pdfrwt beam="2">  1       -2 0.93986593E-03 0.27526080E+03</pdfrwt>
<totfact> 0.42314424E+03</totfact>
</mgrwt>
</event>
<event>
 5    1  0.1129390E+001  0.2754828E+03  0.7818608E-02  0.1098182E+00
         -1   -1    0    0    0  501 -0.00000000000E+00  0.00000000000E+00  0.17030072269E+02  0.17030072269E+02  0.00000000000E+00 0. -1.
          1   -1    0    0  501    0  0.00000000000E+00 -0.00000000000E+00 -0.11140700212E+04  0.11140700212E+04  0.00000000000E+00 0. -1.
         35    2    1    2    0    0  0.00000000000E+00  0.00000000000E+00 -0.10970399489E+04  0.11311000935E+04  0.27548279782E+03 0.  0.
         25    1    3    3    0    0  0.48403328931E+02 -0.46602973810E+02 -0.51725763188E+03  0.53522908848E+03  0.12000000000E+03 0.  0.
         25    1    3    3    0    0 -0.48403328931E+02  0.46602973810E+02 -0.57978231707E+03  0.59587100500E+03  0.12000000000E+03 0.  0.
<mgrwt>
<rscale>  0 0.27548280E+03</rscale>
<asrwt>0</asrwt>
<pdfrwt beam="1">  1        1 0.17139541E+00 0.27548280E+03</pdfrwt>
<pdfrwt beam="2">  1       -1 0.26200109E-02 0.27548280E+03</pdfrwt>
<totfact> 0.60722747E+03</totfact>
</mgrwt>
</event>
<event>
 5    1  0.1129390E+001  0.2774830E+03  0.7818608E-02  0.1097072E+00
         -2   -1    0    0    0  501 -0.00000000000E+00  0.00000000000E+00  0.32909320702E+02  0.32909320702E+02  0.00000000000E+00 0.  1.
          2   -1    0    0  501    0  0.00000000000E+00 -0.00000000000E+00 -0.58491651764E+03  0.58491651764E+03  0.00000000000E+00 0.  1.
         35    2    1    2    0    0  0.00000000000E+00  0.00000000000E+00 -0.55200719694E+03  0.61782583834E+03  0.27748301039E+03 0.  0.
         25    1    3    3    0    0  0.50862806138E+02  0.26669616109E+02 -0.36368817696E+03  0.38725622466E+03  0.12000000000E+03 0.  0.
         25    1    3    3    0    0 -0.50862806138E+02 -0.26669616109E+02 -0.18831901997E+03  0.23056961369E+03  0.12000000000E+03 0.  0.
<mgrwt>
<rscale>  0 0.27748301E+03</rscale>
<asrwt>0</asrwt>
<pdfrwt beam="1">  1        2 0.89987151E-01 0.27748301E+03</pdfrwt>
<pdfrwt beam="2">  1       -2 0.50629727E-02 0.27748301E+03</pdfrwt>
<totfact> 0.99415878E+03</totfact>
</mgrwt>
</event>
<event>
 5    1  0.1129390E+001  0.2728296E+03  0.7818608E-02  0.1099671E+00
          1   -1    0    0  501    0  0.00000000000E+00  0.00000000000E+00  0.21011511241E+04  0.21011511241E+04  0.00000000000E+00 0. -1.
         -1   -1    0    0    0  501 -0.00000000000E+00 -0.00000000000E+00 -0.88565700959E+01  0.88565700959E+01  0.00000000000E+00 0. -1.
         35    2    1    2    0    0  0.00000000000E+00  0.00000000000E+00  0.20922945540E+04  0.21100076942E+04  0.27282956007E+03 0.  0.
         25    1    3    3    0    0 -0.29699081062E+02 -0.57196132072E+02  0.98850104948E+03  0.99784154942E+03  0.12000000000E+03 0.  0.
         25    1    3    3    0    0  0.29699081062E+02  0.57196132072E+02  0.11037935045E+04  0.11121661448E+04  0.12000000000E+03 0.  0.
<mgrwt>
<rscale>  0 0.27282956E+03</rscale>
<asrwt>0</asrwt>
<pdfrwt beam="1">  1        1 0.32325362E+00 0.27282956E+03</pdfrwt>
<pdfrwt beam="2">  1       -1 0.13625509E-02 0.27282956E+03</pdfrwt>
<totfact> 0.34810158E+03</totfact>
</mgrwt>
</event>
<event>
 5    1  0.1129390E+001  0.2741224E+03  0.7818608E-02  0.1098943E+00
         -2   -1    0    0    0  501 -0.00000000000E+00  0.00000000000E+00  0.17200916500E+02  0.17200916500E+02  0.00000000000E+00 0.  1.
          2   -1    0    0  501    0  0.00000000000E+00 -0.00000000000E+00 -0.10921377369E+04  0.10921377369E+04  0.00000000000E+00 0.  1.
         35    2    1    2    0    0  0.00000000000E+00  0.00000000000E+00 -0.10749368204E+04  0.11093386534E+04  0.27412238157E+03 0.  0.
         25    1    3    3    0    0 -0.40069685033E+02 -0.45342414365E+02 -0.42855893978E+03  0.44913726083E+03  0.12000000000E+03 0.  0.
         25    1    3    3    0    0  0.40069685033E+02  0.45342414365E+02 -0.64637788060E+03  0.66020139255E+03  0.12000000000E+03 0.  0.
<mgrwt>
<rscale>  0 0.27412238E+03</rscale>
<asrwt>0</asrwt>
<pdfrwt beam="1">  1        2 0.16802119E+00 0.27412238E+03</pdfrwt>
<pdfrwt beam="2">  1       -2 0.26462948E-02 0.27412238E+03</pdfrwt>
<totfact> 0.11768368E+04</totfact>
</mgrwt>
</event>
<event>
 5    1  0.1129390E+001  0.2686357E+03  0.7818608E-02  0.1102063E+00
         -1   -1    0    0    0  501 -0.00000000000E+00  0.00000000000E+00  0.54098281273E+02  0.54098281273E+02  0.00000000000E+00 0.  1.
          1   -1    0    0  501    0  0.00000000000E+00 -0.00000000000E+00 -0.33349099842E+03  0.33349099842E+03  0.00000000000E+00 0.  1.
         35    2    1    2    0    0  0.00000000000E+00  0.00000000000E+00 -0.27939271715E+03  0.38758927970E+03  0.26863573727E+03 0.  0.
         25    1    3    3    0    0  0.40551944559E+02 -0.38733341566E+02 -0.17184724175E+03  0.21697051978E+03  0.12000000000E+03 0.  0.
         25    1    3    3    0    0 -0.40551944559E+02  0.38733341566E+02 -0.10754547540E+03  0.17061875992E+03  0.12000000000E+03 0.  0.
<mgrwt>
<rscale>  0 0.26863574E+03</rscale>
<asrwt>0</asrwt>
<pdfrwt beam="1">  1        1 0.51306307E-01 0.26863574E+03</pdfrwt>
<pdfrwt beam="2">  1       -1 0.83228125E-02 0.26863574E+03</pdfrwt>
<totfact> 0.61547032E+03</totfact>
</mgrwt>
</event>
<event>
 5    1  0.1129390E+001  0.2734986E+03  0.7818608E-02  0.1099294E+00
         -1   -1    0    0    0  501 -0.00000000000E+00  0.00000000000E+00  0.48616353821E+02  0.48616353821E+02  0.00000000000E+00 0. -1.
          1   -1    0    0  501    0  0.00000000000E+00 -0.00000000000E+00 -0.38465181429E+03  0.38465181429E+03  0.00000000000E+00 0. -1.
         35    2    1    2    0    0  0.00000000000E+00  0.00000000000E+00 -0.33603546047E+03  0.43326816811E+03  0.27349858282E+03 0.  0.
         25    1    3    3    0    0 -0.10603630871E+02 -0.43981387941E+02 -0.24322107461E+03  0.27496052554E+03  0.12000000000E+03 0.  0.
         25    1    3    3    0    0  0.10603630871E+02  0.43981387941E+02 -0.92814385860E+02  0.15830764257E+03  0.12000000000E+03 0.  0.
<mgrwt>
<rscale>  0 0.27349858E+03</rscale>
<asrwt>0</asrwt>
<pdfrwt beam="1">  1        1 0.59177203E-01 0.27349858E+03</pdfrwt>
<pdfrwt beam="2">  1       -1 0.74794390E-02 0.27349858E+03</pdfrwt>
<totfact> 0.60472862E+03</totfact>
</mgrwt>
</event>
<event>
 5    1  0.1129390E+001  0.2748372E+03  0.7818608E-02  0.1098543E+00
          1   -1    0    0  501    0  0.00000000000E+00  0.00000000000E+00  0.79022644621E+03  0.79022644621E+03  0.00000000000E+00 0. -1.
         -1   -1    0    0    0  501 -0.00000000000E+00 -0.00000000000E+00 -0.23896781078E+02  0.23896781078E+02  0.00000000000E+00 0. -1.
         35    2    1    2    0    0  0.00000000000E+00  0.00000000000E+00  0.76632966513E+03  0.81412322729E+03  0.27483717643E+03 0.  0.
         25    1    3    3    0    0 -0.18731882961E+02  0.60207897365E+02  0.31640058221E+03  0.34421679617E+03  0.12000000000E+03 0.  0.
         25    1    3    3    0    0  0.18731882961E+02 -0.60207897365E+02  0.44992908292E+03  0.46990643112E+03  0.12000000000E+03 0.  0.
<mgrwt>
<rscale>  0 0.27483718E+03</rscale>
<asrwt>0</asrwt>
<pdfrwt beam="1">  1        1 0.12157328E+00 0.27483718E+03</pdfrwt>
<pdfrwt beam="2">  1       -1 0.36764285E-02 0.27483718E+03</pdfrwt>
<totfact> 0.65364770E+03</totfact>
</mgrwt>
</event>
<event>
 5    1  0.1129390E+001  0.2751395E+03  0.7818608E-02  0.1098374E+00
         -2   -1    0    0    0  501 -0.00000000000E+00  0.00000000000E+00  0.19211690313E+02  0.19211690313E+02  0.00000000000E+00 0.  1.
          2   -1    0    0  501    0  0.00000000000E+00 -0.00000000000E+00 -0.98510030880E+03  0.98510030880E+03  0.00000000000E+00 0.  1.
         35    2    1    2    0    0  0.00000000000E+00  0.00000000000E+00 -0.96588861849E+03  0.10043119991E+04  0.27513954321E+03 0.  0.
         25    1    3    3    0    0 -0.66311616553E+02  0.46430421669E+01 -0.44524758071E+03  0.46590148793E+03  0.12000000000E+03 0.  0.
         25    1    3    3    0    0  0.66311616553E+02 -0.46430421669E+01 -0.52064103779E+03  0.53841051119E+03  0.12000000000E+03 0.  0.
<mgrwt>
<rscale>  0 0.27513954E+03</rscale>
<asrwt>0</asrwt>
<pdfrwt beam="1">  1        2 0.15155391E+00 0.27513954E+03</pdfrwt>
<pdfrwt beam="2">  1       -2 0.29556444E-02 0.27513954E+03</pdfrwt>
<totfact> 0.11586326E+04</totfact>
</mgrwt>
</event>
<event>
 5    1  0.1129390E+001  0.2743516E+03  0.7818608E-02  0.1098815E+00
         -2   -1    0    0    0  501 -0.00000000000E+00  0.00000000000E+00  0.40436800318E+02  0.40436800318E+02  0.00000000000E+00 0. -1.
          2   -1    0    0  501    0  0.00000000000E+00 -0.00000000000E+00 -0.46534848356E+03  0.46534848356E+03  0.00000000000E+00 0. -1.
         35    2    1    2    0    0  0.00000000000E+00  0.00000000000E+00 -0.42491168324E+03  0.50578528388E+03  0.27435162626E+03 0.  0.
         25    1    3    3    0    0  0.54628748931E+02 -0.36266124228E+02 -0.23245421729E+03  0.26969333532E+03  0.12000000000E+03 0.  0.
         25    1    3    3    0    0 -0.54628748931E+02  0.36266124228E+02 -0.19245746595E+03  0.23609194856E+03  0.12000000000E+03 0.  0.
<mgrwt>
<rscale>  0 0.27435163E+03</rscale>
<asrwt>0</asrwt>
<pdfrwt beam="1">  1        2 0.71592074E-01 0.27435163E+03</pdfrwt>
<pdfrwt beam="2">  1       -2 0.62210463E-02 0.27435163E+03</pdfrwt>
<totfact> 0.93877979E+03</totfact>
</mgrwt>
</event>
<event>
 5    1  0.1129390E+001  0.2765898E+03  0.7818608E-02  0.1097566E+00
          2   -1    0    0  501    0  0.00000000000E+00  0.00000000000E+00  0.49765451570E+03  0.49765451570E+03  0.00000000000E+00 0. -1.
         -2   -1    0    0    0  501 -0.00000000000E+00 -0.00000000000E+00 -0.38431242571E+02  0.38431242571E+02  0.00000000000E+00 0. -1.
         35    2    1    2    0    0  0.00000000000E+00  0.00000000000E+00  0.45922327313E+03  0.53608575828E+03  0.27658981478E+03 0.  0.
         25    1    3    3    0    0 -0.38513271002E+02  0.65708780918E+01  0.33923609011E+03  0.36194968340E+03  0.12000000000E+03 0.  0.
         25    1    3    3    0    0  0.38513271002E+02 -0.65708780918E+01  0.11998718302E+03  0.17413607487E+03  0.12000000000E+03 0.  0.
<mgrwt>
<rscale>  0 0.27658981E+03</rscale>
<asrwt>0</asrwt>
<pdfrwt beam="1">  1        2 0.76562228E-01 0.27658981E+03</pdfrwt>
<pdfrwt beam="2">  1       -2 0.59124992E-02 0.27658981E+03</pdfrwt>
<totfact> 0.94232854E+03</totfact>
</mgrwt>
</event>
<event>
 5    1  0.1129390E+001  0.2748504E+03  0.7818608E-02  0.1098535E+00
         -2   -1    0    0    0  501 -0.00000000000E+00  0.00000000000E+00  0.25910112768E+02  0.25910112768E+02  0.00000000000E+00 0. -1.
          2   -1    0    0  501    0  0.00000000000E+00 -0.00000000000E+00 -0.72889231671E+03  0.72889231671E+03  0.00000000000E+00 0. -1.
         35    2    1    2    0    0  0.00000000000E+00  0.00000000000E+00 -0.70298220395E+03  0.75480242948E+03  0.27485037473E+03 0.  0.
         25    1    3    3    0    0  0.16737128864E+02 -0.64432283981E+02 -0.37167756111E+03  0.39620179219E+03  0.12000000000E+03 0.  0.
         25    1    3    3    0    0 -0.16737128864E+02  0.64432283981E+02 -0.33130464284E+03  0.35860063730E+03  0.12000000000E+03 0.  0.
<mgrwt>
<rscale>  0 0.27485037E+03</rscale>
<asrwt>0</asrwt>
<pdfrwt beam="1">  1        2 0.11213727E+00 0.27485037E+03</pdfrwt>
<pdfrwt beam="2">  1       -2 0.39861716E-02 0.27485037E+03</pdfrwt>
<totfact> 0.10981295E+04</totfact>
</mgrwt>
</event>
<event>
 5    1  0.1129390E+001  0.2746847E+03  0.7818608E-02  0.1098628E+00
          1   -1    0    0  501    0  0.00000000000E+00  0.00000000000E+00  0.16768700892E+03  0.16768700892E+03  0.00000000000E+00 0.  1.
         -1   -1    0    0    0  501 -0.00000000000E+00 -0.00000000000E+00 -0.11248890141E+03  0.11248890141E+03  0.00000000000E+00 0.  1.
         35    2    1    2    0    0  0.00000000000E+00  0.00000000000E+00  0.55198107504E+02  0.28017591033E+03  0.27468474595E+03 0.  0.
         25    1    3    3    0    0  0.39804519587E+02 -0.12967685146E+02 -0.25502873302E+02  0.12962622105E+03  0.12000000000E+03 0.  0.
         25    1    3    3    0    0 -0.39804519587E+02  0.12967685146E+02  0.80700980806E+02  0.15054968927E+03  0.12000000000E+03 0.  0.
<mgrwt>
<rscale>  0 0.27468475E+03</rscale>
<asrwt>0</asrwt>
<pdfrwt beam="1">  1        1 0.25798001E-01 0.27468475E+03</pdfrwt>
<pdfrwt beam="2">  1       -1 0.17305985E-01 0.27468475E+03</pdfrwt>
<totfact> 0.46592384E+03</totfact>
</mgrwt>
</event>
<event>
 5    1  0.1129390E+001  0.2740641E+03  0.7818608E-02  0.1098976E+00
         -4   -1    0    0    0  501 -0.00000000000E+00  0.00000000000E+00  0.10502286557E+03  0.10502286557E+03  0.00000000000E+00 0.  1.
          4   -1    0    0  501    0  0.00000000000E+00 -0.00000000000E+00 -0.17879708533E+03  0.17879708533E+03  0.00000000000E+00 0.  1.
         35    2    1    2    0    0  0.00000000000E+00  0.00000000000E+00 -0.73774219756E+02  0.28381995090E+03  0.27406409657E+03 0.  0.
         25    1    3    3    0    0  0.13135316728E+02  0.59914634968E+02 -0.11195073148E+02  0.13523176288E+03  0.12000000000E+03 0.  0.
         25    1    3    3    0    0 -0.13135316728E+02 -0.59914634968E+02 -0.62579146609E+02  0.14858818802E+03  0.12000000000E+03 0.  0.
<mgrwt>
<rscale>  0 0.27406410E+03</rscale>
<asrwt>0</asrwt>
<pdfrwt beam="1">  1        4 0.27507244E-01 0.27406410E+03</pdfrwt>
<pdfrwt beam="2">  1       -4 0.16157364E-01 0.27406410E+03</pdfrwt>
<totfact> 0.77647718E+02</totfact>
</mgrwt>
</event>
<event>
 5    1  0.1129390E+001  0.2751311E+03  0.7818608E-02  0.1098378E+00
         -1   -1    0    0    0  501 -0.00000000000E+00  0.00000000000E+00  0.60706887367E+02  0.60706887367E+02  0.00000000000E+00 0. -1.
          1   -1    0    0  501    0  0.00000000000E+00 -0.00000000000E+00 -0.31173203972E+03  0.31173203972E+03  0.00000000000E+00 0. -1.
         35    2    1    2    0    0  0.00000000000E+00  0.00000000000E+00 -0.25102515235E+03  0.37243892708E+03  0.27513110928E+03 0.  0.
         25    1    3    3    0    0  0.35175234707E+02  0.26327223003E+00 -0.47904015498E+02  0.13391101952E+03  0.12000000000E+03 0.  0.
         25    1    3    3    0    0 -0.35175234707E+02 -0.26327223003E+00 -0.20312113685E+03  0.23852790756E+03  0.12000000000E+03 0.  0.
<mgrwt>
<rscale>  0 0.27513111E+03</rscale>
<asrwt>0</asrwt>
<pdfrwt beam="1">  1        1 0.47958775E-01 0.27513111E+03</pdfrwt>
<pdfrwt beam="2">  1       -1 0.93395212E-02 0.27513111E+03</pdfrwt>
<totfact> 0.56195427E+03</totfact>
</mgrwt>
</event>
<event>
 5    1  0.1129390E+001  0.2757670E+03  0.7818608E-02  0.1098024E+00
          2   -1    0    0  501    0  0.00000000000E+00  0.00000000000E+00  0.74323908643E+03  0.74323908643E+03  0.00000000000E+00 0. -1.
         -2   -1    0    0    0  501 -0.00000000000E+00 -0.00000000000E+00 -0.25579733800E+02  0.25579733800E+02  0.00000000000E+00 0. -1.
         35    2    1    2    0    0  0.00000000000E+00  0.00000000000E+00  0.71765935263E+03  0.76881882023E+03  0.27576698846E+03 0.  0.
         25    1    3    3    0    0  0.54780861785E+02  0.13990164621E+02  0.46370883028E+03  0.48230959642E+03  0.12000000000E+03 0.  0.
         25    1    3    3    0    0 -0.54780861785E+02 -0.13990164621E+02  0.25395052235E+03  0.28650922381E+03  0.12000000000E+03 0.  0.
<mgrwt>
<rscale>  0 0.27576699E+03</rscale>
<asrwt>0</asrwt>
<pdfrwt beam="1">  1        2 0.11434446E+00 0.27576699E+03</pdfrwt>
<pdfrwt beam="2">  1       -2 0.39353442E-02 0.27576699E+03</pdfrwt>
<totfact> 0.10930475E+04</totfact>
</mgrwt>
</event>
<event>
 5    1  0.1129390E+001  0.2733582E+03  0.7818608E-02  0.1099373E+00
         -1   -1    0    0    0  501 -0.00000000000E+00  0.00000000000E+00  0.60282009141E+03  0.60282009141E+03  0.00000000000E+00 0.  1.
          1   -1    0    0  501    0  0.00000000000E+00 -0.00000000000E+00 -0.30989644437E+02  0.30989644437E+02  0.00000000000E+00 0.  1.
         35    2    1    2    0    0  0.00000000000E+00  0.00000000000E+00  0.57183044697E+03  0.63380973584E+03  0.27335822865E+03 0.  0.
         25    1    3    3    0    0  0.16674182163E+02  0.14603480811E+02  0.42865337672E+03  0.44568487452E+03  0.12000000000E+03 0.  0.
         25    1    3    3    0    0 -0.16674182163E+02 -0.14603480811E+02  0.14317707025E+03  0.18812486132E+03  0.12000000000E+03 0.  0.
<mgrwt>
<rscale>  0 0.27335823E+03</rscale>
<asrwt>0</asrwt>
<pdfrwt beam="1">  1        1 0.47676380E-02 0.27335823E+03</pdfrwt>
<pdfrwt beam="2">  1       -1 0.92741544E-01 0.27335823E+03</pdfrwt>
<totfact> 0.21142502E+03</totfact>
</mgrwt>
</event>
<event>
 5    1  0.1129390E+001  0.2740820E+03  0.7818608E-02  0.1098966E+00
          1   -1    0    0  501    0  0.00000000000E+00  0.00000000000E+00  0.74776346896E+03  0.74776346896E+03  0.00000000000E+00 0.  1.
         -1   -1    0    0    0  501 -0.00000000000E+00 -0.00000000000E+00 -0.25115209356E+02  0.25115209356E+02  0.00000000000E+00 0.  1.
         35    2    1    2    0    0  0.00000000000E+00  0.00000000000E+00  0.72264825961E+03  0.77287867832E+03  0.27408200285E+03 0.  0.
         25    1    3    3    0    0  0.68632114859E+01 -0.31975053606E+02  0.19907118759E+03  0.23473143261E+03  0.12000000000E+03 0.  0.
         25    1    3    3    0    0 -0.68632114859E+01  0.31975053606E+02  0.52357707202E+03  0.53814724571E+03  0.12000000000E+03 0.  0.
<mgrwt>
<rscale>  0 0.27408200E+03</rscale>
<asrwt>0</asrwt>
<pdfrwt beam="1">  1        1 0.11504052E+00 0.27408200E+03</pdfrwt>
<pdfrwt beam="2">  1       -1 0.38638789E-02 0.27408200E+03</pdfrwt>
<totfact> 0.66001937E+03</totfact>
</mgrwt>
</event>
<event>
 5    1  0.1129390E+001  0.2747059E+03  0.7818608E-02  0.1098616E+00
         -1   -1    0    0    0  501 -0.00000000000E+00  0.00000000000E+00  0.24191320636E+02  0.24191320636E+02  0.00000000000E+00 0.  1.
          1   -1    0    0  501    0  0.00000000000E+00 -0.00000000000E+00 -0.77985967154E+03  0.77985967154E+03  0.00000000000E+00 0.  1.
         35    2    1    2    0    0  0.00000000000E+00  0.00000000000E+00 -0.75566835091E+03  0.80405099218E+03  0.27470591814E+03 0.  0.
         25    1    3    3    0    0 -0.48255955565E+02 -0.23934330629E+02 -0.49360042812E+03  0.51082567679E+03  0.12000000000E+03 0.  0.
         25    1    3    3    0    0  0.48255955565E+02  0.23934330629E+02 -0.26206792279E+03  0.29322531539E+03  0.12000000000E+03 0.  0.
<mgrwt>
<rscale>  0 0.27470592E+03</rscale>
<asrwt>0</asrwt>
<pdfrwt beam="1">  1        1 0.11997841E+00 0.27470592E+03</pdfrwt>
<pdfrwt beam="2">  1       -1 0.37217417E-02 0.27470592E+03</pdfrwt>
<totfact> 0.65494585E+03</totfact>
</mgrwt>
</event>
<event>
 5    1  0.1129390E+001  0.2755702E+03  0.7818608E-02  0.1098133E+00
          2   -1    0    0  501    0  0.00000000000E+00  0.00000000000E+00  0.40824170517E+02  0.40824170517E+02  0.00000000000E+00 0. -1.
         -2   -1    0    0    0  501 -0.00000000000E+00 -0.00000000000E+00 -0.46503649682E+03  0.46503649682E+03  0.00000000000E+00 0. -1.
         35    2    1    2    0    0  0.00000000000E+00  0.00000000000E+00 -0.42421232631E+03  0.50586066734E+03  0.27557016706E+03 0.  0.
         25    1    3    3    0    0 -0.43608647722E+02 -0.39615581029E+02 -0.15084751829E+03  0.20155912827E+03  0.12000000000E+03 0.  0.
         25    1    3    3    0    0  0.43608647722E+02  0.39615581029E+02 -0.27336480802E+03  0.30430153907E+03  0.12000000000E+03 0.  0.
<mgrwt>
<rscale>  0 0.27557017E+03</rscale>
<asrwt>0</asrwt>
<pdfrwt beam="1">  1        2 0.62806415E-02 0.27557017E+03</pdfrwt>
<pdfrwt beam="2">  1       -2 0.71544078E-01 0.27557017E+03</pdfrwt>
<totfact> 0.21126006E+03</totfact>
</mgrwt>
</event>
<event>
 5    1  0.1129390E+001  0.2750431E+03  0.7818608E-02  0.1098428E+00
         -2   -1    0    0    0  501 -0.00000000000E+00  0.00000000000E+00  0.28530409878E+03  0.28530409878E+03  0.00000000000E+00 0. -1.
          2   -1    0    0  501    0  0.00000000000E+00 -0.00000000000E+00 -0.66287768521E+02  0.66287768521E+02  0.00000000000E+00 0. -1.
         35    2    1    2    0    0  0.00000000000E+00  0.00000000000E+00  0.21901633026E+03  0.35159186730E+03  0.27504306614E+03 0.  0.
         25    1    3    3    0    0  0.16485309438E+02  0.20055529342E+02  0.18870374140E+03  0.22512905566E+03  0.12000000000E+03 0.  0.
         25    1    3    3    0    0 -0.16485309438E+02 -0.20055529342E+02  0.30312588858E+02  0.12646281164E+03  0.12000000000E+03 0.  0.
<mgrwt>
<rscale>  0 0.27504307E+03</rscale>
<asrwt>0</asrwt>
<pdfrwt beam="1">  1        2 0.10198118E-01 0.27504307E+03</pdfrwt>
<pdfrwt beam="2">  1       -2 0.43892938E-01 0.27504307E+03</pdfrwt>
<totfact> 0.30974488E+03</totfact>
</mgrwt>
</event>
<event>
 5    1  0.1129390E+001  0.2746171E+03  0.7818608E-02  0.1098666E+00
         -2   -1    0    0    0  501 -0.00000000000E+00  0.00000000000E+00  0.21609182177E+02  0.21609182177E+02  0.00000000000E+00 0.  1.
          2   -1    0    0  501    0  0.00000000000E+00 -0.00000000000E+00 -0.87248252985E+03  0.87248252985E+03  0.00000000000E+00 0.  1.
         35    2    1    2    0    0  0.00000000000E+00  0.00000000000E+00 -0.85087334767E+03  0.89409171203E+03  0.27461707109E+03 0.  0.
         25    1    3    3    0    0 -0.85134646244E+01 -0.28671130755E+02 -0.61967097248E+03  0.63189130945E+03  0.12000000000E+03 0.  0.
         25    1    3    3    0    0  0.85134646244E+01  0.28671130755E+02 -0.23120237519E+03  0.26220040258E+03  0.12000000000E+03 0.  0.
<mgrwt>
<rscale>  0 0.27461707E+03</rscale>
<asrwt>0</asrwt>
<pdfrwt beam="1">  1        2 0.13422809E+00 0.27461707E+03</pdfrwt>
<pdfrwt beam="2">  1       -2 0.33244893E-02 0.27461707E+03</pdfrwt>
<totfact> 0.11465860E+04</totfact>
</mgrwt>
</event>
<event>
 5    1  0.1129390E+001  0.2741086E+03  0.7818608E-02  0.1098951E+00
          1   -1    0    0  501    0  0.00000000000E+00  0.00000000000E+00  0.48351236450E+02  0.48351236450E+02  0.00000000000E+00 0. -1.
         -1   -1    0    0    0  501 -0.00000000000E+00 -0.00000000000E+00 -0.38848813059E+03  0.38848813059E+03  0.00000000000E+00 0. -1.
         35    2    1    2    0    0  0.00000000000E+00  0.00000000000E+00 -0.34013689413E+03  0.43683936704E+03  0.27410860227E+03 0.  0.
         25    1    3    3    0    0  0.55059628806E+02  0.18286241768E+02 -0.11922224623E+03  0.17882922960E+03  0.12000000000E+03 0.  0.
         25    1    3    3    0    0 -0.55059628806E+02 -0.18286241768E+02 -0.22091464790E+03  0.25801013744E+03  0.12000000000E+03 0.  0.
<mgrwt>
<rscale>  0 0.27410860E+03</rscale>
<asrwt>0</asrwt>
<pdfrwt beam="1">  1        1 0.74386517E-02 0.27410860E+03</pdfrwt>
<pdfrwt beam="2">  1       -1 0.59767405E-01 0.27410860E+03</pdfrwt>
<totfact> 0.28041753E+03</totfact>
</mgrwt>
</event>
<event>
 5    1  0.1129390E+001  0.2747974E+03  0.7818608E-02  0.1098565E+00
         -2   -1    0    0    0  501 -0.00000000000E+00  0.00000000000E+00  0.88996870056E+01  0.88996870056E+01  0.00000000000E+00 0.  1.
          2   -1    0    0  501    0  0.00000000000E+00 -0.00000000000E+00 -0.21212436910E+04  0.21212436910E+04  0.00000000000E+00 0.  1.
         35    2    1    2    0    0  0.00000000000E+00  0.00000000000E+00 -0.21123440040E+04  0.21301433780E+04  0.27479741565E+03 0.  0.
         25    1    3    3    0    0  0.37664159389E+02 -0.35774213996E+02 -0.72912600989E+03  0.74075847723E+03  0.12000000000E+03 0.  0.
         25    1    3    3    0    0 -0.37664159389E+02  0.35774213996E+02 -0.13832179941E+04  0.13893849007E+04  0.12000000000E+03 0.  0.
<mgrwt>
<rscale>  0 0.27479742E+03</rscale>
<asrwt>0</asrwt>
<pdfrwt beam="1">  1        2 0.32634532E+00 0.27479742E+03</pdfrwt>
<pdfrwt beam="2">  1       -2 0.13691820E-02 0.27479742E+03</pdfrwt>
<totfact> 0.86447177E+03</totfact>
</mgrwt>
</event>
<event>
 5    1  0.1129390E+001  0.2767697E+03  0.7818608E-02  0.1097466E+00
          1   -1    0    0  501    0  0.00000000000E+00  0.00000000000E+00  0.11279640605E+04  0.11279640605E+04  0.00000000000E+00 0.  1.
         -1   -1    0    0    0  501 -0.00000000000E+00 -0.00000000000E+00 -0.16977811360E+02  0.16977811360E+02  0.00000000000E+00 0.  1.
         35    2    1    2    0    0  0.00000000000E+00  0.00000000000E+00  0.11109862492E+04  0.11449418719E+04  0.27676965903E+03 0.  0.
         25    1    3    3    0    0  0.15876477549E+02  0.33715095502E+02  0.79534183355E+03  0.80520643465E+03  0.12000000000E+03 0.  0.
         25    1    3    3    0    0 -0.15876477549E+02 -0.33715095502E+02  0.31564441560E+03  0.33973543722E+03  0.12000000000E+03 0.  0.
<mgrwt>
<rscale>  0 0.27676966E+03</rscale>
<asrwt>0</asrwt>
<pdfrwt beam="1">  1        1 0.17353287E+00 0.27676966E+03</pdfrwt>
<pdfrwt beam="2">  1       -1 0.26119719E-02 0.27676966E+03</pdfrwt>
<totfact> 0.59621467E+03</totfact>
</mgrwt>
</event>
<event>
 5    1  0.1129390E+001  0.2743753E+03  0.7818608E-02  0.1098801E+00
         -2   -1    0    0    0  501 -0.00000000000E+00  0.00000000000E+00  0.59339250675E+01  0.59339250675E+01  0.00000000000E+00 0.  1.
          2   -1    0    0  501    0  0.00000000000E+00 -0.00000000000E+00 -0.31716687106E+04  0.31716687106E+04  0.00000000000E+00 0.  1.
         35    2    1    2    0    0  0.00000000000E+00  0.00000000000E+00 -0.31657347856E+04  0.31776026357E+04  0.27437525011E+03 0.  0.
         25    1    3    3    0    0  0.65420102287E+02 -0.11681189547E+02 -0.16066145484E+04  0.16124597815E+04  0.12000000000E+03 0.  0.
         25    1    3    3    0    0 -0.65420102287E+02  0.11681189547E+02 -0.15591202372E+04  0.15651428542E+04  0.12000000000E+03 0.  0.
<mgrwt>
<rscale>  0 0.27437525E+03</rscale>
<asrwt>0</asrwt>
<pdfrwt beam="1">  1        2 0.48794908E+00 0.27437525E+03</pdfrwt>
<pdfrwt beam="2">  1       -2 0.91291146E-03 0.27437525E+03</pdfrwt>
<totfact> 0.39956576E+03</totfact>
</mgrwt>
</event>
<event>
 5    1  0.1129390E+001  0.2748550E+03  0.7818608E-02  0.1098533E+00
         -2   -1    0    0    0  501 -0.00000000000E+00  0.00000000000E+00  0.59386659860E+01  0.59386659860E+01  0.00000000000E+00 0. -1.
          2   -1    0    0  501    0  0.00000000000E+00 -0.00000000000E+00 -0.31802293239E+04  0.31802293239E+04  0.00000000000E+00 0. -1.
         35    2    1    2    0    0  0.00000000000E+00  0.00000000000E+00 -0.31742906580E+04  0.31861679899E+04  0.27485501424E+03 0.  0.
         25    1    3    3    0    0  0.35356020517E+01  0.65359034287E+02 -0.17519075921E+04  0.17572320607E+04  0.12000000000E+03 0.  0.
         25    1    3    3    0    0 -0.35356020517E+01 -0.65359034287E+02 -0.14223830659E+04  0.14289359292E+04  0.12000000000E+03 0.  0.
<mgrwt>
<rscale>  0 0.27485501E+03</rscale>
<asrwt>0</asrwt>
<pdfrwt beam="1">  1        2 0.48926553E+00 0.27485501E+03</pdfrwt>
<pdfrwt beam="2">  1       -2 0.91364189E-03 0.27485501E+03</pdfrwt>
<totfact> 0.39428327E+03</totfact>
</mgrwt>
</event>
<event>
 5    1  0.1129390E+001  0.2751234E+03  0.7818608E-02  0.1098383E+00
          3   -1    0    0  501    0  0.00000000000E+00  0.00000000000E+00  0.12766973771E+03  0.12766973771E+03  0.00000000000E+00 0.  1.
         -3   -1    0    0    0  501 -0.00000000000E+00 -0.00000000000E+00 -0.14822012602E+03  0.14822012602E+03  0.00000000000E+00 0.  1.
         35    2    1    2    0    0  0.00000000000E+00  0.00000000000E+00 -0.20550388313E+02  0.27588986372E+03  0.27512342402E+03 0.  0.
         25    1    3    3    0    0 -0.26394525820E+02 -0.31713760937E+01 -0.72225090232E+02  0.14255943420E+03  0.12000000000E+03 0.  0.
         25    1    3    3    0    0  0.26394525820E+02  0.31713760937E+01  0.51674701919E+02  0.13333042953E+03  0.12000000000E+03 0.  0.
<mgrwt>
<rscale>  0 0.27512342E+03</rscale>
<asrwt>0</asrwt>
<pdfrwt beam="1">  1        3 0.19641498E-01 0.27512342E+03</pdfrwt>
<pdfrwt beam="2">  1       -3 0.22803096E-01 0.27512342E+03</pdfrwt>
<totfact> 0.10460856E+03</totfact>
</mgrwt>
</event>
<event>
 5    1  0.1129390E+001  0.2748055E+03  0.7818608E-02  0.1098560E+00
          2   -1    0    0  501    0  0.00000000000E+00  0.00000000000E+00  0.10888024308E+04  0.10888024308E+04  0.00000000000E+00 0. -1.
         -2   -1    0    0    0  501 -0.00000000000E+00 -0.00000000000E+00 -0.17339711073E+02  0.17339711073E+02  0.00000000000E+00 0. -1.
         35    2    1    2    0    0  0.00000000000E+00  0.00000000000E+00  0.10714627198E+04  0.11061421419E+04  0.27480552808E+03 0.  0.
         25    1    3    3    0    0 -0.67762862272E+01  0.11416092947E+02  0.27168207836E+03  0.29730017985E+03  0.12000000000E+03 0.  0.
         25    1    3    3    0    0  0.67762862272E+01 -0.11416092947E+02  0.79978064139E+03  0.80884196206E+03  0.12000000000E+03 0.  0.
<mgrwt>
<rscale>  0 0.27480553E+03</rscale>
<asrwt>0</asrwt>
<pdfrwt beam="1">  1        2 0.16750801E+00 0.27480553E+03</pdfrwt>
<pdfrwt beam="2">  1       -2 0.26676487E-02 0.27480553E+03</pdfrwt>
<totfact> 0.11682630E+04</totfact>
</mgrwt>
</event>
<event>
 5    1  0.1129390E+001  0.2758213E+03  0.7818608E-02  0.1097993E+00
          3   -1    0    0  501    0  0.00000000000E+00  0.00000000000E+00  0.34961323645E+02  0.34961323645E+02  0.00000000000E+00 0. -1.
         -3   -1    0    0    0  501 -0.00000000000E+00 -0.00000000000E+00 -0.54401104100E+03  0.54401104100E+03  0.00000000000E+00 0. -1.
         35    2    1    2    0    0  0.00000000000E+00  0.00000000000E+00 -0.50904971735E+03  0.57897236464E+03  0.27582129048E+03 0.  0.
         25    1    3    3    0    0 -0.51690180451E+02 -0.23940068740E+02 -0.33234246020E+03  0.35790573130E+03  0.12000000000E+03 0.  0.
         25    1    3    3    0    0  0.51690180451E+02  0.23940068740E+02 -0.17670725715E+03  0.22106663334E+03  0.12000000000E+03 0.  0.
<mgrwt>
<rscale>  0 0.27582129E+03</rscale>
<asrwt>0</asrwt>
<pdfrwt beam="1">  1        3 0.53786656E-02 0.27582129E+03</pdfrwt>
<pdfrwt beam="2">  1       -3 0.83694000E-01 0.27582129E+03</pdfrwt>
<totfact> 0.69570986E+02</totfact>
</mgrwt>
</event>
<event>
 5    1  0.1129390E+001  0.2760128E+03  0.7818608E-02  0.1097887E+00
          2   -1    0    0  501    0  0.00000000000E+00  0.00000000000E+00  0.33052166118E+04  0.33052166118E+04  0.00000000000E+00 0. -1.
         -2   -1    0    0    0  501 -0.00000000000E+00 -0.00000000000E+00 -0.57623359864E+01  0.57623359864E+01  0.00000000000E+00 0. -1.
         35    2    1    2    0    0  0.00000000000E+00  0.00000000000E+00  0.32994542759E+04  0.33109789478E+04  0.27601281583E+03 0.  0.
         25    1    3    3    0    0  0.48652116589E+02  0.30327540779E+02  0.20919424494E+04  0.20961655469E+04  0.12000000000E+03 0.  0.
         25    1    3    3    0    0 -0.48652116589E+02 -0.30327540779E+02  0.12075118264E+04  0.12148134010E+04  0.12000000000E+03 0.  0.
<mgrwt>
<rscale>  0 0.27601282E+03</rscale>
<asrwt>0</asrwt>
<pdfrwt beam="1">  1        2 0.50849335E+00 0.27601282E+03</pdfrwt>
<pdfrwt beam="2">  1       -2 0.88651587E-03 0.27601282E+03</pdfrwt>
<totfact> 0.34422681E+03</totfact>
</mgrwt>
</event>
<event>
 5    1  0.1129390E+001  0.2753096E+03  0.7818608E-02  0.1098279E+00
          2   -1    0    0  501    0  0.00000000000E+00  0.00000000000E+00  0.23128941668E+03  0.23128941668E+03  0.00000000000E+00 0.  1.
         -2   -1    0    0    0  501 -0.00000000000E+00 -0.00000000000E+00 -0.81926956307E+02  0.81926956307E+02  0.00000000000E+00 0.  1.
         35    2    1    2    0    0  0.00000000000E+00  0.00000000000E+00  0.14936246037E+03  0.31321637298E+03  0.27530955620E+03 0.  0.
         25    1    3    3    0    0  0.54144991694E+02 -0.40087673817E+02  0.78303335836E+02  0.15833544809E+03  0.12000000000E+03 0.  0.
         25    1    3    3    0    0 -0.54144991694E+02  0.40087673817E+02  0.71059124533E+02  0.15488092490E+03  0.12000000000E+03 0.  0.
<mgrwt>
<rscale>  0 0.27530956E+03</rscale>
<asrwt>0</asrwt>
<pdfrwt beam="1">  1        2 0.35582987E-01 0.27530956E+03</pdfrwt>
<pdfrwt beam="2">  1       -2 0.12604147E-01 0.27530956E+03</pdfrwt>
<totfact> 0.65775218E+03</totfact>
</mgrwt>
</event>
<event>
 5    1  0.1129390E+001  0.2748099E+03  0.7818608E-02  0.1098558E+00
          1   -1    0    0  501    0  0.00000000000E+00  0.00000000000E+00  0.70786010447E+02  0.70786010447E+02  0.00000000000E+00 0.  1.
         -1   -1    0    0    0  501 -0.00000000000E+00 -0.00000000000E+00 -0.26672110521E+03  0.26672110521E+03  0.00000000000E+00 0.  1.
         35    2    1    2    0    0  0.00000000000E+00  0.00000000000E+00 -0.19593509477E+03  0.33750711566E+03  0.27480991933E+03 0.  0.
         25    1    3    3    0    0 -0.10620822002E+02 -0.34699091920E+02 -0.16704245528E+03  0.20885404163E+03  0.12000000000E+03 0.  0.
         25    1    3    3    0    0  0.10620822002E+02  0.34699091920E+02 -0.28892639485E+02  0.12865307403E+03  0.12000000000E+03 0.  0.
<mgrwt>
<rscale>  0 0.27480992E+03</rscale>
<asrwt>0</asrwt>
<pdfrwt beam="1">  1        1 0.10890156E-01 0.27480992E+03</pdfrwt>
<pdfrwt beam="2">  1       -1 0.41034015E-01 0.27480992E+03</pdfrwt>
<totfact> 0.33566973E+03</totfact>
</mgrwt>
</event>
<event>
 5    1  0.1129390E+001  0.2750281E+03  0.7818608E-02  0.1098436E+00
          1   -1    0    0  501    0  0.00000000000E+00  0.00000000000E+00  0.53524152299E+03  0.53524152299E+03  0.00000000000E+00 0.  1.
         -1   -1    0    0    0  501 -0.00000000000E+00 -0.00000000000E+00 -0.35330069890E+02  0.35330069890E+02  0.00000000000E+00 0.  1.
         35    2    1    2    0    0  0.00000000000E+00  0.00000000000E+00  0.49991145310E+03  0.57057159288E+03  0.27502814704E+03 0.  0.
         25    1    3    3    0    0  0.22862421677E+02  0.54129535390E+02  0.31741745737E+03  0.34439300105E+03  0.12000000000E+03 0.  0.
         25    1    3    3    0    0 -0.22862421677E+02 -0.54129535390E+02  0.18249399573E+03  0.22617859183E+03  0.12000000000E+03 0.  0.
<mgrwt>
<rscale>  0 0.27502815E+03</rscale>
<asrwt>0</asrwt>
<pdfrwt beam="1">  1        1 0.82344844E-01 0.27502815E+03</pdfrwt>
<pdfrwt beam="2">  1       -1 0.54353958E-02 0.27502815E+03</pdfrwt>
<totfact> 0.63626764E+03</totfact>
</mgrwt>
</event>
<event>
 5    1  0.1129390E+001  0.2780542E+03  0.7818608E-02  0.1096756E+00
         -2   -1    0    0    0  501 -0.00000000000E+00  0.00000000000E+00  0.77076668256E+01  0.77076668256E+01  0.00000000000E+00 0.  1.
          2   -1    0    0  501    0  0.00000000000E+00 -0.00000000000E+00 -0.25077020835E+04  0.25077020835E+04  0.00000000000E+00 0.  1.
         35    2    1    2    0    0  0.00000000000E+00  0.00000000000E+00 -0.24999944166E+04  0.25154097503E+04  0.27805418290E+03 0.  0.
         25    1    3    3    0    0 -0.57056655650E+01  0.63638875437E+02 -0.98685971691E+03  0.99617998472E+03  0.12000000000E+03 0.  0.
         25    1    3    3    0    0  0.57056655650E+01 -0.63638875437E+02 -0.15131346997E+04  0.15192297656E+04  0.12000000000E+03 0.  0.
<mgrwt>
<rscale>  0 0.27805418E+03</rscale>
<asrwt>0</asrwt>
<pdfrwt beam="1">  1        2 0.38580088E+00 0.27805418E+03</pdfrwt>
<pdfrwt beam="2">  1       -2 0.11857932E-02 0.27805418E+03</pdfrwt>
<totfact> 0.66070447E+03</totfact>
</mgrwt>
</event>
<event>
 5    1  0.1129390E+001  0.2749242E+03  0.7818608E-02  0.1098494E+00
         -1   -1    0    0    0  501 -0.00000000000E+00  0.00000000000E+00  0.30870694198E+03  0.30870694198E+03  0.00000000000E+00 0. -1.
          1   -1    0    0  501    0  0.00000000000E+00 -0.00000000000E+00 -0.61209611014E+02  0.61209611014E+02  0.00000000000E+00 0. -1.
         35    2    1    2    0    0  0.00000000000E+00  0.00000000000E+00  0.24749733096E+03  0.36991655299E+03  0.27492422109E+03 0.  0.
         25    1    3    3    0    0  0.10024672175E+02 -0.61831999711E+02  0.15593285104E+03  0.20649151139E+03  0.12000000000E+03 0.  0.
         25    1    3    3    0    0 -0.10024672175E+02  0.61831999711E+02  0.91564479921E+02  0.16342504161E+03  0.12000000000E+03 0.  0.
<mgrwt>
<rscale>  0 0.27492422E+03</rscale>
<asrwt>0</asrwt>
<pdfrwt beam="1">  1        1 0.94168634E-02 0.27492422E+03</pdfrwt>
<pdfrwt beam="2">  1       -1 0.47493375E-01 0.27492422E+03</pdfrwt>
<totfact> 0.31334269E+03</totfact>
</mgrwt>
</event>
<event>
 5    1  0.1129390E+001  0.2746935E+03  0.7818608E-02  0.1098623E+00
         -3   -1    0    0    0  501 -0.00000000000E+00  0.00000000000E+00  0.15675164717E+03  0.15675164717E+03  0.00000000000E+00 0.  1.
          3   -1    0    0  501    0  0.00000000000E+00 -0.00000000000E+00 -0.12034403600E+03  0.12034403600E+03  0.00000000000E+00 0.  1.
         35    2    1    2    0    0  0.00000000000E+00  0.00000000000E+00  0.36407611167E+02  0.27709568318E+03  0.27469347186E+03 0.  0.
         25    1    3    3    0    0 -0.10479592312E+02  0.82543596710E+01  0.84245178867E+02  0.14722501985E+03  0.12000000000E+03 0.  0.
         25    1    3    3    0    0  0.10479592312E+02 -0.82543596710E+01 -0.47837567700E+02  0.12987066332E+03  0.12000000000E+03 0.  0.
<mgrwt>
<rscale>  0 0.27469347E+03</rscale>
<asrwt>0</asrwt>
<pdfrwt beam="1">  1        3 0.18514467E-01 0.27469347E+03</pdfrwt>
<pdfrwt beam="2">  1       -3 0.24115638E-01 0.27469347E+03</pdfrwt>
<totfact> 0.10492710E+03</totfact>
</mgrwt>
</event>
<event>
 5    1  0.1129390E+001  0.2752863E+03  0.7818608E-02  0.1098292E+00
          1   -1    0    0  501    0  0.00000000000E+00  0.00000000000E+00  0.64043468330E+03  0.64043468330E+03  0.00000000000E+00 0. -1.
         -1   -1    0    0    0  501 -0.00000000000E+00 -0.00000000000E+00 -0.29582459568E+02  0.29582459568E+02  0.00000000000E+00 0. -1.
         35    2    1    2    0    0  0.00000000000E+00  0.00000000000E+00  0.61085222373E+03  0.67001714287E+03  0.27528627372E+03 0.  0.
         25    1    3    3    0    0 -0.49323419011E+00  0.66631544892E+02  0.28041177614E+03  0.31220309136E+03  0.12000000000E+03 0.  0.
         25    1    3    3    0    0  0.49323419011E+00 -0.66631544892E+02  0.33044044759E+03  0.35781405151E+03  0.12000000000E+03 0.  0.
<mgrwt>
<rscale>  0 0.27528627E+03</rscale>
<asrwt>0</asrwt>
<pdfrwt beam="1">  1        1 0.98528403E-01 0.27528627E+03</pdfrwt>
<pdfrwt beam="2">  1       -1 0.45511481E-02 0.27528627E+03</pdfrwt>
<totfact> 0.64801843E+03</totfact>
</mgrwt>
</event>
<event>
 5    1  0.1129390E+001  0.2753079E+03  0.7818608E-02  0.1098280E+00
          2   -1    0    0  501    0  0.00000000000E+00  0.00000000000E+00  0.15602449311E+04  0.15602449311E+04  0.00000000000E+00 0.  1.
         -2   -1    0    0    0  501 -0.00000000000E+00 -0.00000000000E+00 -0.12144635747E+02  0.12144635747E+02  0.00000000000E+00 0.  1.
         35    2    1    2    0    0  0.00000000000E+00  0.00000000000E+00  0.15481002954E+04  0.15723895669E+04  0.27530787396E+03 0.  0.
         25    1    3    3    0    0 -0.33138462713E+01  0.20036673284E+02  0.11413662802E+04  0.11478368505E+04  0.12000000000E+03 0.  0.
         25    1    3    3    0    0  0.33138462713E+01 -0.20036673284E+02  0.40673401520E+03  0.42455271637E+03  0.12000000000E+03 0.  0.
<mgrwt>
<rscale>  0 0.27530787E+03</rscale>
<asrwt>0</asrwt>
<pdfrwt beam="1">  1        2 0.24003752E+00 0.27530787E+03</pdfrwt>
<pdfrwt beam="2">  1       -2 0.18684067E-02 0.27530787E+03</pdfrwt>
<totfact> 0.10827021E+04</totfact>
</mgrwt>
</event>
<event>
 5    1  0.1129390E+001  0.2749921E+03  0.7818608E-02  0.1098456E+00
          1   -1    0    0  501    0  0.00000000000E+00  0.00000000000E+00  0.87424960268E+03  0.87424960268E+03  0.00000000000E+00 0.  1.
         -1   -1    0    0    0  501 -0.00000000000E+00 -0.00000000000E+00 -0.21624443532E+02  0.21624443532E+02  0.00000000000E+00 0.  1.
         35    2    1    2    0    0  0.00000000000E+00  0.00000000000E+00  0.85262515915E+03  0.89587404621E+03  0.27499208109E+03 0.  0.
         25    1    3    3    0    0  0.51478657336E+02  0.42978908790E+02  0.41714287688E+03  0.43920999362E+03  0.12000000000E+03 0.  0.
         25    1    3    3    0    0 -0.51478657336E+02 -0.42978908790E+02  0.43548228227E+03  0.45666405260E+03  0.12000000000E+03 0.  0.
<mgrwt>
<rscale>  0 0.27499208E+03</rscale>
<asrwt>0</asrwt>
<pdfrwt beam="1">  1        1 0.13449991E+00 0.27499208E+03</pdfrwt>
<pdfrwt beam="2">  1       -1 0.33268381E-02 0.27499208E+03</pdfrwt>
<totfact> 0.64694698E+03</totfact>
</mgrwt>
</event>
<event>
 5    1  0.1129390E+001  0.2724742E+03  0.7818608E-02  0.1099872E+00
         -2   -1    0    0    0  501 -0.00000000000E+00  0.00000000000E+00  0.12587283585E+02  0.12587283585E+02  0.00000000000E+00 0.  1.
          2   -1    0    0  501    0  0.00000000000E+00 -0.00000000000E+00 -0.14745475781E+04  0.14745475781E+04  0.00000000000E+00 0.  1.
         35    2    1    2    0    0  0.00000000000E+00  0.00000000000E+00 -0.14619602945E+04  0.14871348617E+04  0.27247420815E+03 0.  0.
         25    1    3    3    0    0 -0.28885347152E+01  0.56813844536E+02 -0.89692089235E+03  0.90669909215E+03  0.12000000000E+03 0.  0.
         25    1    3    3    0    0  0.28885347152E+01 -0.56813844536E+02 -0.56503940219E+03  0.58043576957E+03  0.12000000000E+03 0.  0.
<mgrwt>
<rscale>  0 0.27247421E+03</rscale>
<asrwt>0</asrwt>
<pdfrwt beam="1">  1        2 0.22685345E+00 0.27247421E+03</pdfrwt>
<pdfrwt beam="2">  1       -2 0.19365053E-02 0.27247421E+03</pdfrwt>
<totfact> 0.11411637E+04</totfact>
</mgrwt>
</event>
<event>
 5    1  0.1129390E+001  0.2746456E+03  0.7818608E-02  0.1098650E+00
          1   -1    0    0  501    0  0.00000000000E+00  0.00000000000E+00  0.13335852075E+04  0.13335852075E+04  0.00000000000E+00 0.  1.
         -1   -1    0    0    0  501 -0.00000000000E+00 -0.00000000000E+00 -0.14140497216E+02  0.14140497216E+02  0.00000000000E+00 0.  1.
         35    2    1    2    0    0  0.00000000000E+00  0.00000000000E+00  0.13194447103E+04  0.13477257047E+04  0.27464564744E+03 0.  0.
         25    1    3    3    0    0 -0.46115454394E+02 -0.96513086643E+01  0.89185541802E+03  0.90112478023E+03  0.12000000000E+03 0.  0.
         25    1    3    3    0    0  0.46115454394E+02  0.96513086643E+01  0.42758929225E+03  0.44660092447E+03  0.12000000000E+03 0.  0.
<mgrwt>
<rscale>  0 0.27464565E+03</rscale>
<asrwt>0</asrwt>
<pdfrwt beam="1">  1        1 0.20516686E+00 0.27464565E+03</pdfrwt>
<pdfrwt beam="2">  1       -1 0.21754622E-02 0.27464565E+03</pdfrwt>
<totfact> 0.56099983E+03</totfact>
</mgrwt>
</event>
<event>
 5    1  0.1129390E+001  0.2717252E+03  0.7818608E-02  0.1100296E+00
         -2   -1    0    0    0  501 -0.00000000000E+00  0.00000000000E+00  0.46021725418E+02  0.46021725418E+02  0.00000000000E+00 0. -1.
          2   -1    0    0  501    0  0.00000000000E+00 -0.00000000000E+00 -0.40108555683E+03  0.40108555683E+03  0.00000000000E+00 0. -1.
         35    2    1    2    0    0  0.00000000000E+00  0.00000000000E+00 -0.35506383141E+03  0.44710728225E+03  0.27172522419E+03 0.  0.
         25    1    3    3    0    0 -0.83099257334E+01 -0.19294836350E+02 -0.27649524094E+03  0.30214394556E+03  0.12000000000E+03 0.  0.
         25    1    3    3    0    0  0.83099257334E+01  0.19294836350E+02 -0.78568590473E+02  0.14496333669E+03  0.12000000000E+03 0.  0.
<mgrwt>
<rscale>  0 0.27172522E+03</rscale>
<asrwt>0</asrwt>
<pdfrwt beam="1">  1        2 0.61705472E-01 0.27172522E+03</pdfrwt>
<pdfrwt beam="2">  1       -2 0.70802653E-02 0.27172522E+03</pdfrwt>
<totfact> 0.90449298E+03</totfact>
</mgrwt>
</event>
<event>
 5    1  0.1129390E+001  0.2748816E+03  0.7818608E-02  0.1098518E+00
         -1   -1    0    0    0  501 -0.00000000000E+00  0.00000000000E+00  0.11561718437E+03  0.11561718437E+03  0.00000000000E+00 0.  1.
          1   -1    0    0  501    0  0.00000000000E+00 -0.00000000000E+00 -0.16338377069E+03  0.16338377069E+03  0.00000000000E+00 0.  1.
         35    2    1    2    0    0  0.00000000000E+00  0.00000000000E+00 -0.47766586319E+02  0.27900095506E+03  0.27488158570E+03 0.  0.
         25    1    3    3    0    0  0.23911822289E+02 -0.16375226190E+01  0.39628515147E+02  0.12862688653E+03  0.12000000000E+03 0.  0.
         25    1    3    3    0    0 -0.23911822289E+02  0.16375226190E+01 -0.87395101466E+02  0.15037406853E+03  0.12000000000E+03 0.  0.
<mgrwt>
<rscale>  0 0.27488159E+03</rscale>
<asrwt>0</asrwt>
<pdfrwt beam="1">  1        1 0.25135965E-01 0.27488159E+03</pdfrwt>
<pdfrwt beam="2">  1       -1 0.17787259E-01 0.27488159E+03</pdfrwt>
<totfact> 0.46083401E+03</totfact>
</mgrwt>
</event>
<event>
 5    1  0.1129390E+001  0.2750633E+03  0.7818608E-02  0.1098416E+00
         -2   -1    0    0    0  501 -0.00000000000E+00  0.00000000000E+00  0.67939346664E+02  0.67939346664E+02  0.00000000000E+00 0.  1.
          2   -1    0    0  501    0  0.00000000000E+00 -0.00000000000E+00 -0.27840934718E+03  0.27840934718E+03  0.00000000000E+00 0.  1.
         35    2    1    2    0    0  0.00000000000E+00  0.00000000000E+00 -0.21047000052E+03  0.34634869385E+03  0.27506325929E+03 0.  0.
         25    1    3    3    0    0  0.39432846939E+02 -0.42138946948E+02 -0.14856747207E+03  0.19950672677E+03  0.12000000000E+03 0.  0.
         25    1    3    3    0    0 -0.39432846939E+02  0.42138946948E+02 -0.61902528449E+02  0.14684196708E+03  0.12000000000E+03 0.  0.
<mgrwt>
<rscale>  0 0.27506326E+03</rscale>
<asrwt>0</asrwt>
<pdfrwt beam="1">  1        2 0.42832208E-01 0.27506326E+03</pdfrwt>
<pdfrwt beam="2">  1       -2 0.10452207E-01 0.27506326E+03</pdfrwt>
<totfact> 0.72755165E+03</totfact>
</mgrwt>
</event>
<event>
 5    1  0.1129390E+001  0.2748143E+03  0.7818608E-02  0.1098555E+00
          2   -1    0    0  501    0  0.00000000000E+00  0.00000000000E+00  0.15192620728E+04  0.15192620728E+04  0.00000000000E+00 0.  1.
         -2   -1    0    0    0  501 -0.00000000000E+00 -0.00000000000E+00 -0.12427558974E+02  0.12427558974E+02  0.00000000000E+00 0.  1.
         35    2    1    2    0    0  0.00000000000E+00  0.00000000000E+00  0.15068345138E+04  0.15316896318E+04  0.27481425732E+03 0.  0.
         25    1    3    3    0    0  0.56746109979E+01  0.20076322422E+02  0.11079165867E+04  0.11145915948E+04  0.12000000000E+03 0.  0.
         25    1    3    3    0    0 -0.56746109979E+01 -0.20076322422E+02  0.39891792708E+03  0.41709803701E+03  0.12000000000E+03 0.  0.
<mgrwt>
<rscale>  0 0.27481426E+03</rscale>
<asrwt>0</asrwt>
<pdfrwt beam="1">  1        2 0.23373248E+00 0.27481426E+03</pdfrwt>
<pdfrwt beam="2">  1       -2 0.19119334E-02 0.27481426E+03</pdfrwt>
<totfact> 0.11006233E+04</totfact>
</mgrwt>
</event>
<event>
 5    1  0.1129390E+001  0.2748202E+03  0.7818608E-02  0.1098552E+00
         -2   -1    0    0    0  501 -0.00000000000E+00  0.00000000000E+00  0.24840057541E+02  0.24840057541E+02  0.00000000000E+00 0.  1.
          2   -1    0    0  501    0  0.00000000000E+00 -0.00000000000E+00 -0.76012438020E+03  0.76012438020E+03  0.00000000000E+00 0.  1.
         35    2    1    2    0    0  0.00000000000E+00  0.00000000000E+00 -0.73528432266E+03  0.78496443774E+03  0.27482018370E+03 0.  0.
         25    1    3    3    0    0 -0.54789530861E+02 -0.26394572613E+02 -0.44756541160E+03  0.46734715556E+03  0.12000000000E+03 0.  0.
         25    1    3    3    0    0  0.54789530861E+02  0.26394572613E+02 -0.28771891106E+03  0.31761728218E+03  0.12000000000E+03 0.  0.
<mgrwt>
<rscale>  0 0.27482018E+03</rscale>
<asrwt>0</asrwt>
<pdfrwt beam="1">  1        2 0.11694222E+00 0.27482018E+03</pdfrwt>
<pdfrwt beam="2">  1       -2 0.38215472E-02 0.27482018E+03</pdfrwt>
<totfact> 0.11107118E+04</totfact>
</mgrwt>
</event>
<event>
 5    1  0.1129390E+001  0.2748715E+03  0.7818608E-02  0.1098523E+00
          1   -1    0    0  501    0  0.00000000000E+00  0.00000000000E+00  0.23457882332E+03  0.23457882332E+03  0.00000000000E+00 0.  1.
         -1   -1    0    0    0  501 -0.00000000000E+00 -0.00000000000E+00 -0.80521251973E+02  0.80521251973E+02  0.00000000000E+00 0.  1.
         35    2    1    2    0    0  0.00000000000E+00  0.00000000000E+00  0.15405757135E+03  0.31510007529E+03  0.27487146480E+03 0.  0.
         25    1    3    3    0    0  0.12252269684E+02 -0.22440199910E+02  0.14801857115E+03  0.19225810279E+03  0.12000000000E+03 0.  0.
         25    1    3    3    0    0 -0.12252269684E+02  0.22440199910E+02  0.60390001995E+01  0.12284197250E+03  0.12000000000E+03 0.  0.
<mgrwt>
<rscale>  0 0.27487146E+03</rscale>
<asrwt>0</asrwt>
<pdfrwt beam="1">  1        1 0.36089049E-01 0.27487146E+03</pdfrwt>
<pdfrwt beam="2">  1       -1 0.12387885E-01 0.27487146E+03</pdfrwt>
<totfact> 0.51807025E+03</totfact>
</mgrwt>
</event>
<event>
 5    1  0.1129390E+001  0.2721370E+03  0.7818608E-02  0.1100063E+00
         -1   -1    0    0    0  501 -0.00000000000E+00  0.00000000000E+00  0.22315675910E+03  0.22315675910E+03  0.00000000000E+00 0. -1.
          1   -1    0    0  501    0  0.00000000000E+00 -0.00000000000E+00 -0.82966965445E+02  0.82966965445E+02  0.00000000000E+00 0. -1.
         35    2    1    2    0    0  0.00000000000E+00  0.00000000000E+00  0.14018979366E+03  0.30612372455E+03  0.27213701785E+03 0.  0.
         25    1    3    3    0    0  0.34791645634E+02  0.49513517632E+02  0.46163786682E+02  0.14210257645E+03  0.12000000000E+03 0.  0.
         25    1    3    3    0    0 -0.34791645634E+02 -0.49513517632E+02  0.94026006976E+02  0.16402114809E+03  0.12000000000E+03 0.  0.
<mgrwt>
<rscale>  0 0.27213702E+03</rscale>
<asrwt>0</asrwt>
<pdfrwt beam="1">  1        1 0.12764149E-01 0.27213702E+03</pdfrwt>
<pdfrwt beam="2">  1       -1 0.34331809E-01 0.27213702E+03</pdfrwt>
<totfact> 0.37157091E+03</totfact>
</mgrwt>
</event>
<event>
 5    1  0.1129390E+001  0.2749491E+03  0.7818608E-02  0.1098480E+00
          3   -1    0    0  501    0  0.00000000000E+00  0.00000000000E+00  0.32630460904E+03  0.32630460904E+03  0.00000000000E+00 0.  1.
         -3   -1    0    0    0  501 -0.00000000000E+00 -0.00000000000E+00 -0.57919060746E+02  0.57919060746E+02  0.00000000000E+00 0.  1.
         35    2    1    2    0    0  0.00000000000E+00  0.00000000000E+00  0.26838554829E+03  0.38422366978E+03  0.27494913328E+03 0.  0.
         25    1    3    3    0    0  0.18582702328E+02  0.59263411344E+02  0.98790801429E+02  0.16738306723E+03  0.12000000000E+03 0.  0.
         25    1    3    3    0    0 -0.18582702328E+02 -0.59263411344E+02  0.16959474686E+03  0.21684060255E+03  0.12000000000E+03 0.  0.
<mgrwt>
<rscale>  0 0.27494913E+03</rscale>
<asrwt>0</asrwt>
<pdfrwt beam="1">  1        3 0.50200708E-01 0.27494913E+03</pdfrwt>
<pdfrwt beam="2">  1       -3 0.89106249E-02 0.27494913E+03</pdfrwt>
<totfact> 0.90053038E+02</totfact>
</mgrwt>
</event>
<event>
 5    1  0.1129390E+001  0.2757314E+03  0.7818608E-02  0.1098043E+00
         -2   -1    0    0    0  501 -0.00000000000E+00  0.00000000000E+00  0.26931317252E+02  0.26931317252E+02  0.00000000000E+00 0. -1.
          2   -1    0    0  501    0  0.00000000000E+00 -0.00000000000E+00 -0.70575647669E+03  0.70575647669E+03  0.00000000000E+00 0. -1.
         35    2    1    2    0    0  0.00000000000E+00  0.00000000000E+00 -0.67882515944E+03  0.73268779394E+03  0.27573140246E+03 0.  0.
         25    1    3    3    0    0  0.32815259737E+02  0.50995839962E+02 -0.25839756608E+03  0.29128460159E+03  0.12000000000E+03 0.  0.
         25    1    3    3    0    0 -0.32815259737E+02 -0.50995839962E+02 -0.42042759336E+03  0.44140319236E+03  0.12000000000E+03 0.  0.
<mgrwt>
<rscale>  0 0.27573140E+03</rscale>
<asrwt>0</asrwt>
<pdfrwt beam="1">  1        2 0.10857792E+00 0.27573140E+03</pdfrwt>
<pdfrwt beam="2">  1       -2 0.41432794E-02 0.27573140E+03</pdfrwt>
<totfact> 0.10778801E+04</totfact>
</mgrwt>
</event>
<event>
 5    1  0.1129390E+001  0.2752129E+03  0.7818608E-02  0.1098333E+00
          2   -1    0    0  501    0  0.00000000000E+00  0.00000000000E+00  0.47775916135E+03  0.47775916135E+03  0.00000000000E+00 0. -1.
         -2   -1    0    0    0  501 -0.00000000000E+00 -0.00000000000E+00 -0.39634071468E+02  0.39634071468E+02  0.00000000000E+00 0. -1.
         35    2    1    2    0    0  0.00000000000E+00  0.00000000000E+00  0.43812508988E+03  0.51739323282E+03  0.27521294116E+03 0.  0.
         25    1    3    3    0    0 -0.44683131156E+02  0.39672031569E+02  0.27746558457E+03  0.30815191532E+03  0.12000000000E+03 0.  0.
         25    1    3    3    0    0  0.44683131156E+02 -0.39672031569E+02  0.16065950532E+03  0.20924131750E+03  0.12000000000E+03 0.  0.
<mgrwt>
<rscale>  0 0.27521294E+03</rscale>
<asrwt>0</asrwt>
<pdfrwt beam="1">  1        2 0.73501405E-01 0.27521294E+03</pdfrwt>
<pdfrwt beam="2">  1       -2 0.60975498E-02 0.27521294E+03</pdfrwt>
<totfact> 0.94043372E+03</totfact>
</mgrwt>
</event>
<event>
 5    1  0.1129390E+001  0.2715329E+03  0.7818608E-02  0.1100405E+00
          4   -1    0    0  501    0  0.00000000000E+00  0.00000000000E+00  0.10741786930E+04  0.10741786930E+04  0.00000000000E+00 0.  1.
         -4   -1    0    0    0  501 -0.00000000000E+00 -0.00000000000E+00 -0.17159648071E+02  0.17159648071E+02  0.00000000000E+00 0.  1.
         35    2    1    2    0    0  0.00000000000E+00  0.00000000000E+00  0.10570190450E+04  0.10913383411E+04  0.27153289552E+03 0.  0.
         25    1    3    3    0    0  0.39993198352E+02  0.48465792260E+02  0.49164261767E+03  0.50996161860E+03  0.12000000000E+03 0.  0.
         25    1    3    3    0    0 -0.39993198352E+02 -0.48465792260E+02  0.56537642729E+03  0.58137672251E+03  0.12000000000E+03 0.  0.
<mgrwt>
<rscale>  0 0.27153290E+03</rscale>
<asrwt>0</asrwt>
<pdfrwt beam="1">  1        4 0.16525821E+00 0.27153290E+03</pdfrwt>
<pdfrwt beam="2">  1       -4 0.26399467E-02 0.27153290E+03</pdfrwt>
<totfact> 0.30203831E+02</totfact>
</mgrwt>
</event>
<event>
 5    1  0.1129390E+001  0.2749048E+03  0.7818608E-02  0.1098505E+00
         -2   -1    0    0    0  501 -0.00000000000E+00  0.00000000000E+00  0.21883302440E+03  0.21883302440E+03  0.00000000000E+00 0. -1.
          2   -1    0    0  501    0  0.00000000000E+00 -0.00000000000E+00 -0.86335991060E+02  0.86335991060E+02  0.00000000000E+00 0. -1.
         35    2    1    2    0    0  0.00000000000E+00  0.00000000000E+00  0.13249703334E+03  0.30516901546E+03  0.27490482744E+03 0.  0.
         25    1    3    3    0    0 -0.35547182011E+02 -0.55639511807E+02  0.53407479367E+02  0.14700923874E+03  0.12000000000E+03 0.  0.
         25    1    3    3    0    0  0.35547182011E+02  0.55639511807E+02  0.79089553969E+02  0.15815977671E+03  0.12000000000E+03 0.  0.
<mgrwt>
<rscale>  0 0.27490483E+03</rscale>
<asrwt>0</asrwt>
<pdfrwt beam="1">  1        2 0.13282460E-01 0.27490483E+03</pdfrwt>
<pdfrwt beam="2">  1       -2 0.33666619E-01 0.27490483E+03</pdfrwt>
<totfact> 0.37093835E+03</totfact>
</mgrwt>
</event>
<event>
 5    1  0.1129390E+001  0.2752999E+03  0.7818608E-02  0.1098284E+00
          2   -1    0    0  501    0  0.00000000000E+00  0.00000000000E+00  0.21449263369E+03  0.21449263369E+03  0.00000000000E+00 0.  1.
         -2   -1    0    0    0  501 -0.00000000000E+00 -0.00000000000E+00 -0.88336380254E+02  0.88336380254E+02  0.00000000000E+00 0.  1.
         35    2    1    2    0    0  0.00000000000E+00  0.00000000000E+00  0.12615625343E+03  0.30282901394E+03  0.27529985726E+03 0.  0.
         25    1    3    3    0    0 -0.60606730002E+02 -0.90451834350E+01  0.94044786387E+02  0.16431498079E+03  0.12000000000E+03 0.  0.
         25    1    3    3    0    0  0.60606730002E+02  0.90451834350E+01  0.32111467048E+02  0.13851403316E+03  0.12000000000E+03 0.  0.
<mgrwt>
<rscale>  0 0.27529986E+03</rscale>
<asrwt>0</asrwt>
<pdfrwt beam="1">  1        2 0.32998867E-01 0.27529986E+03</pdfrwt>
<pdfrwt beam="2">  1       -2 0.13590212E-01 0.27529986E+03</pdfrwt>
<totfact> 0.63151204E+03</totfact>
</mgrwt>
</event>
<event>
 5    1  0.1129390E+001  0.2745928E+03  0.7818608E-02  0.1098679E+00
          2   -1    0    0  501    0  0.00000000000E+00  0.00000000000E+00  0.70200329233E+03  0.70200329233E+03  0.00000000000E+00 0.  1.
         -2   -1    0    0    0  501 -0.00000000000E+00 -0.00000000000E+00 -0.26852157339E+02  0.26852157339E+02  0.00000000000E+00 0.  1.
         35    2    1    2    0    0  0.00000000000E+00  0.00000000000E+00  0.67515113499E+03  0.72885544966E+03  0.27459281023E+03 0.  0.
         25    1    3    3    0    0 -0.43364604382E+02 -0.49911615813E+02  0.36111448921E+03  0.38623222629E+03  0.12000000000E+03 0.  0.
         25    1    3    3    0    0  0.43364604382E+02  0.49911615813E+02  0.31403664578E+03  0.34262322338E+03  0.12000000000E+03 0.  0.
<mgrwt>
<rscale>  0 0.27459281E+03</rscale>
<asrwt>0</asrwt>
<pdfrwt beam="1">  1        2 0.10800049E+00 0.27459281E+03</pdfrwt>
<pdfrwt beam="2">  1       -2 0.41311017E-02 0.27459281E+03</pdfrwt>
<totfact> 0.10895468E+04</totfact>
</mgrwt>
</event>
<event>
 5    1  0.1129390E+001  0.2747463E+03  0.7818608E-02  0.1098594E+00
          1   -1    0    0  501    0  0.00000000000E+00  0.00000000000E+00  0.93212677648E+02  0.93212677648E+02  0.00000000000E+00 0. -1.
         -1   -1    0    0    0  501 -0.00000000000E+00 -0.00000000000E+00 -0.20245505009E+03  0.20245505009E+03  0.00000000000E+00 0. -1.
         35    2    1    2    0    0  0.00000000000E+00  0.00000000000E+00 -0.10924237245E+03  0.29566772774E+03  0.27474626347E+03 0.  0.
         25    1    3    3    0    0  0.38877498825E+02 -0.32485678540E+02 -0.10158612949E+03  0.16518632186E+03  0.12000000000E+03 0.  0.
         25    1    3    3    0    0 -0.38877498825E+02  0.32485678540E+02 -0.76562429581E+01  0.13048140588E+03  0.12000000000E+03 0.  0.
<mgrwt>
<rscale>  0 0.27474626E+03</rscale>
<asrwt>0</asrwt>
<pdfrwt beam="1">  1        1 0.14340412E-01 0.27474626E+03</pdfrwt>
<pdfrwt beam="2">  1       -1 0.31146930E-01 0.27474626E+03</pdfrwt>
<totfact> 0.37683939E+03</totfact>
</mgrwt>
</event>
<event>
 5    1  0.1129390E+001  0.2747001E+03  0.7818608E-02  0.1098619E+00
          2   -1    0    0  501    0  0.00000000000E+00  0.00000000000E+00  0.59092082810E+03  0.59092082810E+03  0.00000000000E+00 0.  1.
         -2   -1    0    0    0  501 -0.00000000000E+00 -0.00000000000E+00 -0.31924819309E+02  0.31924819309E+02  0.00000000000E+00 0.  1.
         35    2    1    2    0    0  0.00000000000E+00  0.00000000000E+00  0.55899600880E+03  0.62284564741E+03  0.27470013224E+03 0.  0.
         25    1    3    3    0    0 -0.17463273262E+02  0.33060942006E+02  0.15392915554E+03  0.19872638658E+03  0.12000000000E+03 0.  0.
         25    1    3    3    0    0  0.17463273262E+02 -0.33060942006E+02  0.40506685326E+03  0.42411926083E+03  0.12000000000E+03 0.  0.
<mgrwt>
<rscale>  0 0.27470013E+03</rscale>
<asrwt>0</asrwt>
<pdfrwt beam="1">  1        2 0.90910889E-01 0.27470013E+03</pdfrwt>
<pdfrwt beam="2">  1       -2 0.49115111E-02 0.27470013E+03</pdfrwt>
<totfact> 0.10285090E+04</totfact>
</mgrwt>
</event>
<event>
 5    1  0.1129390E+001  0.2746978E+03  0.7818608E-02  0.1098621E+00
          2   -1    0    0  501    0  0.00000000000E+00  0.00000000000E+00  0.10956561568E+02  0.10956561568E+02  0.00000000000E+00 0. -1.
         -2   -1    0    0    0  501 -0.00000000000E+00 -0.00000000000E+00 -0.17217732314E+04  0.17217732314E+04  0.00000000000E+00 0. -1.
         35    2    1    2    0    0  0.00000000000E+00  0.00000000000E+00 -0.17108166698E+04  0.17327297929E+04  0.27469775693E+03 0.  0.
         25    1    3    3    0    0 -0.50772360565E+02 -0.56692745387E+01 -0.58375353519E+03  0.59814560361E+03  0.12000000000E+03 0.  0.
         25    1    3    3    0    0  0.50772360565E+02  0.56692745387E+01 -0.11270631346E+04  0.11345841893E+04  0.12000000000E+03 0.  0.
<mgrwt>
<rscale>  0 0.27469776E+03</rscale>
<asrwt>0</asrwt>
<pdfrwt beam="1">  1        2 0.16856241E-02 0.27469776E+03</pdfrwt>
<pdfrwt beam="2">  1       -2 0.26488830E+00 0.27469776E+03</pdfrwt>
<totfact> 0.40749239E+02</totfact>
</mgrwt>
</event>
<event>
 5    1  0.1129390E+001  0.2754723E+03  0.7818608E-02  0.1098188E+00
         -2   -1    0    0    0  501 -0.00000000000E+00  0.00000000000E+00  0.62094422860E+02  0.62094422860E+02  0.00000000000E+00 0.  1.
          2   -1    0    0  501    0  0.00000000000E+00 -0.00000000000E+00 -0.30552258884E+03  0.30552258884E+03  0.00000000000E+00 0.  1.
         35    2    1    2    0    0  0.00000000000E+00  0.00000000000E+00 -0.24342816598E+03  0.36761701170E+03  0.27547231313E+03 0.  0.
         25    1    3    3    0    0  0.20345107652E+02  0.46196573015E+02 -0.61688377367E+02  0.14406076033E+03  0.12000000000E+03 0.  0.
         25    1    3    3    0    0 -0.20345107652E+02 -0.46196573015E+02 -0.18173978862E+03  0.22355625138E+03  0.12000000000E+03 0.  0.
<mgrwt>
<rscale>  0 0.27547231E+03</rscale>
<asrwt>0</asrwt>
<pdfrwt beam="1">  1        2 0.47003475E-01 0.27547231E+03</pdfrwt>
<pdfrwt beam="2">  1       -2 0.95529881E-02 0.27547231E+03</pdfrwt>
<totfact> 0.75958578E+03</totfact>
</mgrwt>
</event>
<event>
 5    1  0.1129390E+001  0.2735424E+03  0.7818608E-02  0.1099269E+00
         -2   -1    0    0    0  501 -0.00000000000E+00  0.00000000000E+00  0.57775588264E+02  0.57775588264E+02  0.00000000000E+00 0. -1.
          2   -1    0    0  501    0  0.00000000000E+00 -0.00000000000E+00 -0.32377610302E+03  0.32377610302E+03  0.00000000000E+00 0. -1.
         35    2    1    2    0    0  0.00000000000E+00  0.00000000000E+00 -0.26600051476E+03  0.38155169129E+03  0.27354235371E+03 0.  0.
         25    1    3    3    0    0 -0.24852215203E+02  0.60673264287E+02 -0.13681441670E+03  0.19343490434E+03  0.12000000000E+03 0.  0.
         25    1    3    3    0    0  0.24852215203E+02 -0.60673264287E+02 -0.12918609806E+03  0.18811678695E+03  0.12000000000E+03 0.  0.
<mgrwt>
<rscale>  0 0.27354235E+03</rscale>
<asrwt>0</asrwt>
<pdfrwt beam="1">  1        2 0.49811707E-01 0.27354235E+03</pdfrwt>
<pdfrwt beam="2">  1       -2 0.88885522E-02 0.27354235E+03</pdfrwt>
<totfact> 0.79943501E+03</totfact>
</mgrwt>
</event>
<event>
 5    1  0.1129390E+001  0.2770823E+03  0.7818608E-02  0.1097293E+00
         -2   -1    0    0    0  501 -0.00000000000E+00  0.00000000000E+00  0.23418923845E+02  0.23418923845E+02  0.00000000000E+00 0. -1.
          2   -1    0    0  501    0  0.00000000000E+00 -0.00000000000E+00 -0.81957878565E+03  0.81957878565E+03  0.00000000000E+00 0. -1.
         35    2    1    2    0    0  0.00000000000E+00  0.00000000000E+00 -0.79615986180E+03  0.84299770949E+03  0.27708232109E+03 0.  0.
         25    1    3    3    0    0 -0.26264903529E+02  0.62211015365E+02 -0.35158006044E+03  0.37758256646E+03  0.12000000000E+03 0.  0.
         25    1    3    3    0    0  0.26264903529E+02 -0.62211015365E+02 -0.44457980136E+03  0.46541514303E+03  0.12000000000E+03 0.  0.
<mgrwt>
<rscale>  0 0.27708232E+03</rscale>
<asrwt>0</asrwt>
<pdfrwt beam="1">  1        2 0.12608905E+00 0.27708232E+03</pdfrwt>
<pdfrwt beam="2">  1       -2 0.36029111E-02 0.27708232E+03</pdfrwt>
<totfact> 0.11032489E+04</totfact>
</mgrwt>
</event>
<event>
 5    1  0.1129390E+001  0.2750449E+03  0.7818608E-02  0.1098426E+00
         -2   -1    0    0    0  501 -0.00000000000E+00  0.00000000000E+00  0.10659343605E+03  0.10659343605E+03  0.00000000000E+00 0.  1.
          2   -1    0    0  501    0  0.00000000000E+00 -0.00000000000E+00 -0.17742581357E+03  0.17742581357E+03  0.00000000000E+00 0.  1.
         35    2    1    2    0    0  0.00000000000E+00  0.00000000000E+00 -0.70832377514E+02  0.28401924962E+03  0.27504492079E+03 0.  0.
         25    1    3    3    0    0 -0.63796665883E+02 -0.19645087954E+02 -0.27655447005E+02  0.14007415110E+03  0.12000000000E+03 0.  0.
         25    1    3    3    0    0  0.63796665883E+02  0.19645087954E+02 -0.43176930510E+02  0.14394509852E+03  0.12000000000E+03 0.  0.
<mgrwt>
<rscale>  0 0.27504492E+03</rscale>
<asrwt>0</asrwt>
<pdfrwt beam="1">  1        2 0.27296279E-01 0.27504492E+03</pdfrwt>
<pdfrwt beam="2">  1       -2 0.16398990E-01 0.27504492E+03</pdfrwt>
<totfact> 0.57025826E+03</totfact>
</mgrwt>
</event>
<event>
 5    1  0.1129390E+001  0.2754915E+03  0.7818608E-02  0.1098177E+00
         -2   -1    0    0    0  501 -0.00000000000E+00  0.00000000000E+00  0.14014514473E+02  0.14014514473E+02  0.00000000000E+00 0. -1.
          2   -1    0    0  501    0  0.00000000000E+00 -0.00000000000E+00 -0.13538746824E+04  0.13538746824E+04  0.00000000000E+00 0. -1.
         35    2    1    2    0    0  0.00000000000E+00  0.00000000000E+00 -0.13398601679E+04  0.13678891969E+04  0.27549153404E+03 0.  0.
         25    1    3    3    0    0  0.15516372684E+00  0.52149132165E+02 -0.45611547403E+03  0.47451120293E+03  0.12000000000E+03 0.  0.
         25    1    3    3    0    0 -0.15516372684E+00 -0.52149132165E+02 -0.88374469392E+03  0.89337799396E+03  0.12000000000E+03 0.  0.
<mgrwt>
<rscale>  0 0.27549153E+03</rscale>
<asrwt>0</asrwt>
<pdfrwt beam="1">  1        2 0.20828843E+00 0.27549153E+03</pdfrwt>
<pdfrwt beam="2">  1       -2 0.21560790E-02 0.27549153E+03</pdfrwt>
<totfact> 0.11328941E+04</totfact>
</mgrwt>
</event>
<event>
 5    1  0.1129390E+001  0.2749333E+03  0.7818608E-02  0.1098489E+00
         -2   -1    0    0    0  501 -0.00000000000E+00  0.00000000000E+00  0.16759382783E+02  0.16759382783E+02  0.00000000000E+00 0.  1.
          2   -1    0    0  501    0  0.00000000000E+00 -0.00000000000E+00 -0.11275519216E+04  0.11275519216E+04  0.00000000000E+00 0.  1.
         35    2    1    2    0    0  0.00000000000E+00  0.00000000000E+00 -0.11107925389E+04  0.11443113044E+04  0.27493325926E+03 0.  0.
         25    1    3    3    0    0  0.36987199238E+02 -0.10812884559E+02 -0.78382556924E+03  0.79389388105E+03  0.12000000000E+03 0.  0.
         25    1    3    3    0    0 -0.36987199238E+02  0.10812884559E+02 -0.32696696962E+03  0.35041742337E+03  0.12000000000E+03 0.  0.
<mgrwt>
<rscale>  0 0.27493326E+03</rscale>
<asrwt>0</asrwt>
<pdfrwt beam="1">  1        2 0.17346955E+00 0.27493326E+03</pdfrwt>
<pdfrwt beam="2">  1       -2 0.25783663E-02 0.27493326E+03</pdfrwt>
<totfact> 0.11661686E+04</totfact>
</mgrwt>
</event>
<event>
 5    1  0.1129390E+001  0.2748641E+03  0.7818608E-02  0.1098528E+00
          1   -1    0    0  501    0  0.00000000000E+00  0.00000000000E+00  0.85789465502E+03  0.85789465502E+03  0.00000000000E+00 0. -1.
         -1   -1    0    0    0  501 -0.00000000000E+00 -0.00000000000E+00 -0.22016190924E+02  0.22016190924E+02  0.00000000000E+00 0. -1.
         35    2    1    2    0    0  0.00000000000E+00  0.00000000000E+00  0.83587846410E+03  0.87991084594E+03  0.27486413020E+03 0.  0.
         25    1    3    3    0    0  0.14195686844E+01 -0.54633249199E+02  0.29392343449E+03  0.32214560751E+03  0.12000000000E+03 0.  0.
         25    1    3    3    0    0 -0.14195686844E+01  0.54633249199E+02  0.54195502961E+03  0.55776523844E+03  0.12000000000E+03 0.  0.
<mgrwt>
<rscale>  0 0.27486413E+03</rscale>
<asrwt>0</asrwt>
<pdfrwt beam="1">  1        1 0.13198377E+00 0.27486413E+03</pdfrwt>
<pdfrwt beam="2">  1       -1 0.33871070E-02 0.27486413E+03</pdfrwt>
<totfact> 0.64926706E+03</totfact>
</mgrwt>
</event>
<event>
 5    1  0.1129390E+001  0.2726947E+03  0.7818608E-02  0.1099747E+00
         -2   -1    0    0    0  501 -0.00000000000E+00  0.00000000000E+00  0.24004212130E+02  0.24004212130E+02  0.00000000000E+00 0. -1.
          2   -1    0    0  501    0  0.00000000000E+00 -0.00000000000E+00 -0.77447262737E+03  0.77447262737E+03  0.00000000000E+00 0. -1.
         35    2    1    2    0    0  0.00000000000E+00  0.00000000000E+00 -0.75046841524E+03  0.79847683950E+03  0.27269473949E+03 0.  0.
         25    1    3    3    0    0 -0.46125512056E+02 -0.45419713068E+02 -0.37434588440E+03  0.39840350697E+03  0.12000000000E+03 0.  0.
         25    1    3    3    0    0  0.46125512056E+02  0.45419713068E+02 -0.37612253084E+03  0.40007333253E+03  0.12000000000E+03 0.  0.
<mgrwt>
<rscale>  0 0.27269474E+03</rscale>
<asrwt>0</asrwt>
<pdfrwt beam="1">  1        2 0.11914963E+00 0.27269474E+03</pdfrwt>
<pdfrwt beam="2">  1       -2 0.36929558E-02 0.27269474E+03</pdfrwt>
<totfact> 0.11418530E+04</totfact>
</mgrwt>
</event>
<event>
 5    1  0.1129390E+001  0.2790727E+03  0.7818608E-02  0.1096197E+00
          1   -1    0    0  501    0  0.00000000000E+00  0.00000000000E+00  0.37214132976E+04  0.37214132976E+04  0.00000000000E+00 0.  1.
         -1   -1    0    0    0  501 -0.00000000000E+00 -0.00000000000E+00 -0.52319871620E+01  0.52319871620E+01  0.00000000000E+00 0.  1.
         35    2    1    2    0    0  0.00000000000E+00  0.00000000000E+00  0.37161813104E+04  0.37266452848E+04  0.27907265432E+03 0.  0.
         25    1    3    3    0    0  0.11657730842E+02  0.65664704196E+02  0.21912990855E+04  0.21955954633E+04  0.12000000000E+03 0.  0.
         25    1    3    3    0    0 -0.11657730842E+02 -0.65664704196E+02  0.15248822249E+04  0.15310498215E+04  0.12000000000E+03 0.  0.
<mgrwt>
<rscale>  0 0.27907265E+03</rscale>
<asrwt>0</asrwt>
<pdfrwt beam="1">  1        1 0.57252301E+00 0.27907265E+03</pdfrwt>
<pdfrwt beam="2">  1       -1 0.80492407E-03 0.27907265E+03</pdfrwt>
<totfact> 0.54427816E+02</totfact>
</mgrwt>
</event>
<event>
 5    1  0.1129390E+001  0.2747547E+03  0.7818608E-02  0.1098589E+00
         -4   -1    0    0    0  501 -0.00000000000E+00  0.00000000000E+00  0.17680678349E+03  0.17680678349E+03  0.00000000000E+00 0.  1.
          4   -1    0    0  501    0  0.00000000000E+00 -0.00000000000E+00 -0.10674103615E+03  0.10674103615E+03  0.00000000000E+00 0.  1.
         35    2    1    2    0    0  0.00000000000E+00  0.00000000000E+00  0.70065747345E+02  0.28354781964E+03  0.27475472166E+03 0.  0.
         25    1    3    3    0    0  0.17354489832E+02 -0.74765690488E+01  0.10123782011E+03  0.15813340451E+03  0.12000000000E+03 0.  0.
         25    1    3    3    0    0 -0.17354489832E+02  0.74765690488E+01 -0.31172072765E+02  0.12541441513E+03  0.12000000000E+03 0.  0.
<mgrwt>
<rscale>  0 0.27475472E+03</rscale>
<asrwt>0</asrwt>
<pdfrwt beam="1">  1        4 0.16421698E-01 0.27475472E+03</pdfrwt>
<pdfrwt beam="2">  1       -4 0.27201044E-01 0.27475472E+03</pdfrwt>
<totfact> 0.77077702E+02</totfact>
</mgrwt>
</event>
<event>
 5    1  0.1129390E+001  0.2763328E+03  0.7818608E-02  0.1097709E+00
          2   -1    0    0  501    0  0.00000000000E+00  0.00000000000E+00  0.70762066915E+03  0.70762066915E+03  0.00000000000E+00 0.  1.
         -2   -1    0    0    0  501 -0.00000000000E+00 -0.00000000000E+00 -0.26977668443E+02  0.26977668443E+02  0.00000000000E+00 0.  1.
         35    2    1    2    0    0  0.00000000000E+00  0.00000000000E+00  0.68064300071E+03  0.73459833759E+03  0.27633281235E+03 0.  0.
         25    1    3    3    0    0  0.41919076203E+02 -0.49867868151E+02  0.28418349840E+03  0.31528443347E+03  0.12000000000E+03 0.  0.
         25    1    3    3    0    0 -0.41919076203E+02  0.49867868151E+02  0.39645950230E+03  0.41931390412E+03  0.12000000000E+03 0.  0.
<mgrwt>
<rscale>  0 0.27633281E+03</rscale>
<asrwt>0</asrwt>
<pdfrwt beam="1">  1        2 0.10886470E+00 0.27633281E+03</pdfrwt>
<pdfrwt beam="2">  1       -2 0.41504111E-02 0.27633281E+03</pdfrwt>
<totfact> 0.10717286E+04</totfact>
</mgrwt>
</event>
<event>
 5    1  0.1129390E+001  0.2750417E+03  0.7818608E-02  0.1098428E+00
          2   -1    0    0  501    0  0.00000000000E+00  0.00000000000E+00  0.73321725765E+02  0.73321725765E+02  0.00000000000E+00 0. -1.
         -2   -1    0    0    0  501 -0.00000000000E+00 -0.00000000000E+00 -0.25793157621E+03  0.25793157621E+03  0.00000000000E+00 0. -1.
         35    2    1    2    0    0  0.00000000000E+00  0.00000000000E+00 -0.18460985044E+03  0.33125330197E+03  0.27504172990E+03 0.  0.
         25    1    3    3    0    0  0.62017959014E+02 -0.25049705518E+02 -0.84854009725E+02  0.16147420213E+03  0.12000000000E+03 0.  0.
         25    1    3    3    0    0 -0.62017959014E+02  0.25049705518E+02 -0.99755840719E+02  0.16977909985E+03  0.12000000000E+03 0.  0.
<mgrwt>
<rscale>  0 0.27504173E+03</rscale>
<asrwt>0</asrwt>
<pdfrwt beam="1">  1        2 0.11280265E-01 0.27504173E+03</pdfrwt>
<pdfrwt beam="2">  1       -2 0.39681781E-01 0.27504173E+03</pdfrwt>
<totfact> 0.33216269E+03</totfact>
</mgrwt>
</event>
<event>
 5    1  0.1129390E+001  0.2749804E+03  0.7818608E-02  0.1098463E+00
         -1   -1    0    0    0  501 -0.00000000000E+00  0.00000000000E+00  0.19630917475E+02  0.19630917475E+02  0.00000000000E+00 0. -1.
          1   -1    0    0  501    0  0.00000000000E+00 -0.00000000000E+00 -0.96294831246E+03  0.96294831246E+03  0.00000000000E+00 0. -1.
         35    2    1    2    0    0  0.00000000000E+00  0.00000000000E+00 -0.94331739499E+03  0.98257922994E+03  0.27498042734E+03 0.  0.
         25    1    3    3    0    0 -0.50316536153E+01  0.65538329052E+02 -0.51999286554E+03  0.53769244957E+03  0.12000000000E+03 0.  0.
         25    1    3    3    0    0  0.50316536153E+01 -0.65538329052E+02 -0.42332452945E+03  0.44488678037E+03  0.12000000000E+03 0.  0.
<mgrwt>
<rscale>  0 0.27498043E+03</rscale>
<asrwt>0</asrwt>
<pdfrwt beam="1">  1        1 0.14814589E+00 0.27498043E+03</pdfrwt>
<pdfrwt beam="2">  1       -1 0.30201413E-02 0.27498043E+03</pdfrwt>
<totfact> 0.63664543E+03</totfact>
</mgrwt>
</event>
<event>
 5    1  0.1129390E+001  0.2741717E+03  0.7818608E-02  0.1098916E+00
         -2   -1    0    0    0  501 -0.00000000000E+00  0.00000000000E+00  0.61932276862E+01  0.61932276862E+01  0.00000000000E+00 0. -1.
          2   -1    0    0  501    0  0.00000000000E+00 -0.00000000000E+00 -0.30343670776E+04  0.30343670776E+04  0.00000000000E+00 0. -1.
         35    2    1    2    0    0  0.00000000000E+00  0.00000000000E+00 -0.30281738499E+04  0.30405603053E+04  0.27417167027E+03 0.  0.
         25    1    3    3    0    0 -0.16510082513E+02  0.42655530381E+02 -0.20459959482E+04  0.20500223162E+04  0.12000000000E+03 0.  0.
         25    1    3    3    0    0  0.16510082513E+02 -0.42655530381E+02 -0.98217790169E+03  0.99053798900E+03  0.12000000000E+03 0.  0.
<mgrwt>
<rscale>  0 0.27417167E+03</rscale>
<asrwt>0</asrwt>
<pdfrwt beam="1">  1        2 0.46682598E+00 0.27417167E+03</pdfrwt>
<pdfrwt beam="2">  1       -2 0.95280370E-03 0.27417167E+03</pdfrwt>
<totfact> 0.45468445E+03</totfact>
</mgrwt>
</event>
<event>
 5    1  0.1129390E+001  0.2749151E+03  0.7818608E-02  0.1098499E+00
          2   -1    0    0  501    0  0.00000000000E+00  0.00000000000E+00  0.17225582544E+04  0.17225582544E+04  0.00000000000E+00 0. -1.
         -2   -1    0    0    0  501 -0.00000000000E+00 -0.00000000000E+00 -0.10968903860E+02  0.10968903860E+02  0.00000000000E+00 0. -1.
         35    2    1    2    0    0  0.00000000000E+00  0.00000000000E+00  0.17115893505E+04  0.17335271582E+04  0.27491508424E+03 0.  0.
         25    1    3    3    0    0 -0.76293958224E+01 -0.55361378727E+02  0.62227269664E+03  0.63619682405E+03  0.12000000000E+03 0.  0.
         25    1    3    3    0    0  0.76293958224E+01  0.55361378727E+02  0.10893166539E+04  0.10973303342E+04  0.12000000000E+03 0.  0.
<mgrwt>
<rscale>  0 0.27491508E+03</rscale>
<asrwt>0</asrwt>
<pdfrwt beam="1">  1        2 0.26500875E+00 0.27491508E+03</pdfrwt>
<pdfrwt beam="2">  1       -2 0.16875250E-02 0.27491508E+03</pdfrwt>
<totfact> 0.10318001E+04</totfact>
</mgrwt>
</event>
<event>
 5    1  0.1129390E+001  0.2749228E+03  0.7818608E-02  0.1098495E+00
         -4   -1    0    0    0  501 -0.00000000000E+00  0.00000000000E+00  0.96514543318E+03  0.96514543318E+03  0.00000000000E+00 0.  1.
          4   -1    0    0  501    0  0.00000000000E+00 -0.00000000000E+00 -0.19578016128E+02  0.19578016128E+02  0.00000000000E+00 0.  1.
         35    2    1    2    0    0  0.00000000000E+00  0.00000000000E+00  0.94556741705E+03  0.98472344931E+03  0.27492277357E+03 0.  0.
         25    1    3    3    0    0  0.42595057908E+02 -0.28017087365E+02  0.62876096958E+03  0.64213678684E+03  0.12000000000E+03 0.  0.
         25    1    3    3    0    0 -0.42595057908E+02  0.28017087365E+02  0.31680644747E+03  0.34258666247E+03  0.12000000000E+03 0.  0.
<mgrwt>
<rscale>  0 0.27492277E+03</rscale>
<asrwt>0</asrwt>
<pdfrwt beam="1">  1        4 0.30120032E-02 0.27492277E+03</pdfrwt>
<pdfrwt beam="2">  1       -4 0.14848388E+00 0.27492277E+03</pdfrwt>
<totfact> 0.32572738E+02</totfact>
</mgrwt>
</event>
<event>
 5    1  0.1129390E+001  0.2745831E+03  0.7818608E-02  0.1098685E+00
          1   -1    0    0  501    0  0.00000000000E+00  0.00000000000E+00  0.81165881995E+03  0.81165881995E+03  0.00000000000E+00 0.  1.
         -1   -1    0    0    0  501 -0.00000000000E+00 -0.00000000000E+00 -0.23222778430E+02  0.23222778430E+02  0.00000000000E+00 0.  1.
         35    2    1    2    0    0  0.00000000000E+00  0.00000000000E+00  0.78843604152E+03  0.83488159838E+03  0.27458312356E+03 0.  0.
         25    1    3    3    0    0  0.41202140469E+02  0.45213194861E+02  0.47507149828E+03  0.49379629185E+03  0.12000000000E+03 0.  0.
         25    1    3    3    0    0 -0.41202140469E+02 -0.45213194861E+02  0.31336454324E+03  0.34108530653E+03  0.12000000000E+03 0.  0.
<mgrwt>
<rscale>  0 0.27458312E+03</rscale>
<asrwt>0</asrwt>
<pdfrwt beam="1">  1        1 0.12487057E+00 0.27458312E+03</pdfrwt>
<pdfrwt beam="2">  1       -1 0.35727358E-02 0.27458312E+03</pdfrwt>
<totfact> 0.65441301E+03</totfact>
</mgrwt>
</event>
<event>
 5    1  0.1129390E+001  0.2735287E+03  0.7818608E-02  0.1099277E+00
         -2   -1    0    0    0  501 -0.00000000000E+00  0.00000000000E+00  0.17086197227E+02  0.17086197227E+02  0.00000000000E+00 0. -1.
          2   -1    0    0  501    0  0.00000000000E+00 -0.00000000000E+00 -0.10947132209E+04  0.10947132209E+04  0.00000000000E+00 0. -1.
         35    2    1    2    0    0  0.00000000000E+00  0.00000000000E+00 -0.10776270237E+04  0.11117994181E+04  0.27352868953E+03 0.  0.
         25    1    3    3    0    0  0.44610737897E+01  0.52458758930E+02 -0.69794164043E+03  0.71013685724E+03  0.12000000000E+03 0.  0.
         25    1    3    3    0    0 -0.44610737897E+01 -0.52458758930E+02 -0.37968538326E+03  0.40166256090E+03  0.12000000000E+03 0.  0.
<mgrwt>
<rscale>  0 0.27352869E+03</rscale>
<asrwt>0</asrwt>
<pdfrwt beam="1">  1        2 0.16841743E+00 0.27352869E+03</pdfrwt>
<pdfrwt beam="2">  1       -2 0.26286456E-02 0.27352869E+03</pdfrwt>
<totfact> 0.11843459E+04</totfact>
</mgrwt>
</event>
<event>
 5    1  0.1129390E+001  0.2746135E+03  0.7818608E-02  0.1098668E+00
         -2   -1    0    0    0  501 -0.00000000000E+00  0.00000000000E+00  0.45865173826E+01  0.45865173826E+01  0.00000000000E+00 0.  1.
          2   -1    0    0  501    0  0.00000000000E+00 -0.00000000000E+00 -0.41105586943E+04  0.41105586943E+04  0.00000000000E+00 0.  1.
         35    2    1    2    0    0  0.00000000000E+00  0.00000000000E+00 -0.41059721769E+04  0.41151452117E+04  0.27461353866E+03 0.  0.
         25    1    3    3    0    0  0.38317014126E+02  0.61055571545E+01 -0.12394005809E+04  0.12458006548E+04  0.12000000000E+03 0.  0.
         25    1    3    3    0    0 -0.38317014126E+02 -0.61055571545E+01 -0.28665715960E+04  0.28693445569E+04  0.12000000000E+03 0.  0.
<mgrwt>
<rscale>  0 0.27461354E+03</rscale>
<asrwt>0</asrwt>
<pdfrwt beam="1">  1        2 0.63239468E+00 0.27461354E+03</pdfrwt>
<pdfrwt beam="2">  1       -2 0.70561690E-03 0.27461354E+03</pdfrwt>
<totfact> 0.12957199E+03</totfact>
</mgrwt>
</event>
<event>
 5    1  0.1129390E+001  0.2747935E+03  0.7818608E-02  0.1098567E+00
          2   -1    0    0  501    0  0.00000000000E+00  0.00000000000E+00  0.94728970810E+03  0.94728970810E+03  0.00000000000E+00 0. -1.
         -2   -1    0    0    0  501 -0.00000000000E+00 -0.00000000000E+00 -0.19928295447E+02  0.19928295447E+02  0.00000000000E+00 0. -1.
         35    2    1    2    0    0  0.00000000000E+00  0.00000000000E+00  0.92736141265E+03  0.96721800355E+03  0.27479351649E+03 0.  0.
         25    1    3    3    0    0 -0.62335746225E+02 -0.24272421488E+02  0.45761124703E+03  0.47778964944E+03  0.12000000000E+03 0.  0.
         25    1    3    3    0    0  0.62335746225E+02  0.24272421488E+02  0.46975016562E+03  0.48942835411E+03  0.12000000000E+03 0.  0.
<mgrwt>
<rscale>  0 0.27479352E+03</rscale>
<asrwt>0</asrwt>
<pdfrwt beam="1">  1        2 0.14573684E+00 0.27479352E+03</pdfrwt>
<pdfrwt beam="2">  1       -2 0.30658923E-02 0.27479352E+03</pdfrwt>
<totfact> 0.11582567E+04</totfact>
</mgrwt>
</event>
<event>
 5    1  0.1129390E+001  0.2750238E+03  0.7818608E-02  0.1098438E+00
         -2   -1    0    0    0  501 -0.00000000000E+00  0.00000000000E+00  0.54644640451E+01  0.54644640451E+01  0.00000000000E+00 0.  1.
          2   -1    0    0  501    0  0.00000000000E+00 -0.00000000000E+00 -0.34604540351E+04  0.34604540351E+04  0.00000000000E+00 0.  1.
         35    2    1    2    0    0  0.00000000000E+00  0.00000000000E+00 -0.34549895710E+04  0.34659184991E+04  0.27502382918E+03 0.  0.
         25    1    3    3    0    0  0.31435333870E+02 -0.46659573005E+02 -0.12654490948E+04  0.12723705072E+04  0.12000000000E+03 0.  0.
         25    1    3    3    0    0 -0.31435333870E+02  0.46659573005E+02 -0.21895404762E+04  0.21935479919E+04  0.12000000000E+03 0.  0.
<mgrwt>
<rscale>  0 0.27502383E+03</rscale>
<asrwt>0</asrwt>
<pdfrwt beam="1">  1        2 0.53237616E+00 0.27502383E+03</pdfrwt>
<pdfrwt beam="2">  1       -2 0.84068896E-03 0.27502383E+03</pdfrwt>
<totfact> 0.29538182E+03</totfact>
</mgrwt>
</event>
<event>
 5    1  0.1129390E+001  0.2750892E+03  0.7818608E-02  0.1098402E+00
          1   -1    0    0  501    0  0.00000000000E+00  0.00000000000E+00  0.26094351963E+03  0.26094351963E+03  0.00000000000E+00 0.  1.
         -1   -1    0    0    0  501 -0.00000000000E+00 -0.00000000000E+00 -0.72500415700E+02  0.72500415700E+02  0.00000000000E+00 0.  1.
         35    2    1    2    0    0  0.00000000000E+00  0.00000000000E+00  0.18844310393E+03  0.33344393533E+03  0.27508917570E+03 0.  0.
         25    1    3    3    0    0 -0.45254591755E+02  0.13380183696E+02  0.15224584325E+03  0.19951391976E+03  0.12000000000E+03 0.  0.
         25    1    3    3    0    0  0.45254591755E+02 -0.13380183696E+02  0.36197260683E+02  0.13393001557E+03  0.12000000000E+03 0.  0.
<mgrwt>
<rscale>  0 0.27508918E+03</rscale>
<asrwt>0</asrwt>
<pdfrwt beam="1">  1        1 0.40145156E-01 0.27508918E+03</pdfrwt>
<pdfrwt beam="2">  1       -1 0.11153910E-01 0.27508918E+03</pdfrwt>
<totfact> 0.53385123E+03</totfact>
</mgrwt>
</event>
<event>
 5    1  0.1129390E+001  0.2755895E+03  0.7818608E-02  0.1098123E+00
          2   -1    0    0  501    0  0.00000000000E+00  0.00000000000E+00  0.57391105738E+03  0.57391105738E+03  0.00000000000E+00 0.  1.
         -2   -1    0    0    0  501 -0.00000000000E+00 -0.00000000000E+00 -0.33084217494E+02  0.33084217494E+02  0.00000000000E+00 0.  1.
         35    2    1    2    0    0  0.00000000000E+00  0.00000000000E+00  0.54082683988E+03  0.60699527487E+03  0.27558953713E+03 0.  0.
         25    1    3    3    0    0 -0.45572645246E+02  0.47483709759E+02  0.30564222760E+03  0.33488615973E+03  0.12000000000E+03 0.  0.
         25    1    3    3    0    0  0.45572645246E+02 -0.47483709759E+02  0.23518461229E+03  0.27210911514E+03  0.12000000000E+03 0.  0.
<mgrwt>
<rscale>  0 0.27558954E+03</rscale>
<asrwt>0</asrwt>
<pdfrwt beam="1">  1        2 0.88294001E-01 0.27558954E+03</pdfrwt>
<pdfrwt beam="2">  1       -2 0.50898800E-02 0.27558954E+03</pdfrwt>
<totfact> 0.10077345E+04</totfact>
</mgrwt>
</event>
<event>
 5    1  0.1129390E+001  0.2751975E+03  0.7818608E-02  0.1098341E+00
         -2   -1    0    0    0  501 -0.00000000000E+00  0.00000000000E+00  0.16831524539E+03  0.16831524539E+03  0.00000000000E+00 0.  1.
          2   -1    0    0  501    0  0.00000000000E+00 -0.00000000000E+00 -0.11248781771E+03  0.11248781771E+03  0.00000000000E+00 0.  1.
         35    2    1    2    0    0  0.00000000000E+00  0.00000000000E+00  0.55827427675E+02  0.28080306310E+03  0.27519749011E+03 0.  0.
         25    1    3    3    0    0  0.38148180867E+02  0.25692132324E+01  0.84463993716E+02  0.15164448818E+03  0.12000000000E+03 0.  0.
         25    1    3    3    0    0 -0.38148180867E+02 -0.25692132324E+01 -0.28636566041E+02  0.12915857492E+03  0.12000000000E+03 0.  0.
<mgrwt>
<rscale>  0 0.27519749E+03</rscale>
<asrwt>0</asrwt>
<pdfrwt beam="1">  1        2 0.17305818E-01 0.27519749E+03</pdfrwt>
<pdfrwt beam="2">  1       -2 0.25894653E-01 0.27519749E+03</pdfrwt>
<totfact> 0.43630925E+03</totfact>
</mgrwt>
</event>
<event>
 5    1  0.1129390E+001  0.2753667E+03  0.7818608E-02  0.1098247E+00
         -2   -1    0    0    0  501 -0.00000000000E+00  0.00000000000E+00  0.11394892785E+03  0.11394892785E+03  0.00000000000E+00 0. -1.
          2   -1    0    0  501    0  0.00000000000E+00 -0.00000000000E+00 -0.16636145351E+03  0.16636145351E+03  0.00000000000E+00 0. -1.
         35    2    1    2    0    0  0.00000000000E+00  0.00000000000E+00 -0.52412525663E+02  0.28031038136E+03  0.27536673193E+03 0.  0.
         25    1    3    3    0    0 -0.58478380360E+02  0.63489663455E+01  0.75044130336E+01  0.13385195762E+03  0.12000000000E+03 0.  0.
         25    1    3    3    0    0  0.58478380360E+02 -0.63489663455E+01 -0.59916938697E+02  0.14645842375E+03  0.12000000000E+03 0.  0.
<mgrwt>
<rscale>  0 0.27536673E+03</rscale>
<asrwt>0</asrwt>
<pdfrwt beam="1">  1        2 0.25594070E-01 0.27536673E+03</pdfrwt>
<pdfrwt beam="2">  1       -2 0.17530604E-01 0.27536673E+03</pdfrwt>
<totfact> 0.54779988E+03</totfact>
</mgrwt>
</event>
<event>
 5    1  0.1129390E+001  0.2749700E+03  0.7818608E-02  0.1098468E+00
         -3   -1    0    0    0  501 -0.00000000000E+00  0.00000000000E+00  0.67435464159E+03  0.67435464159E+03  0.00000000000E+00 0.  1.
          3   -1    0    0  501    0  0.00000000000E+00 -0.00000000000E+00 -0.28029947171E+02  0.28029947171E+02  0.00000000000E+00 0.  1.
         35    2    1    2    0    0  0.00000000000E+00  0.00000000000E+00  0.64632469442E+03  0.70238458876E+03  0.27496999820E+03 0.  0.
         25    1    3    3    0    0  0.12193973065E+02 -0.85179571042E+01  0.49029296090E+03  0.50498359981E+03  0.12000000000E+03 0.  0.
         25    1    3    3    0    0 -0.12193973065E+02  0.85179571042E+01  0.15603173352E+03  0.19740098895E+03  0.12000000000E+03 0.  0.
<mgrwt>
<rscale>  0 0.27497000E+03</rscale>
<asrwt>0</asrwt>
<pdfrwt beam="1">  1        3 0.43123001E-02 0.27497000E+03</pdfrwt>
<pdfrwt beam="2">  1       -3 0.10374686E+00 0.27497000E+03</pdfrwt>
<totfact> 0.60830894E+02</totfact>
</mgrwt>
</event>
<event>
 5    1  0.1129390E+001  0.2752621E+03  0.7818608E-02  0.1098305E+00
          3   -1    0    0  501    0  0.00000000000E+00  0.00000000000E+00  0.40272279340E+03  0.40272279340E+03  0.00000000000E+00 0. -1.
         -3   -1    0    0    0  501 -0.00000000000E+00 -0.00000000000E+00 -0.47035611002E+02  0.47035611002E+02  0.00000000000E+00 0. -1.
         35    2    1    2    0    0  0.00000000000E+00  0.00000000000E+00  0.35568718240E+03  0.44975840441E+03  0.27526214888E+03 0.  0.
         25    1    3    3    0    0  0.43034497800E+02  0.44001991292E+02  0.22271474625E+03  0.26036513099E+03  0.12000000000E+03 0.  0.
         25    1    3    3    0    0 -0.43034497800E+02 -0.44001991292E+02  0.13297243615E+03  0.18939327342E+03  0.12000000000E+03 0.  0.
<mgrwt>
<rscale>  0 0.27526215E+03</rscale>
<asrwt>0</asrwt>
<pdfrwt beam="1">  1        3 0.61957351E-01 0.27526215E+03</pdfrwt>
<pdfrwt beam="2">  1       -3 0.72362481E-02 0.27526215E+03</pdfrwt>
<totfact> 0.82306819E+02</totfact>
</mgrwt>
</event>
<event>
 5    1  0.1129390E+001  0.2779082E+03  0.7818608E-02  0.1096837E+00
          1   -1    0    0  501    0  0.00000000000E+00  0.00000000000E+00  0.83050118815E+03  0.83050118815E+03  0.00000000000E+00 0.  1.
         -1   -1    0    0    0  501 -0.00000000000E+00 -0.00000000000E+00 -0.23248898751E+02  0.23248898751E+02  0.00000000000E+00 0.  1.
         35    2    1    2    0    0  0.00000000000E+00  0.00000000000E+00  0.80725228940E+03  0.85375008690E+03  0.27790817214E+03 0.  0.
         25    1    3    3    0    0  0.54877564157E+02  0.81192690763E+01  0.27218051423E+03  0.30258833736E+03  0.12000000000E+03 0.  0.
         25    1    3    3    0    0 -0.54877564157E+02 -0.81192690763E+01  0.53507177517E+03  0.55116174955E+03  0.12000000000E+03 0.  0.
<mgrwt>
<rscale>  0 0.27790817E+03</rscale>
<asrwt>0</asrwt>
<pdfrwt beam="1">  1        1 0.12776939E+00 0.27790817E+03</pdfrwt>
<pdfrwt beam="2">  1       -1 0.35767543E-02 0.27790817E+03</pdfrwt>
<totfact> 0.63056044E+03</totfact>
</mgrwt>
</event>
<event>
 5    1  0.1129390E+001  0.2752772E+03  0.7818608E-02  0.1098297E+00
          1   -1    0    0  501    0  0.00000000000E+00  0.00000000000E+00  0.17411578750E+03  0.17411578750E+03  0.00000000000E+00 0. -1.
         -1   -1    0    0    0  501 -0.00000000000E+00 -0.00000000000E+00 -0.10880339842E+03  0.10880339842E+03  0.00000000000E+00 0. -1.
         35    2    1    2    0    0  0.00000000000E+00  0.00000000000E+00  0.65312389080E+02  0.28291918593E+03  0.27527723771E+03 0.  0.
         25    1    3    3    0    0  0.54844602811E+01  0.50394310418E+02 -0.13015303134E+02  0.13091624782E+03  0.12000000000E+03 0.  0.
         25    1    3    3    0    0 -0.54844602811E+01 -0.50394310418E+02  0.78327692214E+02  0.15200293811E+03  0.12000000000E+03 0.  0.
<mgrwt>
<rscale>  0 0.27527724E+03</rscale>
<asrwt>0</asrwt>
<pdfrwt beam="1">  1        1 0.26787044E-01 0.27527724E+03</pdfrwt>
<pdfrwt beam="2">  1       -1 0.16738984E-01 0.27527724E+03</pdfrwt>
<totfact> 0.46857820E+03</totfact>
</mgrwt>
</event>
<event>
 5    1  0.1129390E+001  0.2867246E+03  0.7818608E-02  0.1092072E+00
          2   -1    0    0  501    0  0.00000000000E+00  0.00000000000E+00  0.19533381004E+03  0.19533381004E+03  0.00000000000E+00 0. -1.
         -2   -1    0    0    0  501 -0.00000000000E+00 -0.00000000000E+00 -0.10521859062E+03  0.10521859062E+03  0.00000000000E+00 0. -1.
         35    2    1    2    0    0  0.00000000000E+00  0.00000000000E+00  0.90115219416E+02  0.30055240066E+03  0.28672459394E+03 0.  0.
         25    1    3    3    0    0 -0.53637583719E+02  0.16662587397E+02 -0.12338105237E+02  0.13306712985E+03  0.12000000000E+03 0.  0.
         25    1    3    3    0    0  0.53637583719E+02 -0.16662587397E+02  0.10245332465E+03  0.16748527081E+03  0.12000000000E+03 0.  0.
<mgrwt>
<rscale>  0 0.28672459E+03</rscale>
<asrwt>0</asrwt>
<pdfrwt beam="1">  1        2 0.30051355E-01 0.28672459E+03</pdfrwt>
<pdfrwt beam="2">  1       -2 0.16187475E-01 0.28672459E+03</pdfrwt>
<totfact> 0.52485053E+03</totfact>
</mgrwt>
</event>
<event>
 5    1  0.1129390E+001  0.2767986E+03  0.7818608E-02  0.1097450E+00
         -1   -1    0    0    0  501 -0.00000000000E+00  0.00000000000E+00  0.11069835516E+03  0.11069835516E+03  0.00000000000E+00 0. -1.
          1   -1    0    0  501    0  0.00000000000E+00 -0.00000000000E+00 -0.17303203445E+03  0.17303203445E+03  0.00000000000E+00 0. -1.
         35    2    1    2    0    0  0.00000000000E+00  0.00000000000E+00 -0.62333679289E+02  0.28373038962E+03  0.27679856650E+03 0.  0.
         25    1    3    3    0    0 -0.46848450841E+01 -0.43038288878E+00 -0.10168076244E+03  0.15735663460E+03  0.12000000000E+03 0.  0.
         25    1    3    3    0    0  0.46848450841E+01  0.43038288878E+00  0.39347083154E+02  0.12637375501E+03  0.12000000000E+03 0.  0.
<mgrwt>
<rscale>  0 0.27679857E+03</rscale>
<asrwt>0</asrwt>
<pdfrwt beam="1">  1        1 0.26620313E-01 0.27679857E+03</pdfrwt>
<pdfrwt beam="2">  1       -1 0.17030516E-01 0.27679857E+03</pdfrwt>
<totfact> 0.45950321E+03</totfact>
</mgrwt>
</event>
<event>
 5    1  0.1129390E+001  0.2745804E+03  0.7818608E-02  0.1098686E+00
          2   -1    0    0  501    0  0.00000000000E+00  0.00000000000E+00  0.63900492158E+03  0.63900492158E+03  0.00000000000E+00 0.  1.
         -2   -1    0    0    0  501 -0.00000000000E+00 -0.00000000000E+00 -0.29496800476E+02  0.29496800476E+02  0.00000000000E+00 0.  1.
         35    2    1    2    0    0  0.00000000000E+00  0.00000000000E+00  0.60950812110E+03  0.66850172205E+03  0.27458041208E+03 0.  0.
         25    1    3    3    0    0  0.32521810306E+02 -0.37386299862E+02  0.19605942706E+03  0.23514825643E+03  0.12000000000E+03 0.  0.
         25    1    3    3    0    0 -0.32521810306E+02  0.37386299862E+02  0.41344869404E+03  0.43335346562E+03  0.12000000000E+03 0.  0.
<mgrwt>
<rscale>  0 0.27458041E+03</rscale>
<asrwt>0</asrwt>
<pdfrwt beam="1">  1        2 0.98308439E-01 0.27458041E+03</pdfrwt>
<pdfrwt beam="2">  1       -2 0.45379698E-02 0.27458041E+03</pdfrwt>
<totfact> 0.10581707E+04</totfact>
</mgrwt>
</event>
<event>
 5    1  0.1129390E+001  0.2734832E+03  0.7818608E-02  0.1099302E+00
         -2   -1    0    0    0  501 -0.00000000000E+00  0.00000000000E+00  0.16436992776E+02  0.16436992776E+02  0.00000000000E+00 0.  1.
          2   -1    0    0  501    0  0.00000000000E+00 -0.00000000000E+00 -0.11375723645E+04  0.11375723645E+04  0.00000000000E+00 0.  1.
         35    2    1    2    0    0  0.00000000000E+00  0.00000000000E+00 -0.11211353717E+04  0.11540093573E+04  0.27348322609E+03 0.  0.
         25    1    3    3    0    0 -0.24800440343E+01  0.64795322146E+02 -0.51972520129E+03  0.53732566405E+03  0.12000000000E+03 0.  0.
         25    1    3    3    0    0  0.24800440343E+01 -0.64795322146E+02 -0.60141017043E+03  0.61668369322E+03  0.12000000000E+03 0.  0.
<mgrwt>
<rscale>  0 0.27348323E+03</rscale>
<asrwt>0</asrwt>
<pdfrwt beam="1">  1        2 0.17501109E+00 0.27348323E+03</pdfrwt>
<pdfrwt beam="2">  1       -2 0.25287688E-02 0.27348323E+03</pdfrwt>
<totfact> 0.11840446E+04</totfact>
</mgrwt>
</event>
<event>
 5    1  0.1129390E+001  0.2746031E+03  0.7818608E-02  0.1098674E+00
         -2   -1    0    0    0  501 -0.00000000000E+00  0.00000000000E+00  0.51321543905E+01  0.51321543905E+01  0.00000000000E+00 0. -1.
          2   -1    0    0  501    0  0.00000000000E+00 -0.00000000000E+00 -0.36732553829E+04  0.36732553829E+04  0.00000000000E+00 0. -1.
         35    2    1    2    0    0  0.00000000000E+00  0.00000000000E+00 -0.36681232285E+04  0.36783875373E+04  0.27460308622E+03 0.  0.
         25    1    3    3    0    0 -0.23620134699E+02  0.18913666188E+02 -0.26306113112E+04  0.26335207438E+04  0.12000000000E+03 0.  0.
         25    1    3    3    0    0  0.23620134699E+02 -0.18913666188E+02 -0.10375119173E+04  0.10448667935E+04  0.12000000000E+03 0.  0.
<mgrwt>
<rscale>  0 0.27460309E+03</rscale>
<asrwt>0</asrwt>
<pdfrwt beam="1">  1        2 0.56511666E+00 0.27460309E+03</pdfrwt>
<pdfrwt beam="2">  1       -2 0.78956159E-03 0.27460309E+03</pdfrwt>
<totfact> 0.23246950E+03</totfact>
</mgrwt>
</event>
<event>
 5    1  0.1129390E+001  0.2750356E+03  0.7818608E-02  0.1098432E+00
          2   -1    0    0  501    0  0.00000000000E+00  0.00000000000E+00  0.14780264785E+04  0.14780264785E+04  0.00000000000E+00 0.  1.
         -2   -1    0    0    0  501 -0.00000000000E+00 -0.00000000000E+00 -0.12794860570E+02  0.12794860570E+02  0.00000000000E+00 0.  1.
         35    2    1    2    0    0  0.00000000000E+00  0.00000000000E+00  0.14652316180E+04  0.14908213391E+04  0.27503558105E+03 0.  0.
         25    1    3    3    0    0  0.26961759297E+02  0.15565522580E+02  0.41002191797E+03  0.42835405353E+03  0.12000000000E+03 0.  0.
         25    1    3    3    0    0 -0.26961759297E+02 -0.15565522580E+02  0.10552097000E+04  0.10624672856E+04  0.12000000000E+03 0.  0.
<mgrwt>
<rscale>  0 0.27503558E+03</rscale>
<asrwt>0</asrwt>
<pdfrwt beam="1">  1        2 0.22738855E+00 0.27503558E+03</pdfrwt>
<pdfrwt beam="2">  1       -2 0.19684413E-02 0.27503558E+03</pdfrwt>
<totfact> 0.11094960E+04</totfact>
</mgrwt>
</event>
<event>
 5    1  0.1129390E+001  0.2760656E+03  0.7818608E-02  0.1097857E+00
         -2   -1    0    0    0  501 -0.00000000000E+00  0.00000000000E+00  0.86636531273E+01  0.86636531273E+01  0.00000000000E+00 0. -1.
          2   -1    0    0  501    0  0.00000000000E+00 -0.00000000000E+00 -0.21991942184E+04  0.21991942184E+04  0.00000000000E+00 0. -1.
         35    2    1    2    0    0  0.00000000000E+00  0.00000000000E+00 -0.21905305653E+04  0.22078578716E+04  0.27606561443E+03 0.  0.
         25    1    3    3    0    0 -0.41708148955E+02 -0.19376551709E+01 -0.66386019035E+03  0.67590951801E+03  0.12000000000E+03 0.  0.
         25    1    3    3    0    0  0.41708148955E+02  0.19376551709E+01 -0.15266703750E+04  0.15319483536E+04  0.12000000000E+03 0.  0.
<mgrwt>
<rscale>  0 0.27606561E+03</rscale>
<asrwt>0</asrwt>
<pdfrwt beam="1">  1        2 0.33833771E+00 0.27606561E+03</pdfrwt>
<pdfrwt beam="2">  1       -2 0.13328692E-02 0.27606561E+03</pdfrwt>
<totfact> 0.81742731E+03</totfact>
</mgrwt>
</event>
<event>
 4    1  0.1129390E+001  0.3102417E+03  0.7818608E-02  0.1080230E+00
         -1   -1    0    0    0  501 -0.00000000000E+00  0.00000000000E+00  0.29910041962E+02  0.29910041962E+02  0.00000000000E+00 0.  1.
          1   -1    0    0  501    0  0.00000000000E+00 -0.00000000000E+00 -0.80449476327E+03  0.80449476327E+03  0.00000000000E+00 0.  1.
         25    1    1    2    0    0  0.15083980656E+02 -0.80747046697E+02 -0.53249868664E+03  0.55199860805E+03  0.12000000000E+03 0.  0.
         25    1    1    2    0    0 -0.15083980656E+02  0.80747046697E+02 -0.24208603468E+03  0.28240619718E+03  0.12000000000E+03 0.  0.
<mgrwt>
<rscale>  0 0.31024166E+03</rscale>
<asrwt>0</asrwt>
<pdfrwt beam="1">  1        1 0.12376841E+00 0.31024166E+03</pdfrwt>
<pdfrwt beam="2">  1       -1 0.46015454E-02 0.31024166E+03</pdfrwt>
<totfact> 0.45612284E+03</totfact>
</mgrwt>
</event>
<event>
 5    1  0.1129390E+001  0.2763879E+03  0.7818608E-02  0.1097678E+00
          1   -1    0    0  501    0  0.00000000000E+00  0.00000000000E+00  0.66164244139E+03  0.66164244139E+03  0.00000000000E+00 0.  1.
         -1   -1    0    0    0  501 -0.00000000000E+00 -0.00000000000E+00 -0.28863877820E+02  0.28863877820E+02  0.00000000000E+00 0.  1.
         35    2    1    2    0    0  0.00000000000E+00  0.00000000000E+00  0.63277856357E+03  0.69050631921E+03  0.27638789112E+03 0.  0.
         25    1    3    3    0    0  0.30862101521E+02  0.14171288803E+02  0.46512393257E+03  0.48155328614E+03  0.12000000000E+03 0.  0.
         25    1    3    3    0    0 -0.30862101521E+02 -0.14171288803E+02  0.16765463100E+03  0.20895303308E+03  0.12000000000E+03 0.  0.
<mgrwt>
<rscale>  0 0.27638789E+03</rscale>
<asrwt>0</asrwt>
<pdfrwt beam="1">  1        1 0.10179113E+00 0.27638789E+03</pdfrwt>
<pdfrwt beam="2">  1       -1 0.44405971E-02 0.27638789E+03</pdfrwt>
<totfact> 0.64184729E+03</totfact>
</mgrwt>
</event>
<event>
 5    1  0.1129390E+001  0.2754272E+03  0.7818608E-02  0.1098213E+00
          1   -1    0    0  501    0  0.00000000000E+00  0.00000000000E+00  0.46288277716E+03  0.46288277716E+03  0.00000000000E+00 0. -1.
         -1   -1    0    0    0  501 -0.00000000000E+00 -0.00000000000E+00 -0.40971577958E+02  0.40971577958E+02  0.00000000000E+00 0. -1.
         35    2    1    2    0    0  0.00000000000E+00  0.00000000000E+00  0.42191119920E+03  0.50385435512E+03  0.27542721572E+03 0.  0.
         25    1    3    3    0    0  0.56644042675E+02  0.36299936808E+02  0.19955990166E+03  0.24238479188E+03  0.12000000000E+03 0.  0.
         25    1    3    3    0    0 -0.56644042675E+02 -0.36299936808E+02  0.22235129754E+03  0.26146956324E+03  0.12000000000E+03 0.  0.
<mgrwt>
<rscale>  0 0.27542722E+03</rscale>
<asrwt>0</asrwt>
<pdfrwt beam="1">  1        1 0.71212731E-01 0.27542722E+03</pdfrwt>
<pdfrwt beam="2">  1       -1 0.63033200E-02 0.27542722E+03</pdfrwt>
<totfact> 0.61727153E+03</totfact>
</mgrwt>
</event>
<event>
 5    1  0.1129390E+001  0.2717340E+03  0.7818608E-02  0.1100291E+00
          1   -1    0    0  501    0  0.00000000000E+00  0.00000000000E+00  0.25637538929E+04  0.25637538929E+04  0.00000000000E+00 0. -1.
         -1   -1    0    0    0  501 -0.00000000000E+00 -0.00000000000E+00 -0.72003175303E+01  0.72003175303E+01  0.00000000000E+00 0. -1.
         35    2    1    2    0    0  0.00000000000E+00  0.00000000000E+00  0.25565535753E+04  0.25709542104E+04  0.27173400301E+03 0.  0.
         25    1    3    3    0    0 -0.25398822551E+00  0.27643093492E+02  0.18214271058E+04  0.18255850862E+04  0.12000000000E+03 0.  0.
         25    1    3    3    0    0  0.25398822551E+00 -0.27643093492E+02  0.73512646954E+03  0.74536912422E+03  0.12000000000E+03 0.  0.
<mgrwt>
<rscale>  0 0.27173400E+03</rscale>
<asrwt>0</asrwt>
<pdfrwt beam="1">  1        1 0.39442295E+00 0.27173400E+03</pdfrwt>
<pdfrwt beam="2">  1       -1 0.11077432E-02 0.27173400E+03</pdfrwt>
<totfact> 0.23322319E+03</totfact>
</mgrwt>
</event>
<event>
 5    1  0.1129390E+001  0.2791612E+03  0.7818608E-02  0.1096148E+00
         -1   -1    0    0    0  501 -0.00000000000E+00  0.00000000000E+00  0.12111414477E+03  0.12111414477E+03  0.00000000000E+00 0. -1.
          1   -1    0    0  501    0  0.00000000000E+00 -0.00000000000E+00 -0.16086269034E+03  0.16086269034E+03  0.00000000000E+00 0. -1.
         35    2    1    2    0    0  0.00000000000E+00  0.00000000000E+00 -0.39748545565E+02  0.28197683511E+03  0.27916122343E+03 0.  0.
         25    1    3    3    0    0 -0.80971830352E+01  0.63073804283E+02 -0.52430990561E+02  0.14557773845E+03  0.12000000000E+03 0.  0.
         25    1    3    3    0    0  0.80971830352E+01 -0.63073804283E+02  0.12682444997E+02  0.13639909666E+03  0.12000000000E+03 0.  0.
<mgrwt>
<rscale>  0 0.27916122E+03</rscale>
<asrwt>0</asrwt>
<pdfrwt beam="1">  1        1 0.24748106E-01 0.27916122E+03</pdfrwt>
<pdfrwt beam="2">  1       -1 0.18632945E-01 0.27916122E+03</pdfrwt>
<totfact> 0.43635005E+03</totfact>
</mgrwt>
</event>
<event>
 5    1  0.1129390E+001  0.2768203E+03  0.7818608E-02  0.1097438E+00
          2   -1    0    0  501    0  0.00000000000E+00  0.00000000000E+00  0.16994852716E+04  0.16994852716E+04  0.00000000000E+00 0.  1.
         -2   -1    0    0    0  501 -0.00000000000E+00 -0.00000000000E+00 -0.11272454889E+02  0.11272454889E+02  0.00000000000E+00 0.  1.
         35    2    1    2    0    0  0.00000000000E+00  0.00000000000E+00  0.16882128168E+04  0.17107577265E+04  0.27682031037E+03 0.  0.
         25    1    3    3    0    0  0.57206848836E+01  0.43975497753E+02  0.51762763597E+03  0.53320253203E+03  0.12000000000E+03 0.  0.
         25    1    3    3    0    0 -0.57206848836E+01 -0.43975497753E+02  0.11705851808E+04  0.11775551945E+04  0.12000000000E+03 0.  0.
<mgrwt>
<rscale>  0 0.27682031E+03</rscale>
<asrwt>0</asrwt>
<pdfrwt beam="1">  1        2 0.26145907E+00 0.27682031E+03</pdfrwt>
<pdfrwt beam="2">  1       -2 0.17342252E-02 0.27682031E+03</pdfrwt>
<totfact> 0.10195421E+04</totfact>
</mgrwt>
</event>
<event>
 5    1  0.1129390E+001  0.2756705E+03  0.7818608E-02  0.1098077E+00
         -2   -1    0    0    0  501 -0.00000000000E+00  0.00000000000E+00  0.59771487644E+01  0.59771487644E+01  0.00000000000E+00 0. -1.
          2   -1    0    0  501    0  0.00000000000E+00 -0.00000000000E+00 -0.31785313443E+04  0.31785313443E+04  0.00000000000E+00 0. -1.
         35    2    1    2    0    0  0.00000000000E+00  0.00000000000E+00 -0.31725541956E+04  0.31845084931E+04  0.27567048952E+03 0.  0.
         25    1    3    3    0    0 -0.20458140381E+02 -0.18564750152E+02 -0.23016882808E+04  0.23049798540E+04  0.12000000000E+03 0.  0.
         25    1    3    3    0    0  0.20458140381E+02  0.18564750152E+02 -0.87086591481E+03  0.87952863913E+03  0.12000000000E+03 0.  0.
<mgrwt>
<rscale>  0 0.27567049E+03</rscale>
<asrwt>0</asrwt>
<pdfrwt beam="1">  1        2 0.48900559E+00 0.27567049E+03</pdfrwt>
<pdfrwt beam="2">  1       -2 0.91955991E-03 0.27567049E+03</pdfrwt>
<totfact> 0.39151023E+03</totfact>
</mgrwt>
</event>
<event>
 5    1  0.1129390E+001  0.2753403E+03  0.7818608E-02  0.1098262E+00
         -2   -1    0    0    0  501 -0.00000000000E+00  0.00000000000E+00  0.26041695546E+02  0.26041695546E+02  0.00000000000E+00 0.  1.
          2   -1    0    0  501    0  0.00000000000E+00 -0.00000000000E+00 -0.72779713757E+03  0.72779713757E+03  0.00000000000E+00 0.  1.
         35    2    1    2    0    0  0.00000000000E+00  0.00000000000E+00 -0.70175544202E+03  0.75383883312E+03  0.27534030926E+03 0.  0.
         25    1    3    3    0    0 -0.81718757844E+01  0.18368664392E+02 -0.17452816892E+03  0.21275401085E+03  0.12000000000E+03 0.  0.
         25    1    3    3    0    0  0.81718757844E+01 -0.18368664392E+02 -0.52722727310E+03  0.54108482226E+03  0.12000000000E+03 0.  0.
<mgrwt>
<rscale>  0 0.27534031E+03</rscale>
<asrwt>0</asrwt>
<pdfrwt beam="1">  1        2 0.11196880E+00 0.27534031E+03</pdfrwt>
<pdfrwt beam="2">  1       -2 0.40064143E-02 0.27534031E+03</pdfrwt>
<totfact> 0.10918813E+04</totfact>
</mgrwt>
</event>
<event>
 5    1  0.1129390E+001  0.2778061E+03  0.7818608E-02  0.1096893E+00
          3   -1    0    0  501    0  0.00000000000E+00  0.00000000000E+00  0.18710425210E+03  0.18710425210E+03  0.00000000000E+00 0. -1.
         -3   -1    0    0    0  501 -0.00000000000E+00 -0.00000000000E+00 -0.10311926811E+03  0.10311926811E+03  0.00000000000E+00 0. -1.
         35    2    1    2    0    0  0.00000000000E+00  0.00000000000E+00  0.83984983994E+02  0.29022352021E+03  0.27780607291E+03 0.  0.
         25    1    3    3    0    0  0.49726243628E+02  0.47100444904E+02  0.27111414526E+02  0.14080546869E+03  0.12000000000E+03 0.  0.
         25    1    3    3    0    0 -0.49726243628E+02 -0.47100444904E+02  0.56873569468E+02  0.14941805152E+03  0.12000000000E+03 0.  0.
<mgrwt>
<rscale>  0 0.27780607E+03</rscale>
<asrwt>0</asrwt>
<pdfrwt beam="1">  1        3 0.28785270E-01 0.27780607E+03</pdfrwt>
<pdfrwt beam="2">  1       -3 0.15864503E-01 0.27780607E+03</pdfrwt>
<totfact> 0.99455050E+02</totfact>
</mgrwt>
</event>
<event>
 5    1  0.1129390E+001  0.2723428E+03  0.7818608E-02  0.1099946E+00
         -2   -1    0    0    0  501 -0.00000000000E+00  0.00000000000E+00  0.52480532063E+02  0.52480532063E+02  0.00000000000E+00 0.  1.
          2   -1    0    0  501    0  0.00000000000E+00 -0.00000000000E+00 -0.35332435945E+03  0.35332435945E+03  0.00000000000E+00 0.  1.
         35    2    1    2    0    0  0.00000000000E+00  0.00000000000E+00 -0.30084382739E+03  0.40580489152E+03  0.27234280145E+03 0.  0.
         25    1    3    3    0    0  0.21183126785E+02 -0.13465511400E+02 -0.62110656639E+02  0.13743281459E+03  0.12000000000E+03 0.  0.
         25    1    3    3    0    0 -0.21183126785E+02  0.13465511400E+02 -0.23873317075E+03  0.26837207693E+03  0.12000000000E+03 0.  0.
<mgrwt>
<rscale>  0 0.27234280E+03</rscale>
<asrwt>0</asrwt>
<pdfrwt beam="1">  1        2 0.54357591E-01 0.27234280E+03</pdfrwt>
<pdfrwt beam="2">  1       -2 0.80739284E-02 0.27234280E+03</pdfrwt>
<totfact> 0.84587400E+03</totfact>
</mgrwt>
</event>
<event>
 5    1  0.1129390E+001  0.2756006E+03  0.7818608E-02  0.1098116E+00
          1   -1    0    0  501    0  0.00000000000E+00  0.00000000000E+00  0.30695131207E+02  0.30695131207E+02  0.00000000000E+00 0.  1.
         -1   -1    0    0    0  501 -0.00000000000E+00 -0.00000000000E+00 -0.61862960131E+03  0.61862960131E+03  0.00000000000E+00 0.  1.
         35    2    1    2    0    0  0.00000000000E+00  0.00000000000E+00 -0.58793447010E+03  0.64932473252E+03  0.27560055719E+03 0.  0.
         25    1    3    3    0    0  0.59355784179E+02  0.27105570173E+02 -0.33683774449E+03  0.36347969292E+03  0.12000000000E+03 0.  0.
         25    1    3    3    0    0 -0.59355784179E+02 -0.27105570173E+02 -0.25109672561E+03  0.28584503960E+03  0.12000000000E+03 0.  0.
<mgrwt>
<rscale>  0 0.27560056E+03</rscale>
<asrwt>0</asrwt>
<pdfrwt beam="1">  1        1 0.47223281E-02 0.27560056E+03</pdfrwt>
<pdfrwt beam="2">  1       -1 0.95173780E-01 0.27560056E+03</pdfrwt>
<totfact> 0.20252808E+03</totfact>
</mgrwt>
</event>
<event>
 5    1  0.1129390E+001  0.2735706E+03  0.7818608E-02  0.1099253E+00
         -1   -1    0    0    0  501 -0.00000000000E+00  0.00000000000E+00  0.14179926844E+03  0.14179926844E+03  0.00000000000E+00 0.  1.
          1   -1    0    0  501    0  0.00000000000E+00 -0.00000000000E+00 -0.13194864769E+03  0.13194864769E+03  0.00000000000E+00 0.  1.
         35    2    1    2    0    0  0.00000000000E+00  0.00000000000E+00  0.98506207470E+01  0.27374791614E+03  0.27357062500E+03 0.  0.
         25    1    3    3    0    0  0.20714143195E+02 -0.60910866268E+02 -0.81603337742E+01  0.13640308063E+03  0.12000000000E+03 0.  0.
         25    1    3    3    0    0 -0.20714143195E+02  0.60910866268E+02  0.18010954521E+02  0.13734483551E+03  0.12000000000E+03 0.  0.
<mgrwt>
<rscale>  0 0.27357062E+03</rscale>
<asrwt>0</asrwt>
<pdfrwt beam="1">  1        1 0.20299792E-01 0.27357062E+03</pdfrwt>
<pdfrwt beam="2">  1       -1 0.21815272E-01 0.27357062E+03</pdfrwt>
<totfact> 0.43481868E+03</totfact>
</mgrwt>
</event>
<event>
 5    1  0.1129390E+001  0.2760978E+03  0.7818608E-02  0.1097840E+00
         -2   -1    0    0    0  501 -0.00000000000E+00  0.00000000000E+00  0.63468552168E+02  0.63468552168E+02  0.00000000000E+00 0. -1.
          2   -1    0    0  501    0  0.00000000000E+00 -0.00000000000E+00 -0.30026689311E+03  0.30026689311E+03  0.00000000000E+00 0. -1.
         35    2    1    2    0    0  0.00000000000E+00  0.00000000000E+00 -0.23679834094E+03  0.36373544528E+03  0.27609784476E+03 0.  0.
         25    1    3    3    0    0  0.19573934234E+02 -0.65300803183E+02 -0.12260070665E+03  0.18460299853E+03  0.12000000000E+03 0.  0.
         25    1    3    3    0    0 -0.19573934234E+02  0.65300803183E+02 -0.11419763429E+03  0.17913244674E+03  0.12000000000E+03 0.  0.
<mgrwt>
<rscale>  0 0.27609784E+03</rscale>
<asrwt>0</asrwt>
<pdfrwt beam="1">  1        2 0.46194905E-01 0.27609784E+03</pdfrwt>
<pdfrwt beam="2">  1       -2 0.97643929E-02 0.27609784E+03</pdfrwt>
<totfact> 0.74756995E+03</totfact>
</mgrwt>
</event>
<event>
 5    1  0.1129390E+001  0.2746702E+03  0.7818608E-02  0.1098636E+00
         -1   -1    0    0    0  501 -0.00000000000E+00  0.00000000000E+00  0.46061422770E+03  0.46061422770E+03  0.00000000000E+00 0.  1.
          1   -1    0    0  501    0  0.00000000000E+00 -0.00000000000E+00 -0.40947340663E+02  0.40947340663E+02  0.00000000000E+00 0.  1.
         35    2    1    2    0    0  0.00000000000E+00  0.00000000000E+00  0.41966688704E+03  0.50156156837E+03  0.27467018547E+03 0.  0.
         25    1    3    3    0    0 -0.63994908309E+02 -0.16807329397E+02  0.22647887945E+03  0.26470836301E+03  0.12000000000E+03 0.  0.
         25    1    3    3    0    0  0.63994908309E+02  0.16807329397E+02  0.19318800760E+03  0.23685320536E+03  0.12000000000E+03 0.  0.
<mgrwt>
<rscale>  0 0.27467019E+03</rscale>
<asrwt>0</asrwt>
<pdfrwt beam="1">  1        1 0.62995912E-02 0.27467019E+03</pdfrwt>
<pdfrwt beam="2">  1       -1 0.70863724E-01 0.27467019E+03</pdfrwt>
<totfact> 0.25206229E+03</totfact>
</mgrwt>
</event>
<event>
 5    1  0.1129390E+001  0.2791379E+03  0.7818608E-02  0.1096161E+00
         -2   -1    0    0    0  501 -0.00000000000E+00  0.00000000000E+00  0.17009904577E+03  0.17009904577E+03  0.00000000000E+00 0.  1.
          2   -1    0    0  501    0  0.00000000000E+00 -0.00000000000E+00 -0.11451856467E+03  0.11451856467E+03  0.00000000000E+00 0.  1.
         35    2    1    2    0    0  0.00000000000E+00  0.00000000000E+00  0.55580481104E+02  0.28461761044E+03  0.27913794850E+03 0.  0.
         25    1    3    3    0    0  0.28551094736E+02 -0.49612739387E+02  0.71084455383E+02  0.15076335336E+03  0.12000000000E+03 0.  0.
         25    1    3    3    0    0 -0.28551094736E+02  0.49612739387E+02 -0.15503974279E+02  0.13385425708E+03  0.12000000000E+03 0.  0.
<mgrwt>
<rscale>  0 0.27913795E+03</rscale>
<asrwt>0</asrwt>
<pdfrwt beam="1">  1        2 0.17618241E-01 0.27913795E+03</pdfrwt>
<pdfrwt beam="2">  1       -2 0.26169084E-01 0.27913795E+03</pdfrwt>
<totfact> 0.41958589E+03</totfact>
</mgrwt>
</event>
<event>
 5    1  0.1129390E+001  0.2691837E+03  0.7818608E-02  0.1101748E+00
         -3   -1    0    0    0  501 -0.00000000000E+00  0.00000000000E+00  0.27684065076E+03  0.27684065076E+03  0.00000000000E+00 0. -1.
          3   -1    0    0  501    0  0.00000000000E+00 -0.00000000000E+00 -0.65434643112E+02  0.65434643112E+02  0.00000000000E+00 0. -1.
         35    2    1    2    0    0  0.00000000000E+00  0.00000000000E+00  0.21140600765E+03  0.34227529387E+03  0.26918372300E+03 0.  0.
         25    1    3    3    0    0  0.40106542095E+02  0.13046226380E+02  0.49752335520E+02  0.13657977021E+03  0.12000000000E+03 0.  0.
         25    1    3    3    0    0 -0.40106542095E+02 -0.13046226380E+02  0.16165367213E+03  0.20569552366E+03  0.12000000000E+03 0.  0.
<mgrwt>
<rscale>  0 0.26918372E+03</rscale>
<asrwt>0</asrwt>
<pdfrwt beam="1">  1        3 0.10066868E-01 0.26918372E+03</pdfrwt>
<pdfrwt beam="2">  1       -3 0.42590869E-01 0.26918372E+03</pdfrwt>
<totfact> 0.10170407E+03</totfact>
</mgrwt>
</event>
<event>
 5    1  0.1129390E+001  0.2748749E+03  0.7818608E-02  0.1098522E+00
         -2   -1    0    0    0  501 -0.00000000000E+00  0.00000000000E+00  0.11601305230E+02  0.11601305230E+02  0.00000000000E+00 0.  1.
          2   -1    0    0  501    0  0.00000000000E+00 -0.00000000000E+00 -0.16281835721E+04  0.16281835721E+04  0.00000000000E+00 0.  1.
         35    2    1    2    0    0  0.00000000000E+00  0.00000000000E+00 -0.16165822668E+04  0.16397848773E+04  0.27487491403E+03 0.  0.
         25    1    3    3    0    0 -0.59269209517E+02 -0.43604840176E+01 -0.99285788646E+03  0.10018476110E+04  0.12000000000E+03 0.  0.
         25    1    3    3    0    0  0.59269209517E+02  0.43604840176E+01 -0.62372438037E+03  0.63793726626E+03  0.12000000000E+03 0.  0.
<mgrwt>
<rscale>  0 0.27487491E+03</rscale>
<asrwt>0</asrwt>
<pdfrwt beam="1">  1        2 0.25048966E+00 0.27487491E+03</pdfrwt>
<pdfrwt beam="2">  1       -2 0.17848171E-02 0.27487491E+03</pdfrwt>
<totfact> 0.10657543E+04</totfact>
</mgrwt>
</event>
<event>
 5    1  0.1129390E+001  0.2777969E+03  0.7818608E-02  0.1096898E+00
         -1   -1    0    0    0  501 -0.00000000000E+00  0.00000000000E+00  0.13115826220E+03  0.13115826220E+03  0.00000000000E+00 0.  1.
          1   -1    0    0  501    0  0.00000000000E+00 -0.00000000000E+00 -0.14709537565E+03  0.14709537565E+03  0.00000000000E+00 0.  1.
         35    2    1    2    0    0  0.00000000000E+00  0.00000000000E+00 -0.15937113455E+02  0.27825363785E+03  0.27779685994E+03 0.  0.
         25    1    3    3    0    0 -0.14650305387E+02 -0.13909667317E+02 -0.75046301418E+02  0.14296872962E+03  0.12000000000E+03 0.  0.
         25    1    3    3    0    0  0.14650305387E+02  0.13909667317E+02  0.59109187963E+02  0.13528490823E+03  0.12000000000E+03 0.  0.
<mgrwt>
<rscale>  0 0.27779686E+03</rscale>
<asrwt>0</asrwt>
<pdfrwt beam="1">  1        1 0.22630058E-01 0.27779686E+03</pdfrwt>
<pdfrwt beam="2">  1       -1 0.20178194E-01 0.27779686E+03</pdfrwt>
<totfact> 0.42980806E+03</totfact>
</mgrwt>
</event>
<event>
 5    1  0.1129390E+001  0.2742218E+03  0.7818608E-02  0.1098887E+00
          2   -1    0    0  501    0  0.00000000000E+00  0.00000000000E+00  0.15470628223E+03  0.15470628223E+03  0.00000000000E+00 0. -1.
         -2   -1    0    0    0  501 -0.00000000000E+00 -0.00000000000E+00 -0.12151671544E+03  0.12151671544E+03  0.00000000000E+00 0. -1.
         35    2    1    2    0    0  0.00000000000E+00  0.00000000000E+00  0.33189566783E+02  0.27622299767E+03  0.27422180274E+03 0.  0.
         25    1    3    3    0    0  0.40820230212E+02  0.49557359905E+02  0.33364888655E+02  0.14012651038E+03  0.12000000000E+03 0.  0.
         25    1    3    3    0    0 -0.40820230212E+02 -0.49557359905E+02 -0.17532187195E+00  0.13609648729E+03  0.12000000000E+03 0.  0.
<mgrwt>
<rscale>  0 0.27422180E+03</rscale>
<asrwt>0</asrwt>
<pdfrwt beam="1">  1        2 0.23800966E-01 0.27422180E+03</pdfrwt>
<pdfrwt beam="2">  1       -2 0.18694879E-01 0.27422180E+03</pdfrwt>
<totfact> 0.53297832E+03</totfact>
</mgrwt>
</event>
<event>
 5    1  0.1129390E+001  0.2720222E+03  0.7818608E-02  0.1100128E+00
          2   -1    0    0  501    0  0.00000000000E+00  0.00000000000E+00  0.38443440948E+02  0.38443440948E+02  0.00000000000E+00 0.  1.
         -2   -1    0    0    0  501 -0.00000000000E+00 -0.00000000000E+00 -0.48120092000E+03  0.48120092000E+03  0.00000000000E+00 0.  1.
         35    2    1    2    0    0  0.00000000000E+00  0.00000000000E+00 -0.44275747905E+03  0.51964436095E+03  0.27202219874E+03 0.  0.
         25    1    3    3    0    0 -0.63667771786E+02  0.11392165873E+01 -0.23406983795E+03  0.27063549660E+03  0.12000000000E+03 0.  0.
         25    1    3    3    0    0  0.63667771786E+02 -0.11392165873E+01 -0.20868764110E+03  0.24900886435E+03  0.12000000000E+03 0.  0.
<mgrwt>
<rscale>  0 0.27202220E+03</rscale>
<asrwt>0</asrwt>
<pdfrwt beam="1">  1        2 0.59143760E-02 0.27202220E+03</pdfrwt>
<pdfrwt beam="2">  1       -2 0.74030905E-01 0.27202220E+03</pdfrwt>
<totfact> 0.21212247E+03</totfact>
</mgrwt>
</event>
<event>
 5    1  0.1129390E+001  0.2751887E+03  0.7818608E-02  0.1098346E+00
         -3   -1    0    0    0  501 -0.00000000000E+00  0.00000000000E+00  0.25294259469E+03  0.25294259469E+03  0.00000000000E+00 0. -1.
          3   -1    0    0  501    0  0.00000000000E+00 -0.00000000000E+00 -0.74847810078E+02  0.74847810078E+02  0.00000000000E+00 0. -1.
         35    2    1    2    0    0  0.00000000000E+00  0.00000000000E+00  0.17809478461E+03  0.32779040476E+03  0.27518865738E+03 0.  0.
         25    1    3    3    0    0 -0.51220101478E+02 -0.34201775542E+02  0.12142688303E+03  0.18148759784E+03  0.12000000000E+03 0.  0.
         25    1    3    3    0    0  0.51220101478E+02  0.34201775542E+02  0.56667901575E+02  0.14630280693E+03  0.12000000000E+03 0.  0.
<mgrwt>
<rscale>  0 0.27518866E+03</rscale>
<asrwt>0</asrwt>
<pdfrwt beam="1">  1        3 0.11515048E-01 0.27518866E+03</pdfrwt>
<pdfrwt beam="2">  1       -3 0.38914245E-01 0.27518866E+03</pdfrwt>
<totfact> 0.97030044E+02</totfact>
</mgrwt>
</event>
<event>
 5    1  0.1129390E+001  0.2749128E+03  0.7818608E-02  0.1098500E+00
         -1   -1    0    0    0  501 -0.00000000000E+00  0.00000000000E+00  0.10445009695E+02  0.10445009695E+02  0.00000000000E+00 0.  1.
          1   -1    0    0  501    0  0.00000000000E+00 -0.00000000000E+00 -0.18089275450E+04  0.18089275450E+04  0.00000000000E+00 0.  1.
         35    2    1    2    0    0  0.00000000000E+00  0.00000000000E+00 -0.17984825353E+04  0.18193725547E+04  0.27491282797E+03 0.  0.
         25    1    3    3    0    0 -0.33011165270E+02  0.23954830975E+02 -0.12513470492E+04  0.12577491834E+04  0.12000000000E+03 0.  0.
         25    1    3    3    0    0  0.33011165270E+02 -0.23954830975E+02 -0.54713548611E+03  0.56162337124E+03  0.12000000000E+03 0.  0.
<mgrwt>
<rscale>  0 0.27491283E+03</rscale>
<asrwt>0</asrwt>
<pdfrwt beam="1">  1        1 0.27829626E+00 0.27491283E+03</pdfrwt>
<pdfrwt beam="2">  1       -1 0.16069262E-02 0.27491283E+03</pdfrwt>
<totfact> 0.42386411E+03</totfact>
</mgrwt>
</event>
<event>
 5    1  0.1129390E+001  0.2728714E+03  0.7818608E-02  0.1099647E+00
         -1   -1    0    0    0  501 -0.00000000000E+00  0.00000000000E+00  0.35475914287E+02  0.35475914287E+02  0.00000000000E+00 0. -1.
          1   -1    0    0  501    0  0.00000000000E+00 -0.00000000000E+00 -0.52471377874E+03  0.52471377874E+03  0.00000000000E+00 0. -1.
         35    2    1    2    0    0  0.00000000000E+00  0.00000000000E+00 -0.48923786445E+03  0.56018969302E+03  0.27287140590E+03 0.  0.
         25    1    3    3    0    0  0.94586532658E+01 -0.64195782506E+02 -0.24879425207E+03  0.28374133374E+03  0.12000000000E+03 0.  0.
         25    1    3    3    0    0 -0.94586532658E+01  0.64195782506E+02 -0.24044361238E+03  0.27644835928E+03  0.12000000000E+03 0.  0.
<mgrwt>
<rscale>  0 0.27287141E+03</rscale>
<asrwt>0</asrwt>
<pdfrwt beam="1">  1        1 0.80725191E-01 0.27287141E+03</pdfrwt>
<pdfrwt beam="2">  1       -1 0.54578333E-02 0.27287141E+03</pdfrwt>
<totfact> 0.64931054E+03</totfact>
</mgrwt>
</event>
<event>
 5    1  0.1129390E+001  0.2747364E+03  0.7818608E-02  0.1098599E+00
          1   -1    0    0  501    0  0.00000000000E+00  0.00000000000E+00  0.22014514566E+03  0.22014514566E+03  0.00000000000E+00 0. -1.
         -1   -1    0    0    0  501 -0.00000000000E+00 -0.00000000000E+00 -0.85716261501E+02  0.85716261501E+02  0.00000000000E+00 0. -1.
         35    2    1    2    0    0  0.00000000000E+00  0.00000000000E+00  0.13442888416E+03  0.30586140716E+03  0.27473637454E+03 0.  0.
         25    1    3    3    0    0  0.94243521438E+00  0.62979269782E+02  0.92176547848E+02  0.16390177723E+03  0.12000000000E+03 0.  0.
         25    1    3    3    0    0 -0.94243521438E+00 -0.62979269782E+02  0.42252336314E+02  0.14195962993E+03  0.12000000000E+03 0.  0.
<mgrwt>
<rscale>  0 0.27473637E+03</rscale>
<asrwt>0</asrwt>
<pdfrwt beam="1">  1        1 0.33868484E-01 0.27473637E+03</pdfrwt>
<pdfrwt beam="2">  1       -1 0.13187117E-01 0.27473637E+03</pdfrwt>
<totfact> 0.50868568E+03</totfact>
</mgrwt>
</event>
<event>
 5    1  0.1129390E+001  0.2750359E+03  0.7818608E-02  0.1098432E+00
         -1   -1    0    0    0  501 -0.00000000000E+00  0.00000000000E+00  0.78716526612E+02  0.78716526612E+02  0.00000000000E+00 0. -1.
          1   -1    0    0  501    0  0.00000000000E+00 -0.00000000000E+00 -0.24024423148E+03  0.24024423148E+03  0.00000000000E+00 0. -1.
         35    2    1    2    0    0  0.00000000000E+00  0.00000000000E+00 -0.16152770487E+03  0.31896075809E+03  0.27503593540E+03 0.  0.
         25    1    3    3    0    0  0.31279257252E+02 -0.47493401548E+02 -0.12220895721E+03  0.18046895674E+03  0.12000000000E+03 0.  0.
         25    1    3    3    0    0 -0.31279257252E+02  0.47493401548E+02 -0.39318747664E+02  0.13849180136E+03  0.12000000000E+03 0.  0.
<mgrwt>
<rscale>  0 0.27503594E+03</rscale>
<asrwt>0</asrwt>
<pdfrwt beam="1">  1        1 0.36960651E-01 0.27503594E+03</pdfrwt>
<pdfrwt beam="2">  1       -1 0.12110235E-01 0.27503594E+03</pdfrwt>
<totfact> 0.52092874E+03</totfact>
</mgrwt>
</event>
<event>
 5    1  0.1129390E+001  0.2757315E+03  0.7818608E-02  0.1098043E+00
          2   -1    0    0  501    0  0.00000000000E+00  0.00000000000E+00  0.15113129476E+03  0.15113129476E+03  0.00000000000E+00 0.  1.
         -2   -1    0    0    0  501 -0.00000000000E+00 -0.00000000000E+00 -0.12576462575E+03  0.12576462575E+03  0.00000000000E+00 0.  1.
         35    2    1    2    0    0  0.00000000000E+00  0.00000000000E+00  0.25366669014E+02  0.27689592051E+03  0.27573154136E+03 0.  0.
         25    1    3    3    0    0  0.77868843993E+01  0.67426264998E+02  0.12868353465E+02  0.13846491000E+03  0.12000000000E+03 0.  0.
         25    1    3    3    0    0 -0.77868843993E+01 -0.67426264998E+02  0.12498315549E+02  0.13843101051E+03  0.12000000000E+03 0.  0.
<mgrwt>
<rscale>  0 0.27573154E+03</rscale>
<asrwt>0</asrwt>
<pdfrwt beam="1">  1        2 0.23250968E-01 0.27573154E+03</pdfrwt>
<pdfrwt beam="2">  1       -2 0.19348404E-01 0.27573154E+03</pdfrwt>
<totfact> 0.51623959E+03</totfact>
</mgrwt>
</event>
<event>
 5    1  0.1129390E+001  0.2745885E+03  0.7818608E-02  0.1098682E+00
          1   -1    0    0  501    0  0.00000000000E+00  0.00000000000E+00  0.15668292302E+03  0.15668292302E+03  0.00000000000E+00 0.  1.
         -1   -1    0    0    0  501 -0.00000000000E+00 -0.00000000000E+00 -0.12030485261E+03  0.12030485261E+03  0.00000000000E+00 0.  1.
         35    2    1    2    0    0  0.00000000000E+00  0.00000000000E+00  0.36378070404E+02  0.27698777563E+03  0.27458853553E+03 0.  0.
         25    1    3    3    0    0 -0.56627164967E+02 -0.34225445847E+02  0.96475229835E+01  0.13737209198E+03  0.12000000000E+03 0.  0.
         25    1    3    3    0    0  0.56627164967E+02  0.34225445847E+02  0.26730547421E+02  0.13961568365E+03  0.12000000000E+03 0.  0.
<mgrwt>
<rscale>  0 0.27458854E+03</rscale>
<asrwt>0</asrwt>
<pdfrwt beam="1">  1        1 0.24105065E-01 0.27458854E+03</pdfrwt>
<pdfrwt beam="2">  1       -1 0.18508439E-01 0.27458854E+03</pdfrwt>
<totfact> 0.45591917E+03</totfact>
</mgrwt>
</event>
<event>
 5    1  0.1129390E+001  0.2749735E+03  0.7818608E-02  0.1098466E+00
         -2   -1    0    0    0  501 -0.00000000000E+00  0.00000000000E+00  0.10313582668E+03  0.10313582668E+03  0.00000000000E+00 0. -1.
          2   -1    0    0  501    0  0.00000000000E+00 -0.00000000000E+00 -0.18327877627E+03  0.18327877627E+03  0.00000000000E+00 0. -1.
         35    2    1    2    0    0  0.00000000000E+00  0.00000000000E+00 -0.80142949593E+02  0.28641460296E+03  0.27497351221E+03 0.  0.
         25    1    3    3    0    0  0.22077659607E+02  0.57222288114E+02 -0.68421487426E+02  0.15114004516E+03  0.12000000000E+03 0.  0.
         25    1    3    3    0    0 -0.22077659607E+02 -0.57222288114E+02 -0.11721462167E+02  0.13527455779E+03  0.12000000000E+03 0.  0.
<mgrwt>
<rscale>  0 0.27497351E+03</rscale>
<asrwt>0</asrwt>
<pdfrwt beam="1">  1        2 0.28196735E-01 0.27497351E+03</pdfrwt>
<pdfrwt beam="2">  1       -2 0.15867050E-01 0.27497351E+03</pdfrwt>
<totfact> 0.58122322E+03</totfact>
</mgrwt>
</event>
<event>
 5    1  0.1129390E+001  0.2751280E+03  0.7818608E-02  0.1098380E+00
         -4   -1    0    0    0  501 -0.00000000000E+00  0.00000000000E+00  0.22678058720E+03  0.22678058720E+03  0.00000000000E+00 0.  1.
          4   -1    0    0  501    0  0.00000000000E+00 -0.00000000000E+00 -0.83445623300E+02  0.83445623300E+02  0.00000000000E+00 0.  1.
         35    2    1    2    0    0  0.00000000000E+00  0.00000000000E+00  0.14333496390E+03  0.31022621050E+03  0.27512795170E+03 0.  0.
         25    1    3    3    0    0  0.58975711749E+02  0.31252090199E+02  0.62299837253E+02  0.15078493771E+03  0.12000000000E+03 0.  0.
         25    1    3    3    0    0 -0.58975711749E+02 -0.31252090199E+02  0.81035126644E+02  0.15944127279E+03  0.12000000000E+03 0.  0.
<mgrwt>
<rscale>  0 0.27512795E+03</rscale>
<asrwt>0</asrwt>
<pdfrwt beam="1">  1        4 0.12837788E-01 0.27512795E+03</pdfrwt>
<pdfrwt beam="2">  1       -4 0.34889321E-01 0.27512795E+03</pdfrwt>
<totfact> 0.73763204E+02</totfact>
</mgrwt>
</event>
<event>
 5    1  0.1129390E+001  0.2736901E+03  0.7818608E-02  0.1099186E+00
         -2   -1    0    0    0  501 -0.00000000000E+00  0.00000000000E+00  0.83382275588E+02  0.83382275588E+02  0.00000000000E+00 0.  1.
          2   -1    0    0  501    0  0.00000000000E+00 -0.00000000000E+00 -0.22458691957E+03  0.22458691957E+03  0.00000000000E+00 0.  1.
         35    2    1    2    0    0  0.00000000000E+00  0.00000000000E+00 -0.14120464398E+03  0.30796919515E+03  0.27369010520E+03 0.  0.
         25    1    3    3    0    0  0.28138725667E+02 -0.56609477102E+02 -0.50156608026E+02  0.14461018674E+03  0.12000000000E+03 0.  0.
         25    1    3    3    0    0 -0.28138725667E+02  0.56609477102E+02 -0.91048035951E+02  0.16335900842E+03  0.12000000000E+03 0.  0.
<mgrwt>
<rscale>  0 0.27369011E+03</rscale>
<asrwt>0</asrwt>
<pdfrwt beam="1">  1        2 0.34551833E-01 0.27369011E+03</pdfrwt>
<pdfrwt beam="2">  1       -2 0.12828043E-01 0.27369011E+03</pdfrwt>
<totfact> 0.65980777E+03</totfact>
</mgrwt>
</event>
<event>
 5    1  0.1129390E+001  0.2758743E+03  0.7818608E-02  0.1097964E+00
         -2   -1    0    0    0  501 -0.00000000000E+00  0.00000000000E+00  0.13730625622E+02  0.13730625622E+02  0.00000000000E+00 0. -1.
          2   -1    0    0  501    0  0.00000000000E+00 -0.00000000000E+00 -0.13857096755E+04  0.13857096755E+04  0.00000000000E+00 0. -1.
         35    2    1    2    0    0  0.00000000000E+00  0.00000000000E+00 -0.13719790499E+04  0.13994403011E+04  0.27587432483E+03 0.  0.
         25    1    3    3    0    0 -0.29855430775E+02  0.25108593198E+02 -0.96864993453E+03  0.97683390802E+03  0.12000000000E+03 0.  0.
         25    1    3    3    0    0  0.29855430775E+02 -0.25108593198E+02 -0.40332911532E+03  0.42260639307E+03  0.12000000000E+03 0.  0.
<mgrwt>
<rscale>  0 0.27587432E+03</rscale>
<asrwt>0</asrwt>
<pdfrwt beam="1">  1        2 0.21318615E+00 0.27587432E+03</pdfrwt>
<pdfrwt beam="2">  1       -2 0.21124035E-02 0.27587432E+03</pdfrwt>
<totfact> 0.11218101E+04</totfact>
</mgrwt>
</event>
<event>
 5    1  0.1129390E+001  0.2752662E+03  0.7818608E-02  0.1098303E+00
          2   -1    0    0  501    0  0.00000000000E+00  0.00000000000E+00  0.23055666176E+04  0.23055666176E+04  0.00000000000E+00 0.  1.
         -2   -1    0    0    0  501 -0.00000000000E+00 -0.00000000000E+00 -0.82161473573E+01  0.82161473573E+01  0.00000000000E+00 0.  1.
         35    2    1    2    0    0  0.00000000000E+00  0.00000000000E+00  0.22973504703E+04  0.23137827650E+04  0.27526623529E+03 0.  0.
         25    1    3    3    0    0 -0.26306586187E+01 -0.24652255253E+02  0.62184875490E+03  0.63380638055E+03  0.12000000000E+03 0.  0.
         25    1    3    3    0    0  0.26306586187E+01  0.24652255253E+02  0.16755017154E+04  0.16799763844E+04  0.12000000000E+03 0.  0.
<mgrwt>
<rscale>  0 0.27526624E+03</rscale>
<asrwt>0</asrwt>
<pdfrwt beam="1">  1        2 0.35470204E+00 0.27526624E+03</pdfrwt>
<pdfrwt beam="2">  1       -2 0.12640245E-02 0.27526624E+03</pdfrwt>
<totfact> 0.77486031E+03</totfact>
</mgrwt>
</event>
<event>
 5    1  0.1129390E+001  0.2763786E+03  0.7818608E-02  0.1097683E+00
         -4   -1    0    0    0  501 -0.00000000000E+00  0.00000000000E+00  0.73111974133E+03  0.73111974133E+03  0.00000000000E+00 0. -1.
          4   -1    0    0  501    0  0.00000000000E+00 -0.00000000000E+00 -0.26119233563E+02  0.26119233563E+02  0.00000000000E+00 0. -1.
         35    2    1    2    0    0  0.00000000000E+00  0.00000000000E+00  0.70500050777E+03  0.75723897489E+03  0.27637863366E+03 0.  0.
         25    1    3    3    0    0 -0.50437229714E+00  0.28996883842E+01  0.16491231549E+03  0.20397238633E+03  0.12000000000E+03 0.  0.
         25    1    3    3    0    0  0.50437229714E+00 -0.28996883842E+01  0.54008819228E+03  0.55326658856E+03  0.12000000000E+03 0.  0.
<mgrwt>
<rscale>  0 0.27637863E+03</rscale>
<asrwt>0</asrwt>
<pdfrwt beam="1">  1        4 0.40183442E-02 0.27637863E+03</pdfrwt>
<pdfrwt beam="2">  1       -4 0.11247994E+00 0.27637863E+03</pdfrwt>
<totfact> 0.41098915E+02</totfact>
</mgrwt>
</event>
<event>
 5    1  0.1129390E+001  0.2755228E+03  0.7818608E-02  0.1098160E+00
          1   -1    0    0  501    0  0.00000000000E+00  0.00000000000E+00  0.13426120220E+03  0.13426120220E+03  0.00000000000E+00 0.  1.
         -1   -1    0    0    0  501 -0.00000000000E+00 -0.00000000000E+00 -0.14135284954E+03  0.14135284954E+03  0.00000000000E+00 0.  1.
         35    2    1    2    0    0  0.00000000000E+00  0.00000000000E+00 -0.70916473449E+01  0.27561405174E+03  0.27552280133E+03 0.  0.
         25    1    3    3    0    0 -0.32465950788E+02  0.17037729094E+02  0.53340235719E+02  0.13634332738E+03  0.12000000000E+03 0.  0.
         25    1    3    3    0    0  0.32465950788E+02 -0.17037729094E+02 -0.60431883064E+02  0.13927072436E+03  0.12000000000E+03 0.  0.
<mgrwt>
<rscale>  0 0.27552280E+03</rscale>
<asrwt>0</asrwt>
<pdfrwt beam="1">  1        1 0.20655570E-01 0.27552280E+03</pdfrwt>
<pdfrwt beam="2">  1       -1 0.21746592E-01 0.27552280E+03</pdfrwt>
<totfact> 0.42750253E+03</totfact>
</mgrwt>
</event>
<event>
 5    1  0.1129390E+001  0.2750002E+03  0.7818608E-02  0.1098452E+00
          1   -1    0    0  501    0  0.00000000000E+00  0.00000000000E+00  0.20907900840E+02  0.20907900840E+02  0.00000000000E+00 0. -1.
         -1   -1    0    0    0  501 -0.00000000000E+00 -0.00000000000E+00 -0.90426452933E+03  0.90426452933E+03  0.00000000000E+00 0. -1.
         35    2    1    2    0    0  0.00000000000E+00  0.00000000000E+00 -0.88335662849E+03  0.92517243017E+03  0.27500016809E+03 0.  0.
         25    1    3    3    0    0  0.71707575192E+00 -0.15228022319E+02 -0.66161627129E+03  0.67258345006E+03  0.12000000000E+03 0.  0.
         25    1    3    3    0    0 -0.71707575192E+00  0.15228022319E+02 -0.22174035720E+03  0.25258898011E+03  0.12000000000E+03 0.  0.
<mgrwt>
<rscale>  0 0.27500017E+03</rscale>
<asrwt>0</asrwt>
<pdfrwt beam="1">  1        1 0.32166008E-02 0.27500017E+03</pdfrwt>
<pdfrwt beam="2">  1       -1 0.13911759E+00 0.27500017E+03</pdfrwt>
<totfact> 0.14187149E+03</totfact>
</mgrwt>
</event>
<event>
 5    1  0.1129390E+001  0.2792212E+03  0.7818608E-02  0.1096115E+00
          3   -1    0    0  501    0  0.00000000000E+00  0.00000000000E+00  0.32035380473E+03  0.32035380473E+03  0.00000000000E+00 0. -1.
         -3   -1    0    0    0  501 -0.00000000000E+00 -0.00000000000E+00 -0.60842495412E+02  0.60842495412E+02  0.00000000000E+00 0. -1.
         35    2    1    2    0    0  0.00000000000E+00  0.00000000000E+00  0.25951130932E+03  0.38119630014E+03  0.27922123769E+03 0.  0.
         25    1    3    3    0    0  0.64390090738E+02 -0.54710846113E+01  0.17105436465E+03  0.21871353917E+03  0.12000000000E+03 0.  0.
         25    1    3    3    0    0 -0.64390090738E+02  0.54710846113E+01  0.88456944667E+02  0.16248276097E+03  0.12000000000E+03 0.  0.
<mgrwt>
<rscale>  0 0.27922124E+03</rscale>
<asrwt>0</asrwt>
<pdfrwt beam="1">  1        3 0.49285200E-01 0.27922124E+03</pdfrwt>
<pdfrwt beam="2">  1       -3 0.93603841E-02 0.27922124E+03</pdfrwt>
<totfact> 0.86264886E+02</totfact>
</mgrwt>
</event>
<event>
 5    1  0.1129390E+001  0.2740888E+03  0.7818608E-02  0.1098962E+00
          2   -1    0    0  501    0  0.00000000000E+00  0.00000000000E+00  0.75615674265E+03  0.75615674265E+03  0.00000000000E+00 0. -1.
         -2   -1    0    0    0  501 -0.00000000000E+00 -0.00000000000E+00 -0.24837669285E+02  0.24837669285E+02  0.00000000000E+00 0. -1.
         35    2    1    2    0    0  0.00000000000E+00  0.00000000000E+00  0.73131907337E+03  0.78099441194E+03  0.27408882576E+03 0.  0.
         25    1    3    3    0    0  0.25915120253E+02 -0.53321588911E+02  0.28178845215E+03  0.31196076206E+03  0.12000000000E+03 0.  0.
         25    1    3    3    0    0 -0.25915120253E+02  0.53321588911E+02  0.44953062122E+03  0.46903364988E+03  0.12000000000E+03 0.  0.
<mgrwt>
<rscale>  0 0.27408883E+03</rscale>
<asrwt>0</asrwt>
<pdfrwt beam="1">  1        2 0.11633179E+00 0.27408883E+03</pdfrwt>
<pdfrwt beam="2">  1       -2 0.38211805E-02 0.27408883E+03</pdfrwt>
<totfact> 0.11180382E+04</totfact>
</mgrwt>
</event>
<event>
 5    1  0.1129390E+001  0.2753841E+03  0.7818608E-02  0.1098237E+00
         -1   -1    0    0    0  501 -0.00000000000E+00  0.00000000000E+00  0.41669443845E+02  0.41669443845E+02  0.00000000000E+00 0.  1.
          1   -1    0    0  501    0  0.00000000000E+00 -0.00000000000E+00 -0.45498818526E+03  0.45498818526E+03  0.00000000000E+00 0.  1.
         35    2    1    2    0    0  0.00000000000E+00  0.00000000000E+00 -0.41331874141E+03  0.49665762910E+03  0.27538412907E+03 0.  0.
         25    1    3    3    0    0  0.50122031943E+02 -0.37704125549E+01 -0.28797081961E+03  0.31599624530E+03  0.12000000000E+03 0.  0.
         25    1    3    3    0    0 -0.50122031943E+02  0.37704125549E+01 -0.12534792180E+03  0.18066138380E+03  0.12000000000E+03 0.  0.
<mgrwt>
<rscale>  0 0.27538413E+03</rscale>
<asrwt>0</asrwt>
<pdfrwt beam="1">  1        1 0.69998191E-01 0.27538413E+03</pdfrwt>
<pdfrwt beam="2">  1       -1 0.64106828E-02 0.27538413E+03</pdfrwt>
<totfact> 0.61539555E+03</totfact>
</mgrwt>
</event>
<event>
 5    1  0.1129390E+001  0.2755051E+03  0.7818608E-02  0.1098170E+00
          1   -1    0    0  501    0  0.00000000000E+00  0.00000000000E+00  0.17713312111E+04  0.17713312111E+04  0.00000000000E+00 0. -1.
         -1   -1    0    0    0  501 -0.00000000000E+00 -0.00000000000E+00 -0.10712717261E+02  0.10712717261E+02  0.00000000000E+00 0. -1.
         35    2    1    2    0    0  0.00000000000E+00  0.00000000000E+00  0.17606184939E+04  0.17820439284E+04  0.27550513927E+03 0.  0.
         25    1    3    3    0    0 -0.23270703293E+02 -0.24903843191E+02  0.12582495612E+04  0.12644183190E+04  0.12000000000E+03 0.  0.
         25    1    3    3    0    0  0.23270703293E+02  0.24903843191E+02  0.50236893263E+03  0.51762560940E+03  0.12000000000E+03 0.  0.
<mgrwt>
<rscale>  0 0.27550514E+03</rscale>
<asrwt>0</asrwt>
<pdfrwt beam="1">  1        1 0.27251226E+00 0.27550514E+03</pdfrwt>
<pdfrwt beam="2">  1       -1 0.16481118E-02 0.27550514E+03</pdfrwt>
<totfact> 0.43217416E+03</totfact>
</mgrwt>
</event>
<event>
 5    1  0.1129390E+001  0.2752904E+03  0.7818608E-02  0.1098289E+00
         -3   -1    0    0    0  501 -0.00000000000E+00  0.00000000000E+00  0.87680081478E+03  0.87680081478E+03  0.00000000000E+00 0.  1.
          3   -1    0    0  501    0  0.00000000000E+00 -0.00000000000E+00 -0.21608331484E+02  0.21608331484E+02  0.00000000000E+00 0.  1.
         35    2    1    2    0    0  0.00000000000E+00  0.00000000000E+00  0.85519248330E+03  0.89840914627E+03  0.27529041139E+03 0.  0.
         25    1    3    3    0    0 -0.42717883001E+02  0.52057147225E+02  0.41655879819E+03  0.43869806981E+03  0.12000000000E+03 0.  0.
         25    1    3    3    0    0  0.42717883001E+02 -0.52057147225E+02  0.43863368511E+03  0.45971107646E+03  0.12000000000E+03 0.  0.
<mgrwt>
<rscale>  0 0.27529041E+03</rscale>
<asrwt>0</asrwt>
<pdfrwt beam="1">  1        3 0.33243594E-02 0.27529041E+03</pdfrwt>
<pdfrwt beam="2">  1       -3 0.13489241E+00 0.27529041E+03</pdfrwt>
<totfact> 0.49034894E+02</totfact>
</mgrwt>
</event>
<event>
 5    1  0.1129390E+001  0.2749844E+03  0.7818608E-02  0.1098460E+00
          2   -1    0    0  501    0  0.00000000000E+00  0.00000000000E+00  0.50459941432E+03  0.50459941432E+03  0.00000000000E+00 0. -1.
         -2   -1    0    0    0  501 -0.00000000000E+00 -0.00000000000E+00 -0.37463576808E+02  0.37463576808E+02  0.00000000000E+00 0. -1.
         35    2    1    2    0    0  0.00000000000E+00  0.00000000000E+00  0.46713583752E+03  0.54206299113E+03  0.27498435531E+03 0.  0.
         25    1    3    3    0    0  0.59953979453E+02  0.12462890573E+02  0.28770720982E+03  0.31768733352E+03  0.12000000000E+03 0.  0.
         25    1    3    3    0    0 -0.59953979453E+02 -0.12462890573E+02  0.17942862769E+03  0.22437565761E+03  0.12000000000E+03 0.  0.
<mgrwt>
<rscale>  0 0.27498436E+03</rscale>
<asrwt>0</asrwt>
<pdfrwt beam="1">  1        2 0.77630674E-01 0.27498436E+03</pdfrwt>
<pdfrwt beam="2">  1       -2 0.57636276E-02 0.27498436E+03</pdfrwt>
<totfact> 0.96457132E+03</totfact>
</mgrwt>
</event>
<event>
 5    1  0.1129390E+001  0.2747855E+03  0.7818608E-02  0.1098572E+00
         -1   -1    0    0    0  501 -0.00000000000E+00  0.00000000000E+00  0.13655847677E+02  0.13655847677E+02  0.00000000000E+00 0. -1.
          1   -1    0    0  501    0  0.00000000000E+00 -0.00000000000E+00 -0.13823207459E+04  0.13823207459E+04  0.00000000000E+00 0. -1.
         35    2    1    2    0    0  0.00000000000E+00  0.00000000000E+00 -0.13686648982E+04  0.13959765936E+04  0.27478545484E+03 0.  0.
         25    1    3    3    0    0 -0.42161834800E+02 -0.38586595574E+02 -0.86106470409E+03  0.87126285948E+03  0.12000000000E+03 0.  0.
         25    1    3    3    0    0  0.42161834800E+02  0.38586595574E+02 -0.50760019413E+03  0.52471373410E+03  0.12000000000E+03 0.  0.
<mgrwt>
<rscale>  0 0.27478545E+03</rscale>
<asrwt>0</asrwt>
<pdfrwt beam="1">  1        1 0.21266470E+00 0.27478545E+03</pdfrwt>
<pdfrwt beam="2">  1       -1 0.21008999E-02 0.27478545E+03</pdfrwt>
<totfact> 0.54724175E+03</totfact>
</mgrwt>
</event>
<event>
 5    1  0.1129390E+001  0.2747736E+03  0.7818608E-02  0.1098578E+00
         -2   -1    0    0    0  501 -0.00000000000E+00  0.00000000000E+00  0.12257727812E+02  0.12257727812E+02  0.00000000000E+00 0.  1.
          2   -1    0    0  501    0  0.00000000000E+00 -0.00000000000E+00 -0.15398553113E+04  0.15398553113E+04  0.00000000000E+00 0.  1.
         35    2    1    2    0    0  0.00000000000E+00  0.00000000000E+00 -0.15275975835E+04  0.15521130391E+04  0.27477355969E+03 0.  0.
         25    1    3    3    0    0 -0.14588979853E+01 -0.10353384969E+02 -0.11370323108E+04  0.11433948560E+04  0.12000000000E+03 0.  0.
         25    1    3    3    0    0  0.14588979853E+01  0.10353384969E+02 -0.39056527270E+03  0.40871818311E+03  0.12000000000E+03 0.  0.
<mgrwt>
<rscale>  0 0.27477356E+03</rscale>
<asrwt>0</asrwt>
<pdfrwt beam="1">  1        2 0.23690088E+00 0.27477356E+03</pdfrwt>
<pdfrwt beam="2">  1       -2 0.18858038E-02 0.27477356E+03</pdfrwt>
<totfact> 0.10950468E+04</totfact>
</mgrwt>
</event>
<event>
 5    1  0.1129390E+001  0.2764326E+03  0.7818608E-02  0.1097654E+00
         -2   -1    0    0    0  501 -0.00000000000E+00  0.00000000000E+00  0.12454531770E+02  0.12454531770E+02  0.00000000000E+00 0. -1.
          2   -1    0    0  501    0  0.00000000000E+00 -0.00000000000E+00 -0.15338786831E+04  0.15338786831E+04  0.00000000000E+00 0. -1.
         35    2    1    2    0    0  0.00000000000E+00  0.00000000000E+00 -0.15214241513E+04  0.15463332149E+04  0.27643256530E+03 0.  0.
         25    1    3    3    0    0 -0.53008888997E+02 -0.11960451290E+02 -0.52665301271E+03  0.54287787807E+03  0.12000000000E+03 0.  0.
         25    1    3    3    0    0  0.53008888997E+02  0.11960451290E+02 -0.99477113862E+03  0.10034553368E+04  0.12000000000E+03 0.  0.
<mgrwt>
<rscale>  0 0.27643257E+03</rscale>
<asrwt>0</asrwt>
<pdfrwt beam="1">  1        2 0.23598151E+00 0.27643257E+03</pdfrwt>
<pdfrwt beam="2">  1       -2 0.19160804E-02 0.27643257E+03</pdfrwt>
<totfact> 0.10777179E+04</totfact>
</mgrwt>
</event>
<event>
 5    1  0.1129390E+001  0.2739519E+03  0.7818608E-02  0.1099039E+00
         -1   -1    0    0    0  501 -0.00000000000E+00  0.00000000000E+00  0.20212563919E+03  0.20212563919E+03  0.00000000000E+00 0.  1.
          1   -1    0    0  501    0  0.00000000000E+00 -0.00000000000E+00 -0.92825510840E+02  0.92825510840E+02  0.00000000000E+00 0.  1.
         35    2    1    2    0    0  0.00000000000E+00  0.00000000000E+00  0.10930012835E+03  0.29495115003E+03  0.27395193529E+03 0.  0.
         25    1    3    3    0    0  0.42362699364E+02 -0.44380075649E+02  0.28316571038E+02  0.13771716526E+03  0.12000000000E+03 0.  0.
         25    1    3    3    0    0 -0.42362699364E+02  0.44380075649E+02  0.80983557316E+02  0.15723398477E+03  0.12000000000E+03 0.  0.
<mgrwt>
<rscale>  0 0.27395194E+03</rscale>
<asrwt>0</asrwt>
<pdfrwt beam="1">  1        1 0.14280848E-01 0.27395194E+03</pdfrwt>
<pdfrwt beam="2">  1       -1 0.31096252E-01 0.27395194E+03</pdfrwt>
<totfact> 0.37993296E+03</totfact>
</mgrwt>
</event>
<event>
 5    1  0.1129390E+001  0.2752960E+03  0.7818608E-02  0.1098286E+00
         -2   -1    0    0    0  501 -0.00000000000E+00  0.00000000000E+00  0.31626669457E+02  0.31626669457E+02  0.00000000000E+00 0. -1.
          2   -1    0    0  501    0  0.00000000000E+00 -0.00000000000E+00 -0.59908206012E+03  0.59908206012E+03  0.00000000000E+00 0. -1.
         35    2    1    2    0    0  0.00000000000E+00  0.00000000000E+00 -0.56745539066E+03  0.63070872958E+03  0.27529598830E+03 0.  0.
         25    1    3    3    0    0  0.21375743457E+02  0.48217921806E+02 -0.37998000158E+03  0.40195359433E+03  0.12000000000E+03 0.  0.
         25    1    3    3    0    0 -0.21375743457E+02 -0.48217921806E+02 -0.18747538908E+03  0.22875513525E+03  0.12000000000E+03 0.  0.
<mgrwt>
<rscale>  0 0.27529599E+03</rscale>
<asrwt>0</asrwt>
<pdfrwt beam="1">  1        2 0.92166475E-01 0.27529599E+03</pdfrwt>
<pdfrwt beam="2">  1       -2 0.48656412E-02 0.27529599E+03</pdfrwt>
<totfact> 0.10268915E+04</totfact>
</mgrwt>
</event>
<event>
 5    1  0.1129390E+001  0.2759617E+03  0.7818608E-02  0.1097915E+00
         -2   -1    0    0    0  501 -0.00000000000E+00  0.00000000000E+00  0.35835259822E+02  0.35835259822E+02  0.00000000000E+00 0. -1.
          2   -1    0    0  501    0  0.00000000000E+00 -0.00000000000E+00 -0.53128432374E+03  0.53128432374E+03  0.00000000000E+00 0. -1.
         35    2    1    2    0    0  0.00000000000E+00  0.00000000000E+00 -0.49544906392E+03  0.56711958356E+03  0.27596167691E+03 0.  0.
         25    1    3    3    0    0  0.97712342030E+00  0.57397696361E+02 -0.32304380970E+03  0.34936049190E+03  0.12000000000E+03 0.  0.
         25    1    3    3    0    0 -0.97712342030E+00 -0.57397696361E+02 -0.17240525422E+03  0.21775909166E+03  0.12000000000E+03 0.  0.
<mgrwt>
<rscale>  0 0.27596168E+03</rscale>
<asrwt>0</asrwt>
<pdfrwt beam="1">  1        2 0.81736055E-01 0.27596168E+03</pdfrwt>
<pdfrwt beam="2">  1       -2 0.55131165E-02 0.27596168E+03</pdfrwt>
<totfact> 0.97432393E+03</totfact>
</mgrwt>
</event>
<event>
 5    1  0.1129390E+001  0.2753177E+03  0.7818608E-02  0.1098274E+00
          2   -1    0    0  501    0  0.00000000000E+00  0.00000000000E+00  0.51804894300E+03  0.51804894300E+03  0.00000000000E+00 0. -1.
         -2   -1    0    0    0  501 -0.00000000000E+00 -0.00000000000E+00 -0.36579482622E+02  0.36579482622E+02  0.00000000000E+00 0. -1.
         35    2    1    2    0    0  0.00000000000E+00  0.00000000000E+00  0.48146946038E+03  0.55462842562E+03  0.27531772415E+03 0.  0.
         25    1    3    3    0    0 -0.41886725613E+02 -0.52570896748E+02  0.25208862090E+03  0.28717045419E+03  0.12000000000E+03 0.  0.
         25    1    3    3    0    0  0.41886725613E+02  0.52570896748E+02  0.22938083947E+03  0.26745797144E+03  0.12000000000E+03 0.  0.
<mgrwt>
<rscale>  0 0.27531772E+03</rscale>
<asrwt>0</asrwt>
<pdfrwt beam="1">  1        2 0.79699832E-01 0.27531772E+03</pdfrwt>
<pdfrwt beam="2">  1       -2 0.56276131E-02 0.27531772E+03</pdfrwt>
<totfact> 0.97138008E+03</totfact>
</mgrwt>
</event>
<event>
 5    1  0.1129390E+001  0.2755435E+03  0.7818608E-02  0.1098148E+00
         -2   -1    0    0    0  501 -0.00000000000E+00  0.00000000000E+00  0.16560950237E+02  0.16560950237E+02  0.00000000000E+00 0. -1.
          2   -1    0    0  501    0  0.00000000000E+00 -0.00000000000E+00 -0.11461328040E+04  0.11461328040E+04  0.00000000000E+00 0. -1.
         35    2    1    2    0    0  0.00000000000E+00  0.00000000000E+00 -0.11295718538E+04  0.11626937543E+04  0.27554345089E+03 0.  0.
         25    1    3    3    0    0 -0.29123452586E+02 -0.22857478581E+02 -0.80387261474E+03  0.81362265243E+03  0.12000000000E+03 0.  0.
         25    1    3    3    0    0  0.29123452586E+02  0.22857478581E+02 -0.32569923905E+03  0.34907110183E+03  0.12000000000E+03 0.  0.
<mgrwt>
<rscale>  0 0.27554345E+03</rscale>
<asrwt>0</asrwt>
<pdfrwt beam="1">  1        2 0.17632815E+00 0.27554345E+03</pdfrwt>
<pdfrwt beam="2">  1       -2 0.25478381E-02 0.27554345E+03</pdfrwt>
<totfact> 0.11579191E+04</totfact>
</mgrwt>
</event>
<event>
 5    1  0.1129390E+001  0.2787780E+03  0.7818608E-02  0.1096358E+00
         -2   -1    0    0    0  501 -0.00000000000E+00  0.00000000000E+00  0.27299468328E+02  0.27299468328E+02  0.00000000000E+00 0. -1.
          2   -1    0    0  501    0  0.00000000000E+00 -0.00000000000E+00 -0.71170961831E+03  0.71170961831E+03  0.00000000000E+00 0. -1.
         35    2    1    2    0    0  0.00000000000E+00  0.00000000000E+00 -0.68441014998E+03  0.73900908664E+03  0.27877800619E+03 0.  0.
         25    1    3    3    0    0  0.57520284575E+02  0.30261357225E+02 -0.26699452359E+03  0.29985064366E+03  0.12000000000E+03 0.  0.
         25    1    3    3    0    0 -0.57520284575E+02 -0.30261357225E+02 -0.41741562639E+03  0.43915844297E+03  0.12000000000E+03 0.  0.
<mgrwt>
<rscale>  0 0.27877801E+03</rscale>
<asrwt>0</asrwt>
<pdfrwt beam="1">  1        2 0.10949378E+00 0.27877801E+03</pdfrwt>
<pdfrwt beam="2">  1       -2 0.41999183E-02 0.27877801E+03</pdfrwt>
<totfact> 0.10457036E+04</totfact>
</mgrwt>
</event>
<event>
 5    1  0.1129390E+001  0.2744251E+03  0.7818608E-02  0.1098773E+00
         -2   -1    0    0    0  501 -0.00000000000E+00  0.00000000000E+00  0.14343151790E+02  0.14343151790E+02  0.00000000000E+00 0.  1.
          2   -1    0    0  501    0  0.00000000000E+00 -0.00000000000E+00 -0.13126323494E+04  0.13126323494E+04  0.00000000000E+00 0.  1.
         35    2    1    2    0    0  0.00000000000E+00  0.00000000000E+00 -0.12982891977E+04  0.13269755012E+04  0.27442510842E+03 0.  0.
         25    1    3    3    0    0  0.16464499753E+02  0.31531613900E+02 -0.92104974372E+03  0.92951490189E+03  0.12000000000E+03 0.  0.
         25    1    3    3    0    0 -0.16464499753E+02 -0.31531613900E+02 -0.37723945394E+03  0.39746059935E+03  0.12000000000E+03 0.  0.
<mgrwt>
<rscale>  0 0.27442511E+03</rscale>
<asrwt>0</asrwt>
<pdfrwt beam="1">  1        2 0.20194345E+00 0.27442511E+03</pdfrwt>
<pdfrwt beam="2">  1       -2 0.22066386E-02 0.27442511E+03</pdfrwt>
<totfact> 0.11534108E+04</totfact>
</mgrwt>
</event>
<event>
 5    1  0.1129390E+001  0.2716545E+03  0.7818608E-02  0.1100336E+00
         -2   -1    0    0    0  501 -0.00000000000E+00  0.00000000000E+00  0.82725250769E+01  0.82725250769E+01  0.00000000000E+00 0.  1.
          2   -1    0    0  501    0  0.00000000000E+00 -0.00000000000E+00 -0.22301577266E+04  0.22301577266E+04  0.00000000000E+00 0.  1.
         35    2    1    2    0    0  0.00000000000E+00  0.00000000000E+00 -0.22218852016E+04  0.22384302517E+04  0.27165445492E+03 0.  0.
         25    1    3    3    0    0 -0.16582429922E+02  0.36420896144E+02 -0.15185996177E+04  0.15238590019E+04  0.12000000000E+03 0.  0.
         25    1    3    3    0    0  0.16582429922E+02 -0.36420896144E+02 -0.70328558383E+03  0.71457124983E+03  0.12000000000E+03 0.  0.
<mgrwt>
<rscale>  0 0.27165445E+03</rscale>
<asrwt>0</asrwt>
<pdfrwt beam="1">  1        2 0.34310139E+00 0.27165445E+03</pdfrwt>
<pdfrwt beam="2">  1       -2 0.12726954E-02 0.27165445E+03</pdfrwt>
<totfact> 0.84179239E+03</totfact>
</mgrwt>
</event>
<event>
 5    1  0.1129390E+001  0.2761966E+03  0.7818608E-02  0.1097785E+00
         -2   -1    0    0    0  501 -0.00000000000E+00  0.00000000000E+00  0.51824133527E+03  0.51824133527E+03  0.00000000000E+00 0. -1.
          2   -1    0    0  501    0  0.00000000000E+00 -0.00000000000E+00 -0.36799724536E+02  0.36799724536E+02  0.00000000000E+00 0. -1.
         35    2    1    2    0    0  0.00000000000E+00  0.00000000000E+00  0.48144161073E+03  0.55504105980E+03  0.27619658493E+03 0.  0.
         25    1    3    3    0    0  0.56783037997E+02 -0.35470204013E+02  0.21311624759E+03  0.25357638645E+03  0.12000000000E+03 0.  0.
         25    1    3    3    0    0 -0.56783037997E+02  0.35470204013E+02  0.26832536314E+03  0.30146467336E+03  0.12000000000E+03 0.  0.
<mgrwt>
<rscale>  0 0.27619658E+03</rscale>
<asrwt>0</asrwt>
<pdfrwt beam="1">  1        2 0.56614965E-02 0.27619658E+03</pdfrwt>
<pdfrwt beam="2">  1       -2 0.79729431E-01 0.27619658E+03</pdfrwt>
<totfact> 0.19106532E+03</totfact>
</mgrwt>
</event>
<event>
 5    1  0.1129390E+001  0.2753792E+03  0.7818608E-02  0.1098240E+00
          1   -1    0    0  501    0  0.00000000000E+00  0.00000000000E+00  0.15077248418E+03  0.15077248418E+03  0.00000000000E+00 0.  1.
         -1   -1    0    0    0  501 -0.00000000000E+00 -0.00000000000E+00 -0.12574197931E+03  0.12574197931E+03  0.00000000000E+00 0.  1.
         35    2    1    2    0    0  0.00000000000E+00  0.00000000000E+00  0.25030504876E+02  0.27651446349E+03  0.27537923369E+03 0.  0.
         25    1    3    3    0    0 -0.18554944465E+02 -0.64469832514E+02  0.48822496811E+01  0.13756628086E+03  0.12000000000E+03 0.  0.
         25    1    3    3    0    0  0.18554944465E+02  0.64469832514E+02  0.20148255195E+02  0.13894818263E+03  0.12000000000E+03 0.  0.
<mgrwt>
<rscale>  0 0.27537923E+03</rscale>
<asrwt>0</asrwt>
<pdfrwt beam="1">  1        1 0.23195767E-01 0.27537923E+03</pdfrwt>
<pdfrwt beam="2">  1       -1 0.19344920E-01 0.27537923E+03</pdfrwt>
<totfact> 0.44585424E+03</totfact>
</mgrwt>
</event>
<event>
 5    1  0.1129390E+001  0.2757796E+03  0.7818608E-02  0.1098017E+00
         -2   -1    0    0    0  501 -0.00000000000E+00  0.00000000000E+00  0.26484921416E+02  0.26484921416E+02  0.00000000000E+00 0.  1.
          2   -1    0    0  501    0  0.00000000000E+00 -0.00000000000E+00 -0.71790262429E+03  0.71790262429E+03  0.00000000000E+00 0.  1.
         35    2    1    2    0    0  0.00000000000E+00  0.00000000000E+00 -0.69141770288E+03  0.74438754571E+03  0.27577958292E+03 0.  0.
         25    1    3    3    0    0  0.25766179153E+02 -0.52308531827E+02 -0.43973740578E+03  0.45953135315E+03  0.12000000000E+03 0.  0.
         25    1    3    3    0    0 -0.25766179153E+02  0.52308531827E+02 -0.25168029710E+03  0.28485619255E+03  0.12000000000E+03 0.  0.
<mgrwt>
<rscale>  0 0.27577958E+03</rscale>
<asrwt>0</asrwt>
<pdfrwt beam="1">  1        2 0.11044655E+00 0.27577958E+03</pdfrwt>
<pdfrwt beam="2">  1       -2 0.40746035E-02 0.27577958E+03</pdfrwt>
<totfact> 0.10825845E+04</totfact>
</mgrwt>
</event>
<event>
 5    1  0.1129390E+001  0.2751885E+03  0.7818608E-02  0.1098346E+00
          2   -1    0    0  501    0  0.00000000000E+00  0.00000000000E+00  0.99472862097E+03  0.99472862097E+03  0.00000000000E+00 0. -1.
         -2   -1    0    0    0  501 -0.00000000000E+00 -0.00000000000E+00 -0.19032510985E+02  0.19032510985E+02  0.00000000000E+00 0. -1.
         35    2    1    2    0    0  0.00000000000E+00  0.00000000000E+00  0.97569610999E+03  0.10137611320E+04  0.27518854195E+03 0.  0.
         25    1    3    3    0    0  0.51699873708E+02 -0.26016638565E+02  0.36117185538E+03  0.38496084417E+03  0.12000000000E+03 0.  0.
         25    1    3    3    0    0 -0.51699873708E+02  0.26016638565E+02  0.61452425461E+03  0.62880028779E+03  0.12000000000E+03 0.  0.
<mgrwt>
<rscale>  0 0.27518854E+03</rscale>
<asrwt>0</asrwt>
<pdfrwt beam="1">  1        2 0.15303513E+00 0.27518854E+03</pdfrwt>
<pdfrwt beam="2">  1       -2 0.29280794E-02 0.27518854E+03</pdfrwt>
<totfact> 0.11589765E+04</totfact>
</mgrwt>
</event>
<event>
 5    1  0.1129390E+001  0.2750750E+03  0.7818608E-02  0.1098410E+00
          2   -1    0    0  501    0  0.00000000000E+00  0.00000000000E+00  0.16692858221E+04  0.16692858221E+04  0.00000000000E+00 0. -1.
         -2   -1    0    0    0  501 -0.00000000000E+00 -0.00000000000E+00 -0.11332128454E+02  0.11332128454E+02  0.00000000000E+00 0. -1.
         35    2    1    2    0    0  0.00000000000E+00  0.00000000000E+00  0.16579536937E+04  0.16806179506E+04  0.27507498151E+03 0.  0.
         25    1    3    3    0    0  0.64858827602E+01 -0.55983437583E+02  0.60529696824E+03  0.61964556943E+03  0.12000000000E+03 0.  0.
         25    1    3    3    0    0 -0.64858827602E+01  0.55983437583E+02  0.10526567255E+04  0.10609723812E+04  0.12000000000E+03 0.  0.
<mgrwt>
<rscale>  0 0.27507498E+03</rscale>
<asrwt>0</asrwt>
<pdfrwt beam="1">  1        2 0.25681301E+00 0.27507498E+03</pdfrwt>
<pdfrwt beam="2">  1       -2 0.17434057E-02 0.27507498E+03</pdfrwt>
<totfact> 0.10493372E+04</totfact>
</mgrwt>
</event>
<event>
 5    1  0.1129390E+001  0.2751077E+03  0.7818608E-02  0.1098391E+00
          1   -1    0    0  501    0  0.00000000000E+00  0.00000000000E+00  0.90651606452E+03  0.90651606452E+03  0.00000000000E+00 0.  1.
         -1   -1    0    0    0  501 -0.00000000000E+00 -0.00000000000E+00 -0.20872289028E+02  0.20872289028E+02  0.00000000000E+00 0.  1.
         35    2    1    2    0    0  0.00000000000E+00  0.00000000000E+00  0.88564377549E+03  0.92738835354E+03  0.27510772659E+03 0.  0.
         25    1    3    3    0    0  0.18482920592E+02  0.64271161716E+02  0.46633802497E+03  0.48615178095E+03  0.12000000000E+03 0.  0.
         25    1    3    3    0    0 -0.18482920592E+02 -0.64271161716E+02  0.41930575052E+03  0.44123657260E+03  0.12000000000E+03 0.  0.
<mgrwt>
<rscale>  0 0.27510773E+03</rscale>
<asrwt>0</asrwt>
<pdfrwt beam="1">  1        1 0.13946398E+00 0.27510773E+03</pdfrwt>
<pdfrwt beam="2">  1       -1 0.32111221E-02 0.27510773E+03</pdfrwt>
<totfact> 0.64286841E+03</totfact>
</mgrwt>
</event>
<event>
 5    1  0.1129390E+001  0.2743607E+03  0.7818608E-02  0.1098809E+00
         -1   -1    0    0    0  501 -0.00000000000E+00  0.00000000000E+00  0.10211166874E+02  0.10211166874E+02  0.00000000000E+00 0.  1.
          1   -1    0    0  501    0  0.00000000000E+00 -0.00000000000E+00 -0.18429287155E+04  0.18429287155E+04  0.00000000000E+00 0.  1.
         35    2    1    2    0    0  0.00000000000E+00  0.00000000000E+00 -0.18327175486E+04  0.18531398824E+04  0.27436073080E+03 0.  0.
         25    1    3    3    0    0 -0.59094035428E+02 -0.23220554553E+02 -0.10492596468E+04  0.10580061935E+04  0.12000000000E+03 0.  0.
         25    1    3    3    0    0  0.59094035428E+02  0.23220554553E+02 -0.78345790186E+03  0.79513368886E+03  0.12000000000E+03 0.  0.
<mgrwt>
<rscale>  0 0.27436073E+03</rscale>
<asrwt>0</asrwt>
<pdfrwt beam="1">  1        1 0.28352761E+00 0.27436073E+03</pdfrwt>
<pdfrwt beam="2">  1       -1 0.15709481E-02 0.27436073E+03</pdfrwt>
<totfact> 0.41635099E+03</totfact>
</mgrwt>
</event>
<event>
 5    1  0.1129390E+001  0.2779869E+03  0.7818608E-02  0.1096794E+00
          2   -1    0    0  501    0  0.00000000000E+00  0.00000000000E+00  0.12925570113E+04  0.12925570113E+04  0.00000000000E+00 0. -1.
         -2   -1    0    0    0  501 -0.00000000000E+00 -0.00000000000E+00 -0.14946481183E+02  0.14946481183E+02  0.00000000000E+00 0. -1.
         35    2    1    2    0    0  0.00000000000E+00  0.00000000000E+00  0.12776105301E+04  0.13075034925E+04  0.27798689931E+03 0.  0.
         25    1    3    3    0    0  0.66047218476E+01  0.68791138060E+02  0.58249388124E+03  0.59872778849E+03  0.12000000000E+03 0.  0.
         25    1    3    3    0    0 -0.66047218476E+01 -0.68791138060E+02  0.69511664890E+03  0.70877570402E+03  0.12000000000E+03 0.  0.
<mgrwt>
<rscale>  0 0.27798690E+03</rscale>
<asrwt>0</asrwt>
<pdfrwt beam="1">  1        2 0.19885484E+00 0.27798690E+03</pdfrwt>
<pdfrwt beam="2">  1       -2 0.22994597E-02 0.27798690E+03</pdfrwt>
<totfact> 0.11138517E+04</totfact>
</mgrwt>
</event>
<event>
 5    1  0.1129390E+001  0.2741680E+03  0.7818608E-02  0.1098918E+00
         -1   -1    0    0    0  501 -0.00000000000E+00  0.00000000000E+00  0.14978958241E+02  0.14978958241E+02  0.00000000000E+00 0. -1.
          1   -1    0    0  501    0  0.00000000000E+00 -0.00000000000E+00 -0.12545611455E+04  0.12545611455E+04  0.00000000000E+00 0. -1.
         35    2    1    2    0    0  0.00000000000E+00  0.00000000000E+00 -0.12395821872E+04  0.12695401037E+04  0.27416797048E+03 0.  0.
         25    1    3    3    0    0 -0.45030743441E+01  0.60792293837E+02 -0.49939417532E+03  0.51721419452E+03  0.12000000000E+03 0.  0.
         25    1    3    3    0    0  0.45030743441E+01 -0.60792293837E+02 -0.74018801191E+03  0.75232590920E+03  0.12000000000E+03 0.  0.
<mgrwt>
<rscale>  0 0.27416797E+03</rscale>
<asrwt>0</asrwt>
<pdfrwt beam="1">  1        1 0.19300936E+00 0.27416797E+03</pdfrwt>
<pdfrwt beam="2">  1       -1 0.23044556E-02 0.27416797E+03</pdfrwt>
<totfact> 0.58396845E+03</totfact>
</mgrwt>
</event>
<event>
 5    1  0.1129390E+001  0.2747442E+03  0.7818608E-02  0.1098595E+00
          2   -1    0    0  501    0  0.00000000000E+00  0.00000000000E+00  0.10609288573E+03  0.10609288573E+03  0.00000000000E+00 0. -1.
         -2   -1    0    0    0  501 -0.00000000000E+00 -0.00000000000E+00 -0.17787334976E+03  0.17787334976E+03  0.00000000000E+00 0. -1.
         35    2    1    2    0    0  0.00000000000E+00  0.00000000000E+00 -0.71780464031E+02  0.28396623549E+03  0.27474422266E+03 0.  0.
         25    1    3    3    0    0 -0.14606628593E+02 -0.59331264029E+02 -0.78208892415E+01  0.13488780078E+03  0.12000000000E+03 0.  0.
         25    1    3    3    0    0  0.14606628593E+02  0.59331264029E+02 -0.63959574790E+02  0.14907843472E+03  0.12000000000E+03 0.  0.
<mgrwt>
<rscale>  0 0.27474422E+03</rscale>
<asrwt>0</asrwt>
<pdfrwt beam="1">  1        2 0.16321983E-01 0.27474422E+03</pdfrwt>
<pdfrwt beam="2">  1       -2 0.27365130E-01 0.27474422E+03</pdfrwt>
<totfact> 0.42341882E+03</totfact>
</mgrwt>
</event>
<event>
 5    1  0.1129390E+001  0.2751182E+03  0.7818608E-02  0.1098386E+00
         -1   -1    0    0    0  501 -0.00000000000E+00  0.00000000000E+00  0.13577303339E+02  0.13577303339E+02  0.00000000000E+00 0. -1.
          1   -1    0    0  501    0  0.00000000000E+00 -0.00000000000E+00 -0.13936864507E+04  0.13936864507E+04  0.00000000000E+00 0. -1.
         35    2    1    2    0    0  0.00000000000E+00  0.00000000000E+00 -0.13801091474E+04  0.14072637541E+04  0.27511818334E+03 0.  0.
         25    1    3    3    0    0 -0.18224096938E+02 -0.31204167437E+02 -0.98016312905E+03  0.98814248837E+03  0.12000000000E+03 0.  0.
         25    1    3    3    0    0  0.18224096938E+02  0.31204167437E+02 -0.39994601836E+03  0.41912126571E+03  0.12000000000E+03 0.  0.
<mgrwt>
<rscale>  0 0.27511818E+03</rscale>
<asrwt>0</asrwt>
<pdfrwt beam="1">  1        1 0.21441341E+00 0.27511818E+03</pdfrwt>
<pdfrwt beam="2">  1       -1 0.20888149E-02 0.27511818E+03</pdfrwt>
<totfact> 0.54225390E+03</totfact>
</mgrwt>
</event>
<event>
 5    1  0.1129390E+001  0.2747760E+03  0.7818608E-02  0.1098577E+00
         -1   -1    0    0    0  501 -0.00000000000E+00  0.00000000000E+00  0.35462033045E+02  0.35462033045E+02  0.00000000000E+00 0.  1.
          1   -1    0    0  501    0  0.00000000000E+00 -0.00000000000E+00 -0.53227232449E+03  0.53227232449E+03  0.00000000000E+00 0.  1.
         35    2    1    2    0    0  0.00000000000E+00  0.00000000000E+00 -0.49681029144E+03  0.56773435753E+03  0.27477597246E+03 0.  0.
         25    1    3    3    0    0 -0.51403164750E+02 -0.37883380547E+02 -0.28962632851E+03  0.31993881608E+03  0.12000000000E+03 0.  0.
         25    1    3    3    0    0  0.51403164750E+02  0.37883380547E+02 -0.20718396293E+03  0.24779554145E+03  0.12000000000E+03 0.  0.
<mgrwt>
<rscale>  0 0.27477597E+03</rscale>
<asrwt>0</asrwt>
<pdfrwt beam="1">  1        1 0.81888044E-01 0.27477597E+03</pdfrwt>
<pdfrwt beam="2">  1       -1 0.54556978E-02 0.27477597E+03</pdfrwt>
<totfact> 0.63745596E+03</totfact>
</mgrwt>
</event>
<event>
 5    1  0.1129390E+001  0.2749970E+03  0.7818608E-02  0.1098453E+00
         -1   -1    0    0    0  501 -0.00000000000E+00  0.00000000000E+00  0.17761963410E+03  0.17761963410E+03  0.00000000000E+00 0. -1.
          1   -1    0    0  501    0  0.00000000000E+00 -0.00000000000E+00 -0.10644003413E+03  0.10644003413E+03  0.00000000000E+00 0. -1.
         35    2    1    2    0    0  0.00000000000E+00  0.00000000000E+00  0.71179599970E+02  0.28405966824E+03  0.27499701756E+03 0.  0.
         25    1    3    3    0    0  0.31214031477E+02 -0.44739313853E+02 -0.48133905906E+01  0.13190561282E+03  0.12000000000E+03 0.  0.
         25    1    3    3    0    0 -0.31214031477E+02  0.44739313853E+02  0.75992990561E+02  0.15215405542E+03  0.12000000000E+03 0.  0.
<mgrwt>
<rscale>  0 0.27499702E+03</rscale>
<asrwt>0</asrwt>
<pdfrwt beam="1">  1        1 0.16375390E-01 0.27499702E+03</pdfrwt>
<pdfrwt beam="2">  1       -1 0.27326098E-01 0.27499702E+03</pdfrwt>
<totfact> 0.39536731E+03</totfact>
</mgrwt>
</event>
<event>
 5    1  0.1129390E+001  0.2749925E+03  0.7818608E-02  0.1098456E+00
          2   -1    0    0  501    0  0.00000000000E+00  0.00000000000E+00  0.20405592433E+04  0.20405592433E+04  0.00000000000E+00 0.  1.
         -2   -1    0    0    0  501 -0.00000000000E+00 -0.00000000000E+00 -0.92647264117E+01  0.92647264117E+01  0.00000000000E+00 0.  1.
         35    2    1    2    0    0  0.00000000000E+00  0.00000000000E+00  0.20312945169E+04  0.20498239697E+04  0.27499253165E+03 0.  0.
         25    1    3    3    0    0  0.51590499900E+02  0.34154663051E+02  0.82168248946E+03  0.83270056693E+03  0.12000000000E+03 0.  0.
         25    1    3    3    0    0 -0.51590499900E+02 -0.34154663051E+02  0.12096120274E+04  0.12171234028E+04  0.12000000000E+03 0.  0.
<mgrwt>
<rscale>  0 0.27499253E+03</rscale>
<asrwt>0</asrwt>
<pdfrwt beam="1">  1        2 0.31393183E+00 0.27499253E+03</pdfrwt>
<pdfrwt beam="2">  1       -2 0.14253442E-02 0.27499253E+03</pdfrwt>
<totfact> 0.89918666E+03</totfact>
</mgrwt>
</event>
<event>
 5    1  0.1129390E+001  0.2785399E+03  0.7818608E-02  0.1096489E+00
          2   -1    0    0  501    0  0.00000000000E+00  0.00000000000E+00  0.21942155983E+02  0.21942155983E+02  0.00000000000E+00 0. -1.
         -2   -1    0    0    0  501 -0.00000000000E+00 -0.00000000000E+00 -0.88396568910E+03  0.88396568910E+03  0.00000000000E+00 0. -1.
         35    2    1    2    0    0  0.00000000000E+00  0.00000000000E+00 -0.86202353311E+03  0.90590784508E+03  0.27853985736E+03 0.  0.
         25    1    3    3    0    0  0.43187254286E+02 -0.54717463851E+02 -0.39294775527E+03  0.41673382171E+03  0.12000000000E+03 0.  0.
         25    1    3    3    0    0 -0.43187254286E+02  0.54717463851E+02 -0.46907577784E+03  0.48917402337E+03  0.12000000000E+03 0.  0.
<mgrwt>
<rscale>  0 0.27853986E+03</rscale>
<asrwt>0</asrwt>
<pdfrwt beam="1">  1        2 0.33757162E-02 0.27853986E+03</pdfrwt>
<pdfrwt beam="2">  1       -2 0.13599472E+00 0.27853986E+03</pdfrwt>
<totfact> 0.10872198E+03</totfact>
</mgrwt>
</event>
<event>
 5    1  0.1129390E+001  0.2752040E+03  0.7818608E-02  0.1098338E+00
         -2   -1    0    0    0  501 -0.00000000000E+00  0.00000000000E+00  0.13796589538E+02  0.13796589538E+02  0.00000000000E+00 0. -1.
          2   -1    0    0  501    0  0.00000000000E+00 -0.00000000000E+00 -0.13723901879E+04  0.13723901879E+04  0.00000000000E+00 0. -1.
         35    2    1    2    0    0  0.00000000000E+00  0.00000000000E+00 -0.13585935983E+04  0.13861867774E+04  0.27520395424E+03 0.  0.
         25    1    3    3    0    0  0.28632965539E+02 -0.32158417590E+02 -0.41852641644E+03  0.43751385326E+03  0.12000000000E+03 0.  0.
         25    1    3    3    0    0 -0.28632965539E+02  0.32158417590E+02 -0.94006718189E+03  0.94867292415E+03  0.12000000000E+03 0.  0.
<mgrwt>
<rscale>  0 0.27520395E+03</rscale>
<asrwt>0</asrwt>
<pdfrwt beam="1">  1        2 0.21113692E+00 0.27520395E+03</pdfrwt>
<pdfrwt beam="2">  1       -2 0.21225526E-02 0.27520395E+03</pdfrwt>
<totfact> 0.11326291E+04</totfact>
</mgrwt>
</event>
<event>
 5    1  0.1129390E+001  0.2734875E+03  0.7818608E-02  0.1099300E+00
          3   -1    0    0  501    0  0.00000000000E+00  0.00000000000E+00  0.74683896882E+02  0.74683896882E+02  0.00000000000E+00 0. -1.
         -3   -1    0    0    0  501 -0.00000000000E+00 -0.00000000000E+00 -0.25037325226E+03  0.25037325226E+03  0.00000000000E+00 0. -1.
         35    2    1    2    0    0  0.00000000000E+00  0.00000000000E+00 -0.17568935538E+03  0.32505714914E+03  0.27348747799E+03 0.  0.
         25    1    3    3    0    0 -0.15449115709E+02 -0.20536311030E+02 -0.15953814433E+03  0.20127800362E+03  0.12000000000E+03 0.  0.
         25    1    3    3    0    0  0.15449115709E+02  0.20536311030E+02 -0.16151211049E+02  0.12377914552E+03  0.12000000000E+03 0.  0.
<mgrwt>
<rscale>  0 0.27348748E+03</rscale>
<asrwt>0</asrwt>
<pdfrwt beam="1">  1        3 0.11489830E-01 0.27348748E+03</pdfrwt>
<pdfrwt beam="2">  1       -3 0.38518962E-01 0.27348748E+03</pdfrwt>
<totfact> 0.99268500E+02</totfact>
</mgrwt>
</event>
<event>
 5    1  0.1129390E+001  0.2748982E+03  0.7818608E-02  0.1098509E+00
          4   -1    0    0  501    0  0.00000000000E+00  0.00000000000E+00  0.22288739273E+03  0.22288739273E+03  0.00000000000E+00 0. -1.
         -4   -1    0    0    0  501 -0.00000000000E+00 -0.00000000000E+00 -0.84761447066E+02  0.84761447066E+02  0.00000000000E+00 0. -1.
         35    2    1    2    0    0  0.00000000000E+00  0.00000000000E+00  0.13812594566E+03  0.30764883979E+03  0.27489822073E+03 0.  0.
         25    1    3    3    0    0 -0.57665500277E+02  0.15268889171E+02  0.34864052929E+02  0.13847003678E+03  0.12000000000E+03 0.  0.
         25    1    3    3    0    0  0.57665500277E+02 -0.15268889171E+02  0.10326189273E+03  0.16917880301E+03  0.12000000000E+03 0.  0.
<mgrwt>
<rscale>  0 0.27489822E+03</rscale>
<asrwt>0</asrwt>
<pdfrwt beam="1">  1        4 0.34290368E-01 0.27489822E+03</pdfrwt>
<pdfrwt beam="2">  1       -4 0.13040223E-01 0.27489822E+03</pdfrwt>
<totfact> 0.74235287E+02</totfact>
</mgrwt>
</event>
<event>
 5    1  0.1129390E+001  0.2746821E+03  0.7818608E-02  0.1098629E+00
          2   -1    0    0  501    0  0.00000000000E+00  0.00000000000E+00  0.20858569647E+04  0.20858569647E+04  0.00000000000E+00 0.  1.
         -2   -1    0    0    0  501 -0.00000000000E+00 -0.00000000000E+00 -0.90430796970E+01  0.90430796970E+01  0.00000000000E+00 0.  1.
         35    2    1    2    0    0  0.00000000000E+00  0.00000000000E+00  0.20768138850E+04  0.20949000444E+04  0.27468214917E+03 0.  0.
         25    1    3    3    0    0 -0.59606951276E+02 -0.30130857319E+02  0.10483904507E+04  0.10573473385E+04  0.12000000000E+03 0.  0.
         25    1    3    3    0    0  0.59606951276E+02  0.30130857319E+02  0.10284234343E+04  0.10375527059E+04  0.12000000000E+03 0.  0.
<mgrwt>
<rscale>  0 0.27468215E+03</rscale>
<asrwt>0</asrwt>
<pdfrwt beam="1">  1        2 0.32090069E+00 0.27468215E+03</pdfrwt>
<pdfrwt beam="2">  1       -2 0.13912447E-02 0.27468215E+03</pdfrwt>
<totfact> 0.88169202E+03</totfact>
</mgrwt>
</event>
<event>
 5    1  0.1129390E+001  0.2750548E+03  0.7818608E-02  0.1098421E+00
          1   -1    0    0  501    0  0.00000000000E+00  0.00000000000E+00  0.39940273322E+03  0.39940273322E+03  0.00000000000E+00 0. -1.
         -1   -1    0    0    0  501 -0.00000000000E+00 -0.00000000000E+00 -0.47355162396E+02  0.47355162396E+02  0.00000000000E+00 0. -1.
         35    2    1    2    0    0  0.00000000000E+00  0.00000000000E+00  0.35204757082E+03  0.44675789561E+03  0.27505476759E+03 0.  0.
         25    1    3    3    0    0 -0.79981653588E+01 -0.66630751973E+02  0.17084817353E+03  0.21930053843E+03  0.12000000000E+03 0.  0.
         25    1    3    3    0    0  0.79981653588E+01  0.66630751973E+02  0.18119939729E+03  0.22745735718E+03  0.12000000000E+03 0.  0.
<mgrwt>
<rscale>  0 0.27505477E+03</rscale>
<asrwt>0</asrwt>
<pdfrwt beam="1">  1        1 0.61446572E-01 0.27505477E+03</pdfrwt>
<pdfrwt beam="2">  1       -1 0.72854099E-02 0.27505477E+03</pdfrwt>
<totfact> 0.59991895E+03</totfact>
</mgrwt>
</event>
<event>
 5    1  0.1129390E+001  0.2749576E+03  0.7818608E-02  0.1098475E+00
          2   -1    0    0  501    0  0.00000000000E+00  0.00000000000E+00  0.57915381211E+02  0.57915381211E+02  0.00000000000E+00 0.  1.
         -2   -1    0    0    0  501 -0.00000000000E+00 -0.00000000000E+00 -0.32634549702E+03  0.32634549702E+03  0.00000000000E+00 0.  1.
         35    2    1    2    0    0  0.00000000000E+00  0.00000000000E+00 -0.26843011581E+03  0.38426087823E+03  0.27495762485E+03 0.  0.
         25    1    3    3    0    0 -0.64760361094E+02 -0.35855498385E+01 -0.11026617488E+03  0.17540065524E+03  0.12000000000E+03 0.  0.
         25    1    3    3    0    0  0.64760361094E+02  0.35855498385E+01 -0.15816394093E+03  0.20886022299E+03  0.12000000000E+03 0.  0.
<mgrwt>
<rscale>  0 0.27495762E+03</rscale>
<asrwt>0</asrwt>
<pdfrwt beam="1">  1        2 0.89100584E-02 0.27495762E+03</pdfrwt>
<pdfrwt beam="2">  1       -2 0.50207001E-01 0.27495762E+03</pdfrwt>
<totfact> 0.28133794E+03</totfact>
</mgrwt>
</event>
<event>
 5    1  0.1129390E+001  0.2744594E+03  0.7818608E-02  0.1098754E+00
          2   -1    0    0  501    0  0.00000000000E+00  0.00000000000E+00  0.10963021821E+03  0.10963021821E+03  0.00000000000E+00 0. -1.
         -2   -1    0    0    0  501 -0.00000000000E+00 -0.00000000000E+00 -0.17177735754E+03  0.17177735754E+03  0.00000000000E+00 0. -1.
         35    2    1    2    0    0  0.00000000000E+00  0.00000000000E+00 -0.62147139337E+02  0.28140757575E+03  0.27445939000E+03 0.  0.
         25    1    3    3    0    0 -0.40891109860E+02 -0.51477726988E+02 -0.41824726735E+02  0.14307811506E+03  0.12000000000E+03 0.  0.
         25    1    3    3    0    0  0.40891109860E+02  0.51477726988E+02 -0.20322412603E+02  0.13832946069E+03  0.12000000000E+03 0.  0.
<mgrwt>
<rscale>  0 0.27445939E+03</rscale>
<asrwt>0</asrwt>
<pdfrwt beam="1">  1        2 0.16866187E-01 0.27445939E+03</pdfrwt>
<pdfrwt beam="2">  1       -2 0.26427286E-01 0.27445939E+03</pdfrwt>
<totfact> 0.43360226E+03</totfact>
</mgrwt>
</event>
<event>
 5    1  0.1129390E+001  0.2761482E+03  0.7818608E-02  0.1097811E+00
          2   -1    0    0  501    0  0.00000000000E+00  0.00000000000E+00  0.57768393518E+03  0.57768393518E+03  0.00000000000E+00 0.  1.
         -2   -1    0    0    0  501 -0.00000000000E+00 -0.00000000000E+00 -0.33001544350E+02  0.33001544350E+02  0.00000000000E+00 0.  1.
         35    2    1    2    0    0  0.00000000000E+00  0.00000000000E+00  0.54468239083E+03  0.61068547953E+03  0.27614823560E+03 0.  0.
         25    1    3    3    0    0  0.51323915435E+02 -0.12876027976E+02  0.36783154825E+03  0.39051246367E+03  0.12000000000E+03 0.  0.
         25    1    3    3    0    0 -0.51323915435E+02  0.12876027976E+02  0.17685084258E+03  0.22017301586E+03  0.12000000000E+03 0.  0.
<mgrwt>
<rscale>  0 0.27614824E+03</rscale>
<asrwt>0</asrwt>
<pdfrwt beam="1">  1        2 0.88874444E-01 0.27614824E+03</pdfrwt>
<pdfrwt beam="2">  1       -2 0.50771611E-02 0.27614824E+03</pdfrwt>
<totfact> 0.10040581E+04</totfact>
</mgrwt>
</event>
<event>
 5    1  0.1129390E+001  0.2751430E+03  0.7818608E-02  0.1098372E+00
         -1   -1    0    0    0  501 -0.00000000000E+00  0.00000000000E+00  0.86171383591E+03  0.86171383591E+03  0.00000000000E+00 0. -1.
          1   -1    0    0  501    0  0.00000000000E+00 -0.00000000000E+00 -0.21963117808E+02  0.21963117808E+02  0.00000000000E+00 0. -1.
         35    2    1    2    0    0  0.00000000000E+00  0.00000000000E+00  0.83975071811E+03  0.88367695372E+03  0.27514303549E+03 0.  0.
         25    1    3    3    0    0 -0.36108328555E+02 -0.33209312571E+02  0.27202364176E+03  0.30133624327E+03  0.12000000000E+03 0.  0.
         25    1    3    3    0    0  0.36108328555E+02  0.33209312571E+02  0.56772707635E+03  0.58234071045E+03  0.12000000000E+03 0.  0.
<mgrwt>
<rscale>  0 0.27514304E+03</rscale>
<asrwt>0</asrwt>
<pdfrwt beam="1">  1        1 0.33789419E-02 0.27514304E+03</pdfrwt>
<pdfrwt beam="2">  1       -1 0.13257133E+00 0.27514304E+03</pdfrwt>
<totfact> 0.14941222E+03</totfact>
</mgrwt>
</event>
<event>
 5    1  0.1129390E+001  0.2735747E+03  0.7818608E-02  0.1099251E+00
         -1   -1    0    0    0  501 -0.00000000000E+00  0.00000000000E+00  0.46361132287E+02  0.46361132287E+02  0.00000000000E+00 0. -1.
          1   -1    0    0  501    0  0.00000000000E+00 -0.00000000000E+00 -0.40358765624E+03  0.40358765624E+03  0.00000000000E+00 0. -1.
         35    2    1    2    0    0  0.00000000000E+00  0.00000000000E+00 -0.35722652395E+03  0.44994878853E+03  0.27357471170E+03 0.  0.
         25    1    3    3    0    0  0.20408037839E+02  0.60454752864E+02 -0.15315938093E+03  0.20476586903E+03  0.12000000000E+03 0.  0.
         25    1    3    3    0    0 -0.20408037839E+02 -0.60454752864E+02 -0.20406714302E+03  0.24518291950E+03  0.12000000000E+03 0.  0.
<mgrwt>
<rscale>  0 0.27357471E+03</rscale>
<asrwt>0</asrwt>
<pdfrwt beam="1">  1        1 0.62090411E-01 0.27357471E+03</pdfrwt>
<pdfrwt beam="2">  1       -1 0.71324816E-02 0.27357471E+03</pdfrwt>
<totfact> 0.61124162E+03</totfact>
</mgrwt>
</event>
<event>
 5    1  0.1129390E+001  0.2742195E+03  0.7818608E-02  0.1098889E+00
          1   -1    0    0  501    0  0.00000000000E+00  0.00000000000E+00  0.14800659652E+04  0.14800659652E+04  0.00000000000E+00 0. -1.
         -1   -1    0    0    0  501 -0.00000000000E+00 -0.00000000000E+00 -0.12701521850E+02  0.12701521850E+02  0.00000000000E+00 0. -1.
         35    2    1    2    0    0  0.00000000000E+00  0.00000000000E+00  0.14673644433E+04  0.14927674870E+04  0.27421954851E+03 0.  0.
         25    1    3    3    0    0 -0.50867080378E+02 -0.24680194366E+02  0.54490933822E+03  0.56082328655E+03  0.12000000000E+03 0.  0.
         25    1    3    3    0    0  0.50867080378E+02  0.24680194366E+02  0.92245510512E+03  0.93194420048E+03  0.12000000000E+03 0.  0.
<mgrwt>
<rscale>  0 0.27421955E+03</rscale>
<asrwt>0</asrwt>
<pdfrwt beam="1">  1        1 0.22770232E+00 0.27421955E+03</pdfrwt>
<pdfrwt beam="2">  1       -1 0.19540815E-02 0.27421955E+03</pdfrwt>
<totfact> 0.52338258E+03</totfact>
</mgrwt>
</event>
<event>
 5    1  0.1129390E+001  0.2746057E+03  0.7818608E-02  0.1098672E+00
         -1   -1    0    0    0  501 -0.00000000000E+00  0.00000000000E+00  0.28053250425E+02  0.28053250425E+02  0.00000000000E+00 0. -1.
          1   -1    0    0  501    0  0.00000000000E+00 -0.00000000000E+00 -0.67201024067E+03  0.67201024067E+03  0.00000000000E+00 0. -1.
         35    2    1    2    0    0  0.00000000000E+00  0.00000000000E+00 -0.64395699025E+03  0.70006349110E+03  0.27460569236E+03 0.  0.
         25    1    3    3    0    0  0.21461372095E+02  0.57382927617E+02 -0.38936412090E+03  0.41201675878E+03  0.12000000000E+03 0.  0.
         25    1    3    3    0    0 -0.21461372095E+02 -0.57382927617E+02 -0.25459286935E+03  0.28804673231E+03  0.12000000000E+03 0.  0.
<mgrwt>
<rscale>  0 0.27460569E+03</rscale>
<asrwt>0</asrwt>
<pdfrwt beam="1">  1        1 0.10338618E+00 0.27460569E+03</pdfrwt>
<pdfrwt beam="2">  1       -1 0.43158852E-02 0.27460569E+03</pdfrwt>
<totfact> 0.65480806E+03</totfact>
</mgrwt>
</event>
<event>
 5    1  0.1129390E+001  0.2750685E+03  0.7818608E-02  0.1098413E+00
         -1   -1    0    0    0  501 -0.00000000000E+00  0.00000000000E+00  0.13888722555E+03  0.13888722555E+03  0.00000000000E+00 0. -1.
          1   -1    0    0  501    0  0.00000000000E+00 -0.00000000000E+00 -0.13619448536E+03  0.13619448536E+03  0.00000000000E+00 0. -1.
         35    2    1    2    0    0  0.00000000000E+00  0.00000000000E+00  0.26927401935E+01  0.27508171091E+03  0.27506853114E+03 0.  0.
         25    1    3    3    0    0 -0.49611328040E+02 -0.45221161272E+02  0.44184726014E+01  0.13757092788E+03  0.12000000000E+03 0.  0.
         25    1    3    3    0    0  0.49611328040E+02  0.45221161272E+02 -0.17257324079E+01  0.13751078303E+03  0.12000000000E+03 0.  0.
<mgrwt>
<rscale>  0 0.27506853E+03</rscale>
<asrwt>0</asrwt>
<pdfrwt beam="1">  1        1 0.20952998E-01 0.27506853E+03</pdfrwt>
<pdfrwt beam="2">  1       -1 0.21367265E-01 0.27506853E+03</pdfrwt>
<totfact> 0.43196587E+03</totfact>
</mgrwt>
</event>
<event>
 5    1  0.1129390E+001  0.2748224E+03  0.7818608E-02  0.1098551E+00
         -1   -1    0    0    0  501 -0.00000000000E+00  0.00000000000E+00  0.81909734085E+02  0.81909734085E+02  0.00000000000E+00 0. -1.
          1   -1    0    0  501    0  0.00000000000E+00 -0.00000000000E+00 -0.23052009101E+03  0.23052009101E+03  0.00000000000E+00 0. -1.
         35    2    1    2    0    0  0.00000000000E+00  0.00000000000E+00 -0.14861035692E+03  0.31242982509E+03  0.27482241070E+03 0.  0.
         25    1    3    3    0    0  0.14636481208E+02 -0.58872229850E+02 -0.10649355386E+03  0.17152563378E+03  0.12000000000E+03 0.  0.
         25    1    3    3    0    0 -0.14636481208E+02  0.58872229850E+02 -0.42116803062E+02  0.14090419131E+03  0.12000000000E+03 0.  0.
<mgrwt>
<rscale>  0 0.27482241E+03</rscale>
<asrwt>0</asrwt>
<pdfrwt beam="1">  1        1 0.35464629E-01 0.27482241E+03</pdfrwt>
<pdfrwt beam="2">  1       -1 0.12601498E-01 0.27482241E+03</pdfrwt>
<totfact> 0.51556099E+03</totfact>
</mgrwt>
</event>
<event>
 5    1  0.1129390E+001  0.2751807E+03  0.7818608E-02  0.1098351E+00
          1   -1    0    0  501    0  0.00000000000E+00  0.00000000000E+00  0.45943981205E+03  0.45943981205E+03  0.00000000000E+00 0. -1.
         -1   -1    0    0    0  501 -0.00000000000E+00 -0.00000000000E+00 -0.41204749454E+02  0.41204749454E+02  0.00000000000E+00 0. -1.
         35    2    1    2    0    0  0.00000000000E+00  0.00000000000E+00  0.41823506260E+03  0.50064456151E+03  0.27518068497E+03 0.  0.
         25    1    3    3    0    0  0.51459804061E+02  0.43290639434E+02  0.20368645755E+03  0.24578519867E+03  0.12000000000E+03 0.  0.
         25    1    3    3    0    0 -0.51459804061E+02 -0.43290639434E+02  0.21454860505E+03  0.25485936284E+03  0.12000000000E+03 0.  0.
<mgrwt>
<rscale>  0 0.27518068E+03</rscale>
<asrwt>0</asrwt>
<pdfrwt beam="1">  1        1 0.70683044E-01 0.27518068E+03</pdfrwt>
<pdfrwt beam="2">  1       -1 0.63391925E-02 0.27518068E+03</pdfrwt>
<totfact> 0.61799161E+03</totfact>
</mgrwt>
</event>
<event>
 5    1  0.1129390E+001  0.2736437E+03  0.7818608E-02  0.1099212E+00
          1   -1    0    0  501    0  0.00000000000E+00  0.00000000000E+00  0.12971325386E+04  0.12971325386E+04  0.00000000000E+00 0.  1.
         -1   -1    0    0    0  501 -0.00000000000E+00 -0.00000000000E+00 -0.14432001275E+02  0.14432001275E+02  0.00000000000E+00 0.  1.
         35    2    1    2    0    0  0.00000000000E+00  0.00000000000E+00  0.12827005373E+04  0.13115645398E+04  0.27364369863E+03 0.  0.
         25    1    3    3    0    0 -0.76218142494E+01 -0.65281108225E+02  0.63794994248E+03  0.65245677577E+03  0.12000000000E+03 0.  0.
         25    1    3    3    0    0  0.76218142494E+01  0.65281108225E+02  0.64475059480E+03  0.65910776405E+03  0.12000000000E+03 0.  0.
<mgrwt>
<rscale>  0 0.27364370E+03</rscale>
<asrwt>0</asrwt>
<pdfrwt beam="1">  1        1 0.19955876E+00 0.27364370E+03</pdfrwt>
<pdfrwt beam="2">  1       -1 0.22203089E-02 0.27364370E+03</pdfrwt>
<totfact> 0.57650876E+03</totfact>
</mgrwt>
</event>
<event>
 5    1  0.1129390E+001  0.2755303E+03  0.7818608E-02  0.1098156E+00
          2   -1    0    0  501    0  0.00000000000E+00  0.00000000000E+00  0.27808500116E+04  0.27808500116E+04  0.00000000000E+00 0.  1.
         -2   -1    0    0    0  501 -0.00000000000E+00 -0.00000000000E+00 -0.68249783585E+01  0.68249783585E+01  0.00000000000E+00 0.  1.
         35    2    1    2    0    0  0.00000000000E+00  0.00000000000E+00  0.27740250332E+04  0.27876749899E+04  0.27553033334E+03 0.  0.
         25    1    3    3    0    0 -0.54269933947E+01  0.66162895901E+02  0.15198024226E+04  0.15259771901E+04  0.12000000000E+03 0.  0.
         25    1    3    3    0    0  0.54269933947E+01 -0.66162895901E+02  0.12542226106E+04  0.12616977998E+04  0.12000000000E+03 0.  0.
<mgrwt>
<rscale>  0 0.27553033E+03</rscale>
<asrwt>0</asrwt>
<pdfrwt beam="1">  1        2 0.42782217E+00 0.27553033E+03</pdfrwt>
<pdfrwt beam="2">  1       -2 0.10499989E-02 0.27553033E+03</pdfrwt>
<totfact> 0.55490232E+03</totfact>
</mgrwt>
</event>
<event>
 5    1  0.1129390E+001  0.2736741E+03  0.7818608E-02  0.1099195E+00
         -1   -1    0    0    0  501 -0.00000000000E+00  0.00000000000E+00  0.25722170159E+02  0.25722170159E+02  0.00000000000E+00 0. -1.
          1   -1    0    0  501    0  0.00000000000E+00 -0.00000000000E+00 -0.72794710123E+03  0.72794710123E+03  0.00000000000E+00 0. -1.
         35    2    1    2    0    0  0.00000000000E+00  0.00000000000E+00 -0.70222493108E+03  0.75366927139E+03  0.27367410696E+03 0.  0.
         25    1    3    3    0    0  0.27631791101E+02 -0.55336382549E+02 -0.41261425080E+03  0.43413840084E+03  0.12000000000E+03 0.  0.
         25    1    3    3    0    0 -0.27631791101E+02  0.55336382549E+02 -0.28961068027E+03  0.31953087056E+03  0.12000000000E+03 0.  0.
<mgrwt>
<rscale>  0 0.27367411E+03</rscale>
<asrwt>0</asrwt>
<pdfrwt beam="1">  1        1 0.11199185E+00 0.27367411E+03</pdfrwt>
<pdfrwt beam="2">  1       -1 0.39572574E-02 0.27367411E+03</pdfrwt>
<totfact> 0.66295718E+03</totfact>
</mgrwt>
</event>
<event>
 5    1  0.1129390E+001  0.2747392E+03  0.7818608E-02  0.1098597E+00
         -2   -1    0    0    0  501 -0.00000000000E+00  0.00000000000E+00  0.13448143705E+02  0.13448143705E+02  0.00000000000E+00 0.  1.
          2   -1    0    0  501    0  0.00000000000E+00 -0.00000000000E+00 -0.14031982676E+04  0.14031982676E+04  0.00000000000E+00 0.  1.
         35    2    1    2    0    0  0.00000000000E+00  0.00000000000E+00 -0.13897501239E+04  0.14166464113E+04  0.27473923599E+03 0.  0.
         25    1    3    3    0    0 -0.34047019674E+02  0.32864402666E+02 -0.45131586957E+03  0.46938820036E+03  0.12000000000E+03 0.  0.
         25    1    3    3    0    0  0.34047019674E+02 -0.32864402666E+02 -0.93843425430E+03  0.94725821092E+03  0.12000000000E+03 0.  0.
<mgrwt>
<rscale>  0 0.27473924E+03</rscale>
<asrwt>0</asrwt>
<pdfrwt beam="1">  1        2 0.21587669E+00 0.27473924E+03</pdfrwt>
<pdfrwt beam="2">  1       -2 0.20689448E-02 0.27473924E+03</pdfrwt>
<totfact> 0.11315389E+04</totfact>
</mgrwt>
</event>
<event>
 5    1  0.1129390E+001  0.2715982E+03  0.7818608E-02  0.1100368E+00
          1   -1    0    0  501    0  0.00000000000E+00  0.00000000000E+00  0.39872109929E+03  0.39872109929E+03  0.00000000000E+00 0. -1.
         -1   -1    0    0    0  501 -0.00000000000E+00 -0.00000000000E+00 -0.46251352080E+02  0.46251352080E+02  0.00000000000E+00 0. -1.
         35    2    1    2    0    0  0.00000000000E+00  0.00000000000E+00  0.35246974721E+03  0.44497245137E+03  0.27159815864E+03 0.  0.
         25    1    3    3    0    0  0.92495189234E+01  0.52016648084E+02  0.11830807982E+03  0.17660149215E+03  0.12000000000E+03 0.  0.
         25    1    3    3    0    0 -0.92495189234E+01 -0.52016648084E+02  0.23416166739E+03  0.26837095922E+03  0.12000000000E+03 0.  0.
<mgrwt>
<rscale>  0 0.27159816E+03</rscale>
<asrwt>0</asrwt>
<pdfrwt beam="1">  1        1 0.61341705E-01 0.27159816E+03</pdfrwt>
<pdfrwt beam="2">  1       -1 0.71155929E-02 0.27159816E+03</pdfrwt>
<totfact> 0.62292226E+03</totfact>
</mgrwt>
</event>
<event>
 5    1  0.1129390E+001  0.2747688E+03  0.7818608E-02  0.1098581E+00
         -1   -1    0    0    0  501 -0.00000000000E+00  0.00000000000E+00  0.84880518702E+03  0.84880518702E+03  0.00000000000E+00 0.  1.
          1   -1    0    0  501    0  0.00000000000E+00 -0.00000000000E+00 -0.22236512951E+02  0.22236512951E+02  0.00000000000E+00 0.  1.
         35    2    1    2    0    0  0.00000000000E+00  0.00000000000E+00  0.82656867407E+03  0.87104169997E+03  0.27476875757E+03 0.  0.
         25    1    3    3    0    0  0.50160608663E+02  0.43986173405E+02  0.42868373961E+03  0.45013400084E+03  0.12000000000E+03 0.  0.
         25    1    3    3    0    0 -0.50160608663E+02 -0.43986173405E+02  0.39788493446E+03  0.42090769913E+03  0.12000000000E+03 0.  0.
<mgrwt>
<rscale>  0 0.27476876E+03</rscale>
<asrwt>0</asrwt>
<pdfrwt beam="1">  1        1 0.34210026E-02 0.27476876E+03</pdfrwt>
<pdfrwt beam="2">  1       -1 0.13058539E+00 0.27476876E+03</pdfrwt>
<totfact> 0.15242252E+03</totfact>
</mgrwt>
</event>
<event>
 5    1  0.1129390E+001  0.2741387E+03  0.7818608E-02  0.1098934E+00
         -2   -1    0    0    0  501 -0.00000000000E+00  0.00000000000E+00  0.22495136979E+02  0.22495136979E+02  0.00000000000E+00 0. -1.
          2   -1    0    0  501    0  0.00000000000E+00 -0.00000000000E+00 -0.83520332560E+03  0.83520332560E+03  0.00000000000E+00 0. -1.
         35    2    1    2    0    0  0.00000000000E+00  0.00000000000E+00 -0.81270818863E+03  0.85769846258E+03  0.27413874746E+03 0.  0.
         25    1    3    3    0    0 -0.46634592678E+02 -0.81197406787E+01 -0.26137334294E+03  0.29147339471E+03  0.12000000000E+03 0.  0.
         25    1    3    3    0    0  0.46634592678E+02  0.81197406787E+01 -0.55133484568E+03  0.56622506787E+03  0.12000000000E+03 0.  0.
<mgrwt>
<rscale>  0 0.27413875E+03</rscale>
<asrwt>0</asrwt>
<pdfrwt beam="1">  1        2 0.12849283E+00 0.27413875E+03</pdfrwt>
<pdfrwt beam="2">  1       -2 0.34607900E-02 0.27413875E+03</pdfrwt>
<totfact> 0.11431263E+04</totfact>
</mgrwt>
</event>
<event>
 5    1  0.1129390E+001  0.2749350E+03  0.7818608E-02  0.1098488E+00
          1   -1    0    0  501    0  0.00000000000E+00  0.00000000000E+00  0.10034986317E+04  0.10034986317E+04  0.00000000000E+00 0.  1.
         -1   -1    0    0    0  501 -0.00000000000E+00 -0.00000000000E+00 -0.18831431473E+02  0.18831431473E+02  0.00000000000E+00 0.  1.
         35    2    1    2    0    0  0.00000000000E+00  0.00000000000E+00  0.98466720025E+03  0.10223300632E+04  0.27493501572E+03 0.  0.
         25    1    3    3    0    0 -0.12961580981E+02 -0.30716025884E+01  0.24793605592E+03  0.27577114633E+03  0.12000000000E+03 0.  0.
         25    1    3    3    0    0  0.12961580981E+02  0.30716025884E+01  0.73673114433E+03  0.74655891686E+03  0.12000000000E+03 0.  0.
<mgrwt>
<rscale>  0 0.27493502E+03</rscale>
<asrwt>0</asrwt>
<pdfrwt beam="1">  1        1 0.15438436E+00 0.27493502E+03</pdfrwt>
<pdfrwt beam="2">  1       -1 0.28971441E-02 0.27493502E+03</pdfrwt>
<totfact> 0.63088786E+03</totfact>
</mgrwt>
</event>
<event>
 5    1  0.1129390E+001  0.2820622E+03  0.7818608E-02  0.1094568E+00
         -2   -1    0    0    0  501 -0.00000000000E+00  0.00000000000E+00  0.14928126832E+03  0.14928126832E+03  0.00000000000E+00 0. -1.
          2   -1    0    0  501    0  0.00000000000E+00 -0.00000000000E+00 -0.13323690271E+03  0.13323690271E+03  0.00000000000E+00 0. -1.
         35    2    1    2    0    0  0.00000000000E+00  0.00000000000E+00  0.16044365614E+02  0.28251817103E+03  0.28206221884E+03 0.  0.
         25    1    3    3    0    0  0.58599273851E+02 -0.11007104009E+01 -0.37379750164E+02  0.13868068424E+03  0.12000000000E+03 0.  0.
         25    1    3    3    0    0 -0.58599273851E+02  0.11007104009E+01  0.53424115778E+02  0.14383748679E+03  0.12000000000E+03 0.  0.
<mgrwt>
<rscale>  0 0.28206222E+03</rscale>
<asrwt>0</asrwt>
<pdfrwt beam="1">  1        2 0.20497985E-01 0.28206222E+03</pdfrwt>
<pdfrwt beam="2">  1       -2 0.22966349E-01 0.28206222E+03</pdfrwt>
<totfact> 0.44357348E+03</totfact>
</mgrwt>
</event>
<event>
 5    1  0.1129390E+001  0.2750947E+03  0.7818608E-02  0.1098399E+00
          1   -1    0    0  501    0  0.00000000000E+00  0.00000000000E+00  0.22917307342E+04  0.22917307342E+04  0.00000000000E+00 0.  1.
         -1   -1    0    0    0  501 -0.00000000000E+00 -0.00000000000E+00 -0.82554498563E+01  0.82554498563E+01  0.00000000000E+00 0.  1.
         35    2    1    2    0    0  0.00000000000E+00  0.00000000000E+00  0.22834752843E+04  0.22999861840E+04  0.27509466124E+03 0.  0.
         25    1    3    3    0    0  0.99930318639E+01  0.61465331018E+02  0.92999198958E+03  0.93976749693E+03  0.12000000000E+03 0.  0.
         25    1    3    3    0    0 -0.99930318639E+01 -0.61465331018E+02  0.13534832947E+04  0.13602186871E+04  0.12000000000E+03 0.  0.
<mgrwt>
<rscale>  0 0.27509466E+03</rscale>
<asrwt>0</asrwt>
<pdfrwt beam="1">  1        1 0.35257345E+00 0.27509466E+03</pdfrwt>
<pdfrwt beam="2">  1       -1 0.12700710E-02 0.27509466E+03</pdfrwt>
<totfact> 0.28943961E+03</totfact>
</mgrwt>
</event>
<event>
 5    1  0.1129390E+001  0.2749999E+03  0.7818608E-02  0.1098452E+00
         -2   -1    0    0    0  501 -0.00000000000E+00  0.00000000000E+00  0.14463044446E+02  0.14463044446E+02  0.00000000000E+00 0.  1.
          2   -1    0    0  501    0  0.00000000000E+00 -0.00000000000E+00 -0.13072101364E+04  0.13072101364E+04  0.00000000000E+00 0.  1.
         35    2    1    2    0    0  0.00000000000E+00  0.00000000000E+00 -0.12927470919E+04  0.13216731808E+04  0.27499991493E+03 0.  0.
         25    1    3    3    0    0 -0.39932720388E+02 -0.34547416643E+02 -0.84558520149E+03  0.85568830723E+03  0.12000000000E+03 0.  0.
         25    1    3    3    0    0  0.39932720388E+02  0.34547416643E+02 -0.44716189046E+03  0.46598487361E+03  0.12000000000E+03 0.  0.
<mgrwt>
<rscale>  0 0.27499991E+03</rscale>
<asrwt>0</asrwt>
<pdfrwt beam="1">  1        2 0.20110928E+00 0.27499991E+03</pdfrwt>
<pdfrwt beam="2">  1       -2 0.22250834E-02 0.27499991E+03</pdfrwt>
<totfact> 0.11472831E+04</totfact>
</mgrwt>
</event>
<event>
 4    1  0.1129390E+001  0.3074506E+03  0.7818608E-02  0.1081574E+00
         -4   -1    0    0    0  501 -0.00000000000E+00  0.00000000000E+00  0.23220262916E+03  0.23220262916E+03  0.00000000000E+00 0.  1.
          4   -1    0    0  501    0  0.00000000000E+00 -0.00000000000E+00 -0.10177086190E+03  0.10177086190E+03  0.00000000000E+00 0.  1.
         25    1    1    2    0    0  0.94971569645E+02 -0.53068004237E+01  0.79938734652E+02  0.17273668536E+03  0.12000000000E+03 0.  0.
         25    1    1    2    0    0 -0.94971569645E+02  0.53068004237E+01  0.50493032602E+02  0.16123680570E+03  0.12000000000E+03 0.  0.
<mgrwt>
<rscale>  0 0.30745056E+03</rscale>
<asrwt>0</asrwt>
<pdfrwt beam="1">  1        4 0.15657056E-01 0.30745056E+03</pdfrwt>
<pdfrwt beam="2">  1       -4 0.35723481E-01 0.30745056E+03</pdfrwt>
<totfact> 0.50439777E+02</totfact>
</mgrwt>
</event>
<event>
 5    1  0.1129390E+001  0.2751159E+03  0.7818608E-02  0.1098387E+00
          1   -1    0    0  501    0  0.00000000000E+00  0.00000000000E+00  0.23961295447E+03  0.23961295447E+03  0.00000000000E+00 0.  1.
         -1   -1    0    0    0  501 -0.00000000000E+00 -0.00000000000E+00 -0.78969815022E+02  0.78969815022E+02  0.00000000000E+00 0.  1.
         35    2    1    2    0    0  0.00000000000E+00  0.00000000000E+00  0.16064313945E+03  0.31858276950E+03  0.27511590788E+03 0.  0.
         25    1    3    3    0    0  0.46402254102E+02 -0.58599904873E+01  0.24368946884E+02  0.13107766494E+03  0.12000000000E+03 0.  0.
         25    1    3    3    0    0 -0.46402254102E+02  0.58599904873E+01  0.13627419257E+03  0.18750510456E+03  0.12000000000E+03 0.  0.
<mgrwt>
<rscale>  0 0.27511591E+03</rscale>
<asrwt>0</asrwt>
<pdfrwt beam="1">  1        1 0.36863531E-01 0.27511591E+03</pdfrwt>
<pdfrwt beam="2">  1       -1 0.12149202E-01 0.27511591E+03</pdfrwt>
<totfact> 0.52003969E+03</totfact>
</mgrwt>
</event>
<event>
 5    1  0.1129390E+001  0.2687391E+03  0.7818608E-02  0.1102003E+00
         -1   -1    0    0    0  501 -0.00000000000E+00  0.00000000000E+00  0.21472965288E+04  0.21472965288E+04  0.00000000000E+00 0.  1.
          1   -1    0    0  501    0  0.00000000000E+00 -0.00000000000E+00 -0.84083292123E+01  0.84083292123E+01  0.00000000000E+00 0.  1.
         35    2    1    2    0    0  0.00000000000E+00  0.00000000000E+00  0.21388881996E+04  0.21557048580E+04  0.26873910122E+03 0.  0.
         25    1    3    3    0    0  0.16312404972E+02  0.57863335749E+02  0.10181337749E+04  0.10269423761E+04  0.12000000000E+03 0.  0.
         25    1    3    3    0    0 -0.16312404972E+02 -0.57863335749E+02  0.11207544247E+04  0.11287624820E+04  0.12000000000E+03 0.  0.
<mgrwt>
<rscale>  0 0.26873910E+03</rscale>
<asrwt>0</asrwt>
<pdfrwt beam="1">  1        1 0.12935908E-02 0.26873910E+03</pdfrwt>
<pdfrwt beam="2">  1       -1 0.33035287E+00 0.26873910E+03</pdfrwt>
<totfact> 0.27964093E+02</totfact>
</mgrwt>
</event>
<event>
 5    1  0.1129390E+001  0.2749593E+03  0.7818608E-02  0.1098474E+00
         -3   -1    0    0    0  501 -0.00000000000E+00  0.00000000000E+00  0.11478389387E+03  0.11478389387E+03  0.00000000000E+00 0.  1.
          3   -1    0    0  501    0  0.00000000000E+00 -0.00000000000E+00 -0.16466298253E+03  0.16466298253E+03  0.00000000000E+00 0.  1.
         35    2    1    2    0    0  0.00000000000E+00  0.00000000000E+00 -0.49879088659E+02  0.27944687640E+03  0.27495933016E+03 0.  0.
         25    1    3    3    0    0  0.61794524526E+01  0.35457515673E+02 -0.82478356190E+02  0.14999366750E+03  0.12000000000E+03 0.  0.
         25    1    3    3    0    0 -0.61794524526E+01 -0.35457515673E+02  0.32599267531E+02  0.12945320890E+03  0.12000000000E+03 0.  0.
<mgrwt>
<rscale>  0 0.27495933E+03</rscale>
<asrwt>0</asrwt>
<pdfrwt beam="1">  1        3 0.25332766E-01 0.27495933E+03</pdfrwt>
<pdfrwt beam="2">  1       -3 0.17659061E-01 0.27495933E+03</pdfrwt>
<totfact> 0.10426380E+03</totfact>
</mgrwt>
</event>
<event>
 5    1  0.1129390E+001  0.2754080E+03  0.7818608E-02  0.1098224E+00
          2   -1    0    0  501    0  0.00000000000E+00  0.00000000000E+00  0.20384359919E+04  0.20384359919E+04  0.00000000000E+00 0.  1.
         -2   -1    0    0    0  501 -0.00000000000E+00 -0.00000000000E+00 -0.93024238777E+01  0.93024238777E+01  0.00000000000E+00 0.  1.
         35    2    1    2    0    0  0.00000000000E+00  0.00000000000E+00  0.20291335680E+04  0.20477384158E+04  0.27540802925E+03 0.  0.
         25    1    3    3    0    0 -0.59063790194E+02  0.19765833667E+02  0.12089076927E+04  0.12164444208E+04  0.12000000000E+03 0.  0.
         25    1    3    3    0    0  0.59063790194E+02 -0.19765833667E+02  0.82022587534E+03  0.83129399497E+03  0.12000000000E+03 0.  0.
<mgrwt>
<rscale>  0 0.27540803E+03</rscale>
<asrwt>0</asrwt>
<pdfrwt beam="1">  1        2 0.31360518E+00 0.27540803E+03</pdfrwt>
<pdfrwt beam="2">  1       -2 0.14311438E-02 0.27540803E+03</pdfrwt>
<totfact> 0.89618257E+03</totfact>
</mgrwt>
</event>
<event>
 5    1  0.1129390E+001  0.2766234E+03  0.7818608E-02  0.1097548E+00
          2   -1    0    0  501    0  0.00000000000E+00  0.00000000000E+00  0.31294761640E+02  0.31294761640E+02  0.00000000000E+00 0. -1.
         -2   -1    0    0    0  501 -0.00000000000E+00 -0.00000000000E+00 -0.61128846459E+03  0.61128846459E+03  0.00000000000E+00 0. -1.
         35    2    1    2    0    0  0.00000000000E+00  0.00000000000E+00 -0.57999370295E+03  0.64258322623E+03  0.27662340315E+03 0.  0.
         25    1    3    3    0    0  0.43094705299E+01  0.67545593558E+02 -0.31836619268E+03  0.34689769585E+03  0.12000000000E+03 0.  0.
         25    1    3    3    0    0 -0.43094705299E+01 -0.67545593558E+02 -0.26162751028E+03  0.29568553038E+03  0.12000000000E+03 0.  0.
<mgrwt>
<rscale>  0 0.27662340E+03</rscale>
<asrwt>0</asrwt>
<pdfrwt beam="1">  1        2 0.48145790E-02 0.27662340E+03</pdfrwt>
<pdfrwt beam="2">  1       -2 0.94044373E-01 0.27662340E+03</pdfrwt>
<totfact> 0.16330439E+03</totfact>
</mgrwt>
</event>
<event>
 5    1  0.1129390E+001  0.2751293E+03  0.7818608E-02  0.1098379E+00
         -2   -1    0    0    0  501 -0.00000000000E+00  0.00000000000E+00  0.15327684247E+03  0.15327684247E+03  0.00000000000E+00 0.  1.
          2   -1    0    0  501    0  0.00000000000E+00 -0.00000000000E+00 -0.12346309138E+03  0.12346309138E+03  0.00000000000E+00 0.  1.
         35    2    1    2    0    0  0.00000000000E+00  0.00000000000E+00  0.29813751088E+02  0.27673993385E+03  0.27512929912E+03 0.  0.
         25    1    3    3    0    0  0.28619950350E+02 -0.34462970910E+01  0.76033137301E+02  0.14495522236E+03  0.12000000000E+03 0.  0.
         25    1    3    3    0    0 -0.28619950350E+02  0.34462970910E+01 -0.46219386213E+02  0.13178471149E+03  0.12000000000E+03 0.  0.
<mgrwt>
<rscale>  0 0.27512930E+03</rscale>
<asrwt>0</asrwt>
<pdfrwt beam="1">  1        2 0.18994322E-01 0.27512930E+03</pdfrwt>
<pdfrwt beam="2">  1       -2 0.23581053E-01 0.27512930E+03</pdfrwt>
<totfact> 0.46188242E+03</totfact>
</mgrwt>
</event>
<event>
 5    1  0.1129390E+001  0.2737265E+03  0.7818608E-02  0.1099166E+00
          4   -1    0    0  501    0  0.00000000000E+00  0.00000000000E+00  0.23959507628E+02  0.23959507628E+02  0.00000000000E+00 0. -1.
         -4   -1    0    0    0  501 -0.00000000000E+00 -0.00000000000E+00 -0.78180014581E+03  0.78180014581E+03  0.00000000000E+00 0. -1.
         35    2    1    2    0    0  0.00000000000E+00  0.00000000000E+00 -0.75784063819E+03  0.80575965344E+03  0.27372648069E+03 0.  0.
         25    1    3    3    0    0 -0.54261689491E+02  0.54348387555E+01 -0.48738469361E+03  0.50489375910E+03  0.12000000000E+03 0.  0.
         25    1    3    3    0    0  0.54261689491E+02 -0.54348387555E+01 -0.27045594458E+03  0.30086589434E+03  0.12000000000E+03 0.  0.
<mgrwt>
<rscale>  0 0.27372648E+03</rscale>
<asrwt>0</asrwt>
<pdfrwt beam="1">  1        4 0.36860776E-02 0.27372648E+03</pdfrwt>
<pdfrwt beam="2">  1       -4 0.12027696E+00 0.27372648E+03</pdfrwt>
<totfact> 0.40080248E+02</totfact>
</mgrwt>
</event>
<event>
 5    1  0.1129390E+001  0.2764647E+03  0.7818608E-02  0.1097636E+00
          2   -1    0    0  501    0  0.00000000000E+00  0.00000000000E+00  0.42867348639E+03  0.42867348639E+03  0.00000000000E+00 0. -1.
         -2   -1    0    0    0  501 -0.00000000000E+00 -0.00000000000E+00 -0.44575150985E+02  0.44575150985E+02  0.00000000000E+00 0. -1.
         35    2    1    2    0    0  0.00000000000E+00  0.00000000000E+00  0.38409833541E+03  0.47324863737E+03  0.27646472020E+03 0.  0.
         25    1    3    3    0    0  0.51788387051E+02 -0.31351674383E+02  0.24733804670E+03  0.28149791095E+03  0.12000000000E+03 0.  0.
         25    1    3    3    0    0 -0.51788387051E+02  0.31351674383E+02  0.13676028870E+03  0.19175072643E+03  0.12000000000E+03 0.  0.
<mgrwt>
<rscale>  0 0.27646472E+03</rscale>
<asrwt>0</asrwt>
<pdfrwt beam="1">  1        2 0.65949765E-01 0.27646472E+03</pdfrwt>
<pdfrwt beam="2">  1       -2 0.68577158E-02 0.27646472E+03</pdfrwt>
<totfact> 0.88442359E+03</totfact>
</mgrwt>
</event>
<event>
 5    1  0.1129390E+001  0.2755083E+03  0.7818608E-02  0.1098168E+00
         -2   -1    0    0    0  501 -0.00000000000E+00  0.00000000000E+00  0.16927597572E+03  0.16927597572E+03  0.00000000000E+00 0. -1.
          2   -1    0    0  501    0  0.00000000000E+00 -0.00000000000E+00 -0.11210218113E+03  0.11210218113E+03  0.00000000000E+00 0. -1.
         35    2    1    2    0    0  0.00000000000E+00  0.00000000000E+00  0.57173794589E+02  0.28137815684E+03  0.27550830180E+03 0.  0.
         25    1    3    3    0    0  0.37603364108E+02  0.53212031797E+02  0.47158736171E+02  0.14446272778E+03  0.12000000000E+03 0.  0.
         25    1    3    3    0    0 -0.37603364108E+02 -0.53212031797E+02  0.10015058418E+02  0.13691542906E+03  0.12000000000E+03 0.  0.
<mgrwt>
<rscale>  0 0.27550830E+03</rscale>
<asrwt>0</asrwt>
<pdfrwt beam="1">  1        2 0.17246489E-01 0.27550830E+03</pdfrwt>
<pdfrwt beam="2">  1       -2 0.26042458E-01 0.27550830E+03</pdfrwt>
<totfact> 0.43367360E+03</totfact>
</mgrwt>
</event>
<event>
 5    1  0.1129390E+001  0.2744473E+03  0.7818608E-02  0.1098761E+00
         -2   -1    0    0    0  501 -0.00000000000E+00  0.00000000000E+00  0.82685878447E+02  0.82685878447E+02  0.00000000000E+00 0.  1.
          2   -1    0    0  501    0  0.00000000000E+00 -0.00000000000E+00 -0.22773330218E+03  0.22773330218E+03  0.00000000000E+00 0.  1.
         35    2    1    2    0    0  0.00000000000E+00  0.00000000000E+00 -0.14504742373E+03  0.31041918063E+03  0.27444728560E+03 0.  0.
         25    1    3    3    0    0 -0.57339345628E+02 -0.94988291773E+01 -0.10921469582E+03  0.17235393264E+03  0.12000000000E+03 0.  0.
         25    1    3    3    0    0  0.57339345628E+02  0.94988291773E+01 -0.35832727912E+02  0.13806524799E+03  0.12000000000E+03 0.  0.
<mgrwt>
<rscale>  0 0.27444729E+03</rscale>
<asrwt>0</asrwt>
<pdfrwt beam="1">  1        2 0.35035892E-01 0.27444729E+03</pdfrwt>
<pdfrwt beam="2">  1       -2 0.12720905E-01 0.27444729E+03</pdfrwt>
<totfact> 0.65889441E+03</totfact>
</mgrwt>
</event>
<event>
 5    1  0.1129390E+001  0.2750003E+03  0.7818608E-02  0.1098451E+00
          2   -1    0    0  501    0  0.00000000000E+00  0.00000000000E+00  0.26583934069E+02  0.26583934069E+02  0.00000000000E+00 0.  1.
         -2   -1    0    0    0  501 -0.00000000000E+00 -0.00000000000E+00 -0.71119226489E+03  0.71119226489E+03  0.00000000000E+00 0.  1.
         35    2    1    2    0    0  0.00000000000E+00  0.00000000000E+00 -0.68460833082E+03  0.73777619896E+03  0.27500027840E+03 0.  0.
         25    1    3    3    0    0 -0.17299352996E+02  0.38151671747E+02 -0.48303003666E+03  0.49947255579E+03  0.12000000000E+03 0.  0.
         25    1    3    3    0    0  0.17299352996E+02 -0.38151671747E+02 -0.20157829416E+03  0.23830364317E+03  0.12000000000E+03 0.  0.
<mgrwt>
<rscale>  0 0.27500028E+03</rscale>
<asrwt>0</asrwt>
<pdfrwt beam="1">  1        2 0.40898372E-02 0.27500028E+03</pdfrwt>
<pdfrwt beam="2">  1       -2 0.10941416E+00 0.27500028E+03</pdfrwt>
<totfact> 0.14258262E+03</totfact>
</mgrwt>
</event>
<event>
 5    1  0.1129390E+001  0.2752772E+03  0.7818608E-02  0.1098297E+00
         -1   -1    0    0    0  501 -0.00000000000E+00  0.00000000000E+00  0.83642438099E+01  0.83642438099E+01  0.00000000000E+00 0.  1.
          1   -1    0    0  501    0  0.00000000000E+00 -0.00000000000E+00 -0.22649247730E+04  0.22649247730E+04  0.00000000000E+00 0.  1.
         35    2    1    2    0    0  0.00000000000E+00  0.00000000000E+00 -0.22565605292E+04  0.22732890168E+04  0.27527719130E+03 0.  0.
         25    1    3    3    0    0 -0.24876380134E+01 -0.67356424977E+02 -0.11377202145E+04  0.11460149924E+04  0.12000000000E+03 0.  0.
         25    1    3    3    0    0  0.24876380134E+01  0.67356424977E+02 -0.11188403147E+04  0.11272740244E+04  0.12000000000E+03 0.  0.
<mgrwt>
<rscale>  0 0.27527719E+03</rscale>
<asrwt>0</asrwt>
<pdfrwt beam="1">  1        1 0.34844979E+00 0.27527719E+03</pdfrwt>
<pdfrwt beam="2">  1       -1 0.12868074E-02 0.27527719E+03</pdfrwt>
<totfact> 0.29571271E+03</totfact>
</mgrwt>
</event>
<event>
 5    1  0.1129390E+001  0.2753744E+03  0.7818608E-02  0.1098242E+00
          2   -1    0    0  501    0  0.00000000000E+00  0.00000000000E+00  0.15673945319E+03  0.15673945319E+03  0.00000000000E+00 0.  1.
         -2   -1    0    0    0  501 -0.00000000000E+00 -0.00000000000E+00 -0.12095085481E+03  0.12095085481E+03  0.00000000000E+00 0.  1.
         35    2    1    2    0    0  0.00000000000E+00  0.00000000000E+00  0.35788598378E+02  0.27769030801E+03  0.27537444214E+03 0.  0.
         25    1    3    3    0    0 -0.35390311422E+02 -0.24016852221E+02 -0.34779916428E+02  0.13205652547E+03  0.12000000000E+03 0.  0.
         25    1    3    3    0    0  0.35390311422E+02  0.24016852221E+02  0.70568514806E+02  0.14563378253E+03  0.12000000000E+03 0.  0.
<mgrwt>
<rscale>  0 0.27537444E+03</rscale>
<asrwt>0</asrwt>
<pdfrwt beam="1">  1        2 0.24113762E-01 0.27537444E+03</pdfrwt>
<pdfrwt beam="2">  1       -2 0.18607824E-01 0.27537444E+03</pdfrwt>
<totfact> 0.52947361E+03</totfact>
</mgrwt>
</event>
<event>
 5    1  0.1129390E+001  0.2775691E+03  0.7818608E-02  0.1097024E+00
          2   -1    0    0  501    0  0.00000000000E+00  0.00000000000E+00  0.11848092185E+04  0.11848092185E+04  0.00000000000E+00 0. -1.
         -2   -1    0    0    0  501 -0.00000000000E+00 -0.00000000000E+00 -0.16256755403E+02  0.16256755403E+02  0.00000000000E+00 0. -1.
         35    2    1    2    0    0  0.00000000000E+00  0.00000000000E+00  0.11685524631E+04  0.12010659739E+04  0.27756911689E+03 0.  0.
         25    1    3    3    0    0 -0.44933064605E+01 -0.26165882482E+02  0.86324122591E+03  0.87194624681E+03  0.12000000000E+03 0.  0.
         25    1    3    3    0    0  0.44933064605E+01  0.26165882482E+02  0.30531123714E+03  0.32911972705E+03  0.12000000000E+03 0.  0.
<mgrwt>
<rscale>  0 0.27756912E+03</rscale>
<asrwt>0</asrwt>
<pdfrwt beam="1">  1        2 0.18227827E+00 0.27756912E+03</pdfrwt>
<pdfrwt beam="2">  1       -2 0.25010402E-02 0.27756912E+03</pdfrwt>
<totfact> 0.11310203E+04</totfact>
</mgrwt>
</event>
<event>
 5    1  0.1129390E+001  0.2743982E+03  0.7818608E-02  0.1098788E+00
          1   -1    0    0  501    0  0.00000000000E+00  0.00000000000E+00  0.61683729750E+03  0.61683729750E+03  0.00000000000E+00 0.  1.
         -1   -1    0    0    0  501 -0.00000000000E+00 -0.00000000000E+00 -0.30516298608E+02  0.30516298608E+02  0.00000000000E+00 0.  1.
         35    2    1    2    0    0  0.00000000000E+00  0.00000000000E+00  0.58632099889E+03  0.64735359611E+03  0.27439818631E+03 0.  0.
         25    1    3    3    0    0 -0.58775639713E+02 -0.17883606722E+02  0.23305047684E+03  0.26923395768E+03  0.12000000000E+03 0.  0.
         25    1    3    3    0    0  0.58775639713E+02  0.17883606722E+02  0.35327052205E+03  0.37811963843E+03  0.12000000000E+03 0.  0.
<mgrwt>
<rscale>  0 0.27439819E+03</rscale>
<asrwt>0</asrwt>
<pdfrwt beam="1">  1        1 0.94898037E-01 0.27439819E+03</pdfrwt>
<pdfrwt beam="2">  1       -1 0.46948156E-02 0.27439819E+03</pdfrwt>
<totfact> 0.65212961E+03</totfact>
</mgrwt>
</event>
<event>
 5    1  0.1129390E+001  0.2749927E+03  0.7818608E-02  0.1098456E+00
          2   -1    0    0  501    0  0.00000000000E+00  0.00000000000E+00  0.92890887472E+03  0.92890887472E+03  0.00000000000E+00 0. -1.
         -2   -1    0    0    0  501 -0.00000000000E+00 -0.00000000000E+00 -0.20352103125E+02  0.20352103125E+02  0.00000000000E+00 0. -1.
         35    2    1    2    0    0  0.00000000000E+00  0.00000000000E+00  0.90855677160E+03  0.94926097785E+03  0.27499272145E+03 0.  0.
         25    1    3    3    0    0  0.27902126073E+02  0.10386183986E+02  0.66193682510E+03  0.67338455720E+03  0.12000000000E+03 0.  0.
         25    1    3    3    0    0 -0.27902126073E+02 -0.10386183986E+02  0.24661994650E+03  0.27587642065E+03  0.12000000000E+03 0.  0.
<mgrwt>
<rscale>  0 0.27499272E+03</rscale>
<asrwt>0</asrwt>
<pdfrwt beam="1">  1        2 0.14290902E+00 0.27499272E+03</pdfrwt>
<pdfrwt beam="2">  1       -2 0.31310935E-02 0.27499272E+03</pdfrwt>
<totfact> 0.11529681E+04</totfact>
</mgrwt>
</event>
<event>
 5    1  0.1129390E+001  0.2750321E+03  0.7818608E-02  0.1098434E+00
         -1   -1    0    0    0  501 -0.00000000000E+00  0.00000000000E+00  0.31480743546E+02  0.31480743546E+02  0.00000000000E+00 0.  1.
          1   -1    0    0  501    0  0.00000000000E+00 -0.00000000000E+00 -0.60070575269E+03  0.60070575269E+03  0.00000000000E+00 0.  1.
         35    2    1    2    0    0  0.00000000000E+00  0.00000000000E+00 -0.56922500915E+03  0.63218649624E+03  0.27503209811E+03 0.  0.
         25    1    3    3    0    0 -0.34637657152E+01  0.13910093021E+02 -0.13379308769E+03  0.18029442219E+03  0.12000000000E+03 0.  0.
         25    1    3    3    0    0  0.34637657152E+01 -0.13910093021E+02 -0.43543192146E+03  0.45189207404E+03  0.12000000000E+03 0.  0.
<mgrwt>
<rscale>  0 0.27503210E+03</rscale>
<asrwt>0</asrwt>
<pdfrwt beam="1">  1        1 0.92416270E-01 0.27503210E+03</pdfrwt>
<pdfrwt beam="2">  1       -1 0.48431913E-02 0.27503210E+03</pdfrwt>
<totfact> 0.64595240E+03</totfact>
</mgrwt>
</event>
<event>
 5    1  0.1129390E+001  0.2752300E+03  0.7818608E-02  0.1098323E+00
          2   -1    0    0  501    0  0.00000000000E+00  0.00000000000E+00  0.33922949984E+03  0.33922949984E+03  0.00000000000E+00 0.  1.
         -2   -1    0    0    0  501 -0.00000000000E+00 -0.00000000000E+00 -0.55826203046E+02  0.55826203046E+02  0.00000000000E+00 0.  1.
         35    2    1    2    0    0  0.00000000000E+00  0.00000000000E+00  0.28340329679E+03  0.39505570289E+03  0.27523004878E+03 0.  0.
         25    1    3    3    0    0  0.41564430950E+02 -0.35962354032E+02  0.19760728289E+03  0.23763318598E+03  0.12000000000E+03 0.  0.
         25    1    3    3    0    0 -0.41564430950E+02  0.35962354032E+02  0.85796013908E+02  0.15742251691E+03  0.12000000000E+03 0.  0.
<mgrwt>
<rscale>  0 0.27523005E+03</rscale>
<asrwt>0</asrwt>
<pdfrwt beam="1">  1        2 0.52189153E-01 0.27523005E+03</pdfrwt>
<pdfrwt beam="2">  1       -2 0.85886468E-02 0.27523005E+03</pdfrwt>
<totfact> 0.80262047E+03</totfact>
</mgrwt>
</event>
<event>
 5    1  0.1129390E+001  0.2771493E+03  0.7818608E-02  0.1097256E+00
          4   -1    0    0  501    0  0.00000000000E+00  0.00000000000E+00  0.19010805232E+03  0.19010805232E+03  0.00000000000E+00 0. -1.
         -4   -1    0    0    0  501 -0.00000000000E+00 -0.00000000000E+00 -0.10101065037E+03  0.10101065037E+03  0.00000000000E+00 0. -1.
         35    2    1    2    0    0  0.00000000000E+00  0.00000000000E+00  0.89097401950E+02  0.29111870269E+03  0.27714933163E+03 0.  0.
         25    1    3    3    0    0 -0.68495694235E+01 -0.59875404583E+02  0.86046677889E+01  0.13455861542E+03  0.12000000000E+03 0.  0.
         25    1    3    3    0    0  0.68495694235E+01  0.59875404583E+02  0.80492734161E+02  0.15656008728E+03  0.12000000000E+03 0.  0.
<mgrwt>
<rscale>  0 0.27714933E+03</rscale>
<asrwt>0</asrwt>
<pdfrwt beam="1">  1        4 0.29247393E-01 0.27714933E+03</pdfrwt>
<pdfrwt beam="2">  1       -4 0.15540100E-01 0.27714933E+03</pdfrwt>
<totfact> 0.74186676E+02</totfact>
</mgrwt>
</event>
<event>
 5    1  0.1129390E+001  0.2754236E+03  0.7818608E-02  0.1098215E+00
          4   -1    0    0  501    0  0.00000000000E+00  0.00000000000E+00  0.12083284949E+03  0.12083284949E+03  0.00000000000E+00 0.  1.
         -4   -1    0    0    0  501 -0.00000000000E+00 -0.00000000000E+00 -0.15694859297E+03  0.15694859297E+03  0.00000000000E+00 0.  1.
         35    2    1    2    0    0  0.00000000000E+00  0.00000000000E+00 -0.36115743479E+02  0.27778144245E+03  0.27542364249E+03 0.  0.
         25    1    3    3    0    0  0.37560780576E+02  0.44326465566E+02  0.16717701334E+02  0.13436937644E+03  0.12000000000E+03 0.  0.
         25    1    3    3    0    0 -0.37560780576E+02 -0.44326465566E+02 -0.52833444813E+02  0.14341206601E+03  0.12000000000E+03 0.  0.
<mgrwt>
<rscale>  0 0.27542364E+03</rscale>
<asrwt>0</asrwt>
<pdfrwt beam="1">  1        4 0.18589669E-01 0.27542364E+03</pdfrwt>
<pdfrwt beam="2">  1       -4 0.24145937E-01 0.27542364E+03</pdfrwt>
<totfact> 0.77168994E+02</totfact>
</mgrwt>
</event>
<event>
 5    1  0.1129390E+001  0.2755381E+03  0.7818608E-02  0.1098151E+00
         -2   -1    0    0    0  501 -0.00000000000E+00  0.00000000000E+00  0.34450420155E+02  0.34450420155E+02  0.00000000000E+00 0. -1.
          2   -1    0    0  501    0  0.00000000000E+00 -0.00000000000E+00 -0.55094557759E+03  0.55094557759E+03  0.00000000000E+00 0. -1.
         35    2    1    2    0    0  0.00000000000E+00  0.00000000000E+00 -0.51649515744E+03  0.58539599775E+03  0.27553806728E+03 0.  0.
         25    1    3    3    0    0 -0.67540162440E+02 -0.28844905696E+01 -0.25142487539E+03  0.28667832459E+03  0.12000000000E+03 0.  0.
         25    1    3    3    0    0  0.67540162440E+02  0.28844905696E+01 -0.26507028205E+03  0.29871767315E+03  0.12000000000E+03 0.  0.
<mgrwt>
<rscale>  0 0.27553807E+03</rscale>
<asrwt>0</asrwt>
<pdfrwt beam="1">  1        2 0.84760853E-01 0.27553807E+03</pdfrwt>
<pdfrwt beam="2">  1       -2 0.53000650E-02 0.27553807E+03</pdfrwt>
<totfact> 0.99283654E+03</totfact>
</mgrwt>
</event>
<event>
 5    1  0.1129390E+001  0.2686917E+03  0.7818608E-02  0.1102031E+00
         -1   -1    0    0    0  501 -0.00000000000E+00  0.00000000000E+00  0.28912762782E+02  0.28912762782E+02  0.00000000000E+00 0. -1.
          1   -1    0    0  501    0  0.00000000000E+00 -0.00000000000E+00 -0.62425055356E+03  0.62425055356E+03  0.00000000000E+00 0. -1.
         35    2    1    2    0    0  0.00000000000E+00  0.00000000000E+00 -0.59533779078E+03  0.65316331635E+03  0.26869170565E+03 0.  0.
         25    1    3    3    0    0  0.59762979483E+02  0.26442946952E+00 -0.31901721993E+03  0.34603998360E+03  0.12000000000E+03 0.  0.
         25    1    3    3    0    0 -0.59762979483E+02 -0.26442946952E+00 -0.27632057086E+03  0.30712333275E+03  0.12000000000E+03 0.  0.
<mgrwt>
<rscale>  0 0.26869171E+03</rscale>
<asrwt>0</asrwt>
<pdfrwt beam="1">  1        1 0.96038546E-01 0.26869171E+03</pdfrwt>
<pdfrwt beam="2">  1       -1 0.44481174E-02 0.26869171E+03</pdfrwt>
<totfact> 0.69469447E+03</totfact>
</mgrwt>
</event>
<event>
 5    1  0.1129390E+001  0.2745730E+03  0.7818608E-02  0.1098691E+00
         -1   -1    0    0    0  501 -0.00000000000E+00  0.00000000000E+00  0.23547681152E+03  0.23547681152E+03  0.00000000000E+00 0. -1.
          1   -1    0    0  501    0  0.00000000000E+00 -0.00000000000E+00 -0.80040075495E+02  0.80040075495E+02  0.00000000000E+00 0. -1.
         35    2    1    2    0    0  0.00000000000E+00  0.00000000000E+00  0.15543673602E+03  0.31551688701E+03  0.27457299045E+03 0.  0.
         25    1    3    3    0    0 -0.43144917654E+02  0.38058791483E+02  0.38960079116E+02  0.13866449904E+03  0.12000000000E+03 0.  0.
         25    1    3    3    0    0  0.43144917654E+02 -0.38058791483E+02  0.11647665691E+03  0.17685238798E+03  0.12000000000E+03 0.  0.
<mgrwt>
<rscale>  0 0.27457299E+03</rscale>
<asrwt>0</asrwt>
<pdfrwt beam="1">  1        1 0.12313858E-01 0.27457299E+03</pdfrwt>
<pdfrwt beam="2">  1       -1 0.36227201E-01 0.27457299E+03</pdfrwt>
<totfact> 0.35501444E+03</totfact>
</mgrwt>
</event>
<event>
 5    1  0.1129390E+001  0.2746107E+03  0.7818608E-02  0.1098669E+00
         -2   -1    0    0    0  501 -0.00000000000E+00  0.00000000000E+00  0.82936609745E+02  0.82936609745E+02  0.00000000000E+00 0. -1.
          2   -1    0    0  501    0  0.00000000000E+00 -0.00000000000E+00 -0.22731527408E+03  0.22731527408E+03  0.00000000000E+00 0. -1.
         35    2    1    2    0    0  0.00000000000E+00  0.00000000000E+00 -0.14437866434E+03  0.31025188383E+03  0.27461069299E+03 0.  0.
         25    1    3    3    0    0  0.55594509212E+02  0.31332180565E+02 -0.50156924302E+02  0.14487295141E+03  0.12000000000E+03 0.  0.
         25    1    3    3    0    0 -0.55594509212E+02 -0.31332180565E+02 -0.94221740036E+02  0.16537893242E+03  0.12000000000E+03 0.  0.
<mgrwt>
<rscale>  0 0.27461069E+03</rscale>
<asrwt>0</asrwt>
<pdfrwt beam="1">  1        2 0.34971580E-01 0.27461069E+03</pdfrwt>
<pdfrwt beam="2">  1       -2 0.12759478E-01 0.27461069E+03</pdfrwt>
<totfact> 0.65698668E+03</totfact>
</mgrwt>
</event>
<event>
 5    1  0.1129390E+001  0.2751918E+03  0.7818608E-02  0.1098344E+00
         -1   -1    0    0    0  501 -0.00000000000E+00  0.00000000000E+00  0.38603176884E+03  0.38603176884E+03  0.00000000000E+00 0.  1.
          1   -1    0    0  501    0  0.00000000000E+00 -0.00000000000E+00 -0.49044239155E+02  0.49044239155E+02  0.00000000000E+00 0.  1.
         35    2    1    2    0    0  0.00000000000E+00  0.00000000000E+00  0.33698752969E+03  0.43507600800E+03  0.27519181959E+03 0.  0.
         25    1    3    3    0    0 -0.43970808805E+02  0.38043593739E+02  0.11483574794E+03  0.17597726005E+03  0.12000000000E+03 0.  0.
         25    1    3    3    0    0  0.43970808805E+02 -0.38043593739E+02  0.22215178175E+03  0.25909874794E+03  0.12000000000E+03 0.  0.
<mgrwt>
<rscale>  0 0.27519182E+03</rscale>
<asrwt>0</asrwt>
<pdfrwt beam="1">  1        1 0.75452678E-02 0.27519182E+03</pdfrwt>
<pdfrwt beam="2">  1       -1 0.59389501E-01 0.27519182E+03</pdfrwt>
<totfact> 0.27842746E+03</totfact>
</mgrwt>
</event>
<event>
 5    1  0.1129390E+001  0.2748371E+03  0.7818608E-02  0.1098543E+00
          1   -1    0    0  501    0  0.00000000000E+00  0.00000000000E+00  0.11826392786E+04  0.11826392786E+04  0.00000000000E+00 0.  1.
         -1   -1    0    0    0  501 -0.00000000000E+00 -0.00000000000E+00 -0.15967550040E+02  0.15967550040E+02  0.00000000000E+00 0.  1.
         35    2    1    2    0    0  0.00000000000E+00  0.00000000000E+00  0.11666717285E+04  0.11986068286E+04  0.27483705616E+03 0.  0.
         25    1    3    3    0    0  0.49238896345E+02  0.15832269684E+02  0.76881172366E+03  0.77983754470E+03  0.12000000000E+03 0.  0.
         25    1    3    3    0    0 -0.49238896345E+02 -0.15832269684E+02  0.39786000485E+03  0.41876928390E+03  0.12000000000E+03 0.  0.
<mgrwt>
<rscale>  0 0.27483706E+03</rscale>
<asrwt>0</asrwt>
<pdfrwt beam="1">  1        1 0.18194444E+00 0.27483706E+03</pdfrwt>
<pdfrwt beam="2">  1       -1 0.24565471E-02 0.27483706E+03</pdfrwt>
<totfact> 0.59671294E+03</totfact>
</mgrwt>
</event>
<event>
 5    1  0.1129390E+001  0.2747624E+03  0.7818608E-02  0.1098585E+00
          2   -1    0    0  501    0  0.00000000000E+00  0.00000000000E+00  0.12816364571E+03  0.12816364571E+03  0.00000000000E+00 0.  1.
         -2   -1    0    0    0  501 -0.00000000000E+00 -0.00000000000E+00 -0.14726163983E+03  0.14726163983E+03  0.00000000000E+00 0.  1.
         35    2    1    2    0    0  0.00000000000E+00  0.00000000000E+00 -0.19097994127E+02  0.27542528554E+03  0.27476236011E+03 0.  0.
         25    1    3    3    0    0 -0.47965597277E+02  0.13601547998E+02  0.35144313633E+02  0.13461360782E+03  0.12000000000E+03 0.  0.
         25    1    3    3    0    0  0.47965597277E+02 -0.13601547998E+02 -0.54242307760E+02  0.14081167772E+03  0.12000000000E+03 0.  0.
<mgrwt>
<rscale>  0 0.27476236E+03</rscale>
<asrwt>0</asrwt>
<pdfrwt beam="1">  1        2 0.19717484E-01 0.27476236E+03</pdfrwt>
<pdfrwt beam="2">  1       -2 0.22655637E-01 0.27476236E+03</pdfrwt>
<totfact> 0.47445115E+03</totfact>
</mgrwt>
</event>
<event>
 5    1  0.1129390E+001  0.2720394E+03  0.7818608E-02  0.1100118E+00
          1   -1    0    0  501    0  0.00000000000E+00  0.00000000000E+00  0.59169484908E+03  0.59169484908E+03  0.00000000000E+00 0. -1.
         -1   -1    0    0    0  501 -0.00000000000E+00 -0.00000000000E+00 -0.31268401386E+02  0.31268401386E+02  0.00000000000E+00 0. -1.
         35    2    1    2    0    0  0.00000000000E+00  0.00000000000E+00  0.56042644770E+03  0.62296325047E+03  0.27203935038E+03 0.  0.
         25    1    3    3    0    0 -0.43499587511E+02  0.12185323397E+01  0.17261722668E+03  0.21468676224E+03  0.12000000000E+03 0.  0.
         25    1    3    3    0    0  0.43499587511E+02 -0.12185323397E+01  0.38780922102E+03  0.40827648823E+03  0.12000000000E+03 0.  0.
<mgrwt>
<rscale>  0 0.27203935E+03</rscale>
<asrwt>0</asrwt>
<pdfrwt beam="1">  1        1 0.91029969E-01 0.27203935E+03</pdfrwt>
<pdfrwt beam="2">  1       -1 0.48105237E-02 0.27203935E+03</pdfrwt>
<totfact> 0.66612585E+03</totfact>
</mgrwt>
</event>
<event>
 5    1  0.1129390E+001  0.2742827E+03  0.7818608E-02  0.1098853E+00
         -2   -1    0    0    0  501 -0.00000000000E+00  0.00000000000E+00  0.22554958139E+02  0.22554958139E+02  0.00000000000E+00 0. -1.
          2   -1    0    0  501    0  0.00000000000E+00 -0.00000000000E+00 -0.83386346085E+03  0.83386346085E+03  0.00000000000E+00 0. -1.
         35    2    1    2    0    0  0.00000000000E+00  0.00000000000E+00 -0.81130850271E+03  0.85641841899E+03  0.27428274064E+03 0.  0.
         25    1    3    3    0    0 -0.53134443367E+02  0.34748898003E+02 -0.34502831437E+03  0.37077660755E+03  0.12000000000E+03 0.  0.
         25    1    3    3    0    0  0.53134443367E+02 -0.34748898003E+02 -0.46628018834E+03  0.48564181145E+03  0.12000000000E+03 0.  0.
<mgrwt>
<rscale>  0 0.27428274E+03</rscale>
<asrwt>0</asrwt>
<pdfrwt beam="1">  1        2 0.12828669E+00 0.27428274E+03</pdfrwt>
<pdfrwt beam="2">  1       -2 0.34699935E-02 0.27428274E+03</pdfrwt>
<totfact> 0.11409847E+04</totfact>
</mgrwt>
</event>
<event>
 5    1  0.1129390E+001  0.2748997E+03  0.7818608E-02  0.1098508E+00
         -2   -1    0    0    0  501 -0.00000000000E+00  0.00000000000E+00  0.40622443979E+03  0.40622443979E+03  0.00000000000E+00 0. -1.
          2   -1    0    0  501    0  0.00000000000E+00 -0.00000000000E+00 -0.46507457132E+02  0.46507457132E+02  0.00000000000E+00 0. -1.
         35    2    1    2    0    0  0.00000000000E+00  0.00000000000E+00  0.35971698266E+03  0.45273189693E+03  0.27489973241E+03 0.  0.
         25    1    3    3    0    0  0.36572737991E+01  0.59864568795E+02  0.22913690981E+03  0.26551999112E+03  0.12000000000E+03 0.  0.
         25    1    3    3    0    0 -0.36572737991E+01 -0.59864568795E+02  0.13058007285E+03  0.18721190580E+03  0.12000000000E+03 0.  0.
<mgrwt>
<rscale>  0 0.27489973E+03</rscale>
<asrwt>0</asrwt>
<pdfrwt beam="1">  1        2 0.71549937E-02 0.27489973E+03</pdfrwt>
<pdfrwt beam="2">  1       -2 0.62496065E-01 0.27489973E+03</pdfrwt>
<totfact> 0.23776853E+03</totfact>
</mgrwt>
</event>
<event>
 5    1  0.1129390E+001  0.2743881E+03  0.7818608E-02  0.1098794E+00
          1   -1    0    0  501    0  0.00000000000E+00  0.00000000000E+00  0.92183805332E+03  0.92183805332E+03  0.00000000000E+00 0. -1.
         -1   -1    0    0    0  501 -0.00000000000E+00 -0.00000000000E+00 -0.20418120820E+02  0.20418120820E+02  0.00000000000E+00 0. -1.
         35    2    1    2    0    0  0.00000000000E+00  0.00000000000E+00  0.90141993250E+03  0.94225617414E+03  0.27438805185E+03 0.  0.
         25    1    3    3    0    0  0.52527410499E+02 -0.40618587907E+02  0.43823247853E+03  0.45919135856E+03  0.12000000000E+03 0.  0.
         25    1    3    3    0    0 -0.52527410499E+02  0.40618587907E+02  0.46318745397E+03  0.48306481558E+03  0.12000000000E+03 0.  0.
<mgrwt>
<rscale>  0 0.27438805E+03</rscale>
<asrwt>0</asrwt>
<pdfrwt beam="1">  1        1 0.14182121E+00 0.27438805E+03</pdfrwt>
<pdfrwt beam="2">  1       -1 0.31412501E-02 0.27438805E+03</pdfrwt>
<totfact> 0.64605000E+03</totfact>
</mgrwt>
</event>
<event>
 5    1  0.1129390E+001  0.2753284E+03  0.7818608E-02  0.1098268E+00
         -2   -1    0    0    0  501 -0.00000000000E+00  0.00000000000E+00  0.16584192015E+03  0.16584192015E+03  0.00000000000E+00 0.  1.
          2   -1    0    0  501    0  0.00000000000E+00 -0.00000000000E+00 -0.11427403848E+03  0.11427403848E+03  0.00000000000E+00 0.  1.
         35    2    1    2    0    0  0.00000000000E+00  0.00000000000E+00  0.51567881668E+02  0.28011595862E+03  0.27532835643E+03 0.  0.
         25    1    3    3    0    0  0.23889340779E+02 -0.55580856047E+02 -0.45931425830E+01  0.13446571727E+03  0.12000000000E+03 0.  0.
         25    1    3    3    0    0 -0.23889340779E+02  0.55580856047E+02  0.56161024251E+02  0.14565024135E+03  0.12000000000E+03 0.  0.
<mgrwt>
<rscale>  0 0.27532836E+03</rscale>
<asrwt>0</asrwt>
<pdfrwt beam="1">  1        2 0.17580621E-01 0.27532836E+03</pdfrwt>
<pdfrwt beam="2">  1       -2 0.25514141E-01 0.27532836E+03</pdfrwt>
<totfact> 0.43976976E+03</totfact>
</mgrwt>
</event>
<event>
 5    1  0.1129390E+001  0.2751965E+03  0.7818608E-02  0.1098342E+00
          1   -1    0    0  501    0  0.00000000000E+00  0.00000000000E+00  0.68682112084E+02  0.68682112084E+02  0.00000000000E+00 0.  1.
         -3   -1    0    0    0  501 -0.00000000000E+00 -0.00000000000E+00 -0.27566536729E+03  0.27566536729E+03  0.00000000000E+00 0.  1.
         35    2    1    2    0    0  0.00000000000E+00  0.00000000000E+00 -0.20698325520E+03  0.34434747937E+03  0.27519650909E+03 0.  0.
         25    1    3    3    0    0 -0.64611195069E+02  0.30708276014E+01 -0.12687558073E+03  0.18622956128E+03  0.12000000000E+03 0.  0.
         25    1    3    3    0    0  0.64611195069E+02 -0.30708276014E+01 -0.80107674475E+02  0.15811791809E+03  0.12000000000E+03 0.  0.
<mgrwt>
<rscale>  0 0.27519651E+03</rscale>
<asrwt>0</asrwt>
<pdfrwt beam="1">  1        1 0.10566479E-01 0.27519651E+03</pdfrwt>
<pdfrwt beam="2">  1       -3 0.42410056E-01 0.27519651E+03</pdfrwt>
<totfact> 0.17860438E+03</totfact>
</mgrwt>
</event>
<event>
 5    1  0.1129390E+001  0.2752410E+03  0.7818608E-02  0.1098317E+00
         -2   -1    0    0    0  501 -0.00000000000E+00  0.00000000000E+00  0.23311393369E+02  0.23311393369E+02  0.00000000000E+00 0. -1.
          2   -1    0    0  501    0  0.00000000000E+00 -0.00000000000E+00 -0.81245253294E+03  0.81245253294E+03  0.00000000000E+00 0. -1.
         35    2    1    2    0    0  0.00000000000E+00  0.00000000000E+00 -0.78914113957E+03  0.83576392631E+03  0.27524098960E+03 0.  0.
         25    1    3    3    0    0  0.43536147369E+01  0.24205090551E+01 -0.59859377281E+03  0.61052380598E+03  0.12000000000E+03 0.  0.
         25    1    3    3    0    0 -0.43536147369E+01 -0.24205090551E+01 -0.19054736677E+03  0.22524012033E+03  0.12000000000E+03 0.  0.
<mgrwt>
<rscale>  0 0.27524099E+03</rscale>
<asrwt>0</asrwt>
<pdfrwt beam="1">  1        2 0.12499265E+00 0.27524099E+03</pdfrwt>
<pdfrwt beam="2">  1       -2 0.35863696E-02 0.27524099E+03</pdfrwt>
<totfact> 0.11231423E+04</totfact>
</mgrwt>
</event>
<event>
 5    1  0.1129390E+001  0.2747762E+03  0.7818608E-02  0.1098577E+00
          2   -1    0    0  501    0  0.00000000000E+00  0.00000000000E+00  0.63537849360E+03  0.63537849360E+03  0.00000000000E+00 0. -1.
         -2   -1    0    0    0  501 -0.00000000000E+00 -0.00000000000E+00 -0.29707482571E+02  0.29707482571E+02  0.00000000000E+00 0. -1.
         35    2    1    2    0    0  0.00000000000E+00  0.00000000000E+00  0.60567101103E+03  0.66508597617E+03  0.27477624005E+03 0.  0.
         25    1    3    3    0    0 -0.46506732262E+02 -0.39340367659E+02  0.23589075681E+03  0.27157869913E+03  0.12000000000E+03 0.  0.
         25    1    3    3    0    0  0.46506732262E+02  0.39340367659E+02  0.36978025422E+03  0.39350727704E+03  0.12000000000E+03 0.  0.
<mgrwt>
<rscale>  0 0.27477624E+03</rscale>
<asrwt>0</asrwt>
<pdfrwt beam="1">  1        2 0.97750527E-01 0.27477624E+03</pdfrwt>
<pdfrwt beam="2">  1       -2 0.45703824E-02 0.27477624E+03</pdfrwt>
<totfact> 0.10539195E+04</totfact>
</mgrwt>
</event>
<event>
 5    1  0.1129390E+001  0.2747942E+03  0.7818608E-02  0.1098567E+00
         -3   -1    0    0    0  501 -0.00000000000E+00  0.00000000000E+00  0.14872171538E+04  0.14872171538E+04  0.00000000000E+00 0.  1.
          3   -1    0    0  501    0  0.00000000000E+00 -0.00000000000E+00 -0.12693479586E+02  0.12693479586E+02  0.00000000000E+00 0.  1.
         35    2    1    2    0    0  0.00000000000E+00  0.00000000000E+00  0.14745236742E+04  0.14999106333E+04  0.27479418176E+03 0.  0.
         25    1    3    3    0    0  0.35946378748E+01 -0.62429996373E+02  0.60722869226E+03  0.62212306706E+03  0.12000000000E+03 0.  0.
         25    1    3    3    0    0 -0.35946378748E+01  0.62429996373E+02  0.86729498192E+03  0.87778756629E+03  0.12000000000E+03 0.  0.
<mgrwt>
<rscale>  0 0.27479418E+03</rscale>
<asrwt>0</asrwt>
<pdfrwt beam="1">  1        3 0.19528442E-02 0.27479418E+03</pdfrwt>
<pdfrwt beam="2">  1       -3 0.22880250E+00 0.27479418E+03</pdfrwt>
<totfact> 0.26985930E+02</totfact>
</mgrwt>
</event>
<event>
 5    1  0.1129390E+001  0.2748828E+03  0.7818608E-02  0.1098517E+00
         -2   -1    0    0    0  501 -0.00000000000E+00  0.00000000000E+00  0.13169216292E+03  0.13169216292E+03  0.00000000000E+00 0. -1.
          2   -1    0    0  501    0  0.00000000000E+00 -0.00000000000E+00 -0.14344163656E+03  0.14344163656E+03  0.00000000000E+00 0. -1.
         35    2    1    2    0    0  0.00000000000E+00  0.00000000000E+00 -0.11749473648E+02  0.27513379948E+03  0.27488280682E+03 0.  0.
         25    1    3    3    0    0 -0.31622739106E+02  0.15176452044E+02 -0.63021677027E+02  0.14000733588E+03  0.12000000000E+03 0.  0.
         25    1    3    3    0    0  0.31622739106E+02 -0.15176452044E+02  0.51272203379E+02  0.13512646360E+03  0.12000000000E+03 0.  0.
<mgrwt>
<rscale>  0 0.27488281E+03</rscale>
<asrwt>0</asrwt>
<pdfrwt beam="1">  1        2 0.22067944E-01 0.27488281E+03</pdfrwt>
<pdfrwt beam="2">  1       -2 0.20260333E-01 0.27488281E+03</pdfrwt>
<totfact> 0.50610792E+03</totfact>
</mgrwt>
</event>
<event>
 5    1  0.1129390E+001  0.2744624E+03  0.7818608E-02  0.1098752E+00
         -2   -1    0    0    0  501 -0.00000000000E+00  0.00000000000E+00  0.10027859127E+02  0.10027859127E+02  0.00000000000E+00 0. -1.
          2   -1    0    0  501    0  0.00000000000E+00 -0.00000000000E+00 -0.18780085459E+04  0.18780085459E+04  0.00000000000E+00 0. -1.
         35    2    1    2    0    0  0.00000000000E+00  0.00000000000E+00 -0.18679806868E+04  0.18880364051E+04  0.27446242102E+03 0.  0.
         25    1    3    3    0    0  0.13492466735E+02 -0.57330143086E+02 -0.11475301468E+04  0.11552896735E+04  0.12000000000E+03 0.  0.
         25    1    3    3    0    0 -0.13492466735E+02  0.57330143086E+02 -0.72045054005E+03  0.73274673157E+03  0.12000000000E+03 0.  0.
<mgrwt>
<rscale>  0 0.27446242E+03</rscale>
<asrwt>0</asrwt>
<pdfrwt beam="1">  1        2 0.28892469E+00 0.27446242E+03</pdfrwt>
<pdfrwt beam="2">  1       -2 0.15427460E-02 0.27446242E+03</pdfrwt>
<totfact> 0.97500102E+03</totfact>
</mgrwt>
</event>
<event>
 5    1  0.1129390E+001  0.2752115E+03  0.7818608E-02  0.1098333E+00
          1   -1    0    0  501    0  0.00000000000E+00  0.00000000000E+00  0.12272033081E+03  0.12272033081E+03  0.00000000000E+00 0.  1.
         -1   -1    0    0    0  501 -0.00000000000E+00 -0.00000000000E+00 -0.15429669540E+03  0.15429669540E+03  0.00000000000E+00 0.  1.
         35    2    1    2    0    0  0.00000000000E+00  0.00000000000E+00 -0.31576364588E+02  0.27701702621E+03  0.27521149324E+03 0.  0.
         25    1    3    3    0    0 -0.35259205233E+02 -0.60973161172E+01 -0.73214667500E+02  0.14505439102E+03  0.12000000000E+03 0.  0.
         25    1    3    3    0    0  0.35259205233E+02  0.60973161172E+01  0.41638302913E+02  0.13196263519E+03  0.12000000000E+03 0.  0.
<mgrwt>
<rscale>  0 0.27521149E+03</rscale>
<asrwt>0</asrwt>
<pdfrwt beam="1">  1        1 0.18880051E-01 0.27521149E+03</pdfrwt>
<pdfrwt beam="2">  1       -1 0.23737953E-01 0.27521149E+03</pdfrwt>
<totfact> 0.41554059E+03</totfact>
</mgrwt>
</event>
<event>
 5    1  0.1129390E+001  0.2748107E+03  0.7818608E-02  0.1098557E+00
          2   -1    0    0  501    0  0.00000000000E+00  0.00000000000E+00  0.63702209296E+03  0.63702209296E+03  0.00000000000E+00 0. -1.
         -2   -1    0    0    0  501 -0.00000000000E+00 -0.00000000000E+00 -0.29638271813E+02  0.29638271813E+02  0.00000000000E+00 0. -1.
         35    2    1    2    0    0  0.00000000000E+00  0.00000000000E+00  0.60738382114E+03  0.66666036477E+03  0.27481072717E+03 0.  0.
         25    1    3    3    0    0  0.43201556006E+02  0.48913580802E+02  0.26760228486E+03  0.30044948942E+03  0.12000000000E+03 0.  0.
         25    1    3    3    0    0 -0.43201556006E+02 -0.48913580802E+02  0.33978153628E+03  0.36621087535E+03  0.12000000000E+03 0.  0.
<mgrwt>
<rscale>  0 0.27481073E+03</rscale>
<asrwt>0</asrwt>
<pdfrwt beam="1">  1        2 0.98003389E-01 0.27481073E+03</pdfrwt>
<pdfrwt beam="2">  1       -2 0.45597346E-02 0.27481073E+03</pdfrwt>
<totfact> 0.10544327E+04</totfact>
</mgrwt>
</event>
<event>
 5    1  0.1129390E+001  0.2753682E+03  0.7818608E-02  0.1098246E+00
          2   -1    0    0  501    0  0.00000000000E+00  0.00000000000E+00  0.11573683859E+04  0.11573683859E+04  0.00000000000E+00 0. -1.
         -2   -1    0    0    0  501 -0.00000000000E+00 -0.00000000000E+00 -0.16379321989E+02  0.16379321989E+02  0.00000000000E+00 0. -1.
         35    2    1    2    0    0  0.00000000000E+00  0.00000000000E+00  0.11409890640E+04  0.11737477079E+04  0.27536818591E+03 0.  0.
         25    1    3    3    0    0 -0.25753478150E+02 -0.57225216747E+02  0.67653853308E+03  0.68995822613E+03  0.12000000000E+03 0.  0.
         25    1    3    3    0    0  0.25753478150E+02  0.57225216747E+02  0.46445053088E+03  0.48378948180E+03  0.12000000000E+03 0.  0.
<mgrwt>
<rscale>  0 0.27536819E+03</rscale>
<asrwt>0</asrwt>
<pdfrwt beam="1">  1        2 0.17805661E+00 0.27536819E+03</pdfrwt>
<pdfrwt beam="2">  1       -2 0.25198966E-02 0.27536819E+03</pdfrwt>
<totfact> 0.11595242E+04</totfact>
</mgrwt>
</event>
<event>
 5    1  0.1129390E+001  0.2756013E+03  0.7818608E-02  0.1098116E+00
         -2   -1    0    0    0  501 -0.00000000000E+00  0.00000000000E+00  0.22625536587E+03  0.22625536587E+03  0.00000000000E+00 0.  1.
          2   -1    0    0  501    0  0.00000000000E+00 -0.00000000000E+00 -0.83927347883E+02  0.83927347883E+02  0.00000000000E+00 0.  1.
         35    2    1    2    0    0  0.00000000000E+00  0.00000000000E+00  0.14232801799E+03  0.31018271375E+03  0.27560125400E+03 0.  0.
         25    1    3    3    0    0 -0.46159175292E+02  0.44252977486E+02  0.45997155160E+02  0.14354349084E+03  0.12000000000E+03 0.  0.
         25    1    3    3    0    0  0.46159175292E+02 -0.44252977486E+02  0.96330862828E+02  0.16663922291E+03  0.12000000000E+03 0.  0.
<mgrwt>
<rscale>  0 0.27560125E+03</rscale>
<asrwt>0</asrwt>
<pdfrwt beam="1">  1        2 0.12911900E-01 0.27560125E+03</pdfrwt>
<pdfrwt beam="2">  1       -2 0.34808517E-01 0.27560125E+03</pdfrwt>
<totfact> 0.36077680E+03</totfact>
</mgrwt>
</event>
<event>
 5    1  0.1129390E+001  0.2753554E+03  0.7818608E-02  0.1098253E+00
         -4   -1    0    0    0  501 -0.00000000000E+00  0.00000000000E+00  0.73860323723E+03  0.73860323723E+03  0.00000000000E+00 0.  1.
          4   -1    0    0  501    0  0.00000000000E+00 -0.00000000000E+00 -0.25663500570E+02  0.25663500570E+02  0.00000000000E+00 0.  1.
         35    2    1    2    0    0  0.00000000000E+00  0.00000000000E+00  0.71293973666E+03  0.76426673780E+03  0.27535536748E+03 0.  0.
         25    1    3    3    0    0  0.15278636056E+00  0.67484873947E+02  0.35381772243E+03  0.37965933712E+03  0.12000000000E+03 0.  0.
         25    1    3    3    0    0 -0.15278636056E+00 -0.67484873947E+02  0.35912201423E+03  0.38460740069E+03  0.12000000000E+03 0.  0.
<mgrwt>
<rscale>  0 0.27535537E+03</rscale>
<asrwt>0</asrwt>
<pdfrwt beam="1">  1        4 0.39482314E-02 0.27535537E+03</pdfrwt>
<pdfrwt beam="2">  1       -4 0.11363125E+00 0.27535537E+03</pdfrwt>
<totfact> 0.41234633E+02</totfact>
</mgrwt>
</event>
<event>
 5    1  0.1129390E+001  0.2745884E+03  0.7818608E-02  0.1098682E+00
         -3   -1    0    0    0  501 -0.00000000000E+00  0.00000000000E+00  0.17665017123E+03  0.17665017123E+03  0.00000000000E+00 0.  1.
          3   -1    0    0  501    0  0.00000000000E+00 -0.00000000000E+00 -0.10670633790E+03  0.10670633790E+03  0.00000000000E+00 0.  1.
         35    2    1    2    0    0  0.00000000000E+00  0.00000000000E+00  0.69943833321E+02  0.28335650913E+03  0.27458836728E+03 0.  0.
         25    1    3    3    0    0 -0.45354370368E+02 -0.45958605620E+02  0.52254251309E+02  0.14594423292E+03  0.12000000000E+03 0.  0.
         25    1    3    3    0    0  0.45354370368E+02  0.45958605620E+02  0.17689582012E+02  0.13741227621E+03  0.12000000000E+03 0.  0.
<mgrwt>
<rscale>  0 0.27458837E+03</rscale>
<asrwt>0</asrwt>
<pdfrwt beam="1">  1        3 0.16416360E-01 0.27458837E+03</pdfrwt>
<pdfrwt beam="2">  1       -3 0.27176949E-01 0.27458837E+03</pdfrwt>
<totfact> 0.10409456E+03</totfact>
</mgrwt>
</event>
<event>
 5    1  0.1129390E+001  0.2756986E+03  0.7818608E-02  0.1098062E+00
          1   -1    0    0  501    0  0.00000000000E+00  0.00000000000E+00  0.55158377580E+03  0.55158377580E+03  0.00000000000E+00 0.  1.
         -1   -1    0    0    0  501 -0.00000000000E+00 -0.00000000000E+00 -0.34450677061E+02  0.34450677061E+02  0.00000000000E+00 0.  1.
         35    2    1    2    0    0  0.00000000000E+00  0.00000000000E+00  0.51713309874E+03  0.58603445286E+03  0.27569863643E+03 0.  0.
         25    1    3    3    0    0  0.27702464833E+02  0.17744129168E+02  0.38468230707E+03  0.40430527829E+03  0.12000000000E+03 0.  0.
         25    1    3    3    0    0 -0.27702464833E+02 -0.17744129168E+02  0.13245079167E+03  0.18172917457E+03  0.12000000000E+03 0.  0.
<mgrwt>
<rscale>  0 0.27569864E+03</rscale>
<asrwt>0</asrwt>
<pdfrwt beam="1">  1        1 0.84859036E-01 0.27569864E+03</pdfrwt>
<pdfrwt beam="2">  1       -1 0.53001046E-02 0.27569864E+03</pdfrwt>
<totfact> 0.63450271E+03</totfact>
</mgrwt>
</event>
<event>
 5    1  0.1129390E+001  0.2745788E+03  0.7818608E-02  0.1098687E+00
          2   -1    0    0  501    0  0.00000000000E+00  0.00000000000E+00  0.12660745431E+02  0.12660745431E+02  0.00000000000E+00 0.  1.
         -2   -1    0    0    0  501 -0.00000000000E+00 -0.00000000000E+00 -0.14887262255E+04  0.14887262255E+04  0.00000000000E+00 0.  1.
         35    2    1    2    0    0  0.00000000000E+00  0.00000000000E+00 -0.14760654801E+04  0.15013869709E+04  0.27457883209E+03 0.  0.
         25    1    3    3    0    0 -0.37203501464E+02  0.17522886140E+02 -0.10251519304E+04  0.10329702960E+04  0.12000000000E+03 0.  0.
         25    1    3    3    0    0  0.37203501464E+02 -0.17522886140E+02 -0.45091354972E+03  0.46841667496E+03  0.12000000000E+03 0.  0.
<mgrwt>
<rscale>  0 0.27457883E+03</rscale>
<asrwt>0</asrwt>
<pdfrwt beam="1">  1        2 0.19478085E-02 0.27457883E+03</pdfrwt>
<pdfrwt beam="2">  1       -2 0.22903463E+00 0.27457883E+03</pdfrwt>
<totfact> 0.54287576E+02</totfact>
</mgrwt>
</event>
<event>
 5    1  0.1129390E+001  0.2772066E+03  0.7818608E-02  0.1097224E+00
         -2   -1    0    0    0  501 -0.00000000000E+00  0.00000000000E+00  0.85263129708E+01  0.85263129708E+01  0.00000000000E+00 0. -1.
          2   -1    0    0  501    0  0.00000000000E+00 -0.00000000000E+00 -0.22531281130E+04  0.22531281130E+04  0.00000000000E+00 0. -1.
         35    2    1    2    0    0  0.00000000000E+00  0.00000000000E+00 -0.22446018001E+04  0.22616544260E+04  0.27720660494E+03 0.  0.
         25    1    3    3    0    0  0.45625993571E+02 -0.51743734869E+02 -0.11809814527E+04  0.11890653207E+04  0.12000000000E+03 0.  0.
         25    1    3    3    0    0 -0.45625993571E+02  0.51743734869E+02 -0.10636203474E+04  0.10725891053E+04  0.12000000000E+03 0.  0.
<mgrwt>
<rscale>  0 0.27720660E+03</rscale>
<asrwt>0</asrwt>
<pdfrwt beam="1">  1        2 0.34663535E+00 0.27720660E+03</pdfrwt>
<pdfrwt beam="2">  1       -2 0.13117395E-02 0.27720660E+03</pdfrwt>
<totfact> 0.78312053E+03</totfact>
</mgrwt>
</event>
<event>
 5    1  0.1129390E+001  0.2720522E+03  0.7818608E-02  0.1100111E+00
          2   -1    0    0  501    0  0.00000000000E+00  0.00000000000E+00  0.90190125001E+03  0.90190125001E+03  0.00000000000E+00 0.  1.
         -2   -1    0    0    0  501 -0.00000000000E+00 -0.00000000000E+00 -0.20515664024E+02  0.20515664024E+02  0.00000000000E+00 0.  1.
         35    2    1    2    0    0  0.00000000000E+00  0.00000000000E+00  0.88138558599E+03  0.92241691404E+03  0.27205222314E+03 0.  0.
         25    1    3    3    0    0 -0.25855739921E+02  0.51501689557E+02  0.53551776004E+03  0.55181538093E+03  0.12000000000E+03 0.  0.
         25    1    3    3    0    0  0.25855739921E+02 -0.51501689557E+02  0.34586782595E+03  0.37060153311E+03  0.12000000000E+03 0.  0.
<mgrwt>
<rscale>  0 0.27205222E+03</rscale>
<asrwt>0</asrwt>
<pdfrwt beam="1">  1        2 0.13875401E+00 0.27205222E+03</pdfrwt>
<pdfrwt beam="2">  1       -2 0.31562567E-02 0.27205222E+03</pdfrwt>
<totfact> 0.11851335E+04</totfact>
</mgrwt>
</event>
<event>
 5    1  0.1129390E+001  0.2747642E+03  0.7818608E-02  0.1098583E+00
          1   -1    0    0  501    0  0.00000000000E+00  0.00000000000E+00  0.28354492623E+02  0.28354492623E+02  0.00000000000E+00 0. -1.
         -1   -1    0    0    0  501 -0.00000000000E+00 -0.00000000000E+00 -0.66563845580E+03  0.66563845580E+03  0.00000000000E+00 0. -1.
         35    2    1    2    0    0  0.00000000000E+00  0.00000000000E+00 -0.63728396318E+03  0.69399294842E+03  0.27476419479E+03 0.  0.
         25    1    3    3    0    0 -0.16206701642E+02 -0.24806074910E+02 -0.47010103187E+03  0.48607918974E+03  0.12000000000E+03 0.  0.
         25    1    3    3    0    0  0.16206701642E+02  0.24806074910E+02 -0.16718293131E+03  0.20791375868E+03  0.12000000000E+03 0.  0.
<mgrwt>
<rscale>  0 0.27476419E+03</rscale>
<asrwt>0</asrwt>
<pdfrwt beam="1">  1        1 0.43622299E-02 0.27476419E+03</pdfrwt>
<pdfrwt beam="2">  1       -1 0.10240591E+00 0.27476419E+03</pdfrwt>
<totfact> 0.19222017E+03</totfact>
</mgrwt>
</event>
<event>
 5    1  0.1129390E+001  0.2753520E+03  0.7818608E-02  0.1098255E+00
          1   -1    0    0  501    0  0.00000000000E+00  0.00000000000E+00  0.45794153880E+03  0.45794153880E+03  0.00000000000E+00 0.  1.
         -1   -1    0    0    0  501 -0.00000000000E+00 -0.00000000000E+00 -0.41391054452E+02  0.41391054452E+02  0.00000000000E+00 0.  1.
         35    2    1    2    0    0  0.00000000000E+00  0.00000000000E+00  0.41655048435E+03  0.49933259325E+03  0.27535201592E+03 0.  0.
         25    1    3    3    0    0  0.49176940770E+02 -0.50461965297E+01  0.12495892004E+03  0.18016261349E+03  0.12000000000E+03 0.  0.
         25    1    3    3    0    0 -0.49176940770E+02  0.50461965297E+01  0.29159156431E+03  0.31916997976E+03  0.12000000000E+03 0.  0.
<mgrwt>
<rscale>  0 0.27535202E+03</rscale>
<asrwt>0</asrwt>
<pdfrwt beam="1">  1        1 0.70452541E-01 0.27535202E+03</pdfrwt>
<pdfrwt beam="2">  1       -1 0.63678548E-02 0.27535202E+03</pdfrwt>
<totfact> 0.61643005E+03</totfact>
</mgrwt>
</event>
<event>
 5    1  0.1129390E+001  0.2750503E+03  0.7818608E-02  0.1098424E+00
         -2   -1    0    0    0  501 -0.00000000000E+00  0.00000000000E+00  0.62219781209E+01  0.62219781209E+01  0.00000000000E+00 0. -1.
          2   -1    0    0  501    0  0.00000000000E+00 -0.00000000000E+00 -0.30397342932E+04  0.30397342932E+04  0.00000000000E+00 0. -1.
         35    2    1    2    0    0  0.00000000000E+00  0.00000000000E+00 -0.30335123151E+04  0.30459562714E+04  0.27505025189E+03 0.  0.
         25    1    3    3    0    0  0.59441876202E+02 -0.17883822274E+02 -0.18012554064E+04  0.18063150907E+04  0.12000000000E+03 0.  0.
         25    1    3    3    0    0 -0.59441876202E+02  0.17883822274E+02 -0.12322569087E+04  0.12396411807E+04  0.12000000000E+03 0.  0.
<mgrwt>
<rscale>  0 0.27505025E+03</rscale>
<asrwt>0</asrwt>
<pdfrwt beam="1">  1        2 0.46765188E+00 0.27505025E+03</pdfrwt>
<pdfrwt beam="2">  1       -2 0.95722647E-03 0.27505025E+03</pdfrwt>
<totfact> 0.44828454E+03</totfact>
</mgrwt>
</event>
<event>
 5    1  0.1129390E+001  0.2751534E+03  0.7818608E-02  0.1098366E+00
         -2   -1    0    0    0  501 -0.00000000000E+00  0.00000000000E+00  0.10046469515E+03  0.10046469515E+03  0.00000000000E+00 0.  1.
          2   -1    0    0  501    0  0.00000000000E+00 -0.00000000000E+00 -0.18839799013E+03  0.18839799013E+03  0.00000000000E+00 0.  1.
         35    2    1    2    0    0  0.00000000000E+00  0.00000000000E+00 -0.87933294977E+02  0.28886268529E+03  0.27515338738E+03 0.  0.
         25    1    3    3    0    0 -0.36593884947E+02  0.12526905864E+02 -0.10176717715E+03  0.16202652293E+03  0.12000000000E+03 0.  0.
         25    1    3    3    0    0  0.36593884947E+02 -0.12526905864E+02  0.13833882176E+02  0.12683616236E+03  0.12000000000E+03 0.  0.
<mgrwt>
<rscale>  0 0.27515339E+03</rscale>
<asrwt>0</asrwt>
<pdfrwt beam="1">  1        2 0.28984306E-01 0.27515339E+03</pdfrwt>
<pdfrwt beam="2">  1       -2 0.15456107E-01 0.27515339E+03</pdfrwt>
<totfact> 0.58895944E+03</totfact>
</mgrwt>
</event>
<event>
 5    1  0.1129390E+001  0.2746518E+03  0.7818608E-02  0.1098646E+00
          2   -1    0    0  501    0  0.00000000000E+00  0.00000000000E+00  0.17525407357E+04  0.17525407357E+04  0.00000000000E+00 0. -1.
         -2   -1    0    0    0  501 -0.00000000000E+00 -0.00000000000E+00 -0.10760604701E+02  0.10760604701E+02  0.00000000000E+00 0. -1.
         35    2    1    2    0    0  0.00000000000E+00  0.00000000000E+00  0.17417801310E+04  0.17633013404E+04  0.27465176555E+03 0.  0.
         25    1    3    3    0    0 -0.56042577034E+02  0.22983327616E+02  0.69050892317E+03  0.70347109164E+03  0.12000000000E+03 0.  0.
         25    1    3    3    0    0  0.56042577034E+02 -0.22983327616E+02  0.10512712079E+04  0.10598302488E+04  0.12000000000E+03 0.  0.
<mgrwt>
<rscale>  0 0.27465177E+03</rscale>
<asrwt>0</asrwt>
<pdfrwt beam="1">  1        2 0.26962143E+00 0.27465177E+03</pdfrwt>
<pdfrwt beam="2">  1       -2 0.16554790E-02 0.27465177E+03</pdfrwt>
<totfact> 0.10233577E+04</totfact>
</mgrwt>
</event>
<event>
 5    1  0.1129390E+001  0.2756778E+03  0.7818608E-02  0.1098073E+00
          1   -1    0    0  501    0  0.00000000000E+00  0.00000000000E+00  0.25975567070E+03  0.25975567070E+03  0.00000000000E+00 0. -1.
         -1   -1    0    0    0  501 -0.00000000000E+00 -0.00000000000E+00 -0.73143995605E+02  0.73143995605E+02  0.00000000000E+00 0. -1.
         35    2    1    2    0    0  0.00000000000E+00  0.00000000000E+00  0.18661167510E+03  0.33289966630E+03  0.27567783833E+03 0.  0.
         25    1    3    3    0    0 -0.41890018617E+01 -0.57843944683E+02  0.13576172765E+03  0.19024909032E+03  0.12000000000E+03 0.  0.
         25    1    3    3    0    0  0.41890018617E+01  0.57843944683E+02  0.50849947441E+02  0.14265057598E+03  0.12000000000E+03 0.  0.
<mgrwt>
<rscale>  0 0.27567784E+03</rscale>
<asrwt>0</asrwt>
<pdfrwt beam="1">  1        1 0.39962410E-01 0.27567784E+03</pdfrwt>
<pdfrwt beam="2">  1       -1 0.11252923E-01 0.27567784E+03</pdfrwt>
<totfact> 0.52962081E+03</totfact>
</mgrwt>
</event>
<event>
 5    1  0.1129390E+001  0.2748578E+03  0.7818608E-02  0.1098531E+00
         -1   -1    0    0    0  501 -0.00000000000E+00  0.00000000000E+00  0.19922932201E+02  0.19922932201E+02  0.00000000000E+00 0. -1.
          1   -1    0    0  501    0  0.00000000000E+00 -0.00000000000E+00 -0.94798796082E+03  0.94798796082E+03  0.00000000000E+00 0. -1.
         35    2    1    2    0    0  0.00000000000E+00  0.00000000000E+00 -0.92806502862E+03  0.96791089303E+03  0.27485778047E+03 0.  0.
         25    1    3    3    0    0  0.26910954703E+02  0.42797796367E+02 -0.30929290367E+03  0.33558598171E+03  0.12000000000E+03 0.  0.
         25    1    3    3    0    0 -0.26910954703E+02 -0.42797796367E+02 -0.61877212495E+03  0.63232491132E+03  0.12000000000E+03 0.  0.
<mgrwt>
<rscale>  0 0.27485778E+03</rscale>
<asrwt>0</asrwt>
<pdfrwt beam="1">  1        1 0.14584430E+00 0.27485778E+03</pdfrwt>
<pdfrwt beam="2">  1       -1 0.30650666E-02 0.27485778E+03</pdfrwt>
<totfact> 0.63951986E+03</totfact>
</mgrwt>
</event>
<event>
 5    1  0.1129390E+001  0.2736918E+03  0.7818608E-02  0.1099185E+00
          2   -1    0    0  501    0  0.00000000000E+00  0.00000000000E+00  0.11290934991E+03  0.11290934991E+03  0.00000000000E+00 0.  1.
         -2   -1    0    0    0  501 -0.00000000000E+00 -0.00000000000E+00 -0.16585690386E+03  0.16585690386E+03  0.00000000000E+00 0.  1.
         35    2    1    2    0    0  0.00000000000E+00  0.00000000000E+00 -0.52947553957E+02  0.27876625377E+03  0.27369176234E+03 0.  0.
         25    1    3    3    0    0  0.32697713383E+02 -0.16292191073E+02 -0.82189167442E+02  0.14996544667E+03  0.12000000000E+03 0.  0.
         25    1    3    3    0    0 -0.32697713383E+02  0.16292191073E+02  0.29241613485E+02  0.12880080710E+03  0.12000000000E+03 0.  0.
<mgrwt>
<rscale>  0 0.27369176E+03</rscale>
<asrwt>0</asrwt>
<pdfrwt beam="1">  1        2 0.17370669E-01 0.27369176E+03</pdfrwt>
<pdfrwt beam="2">  1       -2 0.25516447E-01 0.27369176E+03</pdfrwt>
<totfact> 0.44580257E+03</totfact>
</mgrwt>
</event>
<event>
 5    1  0.1129390E+001  0.2743697E+03  0.7818608E-02  0.1098804E+00
          2   -1    0    0  501    0  0.00000000000E+00  0.00000000000E+00  0.23212733928E+04  0.23212733928E+04  0.00000000000E+00 0.  1.
         -2   -1    0    0    0  501 -0.00000000000E+00 -0.00000000000E+00 -0.81074834747E+01  0.81074834747E+01  0.00000000000E+00 0.  1.
         35    2    1    2    0    0  0.00000000000E+00  0.00000000000E+00  0.23131659093E+04  0.23293808762E+04  0.27436971897E+03 0.  0.
         25    1    3    3    0    0 -0.31482273020E+02 -0.43998930168E+02  0.82857620404E+03  0.83896696316E+03  0.12000000000E+03 0.  0.
         25    1    3    3    0    0  0.31482273020E+02  0.43998930168E+02  0.14845897052E+04  0.14904139131E+04  0.12000000000E+03 0.  0.
<mgrwt>
<rscale>  0 0.27436972E+03</rscale>
<asrwt>0</asrwt>
<pdfrwt beam="1">  1        2 0.35711845E+00 0.27436972E+03</pdfrwt>
<pdfrwt beam="2">  1       -2 0.12473070E-02 0.27436972E+03</pdfrwt>
<totfact> 0.77485015E+03</totfact>
</mgrwt>
</event>
<event>
 5    1  0.1129390E+001  0.2753560E+03  0.7818608E-02  0.1098253E+00
         -2   -1    0    0    0  501 -0.00000000000E+00  0.00000000000E+00  0.38095742529E+02  0.38095742529E+02  0.00000000000E+00 0.  1.
          2   -1    0    0  501    0  0.00000000000E+00 -0.00000000000E+00 -0.49756834724E+03  0.49756834724E+03  0.00000000000E+00 0.  1.
         35    2    1    2    0    0  0.00000000000E+00  0.00000000000E+00 -0.45947260472E+03  0.53566408977E+03  0.27535602879E+03 0.  0.
         25    1    3    3    0    0 -0.34971399158E+02  0.33548520944E+02 -0.32112087813E+03  0.34621831319E+03  0.12000000000E+03 0.  0.
         25    1    3    3    0    0  0.34971399158E+02 -0.33548520944E+02 -0.13835172659E+03  0.18944577659E+03  0.12000000000E+03 0.  0.
<mgrwt>
<rscale>  0 0.27535603E+03</rscale>
<asrwt>0</asrwt>
<pdfrwt beam="1">  1        2 0.76548974E-01 0.27535603E+03</pdfrwt>
<pdfrwt beam="2">  1       -2 0.58608837E-02 0.27535603E+03</pdfrwt>
<totfact> 0.95509871E+03</totfact>
</mgrwt>
</event>
<event>
 5    1  0.1129390E+001  0.2746950E+03  0.7818608E-02  0.1098622E+00
          2   -1    0    0  501    0  0.00000000000E+00  0.00000000000E+00  0.10867704932E+03  0.10867704932E+03  0.00000000000E+00 0. -1.
         -2   -1    0    0    0  501 -0.00000000000E+00 -0.00000000000E+00 -0.17358164456E+03  0.17358164456E+03  0.00000000000E+00 0. -1.
         35    2    1    2    0    0  0.00000000000E+00  0.00000000000E+00 -0.64904595243E+02  0.28225869388E+03  0.27469503779E+03 0.  0.
         25    1    3    3    0    0  0.61115876976E+02 -0.76394885070E+01 -0.58387760855E+01  0.13500964228E+03  0.12000000000E+03 0.  0.
         25    1    3    3    0    0 -0.61115876976E+02  0.76394885070E+01 -0.59065819157E+02  0.14724905160E+03  0.12000000000E+03 0.  0.
<mgrwt>
<rscale>  0 0.27469504E+03</rscale>
<asrwt>0</asrwt>
<pdfrwt beam="1">  1        2 0.16719546E-01 0.27469504E+03</pdfrwt>
<pdfrwt beam="2">  1       -2 0.26704868E-01 0.27469504E+03</pdfrwt>
<totfact> 0.42999124E+03</totfact>
</mgrwt>
</event>
<event>
 5    1  0.1129390E+001  0.2753232E+03  0.7818608E-02  0.1098271E+00
          1   -1    0    0  501    0  0.00000000000E+00  0.00000000000E+00  0.68823898121E+02  0.68823898121E+02  0.00000000000E+00 0. -1.
         -1   -1    0    0    0  501 -0.00000000000E+00 -0.00000000000E+00 -0.27535082235E+03  0.27535082235E+03  0.00000000000E+00 0. -1.
         35    2    1    2    0    0  0.00000000000E+00  0.00000000000E+00 -0.20652692423E+03  0.34417472047E+03  0.27532320603E+03 0.  0.
         25    1    3    3    0    0 -0.56481231161E+02  0.59727777290E+00 -0.57159055014E+02  0.14442175662E+03  0.12000000000E+03 0.  0.
         25    1    3    3    0    0  0.56481231161E+02 -0.59727777290E+00 -0.14936786921E+03  0.19975296385E+03  0.12000000000E+03 0.  0.
<mgrwt>
<rscale>  0 0.27532321E+03</rscale>
<asrwt>0</asrwt>
<pdfrwt beam="1">  1        1 0.10588292E-01 0.27532321E+03</pdfrwt>
<pdfrwt beam="2">  1       -1 0.42361665E-01 0.27532321E+03</pdfrwt>
<totfact> 0.32926853E+03</totfact>
</mgrwt>
</event>
<event>
 5    1  0.1129390E+001  0.2740006E+03  0.7818608E-02  0.1099012E+00
          1   -1    0    0  501    0  0.00000000000E+00  0.00000000000E+00  0.41714148644E+02  0.41714148644E+02  0.00000000000E+00 0. -1.
         -1   -1    0    0    0  501 -0.00000000000E+00 -0.00000000000E+00 -0.44994538568E+03  0.44994538568E+03  0.00000000000E+00 0. -1.
         35    2    1    2    0    0  0.00000000000E+00  0.00000000000E+00 -0.40823123703E+03  0.49165953432E+03  0.27400064744E+03 0.  0.
         25    1    3    3    0    0 -0.16906454486E+02 -0.58113235092E+02 -0.15643413088E+03  0.20623921450E+03  0.12000000000E+03 0.  0.
         25    1    3    3    0    0  0.16906454486E+02  0.58113235092E+02 -0.25179710616E+03  0.28542031982E+03  0.12000000000E+03 0.  0.
<mgrwt>
<rscale>  0 0.27400065E+03</rscale>
<asrwt>0</asrwt>
<pdfrwt beam="1">  1        1 0.64175613E-02 0.27400065E+03</pdfrwt>
<pdfrwt beam="2">  1       -1 0.69222368E-01 0.27400065E+03</pdfrwt>
<totfact> 0.25748852E+03</totfact>
</mgrwt>
</event>
<event>
 5    1  0.1129390E+001  0.2744520E+03  0.7818608E-02  0.1098758E+00
         -2   -1    0    0    0  501 -0.00000000000E+00  0.00000000000E+00  0.80217940900E+03  0.80217940900E+03  0.00000000000E+00 0.  1.
          2   -1    0    0  501    0  0.00000000000E+00 -0.00000000000E+00 -0.23474760824E+02  0.23474760824E+02  0.00000000000E+00 0.  1.
         35    2    1    2    0    0  0.00000000000E+00  0.00000000000E+00  0.77870464818E+03  0.82565416983E+03  0.27445196129E+03 0.  0.
         25    1    3    3    0    0  0.25479843838E+02 -0.51701107429E+02  0.28918011559E+03  0.31835101100E+03  0.12000000000E+03 0.  0.
         25    1    3    3    0    0 -0.25479843838E+02  0.51701107429E+02  0.48952453259E+03  0.50730315883E+03  0.12000000000E+03 0.  0.
<mgrwt>
<rscale>  0 0.27445196E+03</rscale>
<asrwt>0</asrwt>
<pdfrwt beam="1">  1        2 0.36115023E-02 0.27445196E+03</pdfrwt>
<pdfrwt beam="2">  1       -2 0.12341220E+00 0.27445196E+03</pdfrwt>
<totfact> 0.12614956E+03</totfact>
</mgrwt>
</event>
<event>
 4    1  0.1129390E+001  0.2906292E+03  0.7818608E-02  0.1090021E+00
         -1   -1    0    0    0  501 -0.00000000000E+00  0.00000000000E+00  0.54817224887E+02  0.54817224887E+02  0.00000000000E+00 0.  1.
          1   -1    0    0  501    0  0.00000000000E+00 -0.00000000000E+00 -0.38521357671E+03  0.38521357671E+03  0.00000000000E+00 0.  1.
         25    1    1    2    0    0 -0.61231616228E+01 -0.41110782568E+02 -0.58258312674E+02  0.13971979297E+03  0.12000000000E+03 0.  0.
         25    1    1    2    0    0  0.61231616228E+01  0.41110782568E+02 -0.27213803914E+03  0.30031100862E+03  0.12000000000E+03 0.  0.
<mgrwt>
<rscale>  0 0.29062924E+03</rscale>
<asrwt>0</asrwt>
<pdfrwt beam="1">  1        1 0.59263625E-01 0.29062924E+03</pdfrwt>
<pdfrwt beam="2">  1       -1 0.84334195E-02 0.29062924E+03</pdfrwt>
<totfact> 0.50333804E+03</totfact>
</mgrwt>
</event>
<event>
 5    1  0.1129390E+001  0.2747239E+03  0.7818608E-02  0.1098606E+00
          1   -1    0    0  501    0  0.00000000000E+00  0.00000000000E+00  0.22214044524E+03  0.22214044524E+03  0.00000000000E+00 0. -1.
         -1   -1    0    0    0  501 -0.00000000000E+00 -0.00000000000E+00 -0.84938647603E+02  0.84938647603E+02  0.00000000000E+00 0. -1.
         35    2    1    2    0    0  0.00000000000E+00  0.00000000000E+00  0.13720179764E+03  0.30707909285E+03  0.27472392686E+03 0.  0.
         25    1    3    3    0    0 -0.13056540214E+02 -0.34996146233E+02  0.13056533446E+03  0.18122502602E+03  0.12000000000E+03 0.  0.
         25    1    3    3    0    0  0.13056540214E+02  0.34996146233E+02  0.66364631843E+01  0.12585406683E+03  0.12000000000E+03 0.  0.
<mgrwt>
<rscale>  0 0.27472393E+03</rscale>
<asrwt>0</asrwt>
<pdfrwt beam="1">  1        1 0.34175453E-01 0.27472393E+03</pdfrwt>
<pdfrwt beam="2">  1       -1 0.13067484E-01 0.27472393E+03</pdfrwt>
<totfact> 0.51020237E+03</totfact>
</mgrwt>
</event>
<event>
 5    1  0.1129390E+001  0.2749832E+03  0.7818608E-02  0.1098461E+00
         -2   -1    0    0    0  501 -0.00000000000E+00  0.00000000000E+00  0.23017866149E+02  0.23017866149E+02  0.00000000000E+00 0. -1.
          2   -1    0    0  501    0  0.00000000000E+00 -0.00000000000E+00 -0.82127220627E+03  0.82127220627E+03  0.00000000000E+00 0. -1.
         35    2    1    2    0    0  0.00000000000E+00  0.00000000000E+00 -0.79825434012E+03  0.84429007242E+03  0.27498315378E+03 0.  0.
         25    1    3    3    0    0 -0.13602557164E+02 -0.34932193825E+02 -0.57003878396E+03  0.58373752915E+03  0.12000000000E+03 0.  0.
         25    1    3    3    0    0  0.13602557164E+02  0.34932193825E+02 -0.22821555616E+03  0.26055254326E+03  0.12000000000E+03 0.  0.
<mgrwt>
<rscale>  0 0.27498315E+03</rscale>
<asrwt>0</asrwt>
<pdfrwt beam="1">  1        2 0.12634955E+00 0.27498315E+03</pdfrwt>
<pdfrwt beam="2">  1       -2 0.35412107E-02 0.27498315E+03</pdfrwt>
<totfact> 0.11288650E+04</totfact>
</mgrwt>
</event>
<event>
 5    1  0.1129390E+001  0.2749803E+03  0.7818608E-02  0.1098463E+00
         -2   -1    0    0    0  501 -0.00000000000E+00  0.00000000000E+00  0.18773429314E+03  0.18773429314E+03  0.00000000000E+00 0.  1.
          2   -1    0    0  501    0  0.00000000000E+00 -0.00000000000E+00 -0.10069307302E+03  0.10069307302E+03  0.00000000000E+00 0.  1.
         35    2    1    2    0    0  0.00000000000E+00  0.00000000000E+00  0.87041220126E+02  0.28842736616E+03  0.27498031121E+03 0.  0.
         25    1    3    3    0    0  0.51131221750E+02 -0.22942130958E+02  0.82241994447E+02  0.15589897005E+03  0.12000000000E+03 0.  0.
         25    1    3    3    0    0 -0.51131221750E+02  0.22942130958E+02  0.47992256788E+01  0.13252839612E+03  0.12000000000E+03 0.  0.
<mgrwt>
<rscale>  0 0.27498031E+03</rscale>
<asrwt>0</asrwt>
<pdfrwt beam="1">  1        2 0.15491242E-01 0.27498031E+03</pdfrwt>
<pdfrwt beam="2">  1       -2 0.28882199E-01 0.27498031E+03</pdfrwt>
<totfact> 0.40867105E+03</totfact>
</mgrwt>
</event>
<event>
 5    1  0.1129390E+001  0.2756828E+03  0.7818608E-02  0.1098071E+00
          2   -1    0    0  501    0  0.00000000000E+00  0.00000000000E+00  0.24508283794E+03  0.24508283794E+03  0.00000000000E+00 0.  1.
         -2   -1    0    0    0  501 -0.00000000000E+00 -0.00000000000E+00 -0.77525822243E+02  0.77525822243E+02  0.00000000000E+00 0.  1.
         35    2    1    2    0    0  0.00000000000E+00  0.00000000000E+00  0.16755701570E+03  0.32260866019E+03  0.27568277806E+03 0.  0.
         25    1    3    3    0    0  0.58281972778E+01  0.56858720612E+02  0.41047694372E+02  0.13911073002E+03  0.12000000000E+03 0.  0.
         25    1    3    3    0    0 -0.58281972778E+01 -0.56858720612E+02  0.12650932133E+03  0.18349793017E+03  0.12000000000E+03 0.  0.
<mgrwt>
<rscale>  0 0.27568278E+03</rscale>
<asrwt>0</asrwt>
<pdfrwt beam="1">  1        2 0.37705052E-01 0.27568278E+03</pdfrwt>
<pdfrwt beam="2">  1       -2 0.11927050E-01 0.27568278E+03</pdfrwt>
<totfact> 0.67551106E+03</totfact>
</mgrwt>
</event>
<event>
 5    1  0.1129390E+001  0.2743612E+03  0.7818608E-02  0.1098809E+00
          1   -1    0    0  501    0  0.00000000000E+00  0.00000000000E+00  0.11454683121E+04  0.11454683121E+04  0.00000000000E+00 0.  1.
         -1   -1    0    0    0  501 -0.00000000000E+00 -0.00000000000E+00 -0.16428662785E+02  0.16428662785E+02  0.00000000000E+00 0.  1.
         35    2    1    2    0    0  0.00000000000E+00  0.00000000000E+00  0.11290396493E+04  0.11618969749E+04  0.27436116802E+03 0.  0.
         25    1    3    3    0    0  0.47291841398E+02  0.15908163289E+02  0.75051540126E+03  0.76168428857E+03  0.12000000000E+03 0.  0.
         25    1    3    3    0    0 -0.47291841398E+02 -0.15908163289E+02  0.37852424803E+03  0.40021268629E+03  0.12000000000E+03 0.  0.
<mgrwt>
<rscale>  0 0.27436117E+03</rscale>
<asrwt>0</asrwt>
<pdfrwt beam="1">  1        1 0.17622583E+00 0.27436117E+03</pdfrwt>
<pdfrwt beam="2">  1       -1 0.25274875E-02 0.27436117E+03</pdfrwt>
<totfact> 0.60793528E+03</totfact>
</mgrwt>
</event>
<event>
 5    1  0.1129390E+001  0.2767460E+03  0.7818608E-02  0.1097480E+00
          1   -1    0    0  501    0  0.00000000000E+00  0.00000000000E+00  0.21892341446E+04  0.21892341446E+04  0.00000000000E+00 0. -1.
         -1   -1    0    0    0  501 -0.00000000000E+00 -0.00000000000E+00 -0.87460232632E+01  0.87460232632E+01  0.00000000000E+00 0. -1.
         35    2    1    2    0    0  0.00000000000E+00  0.00000000000E+00  0.21804881213E+04  0.21979801678E+04  0.27674604067E+03 0.  0.
         25    1    3    3    0    0 -0.51613527108E+02  0.14618673310E+02  0.14336415135E+04  0.14396546986E+04  0.12000000000E+03 0.  0.
         25    1    3    3    0    0  0.51613527108E+02 -0.14618673310E+02  0.74684660777E+03  0.75832546926E+03  0.12000000000E+03 0.  0.
<mgrwt>
<rscale>  0 0.27674604E+03</rscale>
<asrwt>0</asrwt>
<pdfrwt beam="1">  1        1 0.33680482E+00 0.27674604E+03</pdfrwt>
<pdfrwt beam="2">  1       -1 0.13455438E-02 0.27674604E+03</pdfrwt>
<totfact> 0.31058719E+03</totfact>
</mgrwt>
</event>
<event>
 5    1  0.1129390E+001  0.2752208E+03  0.7818608E-02  0.1098328E+00
          2   -1    0    0  501    0  0.00000000000E+00  0.00000000000E+00  0.11359918817E+04  0.11359918817E+04  0.00000000000E+00 0.  1.
         -2   -1    0    0    0  501 -0.00000000000E+00 -0.00000000000E+00 -0.16669681840E+02  0.16669681840E+02  0.00000000000E+00 0.  1.
         35    2    1    2    0    0  0.00000000000E+00  0.00000000000E+00  0.11193221998E+04  0.11526615635E+04  0.27522080765E+03 0.  0.
         25    1    3    3    0    0 -0.55740078243E+02 -0.29179669812E+02  0.66036928469E+03  0.67412610216E+03  0.12000000000E+03 0.  0.
         25    1    3    3    0    0  0.55740078243E+02  0.29179669812E+02  0.45895291514E+03  0.47853546135E+03  0.12000000000E+03 0.  0.
<mgrwt>
<rscale>  0 0.27522081E+03</rscale>
<asrwt>0</asrwt>
<pdfrwt beam="1">  1        2 0.17476792E+00 0.27522081E+03</pdfrwt>
<pdfrwt beam="2">  1       -2 0.25645673E-02 0.27522081E+03</pdfrwt>
<totfact> 0.11623191E+04</totfact>
</mgrwt>
</event>
<event>
 5    1  0.1129390E+001  0.2744010E+03  0.7818608E-02  0.1098787E+00
          2   -1    0    0  501    0  0.00000000000E+00  0.00000000000E+00  0.86396826396E+02  0.86396826396E+02  0.00000000000E+00 0. -1.
         -2   -1    0    0    0  501 -0.00000000000E+00 -0.00000000000E+00 -0.21787815291E+03  0.21787815291E+03  0.00000000000E+00 0. -1.
         35    2    1    2    0    0  0.00000000000E+00  0.00000000000E+00 -0.13148132652E+03  0.30427497931E+03  0.27440102735E+03 0.  0.
         25    1    3    3    0    0 -0.59746362172E+02 -0.25837382467E+02 -0.50585906119E+02  0.14558891449E+03  0.12000000000E+03 0.  0.
         25    1    3    3    0    0  0.59746362172E+02  0.25837382467E+02 -0.80895420400E+02  0.15868606482E+03  0.12000000000E+03 0.  0.
<mgrwt>
<rscale>  0 0.27440103E+03</rscale>
<asrwt>0</asrwt>
<pdfrwt beam="1">  1        2 0.13291820E-01 0.27440103E+03</pdfrwt>
<pdfrwt beam="2">  1       -2 0.33519716E-01 0.27440103E+03</pdfrwt>
<totfact> 0.37361453E+03</totfact>
</mgrwt>
</event>
<event>
 5    1  0.1129390E+001  0.2731542E+03  0.7818608E-02  0.1099488E+00
          1   -1    0    0  501    0  0.00000000000E+00  0.00000000000E+00  0.30403527129E+03  0.30403527129E+03  0.00000000000E+00 0. -1.
         -1   -1    0    0    0  501 -0.00000000000E+00 -0.00000000000E+00 -0.61352439464E+02  0.61352439464E+02  0.00000000000E+00 0. -1.
         35    2    1    2    0    0  0.00000000000E+00  0.00000000000E+00  0.24268283183E+03  0.36538771075E+03  0.27315420975E+03 0.  0.
         25    1    3    3    0    0 -0.17705522791E+02  0.32176878279E+02  0.19343213823E+03  0.23057499676E+03  0.12000000000E+03 0.  0.
         25    1    3    3    0    0  0.17705522791E+02 -0.32176878279E+02  0.49250693596E+02  0.13481271399E+03  0.12000000000E+03 0.  0.
<mgrwt>
<rscale>  0 0.27315421E+03</rscale>
<asrwt>0</asrwt>
<pdfrwt beam="1">  1        1 0.46774656E-01 0.27315421E+03</pdfrwt>
<pdfrwt beam="2">  1       -1 0.94388370E-02 0.27315421E+03</pdfrwt>
<totfact> 0.57041452E+03</totfact>
</mgrwt>
</event>
<event>
 5    1  0.1129390E+001  0.2752096E+03  0.7818608E-02  0.1098335E+00
         -3   -1    0    0    0  501 -0.00000000000E+00  0.00000000000E+00  0.19161774570E+03  0.19161774570E+03  0.00000000000E+00 0.  1.
          3   -1    0    0  501    0  0.00000000000E+00 -0.00000000000E+00 -0.98816934369E+02  0.98816934369E+02  0.00000000000E+00 0.  1.
         35    2    1    2    0    0  0.00000000000E+00  0.00000000000E+00  0.92800811328E+02  0.29043468007E+03  0.27520957978E+03 0.  0.
         25    1    3    3    0    0  0.43322986511E+02  0.46499346188E+02  0.22897086487E+02  0.13770746866E+03  0.12000000000E+03 0.  0.
         25    1    3    3    0    0 -0.43322986511E+02 -0.46499346188E+02  0.69903724841E+02  0.15272721140E+03  0.12000000000E+03 0.  0.
<mgrwt>
<rscale>  0 0.27520958E+03</rscale>
<asrwt>0</asrwt>
<pdfrwt beam="1">  1        3 0.15202605E-01 0.27520958E+03</pdfrwt>
<pdfrwt beam="2">  1       -3 0.29479653E-01 0.27520958E+03</pdfrwt>
<totfact> 0.10231670E+03</totfact>
</mgrwt>
</event>
<event>
 4    1  0.1129390E+001  0.3108794E+03  0.7818608E-02  0.1079925E+00
         -1   -1    0    0    0  501 -0.00000000000E+00  0.00000000000E+00  0.10896612298E+03  0.10896612298E+03  0.00000000000E+00 0. -1.
          1   -1    0    0  501    0  0.00000000000E+00 -0.00000000000E+00 -0.22173410321E+03  0.22173410321E+03  0.00000000000E+00 0. -1.
         25    1    1    2    0    0 -0.45164767477E+02  0.60125874758E+02  0.11783910910E+02  0.14210502311E+03  0.12000000000E+03 0.  0.
         25    1    1    2    0    0  0.45164767477E+02 -0.60125874758E+02 -0.12455189115E+03  0.18859520308E+03  0.12000000000E+03 0.  0.
<mgrwt>
<rscale>  0 0.31087943E+03</rscale>
<asrwt>0</asrwt>
<pdfrwt beam="1">  1        1 0.34112938E-01 0.31087943E+03</pdfrwt>
<pdfrwt beam="2">  1       -1 0.16764019E-01 0.31087943E+03</pdfrwt>
<totfact> 0.34543512E+03</totfact>
</mgrwt>
</event>
<event>
 5    1  0.1129390E+001  0.2727991E+03  0.7818608E-02  0.1099688E+00
          1   -1    0    0  501    0  0.00000000000E+00  0.00000000000E+00  0.48944645039E+03  0.48944645039E+03  0.00000000000E+00 0. -1.
         -1   -1    0    0    0  501 -0.00000000000E+00 -0.00000000000E+00 -0.38012002012E+02  0.38012002012E+02  0.00000000000E+00 0. -1.
         35    2    1    2    0    0  0.00000000000E+00  0.00000000000E+00  0.45143444838E+03  0.52745845240E+03  0.27279911625E+03 0.  0.
         25    1    3    3    0    0 -0.15896206880E+02 -0.58224202030E+02  0.27155770234E+03  0.30296259306E+03  0.12000000000E+03 0.  0.
         25    1    3    3    0    0  0.15896206880E+02  0.58224202030E+02  0.17987674604E+03  0.22449585934E+03  0.12000000000E+03 0.  0.
<mgrwt>
<rscale>  0 0.27279912E+03</rscale>
<asrwt>0</asrwt>
<pdfrwt beam="1">  1        1 0.75299449E-01 0.27279912E+03</pdfrwt>
<pdfrwt beam="2">  1       -1 0.58480007E-02 0.27279912E+03</pdfrwt>
<totfact> 0.64207479E+03</totfact>
</mgrwt>
</event>
<event>
 5    1  0.1129390E+001  0.2750965E+03  0.7818608E-02  0.1098398E+00
          2   -1    0    0  501    0  0.00000000000E+00  0.00000000000E+00  0.76933099864E+02  0.76933099864E+02  0.00000000000E+00 0. -1.
         -2   -1    0    0    0  501 -0.00000000000E+00 -0.00000000000E+00 -0.24592166491E+03  0.24592166491E+03  0.00000000000E+00 0. -1.
         35    2    1    2    0    0  0.00000000000E+00  0.00000000000E+00 -0.16898856505E+03  0.32285476478E+03  0.27509646312E+03 0.  0.
         25    1    3    3    0    0 -0.65586683137E+02 -0.12743830338E+02 -0.75751291476E+02  0.15685112807E+03  0.12000000000E+03 0.  0.
         25    1    3    3    0    0  0.65586683137E+02  0.12743830338E+02 -0.93237273570E+02  0.16600363671E+03  0.12000000000E+03 0.  0.
<mgrwt>
<rscale>  0 0.27509646E+03</rscale>
<asrwt>0</asrwt>
<pdfrwt beam="1">  1        2 0.11835862E-01 0.27509646E+03</pdfrwt>
<pdfrwt beam="2">  1       -2 0.37834102E-01 0.27509646E+03</pdfrwt>
<totfact> 0.34287984E+03</totfact>
</mgrwt>
</event>
<event>
 5    1  0.1129390E+001  0.2753351E+03  0.7818608E-02  0.1098264E+00
         -2   -1    0    0    0  501 -0.00000000000E+00  0.00000000000E+00  0.39726884312E+03  0.39726884312E+03  0.00000000000E+00 0. -1.
          2   -1    0    0  501    0  0.00000000000E+00 -0.00000000000E+00 -0.47706623614E+02  0.47706623614E+02  0.00000000000E+00 0. -1.
         35    2    1    2    0    0  0.00000000000E+00  0.00000000000E+00  0.34956221951E+03  0.44497546674E+03  0.27533510617E+03 0.  0.
         25    1    3    3    0    0 -0.13445885497E+02  0.31795299761E+02  0.81093032206E+02  0.14888859189E+03  0.12000000000E+03 0.  0.
         25    1    3    3    0    0  0.13445885497E+02 -0.31795299761E+02  0.26846918730E+03  0.29608687484E+03  0.12000000000E+03 0.  0.
<mgrwt>
<rscale>  0 0.27533511E+03</rscale>
<asrwt>0</asrwt>
<pdfrwt beam="1">  1        2 0.73394808E-02 0.27533511E+03</pdfrwt>
<pdfrwt beam="2">  1       -2 0.61118281E-01 0.27533511E+03</pdfrwt>
<totfact> 0.24108253E+03</totfact>
</mgrwt>
</event>
<event>
 5    1  0.1129390E+001  0.2754502E+03  0.7818608E-02  0.1098200E+00
         -1   -1    0    0    0  501 -0.00000000000E+00  0.00000000000E+00  0.22307336792E+02  0.22307336792E+02  0.00000000000E+00 0.  1.
          1   -1    0    0  501    0  0.00000000000E+00 -0.00000000000E+00 -0.85031230125E+03  0.85031230125E+03  0.00000000000E+00 0.  1.
         35    2    1    2    0    0  0.00000000000E+00  0.00000000000E+00 -0.82800496446E+03  0.87261963805E+03  0.27545019791E+03 0.  0.
         25    1    3    3    0    0  0.60367504750E+02 -0.13525221847E+02 -0.50024103062E+03  0.51813922451E+03  0.12000000000E+03 0.  0.
         25    1    3    3    0    0 -0.60367504750E+02  0.13525221847E+02 -0.32776393384E+03  0.35448041354E+03  0.12000000000E+03 0.  0.
<mgrwt>
<rscale>  0 0.27545020E+03</rscale>
<asrwt>0</asrwt>
<pdfrwt beam="1">  1        1 0.13081726E+00 0.27545020E+03</pdfrwt>
<pdfrwt beam="2">  1       -1 0.34318985E-02 0.27545020E+03</pdfrwt>
<totfact> 0.64582600E+03</totfact>
</mgrwt>
</event>
<event>
 5    1  0.1129390E+001  0.2704256E+03  0.7818608E-02  0.1101036E+00
          1   -1    0    0  501    0  0.00000000000E+00  0.00000000000E+00  0.91565959425E+03  0.91565959425E+03  0.00000000000E+00 0.  1.
         -1   -1    0    0    0  501 -0.00000000000E+00 -0.00000000000E+00 -0.19966479025E+02  0.19966479025E+02  0.00000000000E+00 0.  1.
         35    2    1    2    0    0  0.00000000000E+00  0.00000000000E+00  0.89569311522E+03  0.93562607327E+03  0.27042557632E+03 0.  0.
         25    1    3    3    0    0  0.13652736673E+02 -0.47652705486E+02  0.57846690103E+03  0.59285844276E+03  0.12000000000E+03 0.  0.
         25    1    3    3    0    0 -0.13652736673E+02  0.47652705486E+02  0.31722621419E+03  0.34276763051E+03  0.12000000000E+03 0.  0.
<mgrwt>
<rscale>  0 0.27042558E+03</rscale>
<asrwt>0</asrwt>
<pdfrwt beam="1">  1        1 0.14087067E+00 0.27042558E+03</pdfrwt>
<pdfrwt beam="2">  1       -1 0.30717667E-02 0.27042558E+03</pdfrwt>
<totfact> 0.67494204E+03</totfact>
</mgrwt>
</event>
<event>
 5    1  0.1129390E+001  0.2749954E+03  0.7818608E-02  0.1098454E+00
         -4   -1    0    0    0  501 -0.00000000000E+00  0.00000000000E+00  0.40478281175E+03  0.40478281175E+03  0.00000000000E+00 0.  1.
          4   -1    0    0  501    0  0.00000000000E+00 -0.00000000000E+00 -0.46705573279E+02  0.46705573279E+02  0.00000000000E+00 0.  1.
         35    2    1    2    0    0  0.00000000000E+00  0.00000000000E+00  0.35807723847E+03  0.45148838503E+03  0.27499536924E+03 0.  0.
         25    1    3    3    0    0  0.60055533084E+02 -0.29541950247E+02  0.18744545490E+03  0.23241168740E+03  0.12000000000E+03 0.  0.
         25    1    3    3    0    0 -0.60055533084E+02  0.29541950247E+02  0.17063178357E+03  0.21907669763E+03  0.12000000000E+03 0.  0.
<mgrwt>
<rscale>  0 0.27499537E+03</rscale>
<asrwt>0</asrwt>
<pdfrwt beam="1">  1        4 0.71854731E-02 0.27499537E+03</pdfrwt>
<pdfrwt beam="2">  1       -4 0.62274276E-01 0.27499537E+03</pdfrwt>
<totfact> 0.60628937E+02</totfact>
</mgrwt>
</event>
<event>
 5    1  0.1129390E+001  0.2750259E+03  0.7818608E-02  0.1098437E+00
          2   -1    0    0  501    0  0.00000000000E+00  0.00000000000E+00  0.26395038126E+04  0.26395038126E+04  0.00000000000E+00 0. -1.
         -2   -1    0    0    0  501 -0.00000000000E+00 -0.00000000000E+00 -0.71641523557E+01  0.71641523557E+01  0.00000000000E+00 0. -1.
         35    2    1    2    0    0  0.00000000000E+00  0.00000000000E+00  0.26323396603E+04  0.26466679650E+04  0.27502587120E+03 0.  0.
         25    1    3    3    0    0  0.43954688870E+02  0.70522843051E+01  0.18000295107E+04  0.18045741849E+04  0.12000000000E+03 0.  0.
         25    1    3    3    0    0 -0.43954688870E+02 -0.70522843051E+01  0.83231014952E+03  0.84209378004E+03  0.12000000000E+03 0.  0.
<mgrwt>
<rscale>  0 0.27502587E+03</rscale>
<asrwt>0</asrwt>
<pdfrwt beam="1">  1        2 0.40607673E+00 0.27502587E+03</pdfrwt>
<pdfrwt beam="2">  1       -2 0.11021794E-02 0.27502587E+03</pdfrwt>
<totfact> 0.62136300E+03</totfact>
</mgrwt>
</event>
<event>
 5    1  0.1129390E+001  0.2747043E+03  0.7818608E-02  0.1098617E+00
         -1   -1    0    0    0  501 -0.00000000000E+00  0.00000000000E+00  0.17666277484E+02  0.17666277484E+02  0.00000000000E+00 0. -1.
          1   -1    0    0  501    0  0.00000000000E+00 -0.00000000000E+00 -0.10678881230E+04  0.10678881230E+04  0.00000000000E+00 0. -1.
         35    2    1    2    0    0  0.00000000000E+00  0.00000000000E+00 -0.10502218455E+04  0.10855544005E+04  0.27470426209E+03 0.  0.
         25    1    3    3    0    0 -0.55014853952E+01  0.63062032778E+02 -0.44049227398E+03  0.46091271381E+03  0.12000000000E+03 0.  0.
         25    1    3    3    0    0  0.55014853952E+01 -0.63062032778E+02 -0.60972957154E+03  0.62464168667E+03  0.12000000000E+03 0.  0.
<mgrwt>
<rscale>  0 0.27470426E+03</rscale>
<asrwt>0</asrwt>
<pdfrwt beam="1">  1        1 0.16429051E+00 0.27470426E+03</pdfrwt>
<pdfrwt beam="2">  1       -1 0.27178883E-02 0.27470426E+03</pdfrwt>
<totfact> 0.62127846E+03</totfact>
</mgrwt>
</event>
<event>
 5    1  0.1129390E+001  0.2734816E+03  0.7818608E-02  0.1099303E+00
         -2   -1    0    0    0  501 -0.00000000000E+00  0.00000000000E+00  0.27445954290E+02  0.27445954290E+02  0.00000000000E+00 0. -1.
          2   -1    0    0  501    0  0.00000000000E+00 -0.00000000000E+00 -0.68126764291E+03  0.68126764291E+03  0.00000000000E+00 0. -1.
         35    2    1    2    0    0  0.00000000000E+00  0.00000000000E+00 -0.65382168862E+03  0.70871359720E+03  0.27348155760E+03 0.  0.
         25    1    3    3    0    0  0.47689689600E+02  0.33337250100E+02 -0.24863526714E+03  0.28214389025E+03  0.12000000000E+03 0.  0.
         25    1    3    3    0    0 -0.47689689600E+02 -0.33337250100E+02 -0.40518642148E+03  0.42656970695E+03  0.12000000000E+03 0.  0.
<mgrwt>
<rscale>  0 0.27348156E+03</rscale>
<asrwt>0</asrwt>
<pdfrwt beam="1">  1        2 0.10481040E+00 0.27348156E+03</pdfrwt>
<pdfrwt beam="2">  1       -2 0.42224546E-02 0.27348156E+03</pdfrwt>
<totfact> 0.10929676E+04</totfact>
</mgrwt>
</event>
<event>
 5    1  0.1129390E+001  0.2749274E+03  0.7818608E-02  0.1098492E+00
         -1   -1    0    0    0  501 -0.00000000000E+00  0.00000000000E+00  0.13942712312E+02  0.13942712312E+02  0.00000000000E+00 0.  1.
          1   -1    0    0  501    0  0.00000000000E+00 -0.00000000000E+00 -0.13552788730E+04  0.13552788730E+04  0.00000000000E+00 0.  1.
         35    2    1    2    0    0  0.00000000000E+00  0.00000000000E+00 -0.13413361607E+04  0.13692215853E+04  0.27492736079E+03 0.  0.
         25    1    3    3    0    0 -0.47658148701E+02 -0.18321702945E+02 -0.45419500892E+03  0.47254638933E+03  0.12000000000E+03 0.  0.
         25    1    3    3    0    0  0.47658148701E+02  0.18321702945E+02 -0.88714115175E+03  0.89667519597E+03  0.12000000000E+03 0.  0.
<mgrwt>
<rscale>  0 0.27492736E+03</rscale>
<asrwt>0</asrwt>
<pdfrwt beam="1">  1        1 0.20850452E+00 0.27492736E+03</pdfrwt>
<pdfrwt beam="2">  1       -1 0.21450319E-02 0.27492736E+03</pdfrwt>
<totfact> 0.55362980E+03</totfact>
</mgrwt>
</event>
<event>
 5    1  0.1129390E+001  0.2748522E+03  0.7818608E-02  0.1098534E+00
         -2   -1    0    0    0  501 -0.00000000000E+00  0.00000000000E+00  0.13027358729E+02  0.13027358729E+02  0.00000000000E+00 0. -1.
          2   -1    0    0  501    0  0.00000000000E+00 -0.00000000000E+00 -0.14497132126E+04  0.14497132126E+04  0.00000000000E+00 0. -1.
         35    2    1    2    0    0  0.00000000000E+00  0.00000000000E+00 -0.14366858539E+04  0.14627405713E+04  0.27485220810E+03 0.  0.
         25    1    3    3    0    0  0.43497191385E+02  0.37383317976E+02 -0.53426183801E+03  0.55056809722E+03  0.12000000000E+03 0.  0.
         25    1    3    3    0    0 -0.43497191385E+02 -0.37383317976E+02 -0.90242401585E+03  0.91217247410E+03  0.12000000000E+03 0.  0.
<mgrwt>
<rscale>  0 0.27485221E+03</rscale>
<asrwt>0</asrwt>
<pdfrwt beam="1">  1        2 0.22303279E+00 0.27485221E+03</pdfrwt>
<pdfrwt beam="2">  1       -2 0.20042091E-02 0.27485221E+03</pdfrwt>
<totfact> 0.11190327E+04</totfact>
</mgrwt>
</event>
<event>
 5    1  0.1129390E+001  0.2755344E+03  0.7818608E-02  0.1098153E+00
         -2   -1    0    0    0  501 -0.00000000000E+00  0.00000000000E+00  0.11669477408E+02  0.11669477408E+02  0.00000000000E+00 0.  1.
          2   -1    0    0  501    0  0.00000000000E+00 -0.00000000000E+00 -0.16264485249E+04  0.16264485249E+04  0.00000000000E+00 0.  1.
         35    2    1    2    0    0  0.00000000000E+00  0.00000000000E+00 -0.16147790475E+04  0.16381180024E+04  0.27553442120E+03 0.  0.
         25    1    3    3    0    0  0.10855276159E+02  0.66676874289E+02 -0.78348867852E+03  0.79549868130E+03  0.12000000000E+03 0.  0.
         25    1    3    3    0    0 -0.10855276159E+02 -0.66676874289E+02 -0.83129036902E+03  0.84261932105E+03  0.12000000000E+03 0.  0.
<mgrwt>
<rscale>  0 0.27553442E+03</rscale>
<asrwt>0</asrwt>
<pdfrwt beam="1">  1        2 0.25022293E+00 0.27553442E+03</pdfrwt>
<pdfrwt beam="2">  1       -2 0.17953037E-02 0.27553442E+03</pdfrwt>
<totfact> 0.10589091E+04</totfact>
</mgrwt>
</event>
<event>
 5    1  0.1129390E+001  0.2752291E+03  0.7818608E-02  0.1098324E+00
          2   -1    0    0  501    0  0.00000000000E+00  0.00000000000E+00  0.51603990531E+03  0.51603990531E+03  0.00000000000E+00 0.  1.
         -2   -1    0    0    0  501 -0.00000000000E+00 -0.00000000000E+00 -0.36698265106E+02  0.36698265106E+02  0.00000000000E+00 0.  1.
         35    2    1    2    0    0  0.00000000000E+00  0.00000000000E+00  0.47934164020E+03  0.55273817041E+03  0.27522913545E+03 0.  0.
         25    1    3    3    0    0 -0.34713338665E+02 -0.36429567385E+02  0.14973109811E+03  0.19837220320E+03  0.12000000000E+03 0.  0.
         25    1    3    3    0    0  0.34713338665E+02  0.36429567385E+02  0.32961054209E+03  0.35436596721E+03  0.12000000000E+03 0.  0.
<mgrwt>
<rscale>  0 0.27522914E+03</rscale>
<asrwt>0</asrwt>
<pdfrwt beam="1">  1        2 0.79390750E-01 0.27522914E+03</pdfrwt>
<pdfrwt beam="2">  1       -2 0.56458873E-02 0.27522914E+03</pdfrwt>
<totfact> 0.97080143E+03</totfact>
</mgrwt>
</event>
<event>
 5    1  0.1129390E+001  0.2746967E+03  0.7818608E-02  0.1098621E+00
         -2   -1    0    0    0  501 -0.00000000000E+00  0.00000000000E+00  0.42628133234E+02  0.42628133234E+02  0.00000000000E+00 0.  1.
          2   -1    0    0  501    0  0.00000000000E+00 -0.00000000000E+00 -0.44253788699E+03  0.44253788699E+03  0.00000000000E+00 0.  1.
         35    2    1    2    0    0  0.00000000000E+00  0.00000000000E+00 -0.39990975376E+03  0.48516602023E+03  0.27469666185E+03 0.  0.
         25    1    3    3    0    0 -0.71196632549E+01 -0.14941177655E+02 -0.85620469708E+02  0.14834012683E+03  0.12000000000E+03 0.  0.
         25    1    3    3    0    0  0.71196632549E+01  0.14941177655E+02 -0.31428928405E+03  0.33682589340E+03  0.12000000000E+03 0.  0.
<mgrwt>
<rscale>  0 0.27469666E+03</rscale>
<asrwt>0</asrwt>
<pdfrwt beam="1">  1        2 0.68082750E-01 0.27469666E+03</pdfrwt>
<pdfrwt beam="2">  1       -2 0.65581745E-02 0.27469666E+03</pdfrwt>
<totfact> 0.91485345E+03</totfact>
</mgrwt>
</event>
<event>
 5    1  0.1129390E+001  0.2680167E+03  0.7818608E-02  0.1102420E+00
          1   -1    0    0  501    0  0.00000000000E+00  0.00000000000E+00  0.46838360115E+02  0.46838360115E+02  0.00000000000E+00 0. -1.
         -1   -1    0    0    0  501 -0.00000000000E+00 -0.00000000000E+00 -0.38340881029E+03  0.38340881029E+03  0.00000000000E+00 0. -1.
         35    2    1    2    0    0  0.00000000000E+00  0.00000000000E+00 -0.33657045018E+03  0.43024717041E+03  0.26801671536E+03 0.  0.
         25    1    3    3    0    0  0.52415428725E+02  0.17287099358E+00 -0.21399634028E+03  0.25088212512E+03  0.12000000000E+03 0.  0.
         25    1    3    3    0    0 -0.52415428725E+02 -0.17287099358E+00 -0.12257410990E+03  0.17936504529E+03  0.12000000000E+03 0.  0.
<mgrwt>
<rscale>  0 0.26801672E+03</rscale>
<asrwt>0</asrwt>
<pdfrwt beam="1">  1        1 0.72059020E-02 0.26801672E+03</pdfrwt>
<pdfrwt beam="2">  1       -1 0.58985968E-01 0.26801672E+03</pdfrwt>
<totfact> 0.30016534E+03</totfact>
</mgrwt>
</event>
<event>
 5    1  0.1129390E+001  0.2765581E+03  0.7818608E-02  0.1097584E+00
          2   -1    0    0  501    0  0.00000000000E+00  0.00000000000E+00  0.58996147162E+03  0.58996147162E+03  0.00000000000E+00 0. -1.
         -2   -1    0    0    0  501 -0.00000000000E+00 -0.00000000000E+00 -0.32410751125E+02  0.32410751125E+02  0.00000000000E+00 0. -1.
         35    2    1    2    0    0  0.00000000000E+00  0.00000000000E+00  0.55755072049E+03  0.62237222274E+03  0.27655809104E+03 0.  0.
         25    1    3    3    0    0 -0.12999550718E+02 -0.24620490746E+02  0.42013939630E+03  0.43782675707E+03  0.12000000000E+03 0.  0.
         25    1    3    3    0    0  0.12999550718E+02  0.24620490746E+02  0.13741132419E+03  0.18454546567E+03  0.12000000000E+03 0.  0.
<mgrwt>
<rscale>  0 0.27655809E+03</rscale>
<asrwt>0</asrwt>
<pdfrwt beam="1">  1        2 0.90763296E-01 0.27655809E+03</pdfrwt>
<pdfrwt beam="2">  1       -2 0.49862698E-02 0.27655809E+03</pdfrwt>
<totfact> 0.10073249E+04</totfact>
</mgrwt>
</event>
<event>
 5    1  0.1129390E+001  0.2751366E+03  0.7818608E-02  0.1098375E+00
          2   -1    0    0  501    0  0.00000000000E+00  0.00000000000E+00  0.14359073188E+04  0.14359073188E+04  0.00000000000E+00 0. -1.
         -2   -1    0    0    0  501 -0.00000000000E+00 -0.00000000000E+00 -0.13179846115E+02  0.13179846115E+02  0.00000000000E+00 0. -1.
         35    2    1    2    0    0  0.00000000000E+00  0.00000000000E+00  0.14227274726E+04  0.14490871649E+04  0.27513660241E+03 0.  0.
         25    1    3    3    0    0  0.19479182775E+01 -0.11600752094E+01  0.10654510973E+04  0.10721898996E+04  0.12000000000E+03 0.  0.
         25    1    3    3    0    0 -0.19479182775E+01  0.11600752094E+01  0.35727637538E+03  0.37689726527E+03  0.12000000000E+03 0.  0.
<mgrwt>
<rscale>  0 0.27513660E+03</rscale>
<asrwt>0</asrwt>
<pdfrwt beam="1">  1        2 0.22090869E+00 0.27513660E+03</pdfrwt>
<pdfrwt beam="2">  1       -2 0.20276698E-02 0.27513660E+03</pdfrwt>
<totfact> 0.11190831E+04</totfact>
</mgrwt>
</event>
<event>
 5    1  0.1129390E+001  0.2821649E+03  0.7818608E-02  0.1094512E+00
         -1   -1    0    0    0  501 -0.00000000000E+00  0.00000000000E+00  0.50317827331E+02  0.50317827331E+02  0.00000000000E+00 0.  1.
          1   -1    0    0  501    0  0.00000000000E+00 -0.00000000000E+00 -0.39557077306E+03  0.39557077306E+03  0.00000000000E+00 0.  1.
         35    2    1    2    0    0  0.00000000000E+00  0.00000000000E+00 -0.34525294573E+03  0.44588860039E+03  0.28216492947E+03 0.  0.
         25    1    3    3    0    0 -0.33595314180E+02 -0.52301483239E+02 -0.10862824099E+03  0.17339026797E+03  0.12000000000E+03 0.  0.
         25    1    3    3    0    0  0.33595314180E+02  0.52301483239E+02 -0.23662470474E+03  0.27249833243E+03  0.12000000000E+03 0.  0.
<mgrwt>
<rscale>  0 0.28216493E+03</rscale>
<asrwt>0</asrwt>
<pdfrwt beam="1">  1        1 0.60857041E-01 0.28216493E+03</pdfrwt>
<pdfrwt beam="2">  1       -1 0.77412043E-02 0.28216493E+03</pdfrwt>
<totfact> 0.55418233E+03</totfact>
</mgrwt>
</event>
<event>
 5    1  0.1129390E+001  0.2750948E+03  0.7818608E-02  0.1098399E+00
          2   -1    0    0  501    0  0.00000000000E+00  0.00000000000E+00  0.12548108862E+04  0.12548108862E+04  0.00000000000E+00 0.  1.
         -2   -1    0    0    0  501 -0.00000000000E+00 -0.00000000000E+00 -0.15077404696E+02  0.15077404696E+02  0.00000000000E+00 0.  1.
         35    2    1    2    0    0  0.00000000000E+00  0.00000000000E+00  0.12397334815E+04  0.12698882909E+04  0.27509483128E+03 0.  0.
         25    1    3    3    0    0  0.61858728010E+02 -0.25087532923E+02  0.65662414838E+03  0.67082871046E+03  0.12000000000E+03 0.  0.
         25    1    3    3    0    0 -0.61858728010E+02  0.25087532923E+02  0.58310933312E+03  0.59905958044E+03  0.12000000000E+03 0.  0.
<mgrwt>
<rscale>  0 0.27509483E+03</rscale>
<asrwt>0</asrwt>
<pdfrwt beam="1">  1        2 0.19304775E+00 0.27509483E+03</pdfrwt>
<pdfrwt beam="2">  1       -2 0.23196017E-02 0.27509483E+03</pdfrwt>
<totfact> 0.11538665E+04</totfact>
</mgrwt>
</event>
<event>
 5    1  0.1129390E+001  0.2755126E+03  0.7818608E-02  0.1098165E+00
          1   -1    0    0  501    0  0.00000000000E+00  0.00000000000E+00  0.34601303411E+03  0.34601303411E+03  0.00000000000E+00 0. -1.
         -1   -1    0    0    0  501 -0.00000000000E+00 -0.00000000000E+00 -0.54844163932E+02  0.54844163932E+02  0.00000000000E+00 0. -1.
         35    2    1    2    0    0  0.00000000000E+00  0.00000000000E+00  0.29116887017E+03  0.40085719804E+03  0.27551258095E+03 0.  0.
         25    1    3    3    0    0 -0.43258217109E+02 -0.31336444960E+02  0.20598765963E+03  0.24430342210E+03  0.12000000000E+03 0.  0.
         25    1    3    3    0    0  0.43258217109E+02  0.31336444960E+02  0.85181210540E+02  0.15655377593E+03  0.12000000000E+03 0.  0.
<mgrwt>
<rscale>  0 0.27551258E+03</rscale>
<asrwt>0</asrwt>
<pdfrwt beam="1">  1        1 0.53232773E-01 0.27551258E+03</pdfrwt>
<pdfrwt beam="2">  1       -1 0.84375639E-02 0.27551258E+03</pdfrwt>
<totfact> 0.57572804E+03</totfact>
</mgrwt>
</event>
<event>
 5    1  0.1129390E+001  0.2687819E+03  0.7818608E-02  0.1101979E+00
          2   -1    0    0  501    0  0.00000000000E+00  0.00000000000E+00  0.26192422616E+03  0.26192422616E+03  0.00000000000E+00 0. -1.
         -2   -1    0    0    0  501 -0.00000000000E+00 -0.00000000000E+00 -0.68954777000E+02  0.68954777000E+02  0.00000000000E+00 0. -1.
         35    2    1    2    0    0  0.00000000000E+00  0.00000000000E+00  0.19296944916E+03  0.33087900316E+03  0.26878189378E+03 0.  0.
         25    1    3    3    0    0  0.27501329111E+02  0.34212357151E+02  0.14774825800E+03  0.19533652046E+03  0.12000000000E+03 0.  0.
         25    1    3    3    0    0 -0.27501329111E+02 -0.34212357151E+02  0.45221191155E+02  0.13554248269E+03  0.12000000000E+03 0.  0.
<mgrwt>
<rscale>  0 0.26878189E+03</rscale>
<asrwt>0</asrwt>
<pdfrwt beam="1">  1        2 0.40296034E-01 0.26878189E+03</pdfrwt>
<pdfrwt beam="2">  1       -2 0.10608427E-01 0.26878189E+03</pdfrwt>
<totfact> 0.75808917E+03</totfact>
</mgrwt>
</event>
<event>
 5    1  0.1129390E+001  0.2739245E+03  0.7818608E-02  0.1099054E+00
         -2   -1    0    0    0  501 -0.00000000000E+00  0.00000000000E+00  0.14047172932E+02  0.14047172932E+02  0.00000000000E+00 0.  1.
          2   -1    0    0  501    0  0.00000000000E+00 -0.00000000000E+00 -0.13354042811E+04  0.13354042811E+04  0.00000000000E+00 0.  1.
         35    2    1    2    0    0  0.00000000000E+00  0.00000000000E+00 -0.13213571081E+04  0.13494514540E+04  0.27392447770E+03 0.  0.
         25    1    3    3    0    0  0.57837613200E+02 -0.89358150573E+01 -0.81120426986E+03  0.82211763497E+03  0.12000000000E+03 0.  0.
         25    1    3    3    0    0 -0.57837613200E+02  0.89358150573E+01 -0.51015283828E+03  0.52733381903E+03  0.12000000000E+03 0.  0.
<mgrwt>
<rscale>  0 0.27392448E+03</rscale>
<asrwt>0</asrwt>
<pdfrwt beam="1">  1        2 0.20544689E+00 0.27392448E+03</pdfrwt>
<pdfrwt beam="2">  1       -2 0.21611027E-02 0.27392448E+03</pdfrwt>
<totfact> 0.11555042E+04</totfact>
</mgrwt>
</event>
<event>
 5    1  0.1129390E+001  0.2745567E+03  0.7818608E-02  0.1098700E+00
         -1   -1    0    0    0  501 -0.00000000000E+00  0.00000000000E+00  0.11686918918E+03  0.11686918918E+03  0.00000000000E+00 0. -1.
          1   -1    0    0  501    0  0.00000000000E+00 -0.00000000000E+00 -0.16125159636E+03  0.16125159636E+03  0.00000000000E+00 0. -1.
         35    2    1    2    0    0  0.00000000000E+00  0.00000000000E+00 -0.44382407184E+02  0.27812078554E+03  0.27455668500E+03 0.  0.
         25    1    3    3    0    0 -0.20898955352E+02  0.47833042820E+02  0.19827096781E+02  0.13235512868E+03  0.12000000000E+03 0.  0.
         25    1    3    3    0    0  0.20898955352E+02 -0.47833042820E+02 -0.64209503965E+02  0.14576565686E+03  0.12000000000E+03 0.  0.
<mgrwt>
<rscale>  0 0.27455669E+03</rscale>
<asrwt>0</asrwt>
<pdfrwt beam="1">  1        1 0.24807938E-01 0.27455669E+03</pdfrwt>
<pdfrwt beam="2">  1       -1 0.17979875E-01 0.27455669E+03</pdfrwt>
<totfact> 0.46053553E+03</totfact>
</mgrwt>
</event>
<event>
 5    1  0.1129390E+001  0.2755676E+03  0.7818608E-02  0.1098135E+00
         -2   -1    0    0    0  501 -0.00000000000E+00  0.00000000000E+00  0.40848647508E+02  0.40848647508E+02  0.00000000000E+00 0. -1.
          2   -1    0    0  501    0  0.00000000000E+00 -0.00000000000E+00 -0.46474928617E+03  0.46474928617E+03  0.00000000000E+00 0. -1.
         35    2    1    2    0    0  0.00000000000E+00  0.00000000000E+00 -0.42390063866E+03  0.50559793367E+03  0.27556763068E+03 0.  0.
         25    1    3    3    0    0 -0.57683683059E+02  0.24703278279E+02 -0.16529132122E+03  0.21367938628E+03  0.12000000000E+03 0.  0.
         25    1    3    3    0    0  0.57683683059E+02 -0.24703278279E+02 -0.25860931744E+03  0.29191854740E+03  0.12000000000E+03 0.  0.
<mgrwt>
<rscale>  0 0.27556763E+03</rscale>
<asrwt>0</asrwt>
<pdfrwt beam="1">  1        2 0.71499882E-01 0.27556763E+03</pdfrwt>
<pdfrwt beam="2">  1       -2 0.62844080E-02 0.27556763E+03</pdfrwt>
<totfact> 0.92573753E+03</totfact>
</mgrwt>
</event>
<event>
 5    1  0.1129390E+001  0.2739984E+03  0.7818608E-02  0.1099013E+00
          1   -1    0    0  501    0  0.00000000000E+00  0.00000000000E+00  0.61876561550E+03  0.61876561550E+03  0.00000000000E+00 0. -1.
         -1   -1    0    0    0  501 -0.00000000000E+00 -0.00000000000E+00 -0.30332607336E+02  0.30332607336E+02  0.00000000000E+00 0. -1.
         35    2    1    2    0    0  0.00000000000E+00  0.00000000000E+00  0.58843300816E+03  0.64909822283E+03  0.27399835363E+03 0.  0.
         25    1    3    3    0    0  0.25809167754E+02 -0.30607246195E+02  0.41880484137E+03  0.43749332773E+03  0.12000000000E+03 0.  0.
         25    1    3    3    0    0 -0.25809167754E+02  0.30607246195E+02  0.16962816679E+03  0.21160489510E+03  0.12000000000E+03 0.  0.
<mgrwt>
<rscale>  0 0.27399835E+03</rscale>
<asrwt>0</asrwt>
<pdfrwt beam="1">  1        1 0.95194701E-01 0.27399835E+03</pdfrwt>
<pdfrwt beam="2">  1       -1 0.46665554E-02 0.27399835E+03</pdfrwt>
<totfact> 0.65514360E+03</totfact>
</mgrwt>
</event>
<event>
 5    1  0.1129390E+001  0.2743254E+03  0.7818608E-02  0.1098829E+00
          2   -1    0    0  501    0  0.00000000000E+00  0.00000000000E+00  0.10721126855E+03  0.10721126855E+03  0.00000000000E+00 0. -1.
         -2   -1    0    0    0  501 -0.00000000000E+00 -0.00000000000E+00 -0.17548165550E+03  0.17548165550E+03  0.00000000000E+00 0. -1.
         35    2    1    2    0    0  0.00000000000E+00  0.00000000000E+00 -0.68270386948E+02  0.28269292404E+03  0.27432543369E+03 0.  0.
         25    1    3    3    0    0  0.65752482784E+02  0.53334008251E+00 -0.43907996502E+02  0.14370659554E+03  0.12000000000E+03 0.  0.
         25    1    3    3    0    0 -0.65752482784E+02 -0.53334008251E+00 -0.24362390446E+02  0.13898632851E+03  0.12000000000E+03 0.  0.
<mgrwt>
<rscale>  0 0.27432543E+03</rscale>
<asrwt>0</asrwt>
<pdfrwt beam="1">  1        2 0.16494041E-01 0.27432543E+03</pdfrwt>
<pdfrwt beam="2">  1       -2 0.26997178E-01 0.27432543E+03</pdfrwt>
<totfact> 0.42846437E+03</totfact>
</mgrwt>
</event>
<event>
 5    1  0.1129390E+001  0.2751622E+03  0.7818608E-02  0.1098361E+00
         -2   -1    0    0    0  501 -0.00000000000E+00  0.00000000000E+00  0.98656268340E+01  0.98656268340E+01  0.00000000000E+00 0. -1.
          2   -1    0    0  501    0  0.00000000000E+00 -0.00000000000E+00 -0.19186378131E+04  0.19186378131E+04  0.00000000000E+00 0. -1.
         35    2    1    2    0    0  0.00000000000E+00  0.00000000000E+00 -0.19087721863E+04  0.19285034400E+04  0.27516224082E+03 0.  0.
         25    1    3    3    0    0 -0.22329414318E+02 -0.35663881134E+02 -0.58631423716E+03  0.59994574743E+03  0.12000000000E+03 0.  0.
         25    1    3    3    0    0  0.22329414318E+02  0.35663881134E+02 -0.13224579491E+04  0.13285576925E+04  0.12000000000E+03 0.  0.
<mgrwt>
<rscale>  0 0.27516224E+03</rscale>
<asrwt>0</asrwt>
<pdfrwt beam="1">  1        2 0.29517523E+00 0.27516224E+03</pdfrwt>
<pdfrwt beam="2">  1       -2 0.15177878E-02 0.27516224E+03</pdfrwt>
<totfact> 0.95072880E+03</totfact>
</mgrwt>
</event>
<event>
 5    1  0.1129390E+001  0.2761509E+03  0.7818608E-02  0.1097810E+00
          2   -1    0    0  501    0  0.00000000000E+00  0.00000000000E+00  0.76055954915E+03  0.76055954915E+03  0.00000000000E+00 0.  1.
         -2   -1    0    0    0  501 -0.00000000000E+00 -0.00000000000E+00 -0.25066855449E+02  0.25066855449E+02  0.00000000000E+00 0.  1.
         35    2    1    2    0    0  0.00000000000E+00  0.00000000000E+00  0.73549269370E+03  0.78562640460E+03  0.27615094625E+03 0.  0.
         25    1    3    3    0    0  0.40493303233E+02 -0.54960920002E+02  0.37373146237E+03  0.39841638558E+03  0.12000000000E+03 0.  0.
         25    1    3    3    0    0 -0.40493303233E+02  0.54960920002E+02  0.36176123133E+03  0.38721001902E+03  0.12000000000E+03 0.  0.
<mgrwt>
<rscale>  0 0.27615095E+03</rscale>
<asrwt>0</asrwt>
<pdfrwt beam="1">  1        2 0.11700914E+00 0.27615095E+03</pdfrwt>
<pdfrwt beam="2">  1       -2 0.38564399E-02 0.27615095E+03</pdfrwt>
<totfact> 0.10950599E+04</totfact>
</mgrwt>
</event>
<event>
 5    1  0.1129390E+001  0.2748641E+03  0.7818608E-02  0.1098528E+00
          2   -1    0    0  501    0  0.00000000000E+00  0.00000000000E+00  0.61704465358E+03  0.61704465358E+03  0.00000000000E+00 0. -1.
         -2   -1    0    0    0  501 -0.00000000000E+00 -0.00000000000E+00 -0.30609720788E+02  0.30609720788E+02  0.00000000000E+00 0. -1.
         35    2    1    2    0    0  0.00000000000E+00  0.00000000000E+00  0.58643493280E+03  0.64765437437E+03  0.27486407230E+03 0.  0.
         25    1    3    3    0    0 -0.78647993620E+01  0.55516627227E+02  0.37958738711E+03  0.40203300290E+03  0.12000000000E+03 0.  0.
         25    1    3    3    0    0  0.78647993620E+01 -0.55516627227E+02  0.20684754568E+03  0.24562137147E+03  0.12000000000E+03 0.  0.
<mgrwt>
<rscale>  0 0.27486407E+03</rscale>
<asrwt>0</asrwt>
<pdfrwt beam="1">  1        2 0.94929938E-01 0.27486407E+03</pdfrwt>
<pdfrwt beam="2">  1       -2 0.47091883E-02 0.27486407E+03</pdfrwt>
<totfact> 0.10424878E+04</totfact>
</mgrwt>
</event>
<event>
 5    1  0.1129390E+001  0.2753358E+03  0.7818608E-02  0.1098264E+00
          2   -1    0    0  501    0  0.00000000000E+00  0.00000000000E+00  0.59507273671E+03  0.59507273671E+03  0.00000000000E+00 0. -1.
         -2   -1    0    0    0  501 -0.00000000000E+00 -0.00000000000E+00 -0.31848970051E+02  0.31848970051E+02  0.00000000000E+00 0. -1.
         35    2    1    2    0    0  0.00000000000E+00  0.00000000000E+00  0.56322376666E+03  0.62692170676E+03  0.27533582237E+03 0.  0.
         25    1    3    3    0    0  0.21475757823E+02  0.11946141364E+02  0.42468848003E+03  0.44200025287E+03  0.12000000000E+03 0.  0.
         25    1    3    3    0    0 -0.21475757823E+02 -0.11946141364E+02  0.13853528663E+03  0.18492145389E+03  0.12000000000E+03 0.  0.
<mgrwt>
<rscale>  0 0.27533582E+03</rscale>
<asrwt>0</asrwt>
<pdfrwt beam="1">  1        2 0.91549644E-01 0.27533582E+03</pdfrwt>
<pdfrwt beam="2">  1       -2 0.48998420E-02 0.27533582E+03</pdfrwt>
<totfact> 0.10239831E+04</totfact>
</mgrwt>
</event>
<event>
 5    1  0.1129390E+001  0.2767940E+03  0.7818608E-02  0.1097453E+00
          1   -1    0    0  501    0  0.00000000000E+00  0.00000000000E+00  0.83022966001E+02  0.83022966001E+02  0.00000000000E+00 0.  1.
         -1   -1    0    0    0  501 -0.00000000000E+00 -0.00000000000E+00 -0.23070403031E+03  0.23070403031E+03  0.00000000000E+00 0.  1.
         35    2    1    2    0    0  0.00000000000E+00  0.00000000000E+00 -0.14768106430E+03  0.31372699631E+03  0.27679402352E+03 0.  0.
         25    1    3    3    0    0 -0.47395691801E+02  0.49385441372E+02 -0.64462496807E+02  0.15244896495E+03  0.12000000000E+03 0.  0.
         25    1    3    3    0    0  0.47395691801E+02 -0.49385441372E+02 -0.83218567497E+02  0.16127803135E+03  0.12000000000E+03 0.  0.
<mgrwt>
<rscale>  0 0.27679402E+03</rscale>
<asrwt>0</asrwt>
<pdfrwt beam="1">  1        1 0.12772764E-01 0.27679402E+03</pdfrwt>
<pdfrwt beam="2">  1       -1 0.35492927E-01 0.27679402E+03</pdfrwt>
<totfact> 0.35056773E+03</totfact>
</mgrwt>
</event>
<event>
 5    1  0.1129390E+001  0.2749084E+03  0.7818608E-02  0.1098503E+00
         -2   -1    0    0    0  501 -0.00000000000E+00  0.00000000000E+00  0.14746899407E+02  0.14746899407E+02  0.00000000000E+00 0. -1.
          2   -1    0    0  501    0  0.00000000000E+00 -0.00000000000E+00 -0.12811950136E+04  0.12811950136E+04  0.00000000000E+00 0. -1.
         35    2    1    2    0    0  0.00000000000E+00  0.00000000000E+00 -0.12664481142E+04  0.12959419130E+04  0.27490837737E+03 0.  0.
         25    1    3    3    0    0  0.60593473964E+02  0.28380487863E+02 -0.65244967697E+03  0.66675902855E+03  0.12000000000E+03 0.  0.
         25    1    3    3    0    0 -0.60593473964E+02 -0.28380487863E+02 -0.61399843722E+03  0.62918288445E+03  0.12000000000E+03 0.  0.
<mgrwt>
<rscale>  0 0.27490838E+03</rscale>
<asrwt>0</asrwt>
<pdfrwt beam="1">  1        2 0.19710690E+00 0.27490838E+03</pdfrwt>
<pdfrwt beam="2">  1       -2 0.22687541E-02 0.27490838E+03</pdfrwt>
<totfact> 0.11524916E+04</totfact>
</mgrwt>
</event>
<event>
 5    1  0.1129390E+001  0.2735589E+03  0.7818608E-02  0.1099260E+00
         -1   -1    0    0    0  501 -0.00000000000E+00  0.00000000000E+00  0.89833241322E+02  0.89833241322E+02  0.00000000000E+00 0.  1.
          1   -1    0    0  501    0  0.00000000000E+00 -0.00000000000E+00 -0.20825935933E+03  0.20825935933E+03  0.00000000000E+00 0.  1.
         35    2    1    2    0    0  0.00000000000E+00  0.00000000000E+00 -0.11842611801E+03  0.29809260066E+03  0.27355886595E+03 0.  0.
         25    1    3    3    0    0 -0.43268133272E+02 -0.35369601871E+01 -0.55637433607E+01  0.12773252007E+03  0.12000000000E+03 0.  0.
         25    1    3    3    0    0  0.43268133272E+02  0.35369601871E+01 -0.11286237465E+03  0.17036008058E+03  0.12000000000E+03 0.  0.
<mgrwt>
<rscale>  0 0.27355887E+03</rscale>
<asrwt>0</asrwt>
<pdfrwt beam="1">  1        1 0.32039901E-01 0.27355887E+03</pdfrwt>
<pdfrwt beam="2">  1       -1 0.13820499E-01 0.27355887E+03</pdfrwt>
<totfact> 0.50656554E+03</totfact>
</mgrwt>
</event>
<event>
 5    1  0.1129390E+001  0.2753260E+03  0.7818608E-02  0.1098269E+00
          1   -1    0    0  501    0  0.00000000000E+00  0.00000000000E+00  0.13421818481E+03  0.13421818481E+03  0.00000000000E+00 0. -1.
         -1   -1    0    0    0  501 -0.00000000000E+00 -0.00000000000E+00 -0.14119626523E+03  0.14119626523E+03  0.00000000000E+00 0. -1.
         35    2    1    2    0    0  0.00000000000E+00  0.00000000000E+00 -0.69780804276E+01  0.27541445004E+03  0.27532603525E+03 0.  0.
         25    1    3    3    0    0 -0.66192011154E+02 -0.87694393617E+01  0.61484199382E+01  0.13746304403E+03  0.12000000000E+03 0.  0.
         25    1    3    3    0    0  0.66192011154E+02  0.87694393617E+01 -0.13126500366E+02  0.13795140601E+03  0.12000000000E+03 0.  0.
<mgrwt>
<rscale>  0 0.27532604E+03</rscale>
<asrwt>0</asrwt>
<pdfrwt beam="1">  1        1 0.20648952E-01 0.27532604E+03</pdfrwt>
<pdfrwt beam="2">  1       -1 0.21722502E-01 0.27532604E+03</pdfrwt>
<totfact> 0.42844705E+03</totfact>
</mgrwt>
</event>
<event>
 5    1  0.1129390E+001  0.2750269E+03  0.7818608E-02  0.1098437E+00
         -2   -1    0    0    0  501 -0.00000000000E+00  0.00000000000E+00  0.68507944063E+01  0.68507944063E+01  0.00000000000E+00 0.  1.
          2   -1    0    0  501    0  0.00000000000E+00 -0.00000000000E+00 -0.27602567942E+04  0.27602567942E+04  0.00000000000E+00 0.  1.
         35    2    1    2    0    0  0.00000000000E+00  0.00000000000E+00 -0.27534059998E+04  0.27671075886E+04  0.27502692090E+03 0.  0.
         25    1    3    3    0    0  0.38285417135E+02  0.53943201711E+02 -0.12601014256E+04  0.12675295835E+04  0.12000000000E+03 0.  0.
         25    1    3    3    0    0 -0.38285417135E+02 -0.53943201711E+02 -0.14933045742E+04  0.14995780051E+04  0.12000000000E+03 0.  0.
<mgrwt>
<rscale>  0 0.27502692E+03</rscale>
<asrwt>0</asrwt>
<pdfrwt beam="1">  1        2 0.42465485E+00 0.27502692E+03</pdfrwt>
<pdfrwt beam="2">  1       -2 0.10539685E-02 0.27502692E+03</pdfrwt>
<totfact> 0.56698348E+03</totfact>
</mgrwt>
</event>
<event>
 5    1  0.1129390E+001  0.2750895E+03  0.7818608E-02  0.1098402E+00
          2   -1    0    0  501    0  0.00000000000E+00  0.00000000000E+00  0.80810537355E+02  0.80810537355E+02  0.00000000000E+00 0.  1.
         -2   -1    0    0    0  501 -0.00000000000E+00 -0.00000000000E+00 -0.23411002119E+03  0.23411002119E+03  0.00000000000E+00 0.  1.
         35    2    1    2    0    0  0.00000000000E+00  0.00000000000E+00 -0.15329948383E+03  0.31492055854E+03  0.27508948807E+03 0.  0.
         25    1    3    3    0    0  0.26293865695E+02 -0.54240478689E+02 -0.11070920810E+03  0.17404001166E+03  0.12000000000E+03 0.  0.
         25    1    3    3    0    0 -0.26293865695E+02  0.54240478689E+02 -0.42590275730E+02  0.14088054688E+03  0.12000000000E+03 0.  0.
<mgrwt>
<rscale>  0 0.27508949E+03</rscale>
<asrwt>0</asrwt>
<pdfrwt beam="1">  1        2 0.12432391E-01 0.27508949E+03</pdfrwt>
<pdfrwt beam="2">  1       -2 0.36016926E-01 0.27508949E+03</pdfrwt>
<totfact> 0.35433067E+03</totfact>
</mgrwt>
</event>
<event>
 5    1  0.1129390E+001  0.2728502E+03  0.7818608E-02  0.1099659E+00
         -1   -1    0    0    0  501 -0.00000000000E+00  0.00000000000E+00  0.16693552450E+02  0.16693552450E+02  0.00000000000E+00 0. -1.
          1   -1    0    0  501    0  0.00000000000E+00 -0.00000000000E+00 -0.11149102854E+04  0.11149102854E+04  0.00000000000E+00 0. -1.
         35    2    1    2    0    0  0.00000000000E+00  0.00000000000E+00 -0.10982167330E+04  0.11316038379E+04  0.27285023970E+03 0.  0.
         25    1    3    3    0    0  0.12855514176E+02  0.58835883351E+02 -0.44880710504E+03  0.46845996942E+03  0.12000000000E+03 0.  0.
         25    1    3    3    0    0 -0.12855514176E+02 -0.58835883351E+02 -0.64940962795E+03  0.66314386847E+03  0.12000000000E+03 0.  0.
<mgrwt>
<rscale>  0 0.27285024E+03</rscale>
<asrwt>0</asrwt>
<pdfrwt beam="1">  1        1 0.17152476E+00 0.27285024E+03</pdfrwt>
<pdfrwt beam="2">  1       -1 0.25682373E-02 0.27285024E+03</pdfrwt>
<totfact> 0.62433120E+03</totfact>
</mgrwt>
</event>
<event>
 5    1  0.1129390E+001  0.2751182E+03  0.7818608E-02  0.1098386E+00
          2   -1    0    0  501    0  0.00000000000E+00  0.00000000000E+00  0.77914073428E+02  0.77914073428E+02  0.00000000000E+00 0.  1.
         -2   -1    0    0    0  501 -0.00000000000E+00 -0.00000000000E+00 -0.24286384027E+03  0.24286384027E+03  0.00000000000E+00 0.  1.
         35    2    1    2    0    0  0.00000000000E+00  0.00000000000E+00 -0.16494976684E+03  0.32077791370E+03  0.27511823701E+03 0.  0.
         25    1    3    3    0    0  0.37689557258E+02 -0.45756113856E+02 -0.11950018196E+03  0.17942803061E+03  0.12000000000E+03 0.  0.
         25    1    3    3    0    0 -0.37689557258E+02  0.45756113856E+02 -0.45449584879E+02  0.14134988308E+03  0.12000000000E+03 0.  0.
<mgrwt>
<rscale>  0 0.27511824E+03</rscale>
<asrwt>0</asrwt>
<pdfrwt beam="1">  1        2 0.11986781E-01 0.27511824E+03</pdfrwt>
<pdfrwt beam="2">  1       -2 0.37363667E-01 0.27511824E+03</pdfrwt>
<totfact> 0.34569977E+03</totfact>
</mgrwt>
</event>
<event>
 5    1  0.1129390E+001  0.2761392E+03  0.7818608E-02  0.1097817E+00
          2   -1    0    0  501    0  0.00000000000E+00  0.00000000000E+00  0.10246250592E+04  0.10246250592E+04  0.00000000000E+00 0.  1.
         -2   -1    0    0    0  501 -0.00000000000E+00 -0.00000000000E+00 -0.18605061730E+02  0.18605061730E+02  0.00000000000E+00 0.  1.
         35    2    1    2    0    0  0.00000000000E+00  0.00000000000E+00  0.10060199975E+04  0.10432301210E+04  0.27613918575E+03 0.  0.
         25    1    3    3    0    0 -0.72213636393E+01  0.67293067701E+02  0.53736771776E+03  0.55474730206E+03  0.12000000000E+03 0.  0.
         25    1    3    3    0    0  0.72213636393E+01 -0.67293067701E+02  0.46865227973E+03  0.48848281889E+03  0.12000000000E+03 0.  0.
<mgrwt>
<rscale>  0 0.27613919E+03</rscale>
<asrwt>0</asrwt>
<pdfrwt beam="1">  1        2 0.15763458E+00 0.27613919E+03</pdfrwt>
<pdfrwt beam="2">  1       -2 0.28623180E-02 0.27613919E+03</pdfrwt>
<totfact> 0.11496142E+04</totfact>
</mgrwt>
</event>
<event>
 5    1  0.1129390E+001  0.2752770E+03  0.7818608E-02  0.1098297E+00
          2   -1    0    0  501    0  0.00000000000E+00  0.00000000000E+00  0.13379920734E+04  0.13379920734E+04  0.00000000000E+00 0.  1.
         -2   -1    0    0    0  501 -0.00000000000E+00 -0.00000000000E+00 -0.14158792666E+02  0.14158792666E+02  0.00000000000E+00 0.  1.
         35    2    1    2    0    0  0.00000000000E+00  0.00000000000E+00  0.13238332808E+04  0.13521508661E+04  0.27527696857E+03 0.  0.
         25    1    3    3    0    0 -0.58250340910E+02  0.29723053252E+02  0.74229750078E+03  0.75477290742E+03  0.12000000000E+03 0.  0.
         25    1    3    3    0    0  0.58250340910E+02 -0.29723053252E+02  0.58153578000E+03  0.59737795869E+03  0.12000000000E+03 0.  0.
<mgrwt>
<rscale>  0 0.27527697E+03</rscale>
<asrwt>0</asrwt>
<pdfrwt beam="1">  1        2 0.20584483E+00 0.27527697E+03</pdfrwt>
<pdfrwt beam="2">  1       -2 0.21782769E-02 0.27527697E+03</pdfrwt>
<totfact> 0.11385053E+04</totfact>
</mgrwt>
</event>
<event>
 5    1  0.1129390E+001  0.2751576E+03  0.7818608E-02  0.1098364E+00
          1   -1    0    0  501    0  0.00000000000E+00  0.00000000000E+00  0.52703468170E+03  0.52703468170E+03  0.00000000000E+00 0.  1.
         -1   -1    0    0    0  501 -0.00000000000E+00 -0.00000000000E+00 -0.35914006463E+02  0.35914006463E+02  0.00000000000E+00 0.  1.
         35    2    1    2    0    0  0.00000000000E+00  0.00000000000E+00  0.49112067524E+03  0.56294868817E+03  0.27515760549E+03 0.  0.
         25    1    3    3    0    0  0.33638493385E+02 -0.25306806953E+02  0.35296484412E+03  0.37517484444E+03  0.12000000000E+03 0.  0.
         25    1    3    3    0    0 -0.33638493385E+02  0.25306806953E+02  0.13815583112E+03  0.18777384372E+03  0.12000000000E+03 0.  0.
<mgrwt>
<rscale>  0 0.27515761E+03</rscale>
<asrwt>0</asrwt>
<pdfrwt beam="1">  1        1 0.81082253E-01 0.27515761E+03</pdfrwt>
<pdfrwt beam="2">  1       -1 0.55252321E-02 0.27515761E+03</pdfrwt>
<totfact> 0.63383701E+03</totfact>
</mgrwt>
</event>
<event>
 5    1  0.1129390E+001  0.2741162E+03  0.7818608E-02  0.1098947E+00
         -2   -1    0    0    0  501 -0.00000000000E+00  0.00000000000E+00  0.55025143599E+02  0.55025143599E+02  0.00000000000E+00 0. -1.
          2   -1    0    0  501    0  0.00000000000E+00 -0.00000000000E+00 -0.34138804078E+03  0.34138804078E+03  0.00000000000E+00 0. -1.
         35    2    1    2    0    0  0.00000000000E+00  0.00000000000E+00 -0.28636289718E+03  0.39641318437E+03  0.27411622328E+03 0.  0.
         25    1    3    3    0    0 -0.42510877351E+02 -0.20231570259E+02 -0.75839366653E+02  0.14955968930E+03  0.12000000000E+03 0.  0.
         25    1    3    3    0    0  0.42510877351E+02  0.20231570259E+02 -0.21052353052E+03  0.24685349508E+03  0.12000000000E+03 0.  0.
<mgrwt>
<rscale>  0 0.27411622E+03</rscale>
<asrwt>0</asrwt>
<pdfrwt beam="1">  1        2 0.52521237E-01 0.27411622E+03</pdfrwt>
<pdfrwt beam="2">  1       -2 0.84654067E-02 0.27411622E+03</pdfrwt>
<totfact> 0.81531021E+03</totfact>
</mgrwt>
</event>
<event>
 5    1  0.1129390E+001  0.2751904E+03  0.7818608E-02  0.1098345E+00
          1   -1    0    0  501    0  0.00000000000E+00  0.00000000000E+00  0.27024380412E+04  0.27024380412E+04  0.00000000000E+00 0. -1.
         -1   -1    0    0    0  501 -0.00000000000E+00 -0.00000000000E+00 -0.70056880588E+01  0.70056880588E+01  0.00000000000E+00 0. -1.
         35    2    1    2    0    0  0.00000000000E+00  0.00000000000E+00  0.26954323532E+04  0.27094437293E+04  0.27519039166E+03 0.  0.
         25    1    3    3    0    0 -0.14841337107E+02  0.54102704018E+02  0.17141391867E+04  0.17192499874E+04  0.12000000000E+03 0.  0.
         25    1    3    3    0    0  0.14841337107E+02 -0.54102704018E+02  0.98129316644E+03  0.99019374183E+03  0.12000000000E+03 0.  0.
<mgrwt>
<rscale>  0 0.27519039E+03</rscale>
<asrwt>0</asrwt>
<pdfrwt beam="1">  1        1 0.41575887E+00 0.27519039E+03</pdfrwt>
<pdfrwt beam="2">  1       -1 0.10778003E-02 0.27519039E+03</pdfrwt>
<totfact> 0.19571276E+03</totfact>
</mgrwt>
</event>
<event>
 5    1  0.1129390E+001  0.2753936E+03  0.7818608E-02  0.1098232E+00
          2   -1    0    0  501    0  0.00000000000E+00  0.00000000000E+00  0.10674008399E+03  0.10674008399E+03  0.00000000000E+00 0.  1.
         -2   -1    0    0    0  501 -0.00000000000E+00 -0.00000000000E+00 -0.17763160258E+03  0.17763160258E+03  0.00000000000E+00 0.  1.
         35    2    1    2    0    0  0.00000000000E+00  0.00000000000E+00 -0.70891518592E+02  0.28437168657E+03  0.27539362505E+03 0.  0.
         25    1    3    3    0    0  0.41398396947E+02 -0.42170893993E+02 -0.16969168429E+01  0.13377253491E+03  0.12000000000E+03 0.  0.
         25    1    3    3    0    0 -0.41398396947E+02  0.42170893993E+02 -0.69194601749E+02  0.15059915166E+03  0.12000000000E+03 0.  0.
<mgrwt>
<rscale>  0 0.27539363E+03</rscale>
<asrwt>0</asrwt>
<pdfrwt beam="1">  1        2 0.16421552E-01 0.27539363E+03</pdfrwt>
<pdfrwt beam="2">  1       -2 0.27327938E-01 0.27539363E+03</pdfrwt>
<totfact> 0.42146577E+03</totfact>
</mgrwt>
</event>
<event>
 5    1  0.1129390E+001  0.2751479E+03  0.7818608E-02  0.1098369E+00
          1   -1    0    0  501    0  0.00000000000E+00  0.00000000000E+00  0.15019322890E+03  0.15019322890E+03  0.00000000000E+00 0. -1.
         -1   -1    0    0    0  501 -0.00000000000E+00 -0.00000000000E+00 -0.12601494297E+03  0.12601494297E+03  0.00000000000E+00 0. -1.
         35    2    1    2    0    0  0.00000000000E+00  0.00000000000E+00  0.24178285933E+02  0.27620817187E+03  0.27514789604E+03 0.  0.
         25    1    3    3    0    0 -0.29384898590E+01  0.61922338979E+02 -0.14156977871E+02  0.13580659340E+03  0.12000000000E+03 0.  0.
         25    1    3    3    0    0  0.29384898590E+01 -0.61922338979E+02  0.38335263804E+02  0.14040157847E+03  0.12000000000E+03 0.  0.
<mgrwt>
<rscale>  0 0.27514790E+03</rscale>
<asrwt>0</asrwt>
<pdfrwt beam="1">  1        1 0.23106651E-01 0.27514790E+03</pdfrwt>
<pdfrwt beam="2">  1       -1 0.19386914E-01 0.27514790E+03</pdfrwt>
<totfact> 0.44646903E+03</totfact>
</mgrwt>
</event>
<event>
 5    1  0.1129390E+001  0.2753421E+03  0.7818608E-02  0.1098261E+00
         -2   -1    0    0    0  501 -0.00000000000E+00  0.00000000000E+00  0.19589643579E+02  0.19589643579E+02  0.00000000000E+00 0.  1.
          2   -1    0    0  501    0  0.00000000000E+00 -0.00000000000E+00 -0.96751746175E+03  0.96751746175E+03  0.00000000000E+00 0.  1.
         35    2    1    2    0    0  0.00000000000E+00  0.00000000000E+00 -0.94792781817E+03  0.98710710533E+03  0.27534213069E+03 0.  0.
         25    1    3    3    0    0 -0.12042849401E+02  0.15091028074E+01 -0.71192972586E+03  0.72207426361E+03  0.12000000000E+03 0.  0.
         25    1    3    3    0    0  0.12042849401E+02 -0.15091028074E+01 -0.23599809232E+03  0.26503284172E+03  0.12000000000E+03 0.  0.
<mgrwt>
<rscale>  0 0.27534213E+03</rscale>
<asrwt>0</asrwt>
<pdfrwt beam="1">  1        2 0.14884885E+00 0.27534213E+03</pdfrwt>
<pdfrwt beam="2">  1       -2 0.30137912E-02 0.27534213E+03</pdfrwt>
<totfact> 0.11541456E+04</totfact>
</mgrwt>
</event>
<event>
 5    1  0.1129390E+001  0.2748838E+03  0.7818608E-02  0.1098517E+00
          1   -1    0    0  501    0  0.00000000000E+00  0.00000000000E+00  0.13693609623E+02  0.13693609623E+02  0.00000000000E+00 0.  1.
         -1   -1    0    0    0  501 -0.00000000000E+00 -0.00000000000E+00 -0.13794961539E+04  0.13794961539E+04  0.00000000000E+00 0.  1.
         35    2    1    2    0    0  0.00000000000E+00  0.00000000000E+00 -0.13658025443E+04  0.13931897636E+04  0.27488384317E+03 0.  0.
         25    1    3    3    0    0  0.85842442277E+01  0.62705339610E+02 -0.57132610980E+03  0.58721305555E+03  0.12000000000E+03 0.  0.
         25    1    3    3    0    0 -0.85842442277E+01 -0.62705339610E+02 -0.79447643451E+03  0.80597670802E+03  0.12000000000E+03 0.  0.
<mgrwt>
<rscale>  0 0.27488384E+03</rscale>
<asrwt>0</asrwt>
<pdfrwt beam="1">  1        1 0.21067088E-02 0.27488384E+03</pdfrwt>
<pdfrwt beam="2">  1       -1 0.21223022E+00 0.27488384E+03</pdfrwt>
<totfact> 0.77871922E+02</totfact>
</mgrwt>
</event>
<event>
 5    1  0.1129390E+001  0.2747226E+03  0.7818608E-02  0.1098607E+00
         -1   -1    0    0    0  501 -0.00000000000E+00  0.00000000000E+00  0.33935979924E+02  0.33935979924E+02  0.00000000000E+00 0. -1.
          1   -1    0    0  501    0  0.00000000000E+00 -0.00000000000E+00 -0.55599177543E+03  0.55599177543E+03  0.00000000000E+00 0. -1.
         35    2    1    2    0    0  0.00000000000E+00  0.00000000000E+00 -0.52205579551E+03  0.58992775536E+03  0.27472259266E+03 0.  0.
         25    1    3    3    0    0  0.14854080455E+02  0.36672903694E+02 -0.37671809573E+03  0.39734376706E+03  0.12000000000E+03 0.  0.
         25    1    3    3    0    0 -0.14854080455E+02 -0.36672903694E+02 -0.14533769978E+03  0.19258398830E+03  0.12000000000E+03 0.  0.
<mgrwt>
<rscale>  0 0.27472259E+03</rscale>
<asrwt>0</asrwt>
<pdfrwt beam="1">  1        1 0.85537196E-01 0.27472259E+03</pdfrwt>
<pdfrwt beam="2">  1       -1 0.52209200E-02 0.27472259E+03</pdfrwt>
<totfact> 0.64194604E+03</totfact>
</mgrwt>
</event>
<event>
 5    1  0.1129390E+001  0.2752173E+03  0.7818608E-02  0.1098330E+00
         -1   -1    0    0    0  501 -0.00000000000E+00  0.00000000000E+00  0.68324744455E+02  0.68324744455E+02  0.00000000000E+00 0.  1.
          1   -1    0    0  501    0  0.00000000000E+00 -0.00000000000E+00 -0.27714903593E+03  0.27714903593E+03  0.00000000000E+00 0.  1.
         35    2    1    2    0    0  0.00000000000E+00  0.00000000000E+00 -0.20882429148E+03  0.34547378039E+03  0.27521727457E+03 0.  0.
         25    1    3    3    0    0  0.54936110908E+02 -0.10703340942E+02 -0.15144062863E+03  0.20116361944E+03  0.12000000000E+03 0.  0.
         25    1    3    3    0    0 -0.54936110908E+02  0.10703340942E+02 -0.57383662849E+02  0.14431016094E+03  0.12000000000E+03 0.  0.
<mgrwt>
<rscale>  0 0.27521727E+03</rscale>
<asrwt>0</asrwt>
<pdfrwt beam="1">  1        1 0.42638313E-01 0.27521727E+03</pdfrwt>
<pdfrwt beam="2">  1       -1 0.10511499E-01 0.27521727E+03</pdfrwt>
<totfact> 0.54274181E+03</totfact>
</mgrwt>
</event>
<event>
 5    1  0.1129390E+001  0.2749391E+03  0.7818608E-02  0.1098486E+00
         -2   -1    0    0    0  501 -0.00000000000E+00  0.00000000000E+00  0.19742766987E+02  0.19742766987E+02  0.00000000000E+00 0.  1.
          2   -1    0    0  501    0  0.00000000000E+00 -0.00000000000E+00 -0.95720494161E+03  0.95720494161E+03  0.00000000000E+00 0.  1.
         35    2    1    2    0    0  0.00000000000E+00  0.00000000000E+00 -0.93746217463E+03  0.97694770860E+03  0.27493907777E+03 0.  0.
         25    1    3    3    0    0 -0.83715152135E+01  0.23455364231E+01 -0.23243394372E+03  0.26172719003E+03  0.12000000000E+03 0.  0.
         25    1    3    3    0    0  0.83715152135E+01 -0.23455364231E+01 -0.70502823091E+03  0.71522051857E+03  0.12000000000E+03 0.  0.
<mgrwt>
<rscale>  0 0.27493908E+03</rscale>
<asrwt>0</asrwt>
<pdfrwt beam="1">  1        2 0.14726227E+00 0.27493908E+03</pdfrwt>
<pdfrwt beam="2">  1       -2 0.30373493E-02 0.27493908E+03</pdfrwt>
<totfact> 0.11578209E+04</totfact>
</mgrwt>
</event>
<event>
 5    1  0.1129390E+001  0.2746173E+03  0.7818608E-02  0.1098666E+00
         -2   -1    0    0    0  501 -0.00000000000E+00  0.00000000000E+00  0.95749155047E+02  0.95749155047E+02  0.00000000000E+00 0. -1.
          2   -1    0    0  501    0  0.00000000000E+00 -0.00000000000E+00 -0.19690682858E+03  0.19690682858E+03  0.00000000000E+00 0. -1.
         35    2    1    2    0    0  0.00000000000E+00  0.00000000000E+00 -0.10115767354E+03  0.29265598363E+03  0.27461727884E+03 0.  0.
         25    1    3    3    0    0 -0.49492403364E+02 -0.23014433065E+01 -0.29333698162E+01  0.12985915174E+03  0.12000000000E+03 0.  0.
         25    1    3    3    0    0  0.49492403364E+02  0.23014433065E+01 -0.98224303720E+02  0.16279683189E+03  0.12000000000E+03 0.  0.
<mgrwt>
<rscale>  0 0.27461728E+03</rscale>
<asrwt>0</asrwt>
<pdfrwt beam="1">  1        2 0.30293358E-01 0.27461728E+03</pdfrwt>
<pdfrwt beam="2">  1       -2 0.14730639E-01 0.27461728E+03</pdfrwt>
<totfact> 0.60742627E+03</totfact>
</mgrwt>
</event>
<event>
 5    1  0.1129390E+001  0.2749795E+03  0.7818608E-02  0.1098463E+00
         -1   -1    0    0    0  501 -0.00000000000E+00  0.00000000000E+00  0.48755225022E+03  0.48755225022E+03  0.00000000000E+00 0. -1.
          1   -1    0    0  501    0  0.00000000000E+00 -0.00000000000E+00 -0.38772103846E+02  0.38772103846E+02  0.00000000000E+00 0. -1.
         35    2    1    2    0    0  0.00000000000E+00  0.00000000000E+00  0.44878014637E+03  0.52632435407E+03  0.27497946451E+03 0.  0.
         25    1    3    3    0    0 -0.37739824065E+02 -0.50674754427E+02  0.26766628419E+03  0.30006243475E+03  0.12000000000E+03 0.  0.
         25    1    3    3    0    0  0.37739824065E+02  0.50674754427E+02  0.18111386219E+03  0.22626191932E+03  0.12000000000E+03 0.  0.
<mgrwt>
<rscale>  0 0.27497946E+03</rscale>
<asrwt>0</asrwt>
<pdfrwt beam="1">  1        1 0.59649394E-02 0.27497946E+03</pdfrwt>
<pdfrwt beam="2">  1       -1 0.75008034E-01 0.27497946E+03</pdfrwt>
<totfact> 0.24224822E+03</totfact>
</mgrwt>
</event>
<event>
 5    1  0.1129390E+001  0.2730960E+03  0.7818608E-02  0.1099521E+00
          2   -1    0    0  501    0  0.00000000000E+00  0.00000000000E+00  0.63853175453E+03  0.63853175453E+03  0.00000000000E+00 0. -1.
         -2   -1    0    0    0  501 -0.00000000000E+00 -0.00000000000E+00 -0.29200359972E+02  0.29200359972E+02  0.00000000000E+00 0. -1.
         35    2    1    2    0    0  0.00000000000E+00  0.00000000000E+00  0.60933139456E+03  0.66773211450E+03  0.27309600573E+03 0.  0.
         25    1    3    3    0    0 -0.50917147155E+02 -0.40177789734E+02  0.31984594862E+03  0.34771862405E+03  0.12000000000E+03 0.  0.
         25    1    3    3    0    0  0.50917147155E+02  0.40177789734E+02  0.28948544594E+03  0.32001349046E+03  0.12000000000E+03 0.  0.
<mgrwt>
<rscale>  0 0.27309601E+03</rscale>
<asrwt>0</asrwt>
<pdfrwt beam="1">  1        2 0.98235644E-01 0.27309601E+03</pdfrwt>
<pdfrwt beam="2">  1       -2 0.44923636E-02 0.27309601E+03</pdfrwt>
<totfact> 0.10751788E+04</totfact>
</mgrwt>
</event>
<event>
 5    1  0.1129390E+001  0.2750556E+03  0.7818608E-02  0.1098421E+00
         -1   -1    0    0    0  501 -0.00000000000E+00  0.00000000000E+00  0.19759229830E+02  0.19759229830E+02  0.00000000000E+00 0. -1.
          1   -1    0    0  501    0  0.00000000000E+00 -0.00000000000E+00 -0.95721811676E+03  0.95721811676E+03  0.00000000000E+00 0. -1.
         35    2    1    2    0    0  0.00000000000E+00  0.00000000000E+00 -0.93745888693E+03  0.97697734659E+03  0.27505557814E+03 0.  0.
         25    1    3    3    0    0 -0.63517803257E+02  0.16096923207E+02 -0.41601347309E+03  0.43790504914E+03  0.12000000000E+03 0.  0.
         25    1    3    3    0    0  0.63517803257E+02 -0.16096923207E+02 -0.52144541384E+03  0.53907229746E+03  0.12000000000E+03 0.  0.
<mgrwt>
<rscale>  0 0.27505558E+03</rscale>
<asrwt>0</asrwt>
<pdfrwt beam="1">  1        1 0.14726429E+00 0.27505558E+03</pdfrwt>
<pdfrwt beam="2">  1       -1 0.30398822E-02 0.27505558E+03</pdfrwt>
<totfact> 0.63692914E+03</totfact>
</mgrwt>
</event>
<event>
 5    1  0.1129390E+001  0.2751075E+03  0.7818608E-02  0.1098392E+00
         -4   -1    0    0    0  501 -0.00000000000E+00  0.00000000000E+00  0.42261230911E+03  0.42261230911E+03  0.00000000000E+00 0. -1.
          4   -1    0    0  501    0  0.00000000000E+00 -0.00000000000E+00 -0.44771618074E+02  0.44771618074E+02  0.00000000000E+00 0. -1.
         35    2    1    2    0    0  0.00000000000E+00  0.00000000000E+00  0.37784069104E+03  0.46738392718E+03  0.27510752005E+03 0.  0.
         25    1    3    3    0    0  0.36489937744E+02  0.52146657453E+02  0.22576161096E+03  0.26347503567E+03  0.12000000000E+03 0.  0.
         25    1    3    3    0    0 -0.36489937744E+02 -0.52146657453E+02  0.15207908008E+03  0.20390889151E+03  0.12000000000E+03 0.  0.
<mgrwt>
<rscale>  0 0.27510752E+03</rscale>
<asrwt>0</asrwt>
<pdfrwt beam="1">  1        4 0.68879415E-02 0.27510752E+03</pdfrwt>
<pdfrwt beam="2">  1       -4 0.65017276E-01 0.27510752E+03</pdfrwt>
<totfact> 0.59292534E+02</totfact>
</mgrwt>
</event>
<event>
 5    1  0.1129390E+001  0.2749911E+03  0.7818608E-02  0.1098457E+00
          3   -1    0    0  501    0  0.00000000000E+00  0.00000000000E+00  0.14861583107E+03  0.14861583107E+03  0.00000000000E+00 0. -1.
         -3   -1    0    0    0  501 -0.00000000000E+00 -0.00000000000E+00 -0.12720736560E+03  0.12720736560E+03  0.00000000000E+00 0. -1.
         35    2    1    2    0    0  0.00000000000E+00  0.00000000000E+00  0.21408465467E+02  0.27582319667E+03  0.27499111518E+03 0.  0.
         25    1    3    3    0    0 -0.74318651151E+01  0.30416346097E+02 -0.48844100260E+02  0.13328965774E+03  0.12000000000E+03 0.  0.
         25    1    3    3    0    0  0.74318651151E+01 -0.30416346097E+02  0.70252565727E+02  0.14253353893E+03  0.12000000000E+03 0.  0.
<mgrwt>
<rscale>  0 0.27499112E+03</rscale>
<asrwt>0</asrwt>
<pdfrwt beam="1">  1        3 0.22863974E-01 0.27499112E+03</pdfrwt>
<pdfrwt beam="2">  1       -3 0.19570364E-01 0.27499112E+03</pdfrwt>
<totfact> 0.10477653E+03</totfact>
</mgrwt>
</event>
<event>
 5    1  0.1129390E+001  0.2762448E+03  0.7818608E-02  0.1097758E+00
          2   -1    0    0  501    0  0.00000000000E+00  0.00000000000E+00  0.22527766591E+04  0.22527766591E+04  0.00000000000E+00 0. -1.
         -2   -1    0    0    0  501 -0.00000000000E+00 -0.00000000000E+00 -0.84685713038E+01  0.84685713038E+01  0.00000000000E+00 0. -1.
         35    2    1    2    0    0  0.00000000000E+00  0.00000000000E+00  0.22443080878E+04  0.22612452304E+04  0.27624481728E+03 0.  0.
         25    1    3    3    0    0 -0.62479846693E+02 -0.54335143570E+01  0.89879726836E+03  0.90893882299E+03  0.12000000000E+03 0.  0.
         25    1    3    3    0    0  0.62479846693E+02  0.54335143570E+01  0.13455108194E+04  0.13523064074E+04  0.12000000000E+03 0.  0.
<mgrwt>
<rscale>  0 0.27624482E+03</rscale>
<asrwt>0</asrwt>
<pdfrwt beam="1">  1        2 0.34658055E+00 0.27624482E+03</pdfrwt>
<pdfrwt beam="2">  1       -2 0.13028589E-02 0.27624482E+03</pdfrwt>
<totfact> 0.79126459E+03</totfact>
</mgrwt>
</event>
<event>
 5    1  0.1129390E+001  0.2763546E+03  0.7818608E-02  0.1097697E+00
          2   -1    0    0  501    0  0.00000000000E+00  0.00000000000E+00  0.19497624852E+04  0.19497624852E+04  0.00000000000E+00 0. -1.
         -2   -1    0    0    0  501 -0.00000000000E+00 -0.00000000000E+00 -0.97924578230E+01  0.97924578230E+01  0.00000000000E+00 0. -1.
         35    2    1    2    0    0  0.00000000000E+00  0.00000000000E+00  0.19399700274E+04  0.19595549430E+04  0.27635460482E+03 0.  0.
         25    1    3    3    0    0  0.22855742839E+02  0.64172640234E+02  0.10213397771E+04  0.10306189660E+04  0.12000000000E+03 0.  0.
         25    1    3    3    0    0 -0.22855742839E+02 -0.64172640234E+02  0.91863025030E+03  0.92893597707E+03  0.12000000000E+03 0.  0.
<mgrwt>
<rscale>  0 0.27635460E+03</rscale>
<asrwt>0</asrwt>
<pdfrwt beam="1">  1        2 0.29996315E+00 0.27635460E+03</pdfrwt>
<pdfrwt beam="2">  1       -2 0.15065335E-02 0.27635460E+03</pdfrwt>
<totfact> 0.92567458E+03</totfact>
</mgrwt>
</event>
<event>
 5    1  0.1129390E+001  0.2770392E+03  0.7818608E-02  0.1097317E+00
         -2   -1    0    0    0  501 -0.00000000000E+00  0.00000000000E+00  0.29009853527E+02  0.29009853527E+02  0.00000000000E+00 0.  1.
          2   -1    0    0  501    0  0.00000000000E+00 -0.00000000000E+00 -0.66141951426E+03  0.66141951426E+03  0.00000000000E+00 0.  1.
         35    2    1    2    0    0  0.00000000000E+00  0.00000000000E+00 -0.63240966073E+03  0.69042936779E+03  0.27703922631E+03 0.  0.
         25    1    3    3    0    0  0.66894140444E+02 -0.13648366912E+02 -0.28816603785E+03  0.31953210999E+03  0.12000000000E+03 0.  0.
         25    1    3    3    0    0 -0.66894140444E+02  0.13648366912E+02 -0.34424362289E+03  0.37089725780E+03  0.12000000000E+03 0.  0.
<mgrwt>
<rscale>  0 0.27703923E+03</rscale>
<asrwt>0</asrwt>
<pdfrwt beam="1">  1        2 0.10175685E+00 0.27703923E+03</pdfrwt>
<pdfrwt beam="2">  1       -2 0.44630545E-02 0.27703923E+03</pdfrwt>
<totfact> 0.10419835E+04</totfact>
</mgrwt>
</event>
<event>
 5    1  0.1129390E+001  0.2764278E+03  0.7818608E-02  0.1097656E+00
         -1   -1    0    0    0  501 -0.00000000000E+00  0.00000000000E+00  0.59267216974E+03  0.59267216974E+03  0.00000000000E+00 0. -1.
          1   -1    0    0  501    0  0.00000000000E+00 -0.00000000000E+00 -0.32232129105E+02  0.32232129105E+02  0.00000000000E+00 0. -1.
         35    2    1    2    0    0  0.00000000000E+00  0.00000000000E+00  0.56044004063E+03  0.62490429884E+03  0.27642782705E+03 0.  0.
         25    1    3    3    0    0  0.45028290112E+02  0.51331155366E+02  0.29463353451E+03  0.32537878554E+03  0.12000000000E+03 0.  0.
         25    1    3    3    0    0 -0.45028290112E+02 -0.51331155366E+02  0.26580650612E+03  0.29952551330E+03  0.12000000000E+03 0.  0.
<mgrwt>
<rscale>  0 0.27642783E+03</rscale>
<asrwt>0</asrwt>
<pdfrwt beam="1">  1        1 0.49587895E-02 0.27642783E+03</pdfrwt>
<pdfrwt beam="2">  1       -1 0.91180326E-01 0.27642783E+03</pdfrwt>
<totfact> 0.20774586E+03</totfact>
</mgrwt>
</event>
<event>
 5    1  0.1129390E+001  0.2792475E+03  0.7818608E-02  0.1096101E+00
          2   -1    0    0  501    0  0.00000000000E+00  0.00000000000E+00  0.25204821843E+04  0.25204821843E+04  0.00000000000E+00 0.  1.
         -2   -1    0    0    0  501 -0.00000000000E+00 -0.00000000000E+00 -0.77345457665E+01  0.77345457665E+01  0.00000000000E+00 0.  1.
         35    2    1    2    0    0  0.00000000000E+00  0.00000000000E+00  0.25127476386E+04  0.25282167301E+04  0.27924745161E+03 0.  0.
         25    1    3    3    0    0  0.49623638480E+01 -0.56228185249E+02  0.86084606812E+03  0.87100068132E+03  0.12000000000E+03 0.  0.
         25    1    3    3    0    0 -0.49623638480E+01  0.56228185249E+02  0.16519015704E+04  0.16572160488E+04  0.12000000000E+03 0.  0.
<mgrwt>
<rscale>  0 0.27924745E+03</rscale>
<asrwt>0</asrwt>
<pdfrwt beam="1">  1        2 0.38776583E+00 0.27924745E+03</pdfrwt>
<pdfrwt beam="2">  1       -2 0.11899321E-02 0.27924745E+03</pdfrwt>
<totfact> 0.64680542E+03</totfact>
</mgrwt>
</event>
<event>
 5    1  0.1129390E+001  0.2746183E+03  0.7818608E-02  0.1098665E+00
          2   -1    0    0  501    0  0.00000000000E+00  0.00000000000E+00  0.24199959862E+03  0.24199959862E+03  0.00000000000E+00 0. -1.
         -2   -1    0    0    0  501 -0.00000000000E+00 -0.00000000000E+00 -0.77908385503E+02  0.77908385503E+02  0.00000000000E+00 0. -1.
         35    2    1    2    0    0  0.00000000000E+00  0.00000000000E+00  0.16409121312E+03  0.31990798412E+03  0.27461826611E+03 0.  0.
         25    1    3    3    0    0 -0.48586033290E+02 -0.14705029801E+02  0.13251439470E+03  0.18584107548E+03  0.12000000000E+03 0.  0.
         25    1    3    3    0    0  0.48586033290E+02  0.14705029801E+02  0.31576818419E+02  0.13406690865E+03  0.12000000000E+03 0.  0.
<mgrwt>
<rscale>  0 0.27461827E+03</rscale>
<asrwt>0</asrwt>
<pdfrwt beam="1">  1        2 0.37230707E-01 0.27461827E+03</pdfrwt>
<pdfrwt beam="2">  1       -2 0.11985906E-01 0.27461827E+03</pdfrwt>
<totfact> 0.67931080E+03</totfact>
</mgrwt>
</event>
<event>
 5    1  0.1129390E+001  0.2746810E+03  0.7818608E-02  0.1098630E+00
          2   -1    0    0  501    0  0.00000000000E+00  0.00000000000E+00  0.21057897235E+04  0.21057897235E+04  0.00000000000E+00 0.  1.
         -2   -1    0    0    0  501 -0.00000000000E+00 -0.00000000000E+00 -0.89574031407E+01  0.89574031407E+01  0.00000000000E+00 0.  1.
         35    2    1    2    0    0  0.00000000000E+00  0.00000000000E+00  0.20968323204E+04  0.21147471267E+04  0.27468096027E+03 0.  0.
         25    1    3    3    0    0  0.60727107955E+02  0.20802412824E+02  0.11907703337E+04  0.11985218020E+04  0.12000000000E+03 0.  0.
         25    1    3    3    0    0 -0.60727107955E+02 -0.20802412824E+02  0.90606198666E+03  0.91622532474E+03  0.12000000000E+03 0.  0.
<mgrwt>
<rscale>  0 0.27468096E+03</rscale>
<asrwt>0</asrwt>
<pdfrwt beam="1">  1        2 0.32396726E+00 0.27468096E+03</pdfrwt>
<pdfrwt beam="2">  1       -2 0.13780637E-02 0.27468096E+03</pdfrwt>
<totfact> 0.87261783E+03</totfact>
</mgrwt>
</event>
<event>
 5    1  0.1129390E+001  0.2874158E+03  0.7818608E-02  0.1091706E+00
         -3   -1    0    0    0  501 -0.00000000000E+00  0.00000000000E+00  0.29036158110E+02  0.29036158110E+02  0.00000000000E+00 0.  1.
          3   -1    0    0  501    0  0.00000000000E+00 -0.00000000000E+00 -0.71124979676E+03  0.71124979676E+03  0.00000000000E+00 0.  1.
         35    2    1    2    0    0  0.00000000000E+00  0.00000000000E+00 -0.68221363865E+03  0.74028595487E+03  0.28741580718E+03 0.  0.
         25    1    3    3    0    0 -0.14266508651E+02 -0.73217917644E+02 -0.40864442878E+03  0.43238254579E+03  0.12000000000E+03 0.  0.
         25    1    3    3    0    0  0.14266508651E+02  0.73217917644E+02 -0.27356920987E+03  0.30790340908E+03  0.12000000000E+03 0.  0.
<mgrwt>
<rscale>  0 0.28741581E+03</rscale>
<asrwt>0</asrwt>
<pdfrwt beam="1">  1        3 0.10942305E+00 0.28741581E+03</pdfrwt>
<pdfrwt beam="2">  1       -3 0.44671011E-02 0.28741581E+03</pdfrwt>
<totfact> 0.51129335E+02</totfact>
</mgrwt>
</event>
<event>
 5    1  0.1129390E+001  0.2750135E+03  0.7818608E-02  0.1098444E+00
         -2   -1    0    0    0  501 -0.00000000000E+00  0.00000000000E+00  0.38695313133E+02  0.38695313133E+02  0.00000000000E+00 0.  1.
          2   -1    0    0  501    0  0.00000000000E+00 -0.00000000000E+00 -0.48864058505E+03  0.48864058505E+03  0.00000000000E+00 0.  1.
         35    2    1    2    0    0  0.00000000000E+00  0.00000000000E+00 -0.44994527191E+03  0.52733589818E+03  0.27501345747E+03 0.  0.
         25    1    3    3    0    0 -0.36236320661E+01  0.60923663085E+02 -0.17130764235E+03  0.21787870883E+03  0.12000000000E+03 0.  0.
         25    1    3    3    0    0  0.36236320661E+01 -0.60923663085E+02 -0.27863762956E+03  0.30945718935E+03  0.12000000000E+03 0.  0.
<mgrwt>
<rscale>  0 0.27501346E+03</rscale>
<asrwt>0</asrwt>
<pdfrwt beam="1">  1        2 0.75175478E-01 0.27501346E+03</pdfrwt>
<pdfrwt beam="2">  1       -2 0.59531248E-02 0.27501346E+03</pdfrwt>
<totfact> 0.95150082E+03</totfact>
</mgrwt>
</event>
<event>
 5    1  0.1129390E+001  0.2750279E+03  0.7818608E-02  0.1098436E+00
          2   -1    0    0  501    0  0.00000000000E+00  0.00000000000E+00  0.14571274949E+04  0.14571274949E+04  0.00000000000E+00 0. -1.
         -2   -1    0    0    0  501 -0.00000000000E+00 -0.00000000000E+00 -0.12977643845E+02  0.12977643845E+02  0.00000000000E+00 0. -1.
         35    2    1    2    0    0  0.00000000000E+00  0.00000000000E+00  0.14441498510E+04  0.14701051387E+04  0.27502786524E+03 0.  0.
         25    1    3    3    0    0  0.32861964875E+02 -0.52260028677E+02  0.58074645842E+03  0.59621931225E+03  0.12000000000E+03 0.  0.
         25    1    3    3    0    0 -0.32861964875E+02  0.52260028677E+02  0.86340339260E+03  0.87388582646E+03  0.12000000000E+03 0.  0.
<mgrwt>
<rscale>  0 0.27502787E+03</rscale>
<asrwt>0</asrwt>
<pdfrwt beam="1">  1        2 0.22417333E+00 0.27502787E+03</pdfrwt>
<pdfrwt beam="2">  1       -2 0.19965617E-02 0.27502787E+03</pdfrwt>
<totfact> 0.11150610E+04</totfact>
</mgrwt>
</event>
<event>
 5    1  0.1129390E+001  0.2756480E+03  0.7818608E-02  0.1098090E+00
         -3   -1    0    0    0  501 -0.00000000000E+00  0.00000000000E+00  0.31168132786E+03  0.31168132786E+03  0.00000000000E+00 0.  1.
          3   -1    0    0  501    0  0.00000000000E+00 -0.00000000000E+00 -0.60945098277E+02  0.60945098277E+02  0.00000000000E+00 0.  1.
         35    2    1    2    0    0  0.00000000000E+00  0.00000000000E+00  0.25073622958E+03  0.37262642613E+03  0.27564795778E+03 0.  0.
         25    1    3    3    0    0 -0.16422877577E+02 -0.33490539708E+02  0.20188783861E+03  0.23780249481E+03  0.12000000000E+03 0.  0.
         25    1    3    3    0    0  0.16422877577E+02  0.33490539708E+02  0.48848390968E+02  0.13482393133E+03  0.12000000000E+03 0.  0.
<mgrwt>
<rscale>  0 0.27564796E+03</rscale>
<asrwt>0</asrwt>
<pdfrwt beam="1">  1        3 0.93761692E-02 0.27564796E+03</pdfrwt>
<pdfrwt beam="2">  1       -3 0.47950972E-01 0.27564796E+03</pdfrwt>
<totfact> 0.90725600E+02</totfact>
</mgrwt>
</event>
<event>
 5    1  0.1129390E+001  0.2708036E+03  0.7818608E-02  0.1100821E+00
          1   -1    0    0  501    0  0.00000000000E+00  0.00000000000E+00  0.39839496798E+02  0.39839496798E+02  0.00000000000E+00 0.  1.
         -1   -1    0    0    0  501 -0.00000000000E+00 -0.00000000000E+00 -0.46018757907E+03  0.46018757907E+03  0.00000000000E+00 0.  1.
         35    2    1    2    0    0  0.00000000000E+00  0.00000000000E+00 -0.42034808227E+03  0.50002707587E+03  0.27080355672E+03 0.  0.
         25    1    3    3    0    0  0.10043491978E+01  0.27037928530E+02 -0.10569683282E+03  0.16218470571E+03  0.12000000000E+03 0.  0.
         25    1    3    3    0    0 -0.10043491978E+01 -0.27037928530E+02 -0.31465124945E+03  0.33784237016E+03  0.12000000000E+03 0.  0.
<mgrwt>
<rscale>  0 0.27080356E+03</rscale>
<asrwt>0</asrwt>
<pdfrwt beam="1">  1        1 0.61291536E-02 0.27080356E+03</pdfrwt>
<pdfrwt beam="2">  1       -1 0.70798086E-01 0.27080356E+03</pdfrwt>
<totfact> 0.26214364E+03</totfact>
</mgrwt>
</event>
<event>
 5    1  0.1129390E+001  0.2794393E+03  0.7818608E-02  0.1095996E+00
          1   -1    0    0  501    0  0.00000000000E+00  0.00000000000E+00  0.20657463879E+04  0.20657463879E+04  0.00000000000E+00 0.  1.
         -1   -1    0    0    0  501 -0.00000000000E+00 -0.00000000000E+00 -0.94501329285E+01  0.94501329285E+01  0.00000000000E+00 0.  1.
         35    2    1    2    0    0  0.00000000000E+00  0.00000000000E+00  0.20562962550E+04  0.20751965209E+04  0.27943928115E+03 0.  0.
         25    1    3    3    0    0 -0.13622905852E+02 -0.65556159916E+02  0.84051355045E+03  0.85167260268E+03  0.12000000000E+03 0.  0.
         25    1    3    3    0    0  0.13622905852E+02  0.65556159916E+02  0.12157827046E+04  0.12235239182E+04  0.12000000000E+03 0.  0.
<mgrwt>
<rscale>  0 0.27943928E+03</rscale>
<asrwt>0</asrwt>
<pdfrwt beam="1">  1        1 0.31780678E+00 0.27943928E+03</pdfrwt>
<pdfrwt beam="2">  1       -1 0.14538682E-02 0.27943928E+03</pdfrwt>
<totfact> 0.33396175E+03</totfact>
</mgrwt>
</event>
<event>
 5    1  0.1129390E+001  0.2822714E+03  0.7818608E-02  0.1094455E+00
         -1   -1    0    0    0  501 -0.00000000000E+00  0.00000000000E+00  0.66391890219E+02  0.66391890219E+02  0.00000000000E+00 0. -1.
          1   -1    0    0  501    0  0.00000000000E+00 -0.00000000000E+00 -0.30002578416E+03  0.30002578416E+03  0.00000000000E+00 0. -1.
         35    2    1    2    0    0  0.00000000000E+00  0.00000000000E+00 -0.23363389394E+03  0.36641767438E+03  0.28227135118E+03 0.  0.
         25    1    3    3    0    0 -0.42707769445E+02  0.52692781991E+02 -0.15616463130E+03  0.20829756339E+03  0.12000000000E+03 0.  0.
         25    1    3    3    0    0  0.42707769445E+02 -0.52692781991E+02 -0.77469262642E+02  0.15812011099E+03  0.12000000000E+03 0.  0.
<mgrwt>
<rscale>  0 0.28227135E+03</rscale>
<asrwt>0</asrwt>
<pdfrwt beam="1">  1        1 0.46157813E-01 0.28227135E+03</pdfrwt>
<pdfrwt beam="2">  1       -1 0.10214137E-01 0.28227135E+03</pdfrwt>
<totfact> 0.51399036E+03</totfact>
</mgrwt>
</event>
<event>
 5    1  0.1129390E+001  0.2742470E+03  0.7818608E-02  0.1098873E+00
         -1   -1    0    0    0  501 -0.00000000000E+00  0.00000000000E+00  0.15251887833E+02  0.15251887833E+02  0.00000000000E+00 0.  1.
          1   -1    0    0  501    0  0.00000000000E+00 -0.00000000000E+00 -0.12328210833E+04  0.12328210833E+04  0.00000000000E+00 0.  1.
         35    2    1    2    0    0  0.00000000000E+00  0.00000000000E+00 -0.12175691955E+04  0.12480729712E+04  0.27424696083E+03 0.  0.
         25    1    3    3    0    0 -0.36595361991E+02  0.22301795262E+02 -0.83932568508E+03  0.84894298762E+03  0.12000000000E+03 0.  0.
         25    1    3    3    0    0  0.36595361991E+02 -0.22301795262E+02 -0.37824351040E+03  0.39912998353E+03  0.12000000000E+03 0.  0.
<mgrwt>
<rscale>  0 0.27424696E+03</rscale>
<asrwt>0</asrwt>
<pdfrwt beam="1">  1        1 0.18966482E+00 0.27424696E+03</pdfrwt>
<pdfrwt beam="2">  1       -1 0.23464438E-02 0.27424696E+03</pdfrwt>
<totfact> 0.58875718E+03</totfact>
</mgrwt>
</event>
<event>
 5    1  0.1129390E+001  0.2742028E+03  0.7818608E-02  0.1098898E+00
          1   -1    0    0  501    0  0.00000000000E+00  0.00000000000E+00  0.12238960994E+04  0.12238960994E+04  0.00000000000E+00 0.  1.
         -1   -1    0    0    0  501 -0.00000000000E+00 -0.00000000000E+00 -0.15358162902E+02  0.15358162902E+02  0.00000000000E+00 0.  1.
         35    2    1    2    0    0  0.00000000000E+00  0.00000000000E+00  0.12085379365E+04  0.12392542623E+04  0.27420281304E+03 0.  0.
         25    1    3    3    0    0  0.23591207474E+02  0.26015228251E+02  0.85846547968E+03  0.86752309305E+03  0.12000000000E+03 0.  0.
         25    1    3    3    0    0 -0.23591207474E+02 -0.26015228251E+02  0.35007245680E+03  0.37173116923E+03  0.12000000000E+03 0.  0.
<mgrwt>
<rscale>  0 0.27420281E+03</rscale>
<asrwt>0</asrwt>
<pdfrwt beam="1">  1        1 0.18829163E+00 0.27420281E+03</pdfrwt>
<pdfrwt beam="2">  1       -1 0.23627953E-02 0.27420281E+03</pdfrwt>
<totfact> 0.59116802E+03</totfact>
</mgrwt>
</event>
<event>
 5    1  0.1129390E+001  0.2748340E+03  0.7818608E-02  0.1098544E+00
         -2   -1    0    0    0  501 -0.00000000000E+00  0.00000000000E+00  0.10832935093E+02  0.10832935093E+02  0.00000000000E+00 0. -1.
          2   -1    0    0  501    0  0.00000000000E+00 -0.00000000000E+00 -0.17431497666E+04  0.17431497666E+04  0.00000000000E+00 0. -1.
         35    2    1    2    0    0  0.00000000000E+00  0.00000000000E+00 -0.17323168315E+04  0.17539827017E+04  0.27483397373E+03 0.  0.
         25    1    3    3    0    0  0.59416686271E+02 -0.30812852538E+02 -0.87835748521E+03  0.88903973269E+03  0.12000000000E+03 0.  0.
         25    1    3    3    0    0 -0.59416686271E+02  0.30812852538E+02 -0.85395934632E+03  0.86494296902E+03  0.12000000000E+03 0.  0.
<mgrwt>
<rscale>  0 0.27483397E+03</rscale>
<asrwt>0</asrwt>
<pdfrwt beam="1">  1        2 0.26817691E+00 0.27483397E+03</pdfrwt>
<pdfrwt beam="2">  1       -2 0.16666053E-02 0.27483397E+03</pdfrwt>
<totfact> 0.10249535E+04</totfact>
</mgrwt>
</event>
<event>
 5    1  0.1129390E+001  0.2754802E+03  0.7818608E-02  0.1098184E+00
         -2   -1    0    0    0  501 -0.00000000000E+00  0.00000000000E+00  0.22540948547E+02  0.22540948547E+02  0.00000000000E+00 0.  1.
          2   -1    0    0  501    0  0.00000000000E+00 -0.00000000000E+00 -0.84168283090E+03  0.84168283090E+03  0.00000000000E+00 0.  1.
         35    2    1    2    0    0  0.00000000000E+00  0.00000000000E+00 -0.81914188235E+03  0.86422377945E+03  0.27548015816E+03 0.  0.
         25    1    3    3    0    0  0.23084404474E+01  0.16850561371E+01 -0.62151261973E+03  0.63299771311E+03  0.12000000000E+03 0.  0.
         25    1    3    3    0    0 -0.23084404474E+01 -0.16850561371E+01 -0.19762926262E+03  0.23122606634E+03  0.12000000000E+03 0.  0.
<mgrwt>
<rscale>  0 0.27548016E+03</rscale>
<asrwt>0</asrwt>
<pdfrwt beam="1">  1        2 0.12948966E+00 0.27548016E+03</pdfrwt>
<pdfrwt beam="2">  1       -2 0.34678383E-02 0.27548016E+03</pdfrwt>
<totfact> 0.11284728E+04</totfact>
</mgrwt>
</event>
<event>
 5    1  0.1129390E+001  0.2753778E+03  0.7818608E-02  0.1098241E+00
          1   -1    0    0  501    0  0.00000000000E+00  0.00000000000E+00  0.42038169273E+02  0.42038169273E+02  0.00000000000E+00 0.  1.
         -1   -1    0    0    0  501 -0.00000000000E+00 -0.00000000000E+00 -0.45097668941E+03  0.45097668941E+03  0.00000000000E+00 0.  1.
         35    2    1    2    0    0  0.00000000000E+00  0.00000000000E+00 -0.40893852014E+03  0.49301485868E+03  0.27537780889E+03 0.  0.
         25    1    3    3    0    0  0.56966196670E+02  0.35976362919E+02 -0.19670905596E+03  0.24007061242E+03  0.12000000000E+03 0.  0.
         25    1    3    3    0    0 -0.56966196670E+02 -0.35976362919E+02 -0.21222946418E+03  0.25294424626E+03  0.12000000000E+03 0.  0.
<mgrwt>
<rscale>  0 0.27537781E+03</rscale>
<asrwt>0</asrwt>
<pdfrwt beam="1">  1        1 0.64674110E-02 0.27537781E+03</pdfrwt>
<pdfrwt beam="2">  1       -1 0.69381025E-01 0.27537781E+03</pdfrwt>
<totfact> 0.25363822E+03</totfact>
</mgrwt>
</event>
<event>
 5    1  0.1129390E+001  0.2753001E+03  0.7818608E-02  0.1098284E+00
         -2   -1    0    0    0  501 -0.00000000000E+00  0.00000000000E+00  0.13844953200E+04  0.13844953200E+04  0.00000000000E+00 0.  1.
          2   -1    0    0  501    0  0.00000000000E+00 -0.00000000000E+00 -0.13685518674E+02  0.13685518674E+02  0.00000000000E+00 0.  1.
         35    2    1    2    0    0  0.00000000000E+00  0.00000000000E+00  0.13708098013E+04  0.13981808387E+04  0.27530010211E+03 0.  0.
         25    1    3    3    0    0  0.28087155513E+02  0.55979541914E+02  0.55844229246E+03  0.57461325379E+03  0.12000000000E+03 0.  0.
         25    1    3    3    0    0 -0.28087155513E+02 -0.55979541914E+02  0.81236750886E+03  0.82356758488E+03  0.12000000000E+03 0.  0.
<mgrwt>
<rscale>  0 0.27530010E+03</rscale>
<asrwt>0</asrwt>
<pdfrwt beam="1">  1        2 0.21054655E-02 0.27530010E+03</pdfrwt>
<pdfrwt beam="2">  1       -2 0.21299917E+00 0.27530010E+03</pdfrwt>
<totfact> 0.61012664E+02</totfact>
</mgrwt>
</event>
<event>
 5    1  0.1129390E+001  0.2749713E+03  0.7818608E-02  0.1098468E+00
          4   -1    0    0  501    0  0.00000000000E+00  0.00000000000E+00  0.79868118910E+02  0.79868118910E+02  0.00000000000E+00 0. -1.
         -4   -1    0    0    0  501 -0.00000000000E+00 -0.00000000000E+00 -0.23666891225E+03  0.23666891225E+03  0.00000000000E+00 0. -1.
         35    2    1    2    0    0  0.00000000000E+00  0.00000000000E+00 -0.15680079334E+03  0.31653703116E+03  0.27497127723E+03 0.  0.
         25    1    3    3    0    0  0.47147479911E+02  0.42002067100E+02 -0.10453061020E+03  0.17121246149E+03  0.12000000000E+03 0.  0.
         25    1    3    3    0    0 -0.47147479911E+02 -0.42002067100E+02 -0.52270183141E+02  0.14532456966E+03  0.12000000000E+03 0.  0.
<mgrwt>
<rscale>  0 0.27497128E+03</rscale>
<asrwt>0</asrwt>
<pdfrwt beam="1">  1        4 0.12287403E-01 0.27497128E+03</pdfrwt>
<pdfrwt beam="2">  1       -4 0.36410602E-01 0.27497128E+03</pdfrwt>
<totfact> 0.73210029E+02</totfact>
</mgrwt>
</event>
<event>
 5    1  0.1129390E+001  0.2748244E+03  0.7818608E-02  0.1098550E+00
         -1   -1    0    0    0  501 -0.00000000000E+00  0.00000000000E+00  0.98938787719E+01  0.98938787719E+01  0.00000000000E+00 0.  1.
          1   -1    0    0  501    0  0.00000000000E+00 -0.00000000000E+00 -0.19084636764E+04  0.19084636764E+04  0.00000000000E+00 0.  1.
         35    2    1    2    0    0  0.00000000000E+00  0.00000000000E+00 -0.18985697976E+04  0.19183575552E+04  0.27482436759E+03 0.  0.
         25    1    3    3    0    0 -0.66804692502E+02  0.40953241740E+01 -0.93831530205E+03  0.94832233163E+03  0.12000000000E+03 0.  0.
         25    1    3    3    0    0  0.66804692502E+02 -0.40953241740E+01 -0.96025449560E+03  0.97003522355E+03  0.12000000000E+03 0.  0.
<mgrwt>
<rscale>  0 0.27482437E+03</rscale>
<asrwt>0</asrwt>
<pdfrwt beam="1">  1        1 0.29360935E+00 0.27482437E+03</pdfrwt>
<pdfrwt beam="2">  1       -1 0.15221375E-02 0.27482437E+03</pdfrwt>
<totfact> 0.39525522E+03</totfact>
</mgrwt>
</event>
<event>
 5    1  0.1129390E+001  0.2750740E+03  0.7818608E-02  0.1098410E+00
          1   -1    0    0  501    0  0.00000000000E+00  0.00000000000E+00  0.13237540158E+04  0.13237540158E+04  0.00000000000E+00 0.  1.
         -1   -1    0    0    0  501 -0.00000000000E+00 -0.00000000000E+00 -0.14289986881E+02  0.14289986881E+02  0.00000000000E+00 0.  1.
         35    2    1    2    0    0  0.00000000000E+00  0.00000000000E+00  0.13094640289E+04  0.13380440027E+04  0.27507400837E+03 0.  0.
         25    1    3    3    0    0  0.19526055419E+02  0.59806357154E+02  0.76967384647E+03  0.78150873132E+03  0.12000000000E+03 0.  0.
         25    1    3    3    0    0 -0.19526055419E+02 -0.59806357154E+02  0.53979018245E+03  0.55653527135E+03  0.12000000000E+03 0.  0.
<mgrwt>
<rscale>  0 0.27507401E+03</rscale>
<asrwt>0</asrwt>
<pdfrwt beam="1">  1        1 0.20365437E+00 0.27507401E+03</pdfrwt>
<pdfrwt beam="2">  1       -1 0.21984606E-02 0.27507401E+03</pdfrwt>
<totfact> 0.56100314E+03</totfact>
</mgrwt>
</event>
<event>
 5    1  0.1129390E+001  0.2744580E+03  0.7818608E-02  0.1098755E+00
         -1   -1    0    0    0  501 -0.00000000000E+00  0.00000000000E+00  0.24728598291E+03  0.24728598291E+03  0.00000000000E+00 0. -1.
          1   -1    0    0  501    0  0.00000000000E+00 -0.00000000000E+00 -0.76153946487E+02  0.76153946487E+02  0.00000000000E+00 0. -1.
         35    2    1    2    0    0  0.00000000000E+00  0.00000000000E+00  0.17113203643E+03  0.32343992940E+03  0.27445803694E+03 0.  0.
         25    1    3    3    0    0 -0.46056919354E+02 -0.11303875608E+02  0.14062437796E+03  0.19085133770E+03  0.12000000000E+03 0.  0.
         25    1    3    3    0    0  0.46056919354E+02  0.11303875608E+02  0.30507658463E+02  0.13258859170E+03  0.12000000000E+03 0.  0.
<mgrwt>
<rscale>  0 0.27445804E+03</rscale>
<asrwt>0</asrwt>
<pdfrwt beam="1">  1        1 0.11715992E-01 0.27445804E+03</pdfrwt>
<pdfrwt beam="2">  1       -1 0.38043997E-01 0.27445804E+03</pdfrwt>
<totfact> 0.34812067E+03</totfact>
</mgrwt>
</event>
<event>
 5    1  0.1129390E+001  0.2740603E+03  0.7818608E-02  0.1098978E+00
          1   -1    0    0  501    0  0.00000000000E+00  0.00000000000E+00  0.27924349031E+03  0.27924349031E+03  0.00000000000E+00 0.  1.
         -1   -1    0    0    0  501 -0.00000000000E+00 -0.00000000000E+00 -0.67243331216E+02  0.67243331216E+02  0.00000000000E+00 0.  1.
         35    2    1    2    0    0  0.00000000000E+00  0.00000000000E+00  0.21200015909E+03  0.34648682152E+03  0.27406030364E+03 0.  0.
         25    1    3    3    0    0  0.47326846345E+02 -0.34587821738E+02  0.67215251748E+02  0.14951266791E+03  0.12000000000E+03 0.  0.
         25    1    3    3    0    0 -0.47326846345E+02  0.34587821738E+02  0.14478490734E+03  0.19697415361E+03  0.12000000000E+03 0.  0.
<mgrwt>
<rscale>  0 0.27406030E+03</rscale>
<asrwt>0</asrwt>
<pdfrwt beam="1">  1        1 0.42960536E-01 0.27406030E+03</pdfrwt>
<pdfrwt beam="2">  1       -1 0.10345128E-01 0.27406030E+03</pdfrwt>
<totfact> 0.55101372E+03</totfact>
</mgrwt>
</event>
<event>
 5    1  0.1129390E+001  0.2750101E+03  0.7818608E-02  0.1098446E+00
         -2   -1    0    0    0  501 -0.00000000000E+00  0.00000000000E+00  0.24687003921E+02  0.24687003921E+02  0.00000000000E+00 0. -1.
          2   -1    0    0  501    0  0.00000000000E+00 -0.00000000000E+00 -0.76589426438E+03  0.76589426438E+03  0.00000000000E+00 0. -1.
         35    2    1    2    0    0  0.00000000000E+00  0.00000000000E+00 -0.74120726046E+03  0.79058126830E+03  0.27501007042E+03 0.  0.
         25    1    3    3    0    0  0.32107778865E+02 -0.49865632506E+02 -0.46106165274E+03  0.48009930056E+03  0.12000000000E+03 0.  0.
         25    1    3    3    0    0 -0.32107778865E+02  0.49865632506E+02 -0.28014560772E+03  0.31048196774E+03  0.12000000000E+03 0.  0.
<mgrwt>
<rscale>  0 0.27501007E+03</rscale>
<asrwt>0</asrwt>
<pdfrwt beam="1">  1        2 0.11782987E+00 0.27501007E+03</pdfrwt>
<pdfrwt beam="2">  1       -2 0.37980012E-02 0.27501007E+03</pdfrwt>
<totfact> 0.11105463E+04</totfact>
</mgrwt>
</event>
<event>
 5    1  0.1129390E+001  0.2745503E+03  0.7818608E-02  0.1098703E+00
          1   -1    0    0  501    0  0.00000000000E+00  0.00000000000E+00  0.11790417343E+03  0.11790417343E+03  0.00000000000E+00 0. -1.
         -1   -1    0    0    0  501 -0.00000000000E+00 -0.00000000000E+00 -0.15982870910E+03  0.15982870910E+03  0.00000000000E+00 0. -1.
         35    2    1    2    0    0  0.00000000000E+00  0.00000000000E+00 -0.41924535669E+02  0.27773288253E+03  0.27455033664E+03 0.  0.
         25    1    3    3    0    0 -0.52509325389E+02 -0.85994015287E+01  0.19669145509E+02  0.13273301867E+03  0.12000000000E+03 0.  0.
         25    1    3    3    0    0  0.52509325389E+02  0.85994015287E+01 -0.61593681177E+02  0.14499986386E+03  0.12000000000E+03 0.  0.
<mgrwt>
<rscale>  0 0.27455034E+03</rscale>
<asrwt>0</asrwt>
<pdfrwt beam="1">  1        1 0.18139104E-01 0.27455034E+03</pdfrwt>
<pdfrwt beam="2">  1       -1 0.24589032E-01 0.27455034E+03</pdfrwt>
<totfact> 0.41280930E+03</totfact>
</mgrwt>
</event>
<event>
 5    1  0.1129390E+001  0.2745334E+03  0.7818608E-02  0.1098713E+00
         -2   -1    0    0    0  501 -0.00000000000E+00  0.00000000000E+00  0.60244938338E+01  0.60244938338E+01  0.00000000000E+00 0.  1.
          2   -1    0    0  501    0  0.00000000000E+00 -0.00000000000E+00 -0.31275890902E+04  0.31275890902E+04  0.00000000000E+00 0.  1.
         35    2    1    2    0    0  0.00000000000E+00  0.00000000000E+00 -0.31215645964E+04  0.31336135840E+04  0.27453335818E+03 0.  0.
         25    1    3    3    0    0 -0.23466455216E+02  0.17459219582E+02 -0.87719442002E+03  0.88584736235E+03  0.12000000000E+03 0.  0.
         25    1    3    3    0    0  0.23466455216E+02 -0.17459219582E+02 -0.22443701763E+04  0.22477662217E+04  0.12000000000E+03 0.  0.
<mgrwt>
<rscale>  0 0.27453336E+03</rscale>
<asrwt>0</asrwt>
<pdfrwt beam="1">  1        2 0.48116772E+00 0.27453336E+03</pdfrwt>
<pdfrwt beam="2">  1       -2 0.92684488E-03 0.27453336E+03</pdfrwt>
<totfact> 0.41587277E+03</totfact>
</mgrwt>
</event>
<event>
 5    1  0.1129390E+001  0.2773093E+03  0.7818608E-02  0.1097168E+00
         -2   -1    0    0    0  501 -0.00000000000E+00  0.00000000000E+00  0.49204739034E+02  0.49204739034E+02  0.00000000000E+00 0.  1.
          2   -1    0    0  501    0  0.00000000000E+00 -0.00000000000E+00 -0.39071676404E+03  0.39071676404E+03  0.00000000000E+00 0.  1.
         35    2    1    2    0    0  0.00000000000E+00  0.00000000000E+00 -0.34151202500E+03  0.43992150307E+03  0.27730933205E+03 0.  0.
         25    1    3    3    0    0 -0.67097269421E+02 -0.15856552798E+02 -0.15732847682E+03  0.20953692622E+03  0.12000000000E+03 0.  0.
         25    1    3    3    0    0  0.67097269421E+02  0.15856552798E+02 -0.18418354818E+03  0.23038457685E+03  0.12000000000E+03 0.  0.
<mgrwt>
<rscale>  0 0.27730933E+03</rscale>
<asrwt>0</asrwt>
<pdfrwt beam="1">  1        2 0.60110271E-01 0.27730933E+03</pdfrwt>
<pdfrwt beam="2">  1       -2 0.75699599E-02 0.27730933E+03</pdfrwt>
<totfact> 0.83945263E+03</totfact>
</mgrwt>
</event>
<event>
 5    1  0.1129390E+001  0.2683107E+03  0.7818608E-02  0.1102250E+00
         -1   -1    0    0    0  501 -0.00000000000E+00  0.00000000000E+00  0.18476885100E+02  0.18476885100E+02  0.00000000000E+00 0.  1.
          1   -1    0    0  501    0  0.00000000000E+00 -0.00000000000E+00 -0.97406377293E+03  0.97406377293E+03  0.00000000000E+00 0.  1.
         35    2    1    2    0    0  0.00000000000E+00  0.00000000000E+00 -0.95558688783E+03  0.99254065803E+03  0.26831074830E+03 0.  0.
         25    1    3    3    0    0  0.35695111976E+02  0.37507297207E+02 -0.58979653842E+03  0.60410338113E+03  0.12000000000E+03 0.  0.
         25    1    3    3    0    0 -0.35695111976E+02 -0.37507297207E+02 -0.36579034941E+03  0.38843727690E+03  0.12000000000E+03 0.  0.
<mgrwt>
<rscale>  0 0.26831075E+03</rscale>
<asrwt>0</asrwt>
<pdfrwt beam="1">  1        1 0.14985600E+00 0.26831075E+03</pdfrwt>
<pdfrwt beam="2">  1       -1 0.28425971E-02 0.26831075E+03</pdfrwt>
<totfact> 0.68235600E+03</totfact>
</mgrwt>
</event>
<event>
 5    1  0.1129390E+001  0.2747935E+03  0.7818608E-02  0.1098567E+00
          2   -1    0    0  501    0  0.00000000000E+00  0.00000000000E+00  0.15744751448E+04  0.15744751448E+04  0.00000000000E+00 0.  1.
         -2   -1    0    0    0  501 -0.00000000000E+00 -0.00000000000E+00 -0.11989941354E+02  0.11989941354E+02  0.00000000000E+00 0.  1.
         35    2    1    2    0    0  0.00000000000E+00  0.00000000000E+00  0.15624852035E+04  0.15864650862E+04  0.27479348354E+03 0.  0.
         25    1    3    3    0    0  0.18648857560E+02 -0.24193292432E+02  0.11249731106E+04  0.11317674650E+04  0.12000000000E+03 0.  0.
         25    1    3    3    0    0 -0.18648857560E+02  0.24193292432E+02  0.43751209290E+03  0.45469762120E+03  0.12000000000E+03 0.  0.
<mgrwt>
<rscale>  0 0.27479348E+03</rscale>
<asrwt>0</asrwt>
<pdfrwt beam="1">  1        2 0.24222678E+00 0.27479348E+03</pdfrwt>
<pdfrwt beam="2">  1       -2 0.18446076E-02 0.27479348E+03</pdfrwt>
<totfact> 0.10841953E+04</totfact>
</mgrwt>
</event>
<event>
 5    1  0.1129390E+001  0.2741308E+03  0.7818608E-02  0.1098938E+00
         -1   -1    0    0    0  501 -0.00000000000E+00  0.00000000000E+00  0.15270433485E+03  0.15270433485E+03  0.00000000000E+00 0. -1.
          1   -1    0    0  501    0  0.00000000000E+00 -0.00000000000E+00 -0.12302807925E+03  0.12302807925E+03  0.00000000000E+00 0. -1.
         35    2    1    2    0    0  0.00000000000E+00  0.00000000000E+00  0.29676255594E+02  0.27573241410E+03  0.27413077908E+03 0.  0.
         25    1    3    3    0    0 -0.18200799247E+02 -0.51986775654E+02  0.51836555303E+02  0.14184823722E+03  0.12000000000E+03 0.  0.
         25    1    3    3    0    0  0.18200799247E+02  0.51986775654E+02 -0.22160299709E+02  0.13388417688E+03  0.12000000000E+03 0.  0.
<mgrwt>
<rscale>  0 0.27413078E+03</rscale>
<asrwt>0</asrwt>
<pdfrwt beam="1">  1        1 0.18927397E-01 0.27413078E+03</pdfrwt>
<pdfrwt beam="2">  1       -1 0.23492975E-01 0.27413078E+03</pdfrwt>
<totfact> 0.42131043E+03</totfact>
</mgrwt>
</event>
<event>
 5    1  0.1129390E+001  0.2743858E+03  0.7818608E-02  0.1098795E+00
          1   -1    0    0  501    0  0.00000000000E+00  0.00000000000E+00  0.23170885847E+03  0.23170885847E+03  0.00000000000E+00 0.  1.
         -1   -1    0    0    0  501 -0.00000000000E+00 -0.00000000000E+00 -0.81230787327E+02  0.81230787327E+02  0.00000000000E+00 0.  1.
         35    2    1    2    0    0  0.00000000000E+00  0.00000000000E+00  0.15047807115E+03  0.31293964580E+03  0.27438580870E+03 0.  0.
         25    1    3    3    0    0  0.26703218477E+02 -0.54276925936E+02  0.43738531580E+02  0.14132270062E+03  0.12000000000E+03 0.  0.
         25    1    3    3    0    0 -0.26703218477E+02  0.54276925936E+02  0.10673953957E+03  0.17161694518E+03  0.12000000000E+03 0.  0.
<mgrwt>
<rscale>  0 0.27438581E+03</rscale>
<asrwt>0</asrwt>
<pdfrwt beam="1">  1        1 0.35647516E-01 0.27438581E+03</pdfrwt>
<pdfrwt beam="2">  1       -1 0.12497044E-01 0.27438581E+03</pdfrwt>
<totfact> 0.51893628E+03</totfact>
</mgrwt>
</event>
<event>
 5    1  0.1129390E+001  0.2757074E+03  0.7818608E-02  0.1098057E+00
          4   -1    0    0  501    0  0.00000000000E+00  0.00000000000E+00  0.83555729173E+02  0.83555729173E+02  0.00000000000E+00 0.  1.
         -4   -1    0    0    0  501 -0.00000000000E+00 -0.00000000000E+00 -0.22743671212E+03  0.22743671212E+03  0.00000000000E+00 0.  1.
         35    2    1    2    0    0  0.00000000000E+00  0.00000000000E+00 -0.14388098294E+03  0.31099244129E+03  0.27570738344E+03 0.  0.
         25    1    3    3    0    0  0.73201914691E+01 -0.37837333217E+02 -0.89511969495E+01  0.12635415670E+03  0.12000000000E+03 0.  0.
         25    1    3    3    0    0 -0.73201914691E+01  0.37837333217E+02 -0.13492978599E+03  0.18463828459E+03  0.12000000000E+03 0.  0.
<mgrwt>
<rscale>  0 0.27570738E+03</rscale>
<asrwt>0</asrwt>
<pdfrwt beam="1">  1        4 0.12854728E-01 0.27570738E+03</pdfrwt>
<pdfrwt beam="2">  1       -4 0.34990263E-01 0.27570738E+03</pdfrwt>
<totfact> 0.73203075E+02</totfact>
</mgrwt>
</event>
<event>
 5    1  0.1129390E+001  0.2777720E+03  0.7818608E-02  0.1096912E+00
          1   -1    0    0  501    0  0.00000000000E+00  0.00000000000E+00  0.47760995676E+03  0.47760995676E+03  0.00000000000E+00 0.  1.
         -1   -1    0    0    0  501 -0.00000000000E+00 -0.00000000000E+00 -0.40387171706E+02  0.40387171706E+02  0.00000000000E+00 0.  1.
         35    2    1    2    0    0  0.00000000000E+00  0.00000000000E+00  0.43722278505E+03  0.51799712846E+03  0.27777195922E+03 0.  0.
         25    1    3    3    0    0  0.44094885156E+02  0.27721654066E+02  0.30561052595E+03  0.33243141033E+03  0.12000000000E+03 0.  0.
         25    1    3    3    0    0 -0.44094885156E+02 -0.27721654066E+02  0.13161225910E+03  0.18556571813E+03  0.12000000000E+03 0.  0.
<mgrwt>
<rscale>  0 0.27777196E+03</rscale>
<asrwt>0</asrwt>
<pdfrwt beam="1">  1        1 0.73478451E-01 0.27777196E+03</pdfrwt>
<pdfrwt beam="2">  1       -1 0.62134114E-02 0.27777196E+03</pdfrwt>
<totfact> 0.60555081E+03</totfact>
</mgrwt>
</event>
<event>
 5    1  0.1129390E+001  0.2743107E+03  0.7818608E-02  0.1098838E+00
          1   -1    0    0  501    0  0.00000000000E+00  0.00000000000E+00  0.19487439315E+03  0.19487439315E+03  0.00000000000E+00 0.  1.
         -1   -1    0    0    0  501 -0.00000000000E+00 -0.00000000000E+00 -0.96531898697E+02  0.96531898697E+02  0.00000000000E+00 0.  1.
         35    2    1    2    0    0  0.00000000000E+00  0.00000000000E+00  0.98342494457E+02  0.29140629185E+03  0.27431073751E+03 0.  0.
         25    1    3    3    0    0  0.33534550255E+02 -0.56334911904E+02  0.37858301593E+02  0.14188530354E+03  0.12000000000E+03 0.  0.
         25    1    3    3    0    0 -0.33534550255E+02  0.56334911904E+02  0.60484192864E+02  0.14952098831E+03  0.12000000000E+03 0.  0.
<mgrwt>
<rscale>  0 0.27431074E+03</rscale>
<asrwt>0</asrwt>
<pdfrwt beam="1">  1        1 0.29980676E-01 0.27431074E+03</pdfrwt>
<pdfrwt beam="2">  1       -1 0.14851061E-01 0.27431074E+03</pdfrwt>
<totfact> 0.49163848E+03</totfact>
</mgrwt>
</event>
<event>
 5    1  0.1129390E+001  0.2755851E+03  0.7818608E-02  0.1098125E+00
          2   -1    0    0  501    0  0.00000000000E+00  0.00000000000E+00  0.18632193733E+04  0.18632193733E+04  0.00000000000E+00 0. -1.
         -2   -1    0    0    0  501 -0.00000000000E+00 -0.00000000000E+00 -0.10190313366E+02  0.10190313366E+02  0.00000000000E+00 0. -1.
         35    2    1    2    0    0  0.00000000000E+00  0.00000000000E+00  0.18530290599E+04  0.18734096867E+04  0.27558511776E+03 0.  0.
         25    1    3    3    0    0  0.34028537735E+02  0.57598723701E+02  0.85481808948E+03  0.86578838088E+03  0.12000000000E+03 0.  0.
         25    1    3    3    0    0 -0.34028537735E+02 -0.57598723701E+02  0.99821097046E+03  0.10076213058E+04  0.12000000000E+03 0.  0.
<mgrwt>
<rscale>  0 0.27558512E+03</rscale>
<asrwt>0</asrwt>
<pdfrwt beam="1">  1        2 0.28664886E+00 0.27558512E+03</pdfrwt>
<pdfrwt beam="2">  1       -2 0.15677420E-02 0.27558512E+03</pdfrwt>
<totfact> 0.96955681E+03</totfact>
</mgrwt>
</event>
<event>
 5    1  0.1129390E+001  0.2746573E+03  0.7818608E-02  0.1098643E+00
          2   -1    0    0  501    0  0.00000000000E+00  0.00000000000E+00  0.13815322558E+04  0.13815322558E+04  0.00000000000E+00 0.  1.
         -2   -1    0    0    0  501 -0.00000000000E+00 -0.00000000000E+00 -0.13650897752E+02  0.13650897752E+02  0.00000000000E+00 0.  1.
         35    2    1    2    0    0  0.00000000000E+00  0.00000000000E+00  0.13678813581E+04  0.13951831536E+04  0.27465728146E+03 0.  0.
         25    1    3    3    0    0  0.62500823980E+02 -0.22046231516E+02  0.72544741428E+03  0.73828608291E+03  0.12000000000E+03 0.  0.
         25    1    3    3    0    0 -0.62500823980E+02  0.22046231516E+02  0.64243394379E+03  0.65689707067E+03  0.12000000000E+03 0.  0.
<mgrwt>
<rscale>  0 0.27465728E+03</rscale>
<asrwt>0</asrwt>
<pdfrwt beam="1">  1        2 0.21254331E+00 0.27465728E+03</pdfrwt>
<pdfrwt beam="2">  1       -2 0.21001392E-02 0.27465728E+03</pdfrwt>
<totfact> 0.11373012E+04</totfact>
</mgrwt>
</event>
<event>
 5    1  0.1129390E+001  0.2738832E+03  0.7818608E-02  0.1099078E+00
          2   -1    0    0  501    0  0.00000000000E+00  0.00000000000E+00  0.11865746444E+04  0.11865746444E+04  0.00000000000E+00 0.  1.
         -2   -1    0    0    0  501 -0.00000000000E+00 -0.00000000000E+00 -0.15804315555E+02  0.15804315555E+02  0.00000000000E+00 0.  1.
         35    2    1    2    0    0  0.00000000000E+00  0.00000000000E+00  0.11707703288E+04  0.12023789599E+04  0.27388318758E+03 0.  0.
         25    1    3    3    0    0 -0.30880212962E+02  0.57451551452E+02  0.54176327168E+03  0.55871433744E+03  0.12000000000E+03 0.  0.
         25    1    3    3    0    0  0.30880212962E+02 -0.57451551452E+02  0.62900705714E+03  0.64366462249E+03  0.12000000000E+03 0.  0.
<mgrwt>
<rscale>  0 0.27388319E+03</rscale>
<asrwt>0</asrwt>
<pdfrwt beam="1">  1        2 0.18254987E+00 0.27388319E+03</pdfrwt>
<pdfrwt beam="2">  1       -2 0.24314341E-02 0.27388319E+03</pdfrwt>
<totfact> 0.11760808E+04</totfact>
</mgrwt>
</event>
<event>
 5    1  0.1129390E+001  0.2754935E+03  0.7818608E-02  0.1098176E+00
         -1   -1    0    0    0  501 -0.00000000000E+00  0.00000000000E+00  0.11436240114E+02  0.11436240114E+02  0.00000000000E+00 0. -1.
          1   -1    0    0  501    0  0.00000000000E+00 -0.00000000000E+00 -0.16591267799E+04  0.16591267799E+04  0.00000000000E+00 0. -1.
         35    2    1    2    0    0  0.00000000000E+00  0.00000000000E+00 -0.16476905398E+04  0.16705630200E+04  0.27549353701E+03 0.  0.
         25    1    3    3    0    0  0.48163542165E+02 -0.47468319645E+02 -0.83049918567E+03  0.84184432383E+03  0.12000000000E+03 0.  0.
         25    1    3    3    0    0 -0.48163542165E+02  0.47468319645E+02 -0.81719135410E+03  0.82871869616E+03  0.12000000000E+03 0.  0.
<mgrwt>
<rscale>  0 0.27549354E+03</rscale>
<asrwt>0</asrwt>
<pdfrwt beam="1">  1        1 0.25525011E+00 0.27549354E+03</pdfrwt>
<pdfrwt beam="2">  1       -1 0.17594227E-02 0.27549354E+03</pdfrwt>
<totfact> 0.46498913E+03</totfact>
</mgrwt>
</event>
<event>
 5    1  0.1129390E+001  0.2749616E+03  0.7818608E-02  0.1098473E+00
         -2   -1    0    0    0  501 -0.00000000000E+00  0.00000000000E+00  0.16011814907E+02  0.16011814907E+02  0.00000000000E+00 0.  1.
          2   -1    0    0  501    0  0.00000000000E+00 -0.00000000000E+00 -0.11804386663E+04  0.11804386663E+04  0.00000000000E+00 0.  1.
         35    2    1    2    0    0  0.00000000000E+00  0.00000000000E+00 -0.11644268514E+04  0.11964504812E+04  0.27496156411E+03 0.  0.
         25    1    3    3    0    0 -0.14896683842E+02  0.55229611601E+02 -0.73474279974E+03  0.74667208529E+03  0.12000000000E+03 0.  0.
         25    1    3    3    0    0  0.14896683842E+02 -0.55229611601E+02 -0.42968405168E+03  0.44977839594E+03  0.12000000000E+03 0.  0.
<mgrwt>
<rscale>  0 0.27496156E+03</rscale>
<asrwt>0</asrwt>
<pdfrwt beam="1">  1        2 0.18160594E+00 0.27496156E+03</pdfrwt>
<pdfrwt beam="2">  1       -2 0.24633562E-02 0.27496156E+03</pdfrwt>
<totfact> 0.11630833E+04</totfact>
</mgrwt>
</event>
<event>
 5    1  0.1129390E+001  0.2757223E+03  0.7818608E-02  0.1098049E+00
          3   -1    0    0  501    0  0.00000000000E+00  0.00000000000E+00  0.20445901459E+02  0.20445901459E+02  0.00000000000E+00 0.  1.
         -3   -1    0    0    0  501 -0.00000000000E+00 -0.00000000000E+00 -0.92955999636E+03  0.92955999636E+03  0.00000000000E+00 0.  1.
         35    2    1    2    0    0  0.00000000000E+00  0.00000000000E+00 -0.90911409490E+03  0.95000589782E+03  0.27572226668E+03 0.  0.
         25    1    3    3    0    0  0.53769121592E+02 -0.36022077529E+02 -0.38419897421E+03  0.40767334999E+03  0.12000000000E+03 0.  0.
         25    1    3    3    0    0 -0.53769121592E+02  0.36022077529E+02 -0.52491512068E+03  0.54233254782E+03  0.12000000000E+03 0.  0.
<mgrwt>
<rscale>  0 0.27572227E+03</rscale>
<asrwt>0</asrwt>
<pdfrwt beam="1">  1        3 0.31455232E-02 0.27572227E+03</pdfrwt>
<pdfrwt beam="2">  1       -3 0.14300923E+00 0.27572227E+03</pdfrwt>
<totfact> 0.46261462E+02</totfact>
</mgrwt>
</event>
<event>
 5    1  0.1129390E+001  0.2750352E+03  0.7818608E-02  0.1098432E+00
          1   -1    0    0  501    0  0.00000000000E+00  0.00000000000E+00  0.15019376105E+04  0.15019376105E+04  0.00000000000E+00 0.  1.
         -1   -1    0    0    0  501 -0.00000000000E+00 -0.00000000000E+00 -0.12591127063E+02  0.12591127063E+02  0.00000000000E+00 0.  1.
         35    2    1    2    0    0  0.00000000000E+00  0.00000000000E+00  0.14893464834E+04  0.15145287375E+04  0.27503517807E+03 0.  0.
         25    1    3    3    0    0  0.70065989402E+01 -0.27978841019E+02  0.10786873035E+04  0.10857247380E+04  0.12000000000E+03 0.  0.
         25    1    3    3    0    0 -0.70065989402E+01  0.27978841019E+02  0.41065917993E+03  0.42880399955E+03  0.12000000000E+03 0.  0.
<mgrwt>
<rscale>  0 0.27503518E+03</rscale>
<asrwt>0</asrwt>
<pdfrwt beam="1">  1        1 0.23106718E+00 0.27503518E+03</pdfrwt>
<pdfrwt beam="2">  1       -1 0.19370977E-02 0.27503518E+03</pdfrwt>
<totfact> 0.51269249E+03</totfact>
</mgrwt>
</event>
<event>
 5    1  0.1129390E+001  0.2749923E+03  0.7818608E-02  0.1098456E+00
          1   -1    0    0  501    0  0.00000000000E+00  0.00000000000E+00  0.25558886974E+03  0.25558886974E+03  0.00000000000E+00 0. -1.
         -1   -1    0    0    0  501 -0.00000000000E+00 -0.00000000000E+00 -0.73967189682E+02  0.73967189682E+02  0.00000000000E+00 0. -1.
         35    2    1    2    0    0  0.00000000000E+00  0.00000000000E+00  0.18162168006E+03  0.32955605942E+03  0.27499229377E+03 0.  0.
         25    1    3    3    0    0 -0.41760115598E+02  0.48744004958E+02  0.67286839745E+02  0.15181371505E+03  0.12000000000E+03 0.  0.
         25    1    3    3    0    0  0.41760115598E+02 -0.48744004958E+02  0.11433484032E+03  0.17774234438E+03  0.12000000000E+03 0.  0.
<mgrwt>
<rscale>  0 0.27499229E+03</rscale>
<asrwt>0</asrwt>
<pdfrwt beam="1">  1        1 0.39321364E-01 0.27499229E+03</pdfrwt>
<pdfrwt beam="2">  1       -1 0.11379568E-01 0.27499229E+03</pdfrwt>
<totfact> 0.53109834E+03</totfact>
</mgrwt>
</event>
<event>
 5    1  0.1129390E+001  0.2737131E+03  0.7818608E-02  0.1099173E+00
          2   -1    0    0  501    0  0.00000000000E+00  0.00000000000E+00  0.29995298151E+02  0.29995298151E+02  0.00000000000E+00 0. -1.
         -2   -1    0    0    0  501 -0.00000000000E+00 -0.00000000000E+00 -0.62442191103E+03  0.62442191103E+03  0.00000000000E+00 0. -1.
         35    2    1    2    0    0  0.00000000000E+00  0.00000000000E+00 -0.59442661288E+03  0.65441720918E+03  0.27371314468E+03 0.  0.
         25    1    3    3    0    0  0.12923144451E+02  0.60198241889E+02 -0.35271513193E+03  0.37762256325E+03  0.12000000000E+03 0.  0.
         25    1    3    3    0    0 -0.12923144451E+02 -0.60198241889E+02 -0.24171148096E+03  0.27679464593E+03  0.12000000000E+03 0.  0.
<mgrwt>
<rscale>  0 0.27371314E+03</rscale>
<asrwt>0</asrwt>
<pdfrwt beam="1">  1        2 0.46146615E-02 0.27371314E+03</pdfrwt>
<pdfrwt beam="2">  1       -2 0.96064905E-01 0.27371314E+03</pdfrwt>
<totfact> 0.16449751E+03</totfact>
</mgrwt>
</event>
<event>
 5    1  0.1129390E+001  0.2744402E+03  0.7818608E-02  0.1098765E+00
          2   -1    0    0  501    0  0.00000000000E+00  0.00000000000E+00  0.24212367017E+03  0.24212367017E+03  0.00000000000E+00 0.  1.
         -2   -1    0    0    0  501 -0.00000000000E+00 -0.00000000000E+00 -0.77767528636E+02  0.77767528636E+02  0.00000000000E+00 0.  1.
         35    2    1    2    0    0  0.00000000000E+00  0.00000000000E+00  0.16435614154E+03  0.31989119881E+03  0.27444022631E+03 0.  0.
         25    1    3    3    0    0  0.11840353149E+02 -0.56844549678E+02  0.44266727964E+02  0.14046722036E+03  0.12000000000E+03 0.  0.
         25    1    3    3    0    0 -0.11840353149E+02  0.56844549678E+02  0.12008941357E+03  0.17942397845E+03  0.12000000000E+03 0.  0.
<mgrwt>
<rscale>  0 0.27444023E+03</rscale>
<asrwt>0</asrwt>
<pdfrwt beam="1">  1        2 0.37249795E-01 0.27444023E+03</pdfrwt>
<pdfrwt beam="2">  1       -2 0.11964235E-01 0.27444023E+03</pdfrwt>
<totfact> 0.68090380E+03</totfact>
</mgrwt>
</event>
<event>
 5    1  0.1129390E+001  0.2750013E+03  0.7818608E-02  0.1098451E+00
         -2   -1    0    0    0  501 -0.00000000000E+00  0.00000000000E+00  0.28773619668E+02  0.28773619668E+02  0.00000000000E+00 0.  1.
          2   -1    0    0  501    0  0.00000000000E+00 -0.00000000000E+00 -0.65707501184E+03  0.65707501184E+03  0.00000000000E+00 0.  1.
         35    2    1    2    0    0  0.00000000000E+00  0.00000000000E+00 -0.62830139217E+03  0.68584863151E+03  0.27500128352E+03 0.  0.
         25    1    3    3    0    0  0.62608721808E+02 -0.22890251376E+02 -0.33388483971E+03  0.36100263412E+03  0.12000000000E+03 0.  0.
         25    1    3    3    0    0 -0.62608721808E+02  0.22890251376E+02 -0.29441655246E+03  0.32484599739E+03  0.12000000000E+03 0.  0.
<mgrwt>
<rscale>  0 0.27500128E+03</rscale>
<asrwt>0</asrwt>
<pdfrwt beam="1">  1        2 0.10108845E+00 0.27500128E+03</pdfrwt>
<pdfrwt beam="2">  1       -2 0.44267112E-02 0.27500128E+03</pdfrwt>
<totfact> 0.10629692E+04</totfact>
</mgrwt>
</event>
<event>
 5    1  0.1129390E+001  0.2745481E+03  0.7818608E-02  0.1098704E+00
         -2   -1    0    0    0  501 -0.00000000000E+00  0.00000000000E+00  0.39306594812E+01  0.39306594812E+01  0.00000000000E+00 0. -1.
          2   -1    0    0  501    0  0.00000000000E+00 -0.00000000000E+00 -0.47941490534E+04  0.47941490534E+04  0.00000000000E+00 0. -1.
         35    2    1    2    0    0  0.00000000000E+00  0.00000000000E+00 -0.47902183940E+04  0.47980797129E+04  0.27454811914E+03 0.  0.
         25    1    3    3    0    0  0.13551214869E+02 -0.34105170940E+02 -0.14224840761E+04  0.14280083140E+04  0.12000000000E+03 0.  0.
         25    1    3    3    0    0 -0.13551214869E+02  0.34105170940E+02 -0.33677343179E+04  0.33700713989E+04  0.12000000000E+03 0.  0.
<mgrwt>
<rscale>  0 0.27454812E+03</rscale>
<asrwt>0</asrwt>
<pdfrwt beam="1">  1        2 0.73756302E+00 0.27454812E+03</pdfrwt>
<pdfrwt beam="2">  1       -2 0.60471551E-03 0.27454812E+03</pdfrwt>
<totfact> 0.38228020E+02</totfact>
</mgrwt>
</event>
<event>
 5    1  0.1129390E+001  0.2749094E+03  0.7818608E-02  0.1098502E+00
          1   -1    0    0  501    0  0.00000000000E+00  0.00000000000E+00  0.86151456505E+03  0.86151456505E+03  0.00000000000E+00 0. -1.
         -1   -1    0    0    0  501 -0.00000000000E+00 -0.00000000000E+00 -0.21930907725E+02  0.21930907725E+02  0.00000000000E+00 0. -1.
         35    2    1    2    0    0  0.00000000000E+00  0.00000000000E+00  0.83958365733E+03  0.88344547278E+03  0.27490941366E+03 0.  0.
         25    1    3    3    0    0 -0.31865089034E+02  0.39786463085E+02  0.55970103444E+03  0.57468564842E+03  0.12000000000E+03 0.  0.
         25    1    3    3    0    0  0.31865089034E+02 -0.39786463085E+02  0.27988262288E+03  0.30875982436E+03  0.12000000000E+03 0.  0.
<mgrwt>
<rscale>  0 0.27490941E+03</rscale>
<asrwt>0</asrwt>
<pdfrwt beam="1">  1        1 0.13254068E+00 0.27490941E+03</pdfrwt>
<pdfrwt beam="2">  1       -1 0.33739865E-02 0.27490941E+03</pdfrwt>
<totfact> 0.64864904E+03</totfact>
</mgrwt>
</event>
<event>
 5    1  0.1129390E+001  0.2761014E+03  0.7818608E-02  0.1097838E+00
         -1   -1    0    0    0  501 -0.00000000000E+00  0.00000000000E+00  0.48924613675E+02  0.48924613675E+02  0.00000000000E+00 0. -1.
          1   -1    0    0  501    0  0.00000000000E+00 -0.00000000000E+00 -0.38953794789E+03  0.38953794789E+03  0.00000000000E+00 0. -1.
         35    2    1    2    0    0  0.00000000000E+00  0.00000000000E+00 -0.34061333422E+03  0.43846256157E+03  0.27610138437E+03 0.  0.
         25    1    3    3    0    0 -0.28058718407E+02  0.61794478105E+02 -0.15883919192E+03  0.21032293763E+03  0.12000000000E+03 0.  0.
         25    1    3    3    0    0  0.28058718407E+02 -0.61794478105E+02 -0.18177414229E+03  0.22813962394E+03  0.12000000000E+03 0.  0.
<mgrwt>
<rscale>  0 0.27610138E+03</rscale>
<asrwt>0</asrwt>
<pdfrwt beam="1">  1        1 0.59928916E-01 0.27610138E+03</pdfrwt>
<pdfrwt beam="2">  1       -1 0.75268635E-02 0.27610138E+03</pdfrwt>
<totfact> 0.58952882E+03</totfact>
</mgrwt>
</event>
<event>
 5    1  0.1129390E+001  0.2750197E+03  0.7818608E-02  0.1098441E+00
         -4   -1    0    0    0  501 -0.00000000000E+00  0.00000000000E+00  0.35634409038E+02  0.35634409038E+02  0.00000000000E+00 0.  1.
          4   -1    0    0  501    0  0.00000000000E+00 -0.00000000000E+00 -0.53063752513E+03  0.53063752513E+03  0.00000000000E+00 0.  1.
         35    2    1    2    0    0  0.00000000000E+00  0.00000000000E+00 -0.49500311610E+03  0.56627193417E+03  0.27501966927E+03 0.  0.
         25    1    3    3    0    0  0.57827066258E+02 -0.21345118178E+02 -0.19266149006E+03  0.23519786014E+03  0.12000000000E+03 0.  0.
         25    1    3    3    0    0 -0.57827066258E+02  0.21345118178E+02 -0.30234162603E+03  0.33107407403E+03  0.12000000000E+03 0.  0.
<mgrwt>
<rscale>  0 0.27501967E+03</rscale>
<asrwt>0</asrwt>
<pdfrwt beam="1">  1        4 0.81636539E-01 0.27501967E+03</pdfrwt>
<pdfrwt beam="2">  1       -4 0.54822170E-02 0.27501967E+03</pdfrwt>
<totfact> 0.52304420E+02</totfact>
</mgrwt>
</event>
<event>
 5    1  0.1129390E+001  0.2726988E+03  0.7818608E-02  0.1099745E+00
         -1   -1    0    0    0  501 -0.00000000000E+00  0.00000000000E+00  0.30177514699E+02  0.30177514699E+02  0.00000000000E+00 0.  1.
          1   -1    0    0  501    0  0.00000000000E+00 -0.00000000000E+00 -0.61606014644E+03  0.61606014644E+03  0.00000000000E+00 0.  1.
         35    2    1    2    0    0  0.00000000000E+00  0.00000000000E+00 -0.58588263174E+03  0.64623766114E+03  0.27269883846E+03 0.  0.
         25    1    3    3    0    0 -0.46562017224E+01 -0.34541056192E+01 -0.44574290694E+03  0.46164959671E+03  0.12000000000E+03 0.  0.
         25    1    3    3    0    0  0.46562017224E+01  0.34541056192E+01 -0.14013972480E+03  0.18458806442E+03  0.12000000000E+03 0.  0.
<mgrwt>
<rscale>  0 0.27269884E+03</rscale>
<asrwt>0</asrwt>
<pdfrwt beam="1">  1        1 0.94778490E-01 0.27269884E+03</pdfrwt>
<pdfrwt beam="2">  1       -1 0.46426943E-02 0.27269884E+03</pdfrwt>
<totfact> 0.66415189E+03</totfact>
</mgrwt>
</event>
<event>
 5    1  0.1129390E+001  0.2777779E+03  0.7818608E-02  0.1096909E+00
          1   -1    0    0  501    0  0.00000000000E+00  0.00000000000E+00  0.58568797308E+03  0.58568797308E+03  0.00000000000E+00 0. -1.
         -1   -1    0    0    0  501 -0.00000000000E+00 -0.00000000000E+00 -0.32935867643E+02  0.32935867643E+02  0.00000000000E+00 0. -1.
         35    2    1    2    0    0  0.00000000000E+00  0.00000000000E+00  0.55275210544E+03  0.61862384072E+03  0.27777790813E+03 0.  0.
         25    1    3    3    0    0  0.45998657100E+02  0.51340646755E+02  0.30257608670E+03  0.33272214640E+03  0.12000000000E+03 0.  0.
         25    1    3    3    0    0 -0.45998657100E+02 -0.51340646755E+02  0.25017601873E+03  0.28590169432E+03  0.12000000000E+03 0.  0.
<mgrwt>
<rscale>  0 0.27777791E+03</rscale>
<asrwt>0</asrwt>
<pdfrwt beam="1">  1        1 0.90105835E-01 0.27777791E+03</pdfrwt>
<pdfrwt beam="2">  1       -1 0.50670570E-02 0.27777791E+03</pdfrwt>
<totfact> 0.62539564E+03</totfact>
</mgrwt>
</event>
<event>
 5    1  0.1129390E+001  0.2754341E+03  0.7818608E-02  0.1098209E+00
         -4   -1    0    0    0  501 -0.00000000000E+00  0.00000000000E+00  0.19089286581E+03  0.19089286581E+03  0.00000000000E+00 0.  1.
          4   -1    0    0  501    0  0.00000000000E+00 -0.00000000000E+00 -0.99354097240E+02  0.99354097240E+02  0.00000000000E+00 0.  1.
         35    2    1    2    0    0  0.00000000000E+00  0.00000000000E+00  0.91538768570E+02  0.29024696305E+03  0.27543411809E+03 0.  0.
         25    1    3    3    0    0  0.59308598665E+02  0.32378221327E+02  0.46148247236E+02  0.14524296821E+03  0.12000000000E+03 0.  0.
         25    1    3    3    0    0 -0.59308598665E+02 -0.32378221327E+02  0.45390521335E+02  0.14500399484E+03  0.12000000000E+03 0.  0.
<mgrwt>
<rscale>  0 0.27543412E+03</rscale>
<asrwt>0</asrwt>
<pdfrwt beam="1">  1        4 0.15285246E-01 0.27543412E+03</pdfrwt>
<pdfrwt beam="2">  1       -4 0.29368133E-01 0.27543412E+03</pdfrwt>
<totfact> 0.75723716E+02</totfact>
</mgrwt>
</event>
<event>
 5    1  0.1129390E+001  0.2744259E+03  0.7818608E-02  0.1098773E+00
          1   -1    0    0  501    0  0.00000000000E+00  0.00000000000E+00  0.39140416623E+03  0.39140416623E+03  0.00000000000E+00 0.  1.
         -1   -1    0    0    0  501 -0.00000000000E+00 -0.00000000000E+00 -0.48102167887E+02  0.48102167887E+02  0.00000000000E+00 0.  1.
         35    2    1    2    0    0  0.00000000000E+00  0.00000000000E+00  0.34330199835E+03  0.43950633412E+03  0.27442586551E+03 0.  0.
         25    1    3    3    0    0 -0.52349064299E+02  0.13314024794E+02  0.10942303609E+03  0.17114639528E+03  0.12000000000E+03 0.  0.
         25    1    3    3    0    0  0.52349064299E+02 -0.13314024794E+02  0.23387896226E+03  0.26835993885E+03  0.12000000000E+03 0.  0.
<mgrwt>
<rscale>  0 0.27442587E+03</rscale>
<asrwt>0</asrwt>
<pdfrwt beam="1">  1        1 0.60216024E-01 0.27442587E+03</pdfrwt>
<pdfrwt beam="2">  1       -1 0.74003338E-02 0.27442587E+03</pdfrwt>
<totfact> 0.60113925E+03</totfact>
</mgrwt>
</event>
<event>
 5    1  0.1129390E+001  0.2753151E+03  0.7818608E-02  0.1098276E+00
         -2   -1    0    0    0  501 -0.00000000000E+00  0.00000000000E+00  0.15977485138E+02  0.15977485138E+02  0.00000000000E+00 0. -1.
          2   -1    0    0  501    0  0.00000000000E+00 -0.00000000000E+00 -0.11860192834E+04  0.11860192834E+04  0.00000000000E+00 0. -1.
         35    2    1    2    0    0  0.00000000000E+00  0.00000000000E+00 -0.11700417982E+04  0.12019967685E+04  0.27531513198E+03 0.  0.
         25    1    3    3    0    0  0.91132544029E+01  0.65540034128E+02 -0.52791974239E+03  0.54541525637E+03  0.12000000000E+03 0.  0.
         25    1    3    3    0    0 -0.91132544029E+01 -0.65540034128E+02 -0.64212205584E+03  0.65658151214E+03  0.12000000000E+03 0.  0.
<mgrwt>
<rscale>  0 0.27531513E+03</rscale>
<asrwt>0</asrwt>
<pdfrwt beam="1">  1        2 0.18246451E+00 0.27531513E+03</pdfrwt>
<pdfrwt beam="2">  1       -2 0.24580746E-02 0.27531513E+03</pdfrwt>
<totfact> 0.11582921E+04</totfact>
</mgrwt>
</event>
<event>
 5    1  0.1129390E+001  0.2741960E+03  0.7818608E-02  0.1098902E+00
         -2   -1    0    0    0  501 -0.00000000000E+00  0.00000000000E+00  0.29590158054E+02  0.29590158054E+02  0.00000000000E+00 0. -1.
          2   -1    0    0  501    0  0.00000000000E+00 -0.00000000000E+00 -0.63520629968E+03  0.63520629968E+03  0.00000000000E+00 0. -1.
         35    2    1    2    0    0  0.00000000000E+00  0.00000000000E+00 -0.60561614163E+03  0.66479645774E+03  0.27419595040E+03 0.  0.
         25    1    3    3    0    0 -0.37133648936E+01  0.23380752655E+02 -0.15265530394E+03  0.19561209189E+03  0.12000000000E+03 0.  0.
         25    1    3    3    0    0  0.37133648936E+01 -0.23380752655E+02 -0.45296083769E+03  0.46918436584E+03  0.12000000000E+03 0.  0.
<mgrwt>
<rscale>  0 0.27419595E+03</rscale>
<asrwt>0</asrwt>
<pdfrwt beam="1">  1        2 0.97724046E-01 0.27419595E+03</pdfrwt>
<pdfrwt beam="2">  1       -2 0.45523320E-02 0.27419595E+03</pdfrwt>
<totfact> 0.10605033E+04</totfact>
</mgrwt>
</event>
<event>
 5    1  0.1129390E+001  0.2750798E+03  0.7818608E-02  0.1098407E+00
          2   -1    0    0  501    0  0.00000000000E+00  0.00000000000E+00  0.11977794097E+04  0.11977794097E+04  0.00000000000E+00 0.  1.
         -2   -1    0    0    0  501 -0.00000000000E+00 -0.00000000000E+00 -0.15793583386E+02  0.15793583386E+02  0.00000000000E+00 0.  1.
         35    2    1    2    0    0  0.00000000000E+00  0.00000000000E+00  0.11819858263E+04  0.12135729931E+04  0.27507983557E+03 0.  0.
         25    1    3    3    0    0  0.57003764911E+02 -0.31823317480E+02  0.52053299305E+03  0.53816052401E+03  0.12000000000E+03 0.  0.
         25    1    3    3    0    0 -0.57003764911E+02  0.31823317480E+02  0.66145283324E+03  0.67541246905E+03  0.12000000000E+03 0.  0.
<mgrwt>
<rscale>  0 0.27507984E+03</rscale>
<asrwt>0</asrwt>
<pdfrwt beam="1">  1        2 0.18427368E+00 0.27507984E+03</pdfrwt>
<pdfrwt beam="2">  1       -2 0.24297830E-02 0.27507984E+03</pdfrwt>
<totfact> 0.11602316E+04</totfact>
</mgrwt>
</event>
<event>
 5    1  0.1129390E+001  0.2749882E+03  0.7818608E-02  0.1098458E+00
          2   -1    0    0  501    0  0.00000000000E+00  0.00000000000E+00  0.10990557813E+04  0.10990557813E+04  0.00000000000E+00 0. -1.
         -2   -1    0    0    0  501 -0.00000000000E+00 -0.00000000000E+00 -0.17200793338E+02  0.17200793338E+02  0.00000000000E+00 0. -1.
         35    2    1    2    0    0  0.00000000000E+00  0.00000000000E+00  0.10818549879E+04  0.11162565746E+04  0.27498822782E+03 0.  0.
         25    1    3    3    0    0 -0.25828831440E+02  0.47317946320E+02  0.70322365836E+03  0.71542269341E+03  0.12000000000E+03 0.  0.
         25    1    3    3    0    0  0.25828831440E+02 -0.47317946320E+02  0.37863132956E+03  0.40083388118E+03  0.12000000000E+03 0.  0.
<mgrwt>
<rscale>  0 0.27498823E+03</rscale>
<asrwt>0</asrwt>
<pdfrwt beam="1">  1        2 0.16908545E+00 0.27498823E+03</pdfrwt>
<pdfrwt beam="2">  1       -2 0.26462768E-02 0.27498823E+03</pdfrwt>
<totfact> 0.11659818E+04</totfact>
</mgrwt>
</event>
<event>
 5    1  0.1129390E+001  0.2738826E+03  0.7818608E-02  0.1099078E+00
         -2   -1    0    0    0  501 -0.00000000000E+00  0.00000000000E+00  0.11283920343E+03  0.11283920343E+03  0.00000000000E+00 0. -1.
          2   -1    0    0  501    0  0.00000000000E+00 -0.00000000000E+00 -0.16619158144E+03  0.16619158144E+03  0.00000000000E+00 0. -1.
         35    2    1    2    0    0  0.00000000000E+00  0.00000000000E+00 -0.53352378012E+02  0.27903078487E+03  0.27388264397E+03 0.  0.
         25    1    3    3    0    0  0.35726440876E+02 -0.43399354236E+02  0.85135206049E+01  0.13278690658E+03  0.12000000000E+03 0.  0.
         25    1    3    3    0    0 -0.35726440876E+02  0.43399354236E+02 -0.61865898617E+02  0.14624387829E+03  0.12000000000E+03 0.  0.
<mgrwt>
<rscale>  0 0.27388264E+03</rscale>
<asrwt>0</asrwt>
<pdfrwt beam="1">  1        2 0.25567936E-01 0.27388264E+03</pdfrwt>
<pdfrwt beam="2">  1       -2 0.17359877E-01 0.27388264E+03</pdfrwt>
<totfact> 0.55741140E+03</totfact>
</mgrwt>
</event>
<event>
 5    1  0.1129390E+001  0.2733926E+03  0.7818608E-02  0.1099353E+00
          3   -1    0    0  501    0  0.00000000000E+00  0.00000000000E+00  0.39052225160E+03  0.39052225160E+03  0.00000000000E+00 0.  1.
         -3   -1    0    0    0  501 -0.00000000000E+00 -0.00000000000E+00 -0.47848438586E+02  0.47848438586E+02  0.00000000000E+00 0.  1.
         35    2    1    2    0    0  0.00000000000E+00  0.00000000000E+00  0.34267381301E+03  0.43837069018E+03  0.27339261125E+03 0.  0.
         25    1    3    3    0    0  0.56370596790E+02 -0.28959556957E+01  0.22451359805E+03  0.26075349748E+03  0.12000000000E+03 0.  0.
         25    1    3    3    0    0 -0.56370596790E+02  0.28959556957E+01  0.11816021496E+03  0.17761719270E+03  0.12000000000E+03 0.  0.
<mgrwt>
<rscale>  0 0.27339261E+03</rscale>
<asrwt>0</asrwt>
<pdfrwt beam="1">  1        3 0.60080345E-01 0.27339261E+03</pdfrwt>
<pdfrwt beam="2">  1       -3 0.73612985E-02 0.27339261E+03</pdfrwt>
<totfact> 0.85278754E+02</totfact>
</mgrwt>
</event>
<event>
 5    1  0.1129390E+001  0.2752656E+03  0.7818608E-02  0.1098303E+00
         -1   -1    0    0    0  501 -0.00000000000E+00  0.00000000000E+00  0.10021463618E+04  0.10021463618E+04  0.00000000000E+00 0.  1.
          1   -1    0    0  501    0  0.00000000000E+00 -0.00000000000E+00 -0.18902218586E+02  0.18902218586E+02  0.00000000000E+00 0.  1.
         35    2    1    2    0    0  0.00000000000E+00  0.00000000000E+00  0.98324414317E+03  0.10210485803E+04  0.27526561416E+03 0.  0.
         25    1    3    3    0    0  0.51868154447E+02  0.13721319398E+02  0.64294280770E+03  0.65624235921E+03  0.12000000000E+03 0.  0.
         25    1    3    3    0    0 -0.51868154447E+02 -0.13721319398E+02  0.34030133547E+03  0.36480622112E+03  0.12000000000E+03 0.  0.
<mgrwt>
<rscale>  0 0.27526561E+03</rscale>
<asrwt>0</asrwt>
<pdfrwt beam="1">  1        1 0.29080344E-02 0.27526561E+03</pdfrwt>
<pdfrwt beam="2">  1       -1 0.15417632E+00 0.27526561E+03</pdfrwt>
<totfact> 0.12517969E+03</totfact>
</mgrwt>
</event>
<event>
 5    1  0.1129390E+001  0.2761225E+03  0.7818608E-02  0.1097826E+00
         -2   -1    0    0    0  501 -0.00000000000E+00  0.00000000000E+00  0.34643923861E+02  0.34643923861E+02  0.00000000000E+00 0.  1.
          2   -1    0    0  501    0  0.00000000000E+00 -0.00000000000E+00 -0.55019487627E+03  0.55019487627E+03  0.00000000000E+00 0.  1.
         35    2    1    2    0    0  0.00000000000E+00  0.00000000000E+00 -0.51555095241E+03  0.58483880013E+03  0.27612250471E+03 0.  0.
         25    1    3    3    0    0  0.65829496315E+02 -0.11831097876E+02 -0.28677113642E+03  0.31797984551E+03  0.12000000000E+03 0.  0.
         25    1    3    3    0    0 -0.65829496315E+02  0.11831097876E+02 -0.22877981598E+03  0.26685895463E+03  0.12000000000E+03 0.  0.
<mgrwt>
<rscale>  0 0.27612250E+03</rscale>
<asrwt>0</asrwt>
<pdfrwt beam="1">  1        2 0.84645362E-01 0.27612250E+03</pdfrwt>
<pdfrwt beam="2">  1       -2 0.53298347E-02 0.27612250E+03</pdfrwt>
<totfact> 0.98600489E+03</totfact>
</mgrwt>
</event>
<event>
 5    1  0.1129390E+001  0.2751636E+03  0.7818608E-02  0.1098360E+00
          1   -1    0    0  501    0  0.00000000000E+00  0.00000000000E+00  0.73376353971E+03  0.73376353971E+03  0.00000000000E+00 0. -1.
         -1   -1    0    0    0  501 -0.00000000000E+00 -0.00000000000E+00 -0.25796804572E+02  0.25796804572E+02  0.00000000000E+00 0. -1.
         35    2    1    2    0    0  0.00000000000E+00  0.00000000000E+00  0.70796673514E+03  0.75956034428E+03  0.27516362140E+03 0.  0.
         25    1    3    3    0    0  0.50229469754E+02  0.24338658007E+02  0.45776045164E+03  0.47650813318E+03  0.12000000000E+03 0.  0.
         25    1    3    3    0    0 -0.50229469754E+02 -0.24338658007E+02  0.25020628350E+03  0.28305221110E+03  0.12000000000E+03 0.  0.
<mgrwt>
<rscale>  0 0.27516362E+03</rscale>
<asrwt>0</asrwt>
<pdfrwt beam="1">  1        1 0.11288668E+00 0.27516362E+03</pdfrwt>
<pdfrwt beam="2">  1       -1 0.39687397E-02 0.27516362E+03</pdfrwt>
<totfact> 0.65245903E+03</totfact>
</mgrwt>
</event>
<event>
 5    1  0.1129390E+001  0.2754052E+03  0.7818608E-02  0.1098225E+00
         -2   -1    0    0    0  501 -0.00000000000E+00  0.00000000000E+00  0.77910574597E+01  0.77910574597E+01  0.00000000000E+00 0.  1.
          2   -1    0    0  501    0  0.00000000000E+00 -0.00000000000E+00 -0.24338165715E+04  0.24338165715E+04  0.00000000000E+00 0.  1.
         35    2    1    2    0    0  0.00000000000E+00  0.00000000000E+00 -0.24260255140E+04  0.24416076289E+04  0.27540519062E+03 0.  0.
         25    1    3    3    0    0 -0.30878704890E+02 -0.16443798895E+02 -0.70079551651E+03  0.71185549721E+03  0.12000000000E+03 0.  0.
         25    1    3    3    0    0  0.30878704890E+02  0.16443798895E+02 -0.17252299975E+04  0.17297521317E+04  0.12000000000E+03 0.  0.
<mgrwt>
<rscale>  0 0.27540519E+03</rscale>
<asrwt>0</asrwt>
<pdfrwt beam="1">  1        2 0.37443351E+00 0.27540519E+03</pdfrwt>
<pdfrwt beam="2">  1       -2 0.11986236E-02 0.27540519E+03</pdfrwt>
<totfact> 0.71380573E+03</totfact>
</mgrwt>
</event>
<event>
 5    1  0.1129390E+001  0.2752284E+03  0.7818608E-02  0.1098324E+00
         -2   -1    0    0    0  501 -0.00000000000E+00  0.00000000000E+00  0.21038291001E+02  0.21038291001E+02  0.00000000000E+00 0. -1.
          2   -1    0    0  501    0  0.00000000000E+00 -0.00000000000E+00 -0.90015208201E+03  0.90015208201E+03  0.00000000000E+00 0. -1.
         35    2    1    2    0    0  0.00000000000E+00  0.00000000000E+00 -0.87911379101E+03  0.92119037301E+03  0.27522835208E+03 0.  0.
         25    1    3    3    0    0 -0.37146916422E+01  0.36586318324E+02 -0.62845676260E+03  0.64086680370E+03  0.12000000000E+03 0.  0.
         25    1    3    3    0    0  0.37146916422E+01 -0.36586318324E+02 -0.25065702840E+03  0.28032356931E+03  0.12000000000E+03 0.  0.
<mgrwt>
<rscale>  0 0.27522835E+03</rscale>
<asrwt>0</asrwt>
<pdfrwt beam="1">  1        2 0.13848494E+00 0.27522835E+03</pdfrwt>
<pdfrwt beam="2">  1       -2 0.32366601E-02 0.27522835E+03</pdfrwt>
<totfact> 0.11449158E+04</totfact>
</mgrwt>
</event>
<event>
 5    1  0.1129390E+001  0.2749528E+03  0.7818608E-02  0.1098478E+00
         -1   -1    0    0    0  501 -0.00000000000E+00  0.00000000000E+00  0.60272568199E+03  0.60272568199E+03  0.00000000000E+00 0.  1.
          1   -1    0    0  501    0  0.00000000000E+00 -0.00000000000E+00 -0.31357140793E+02  0.31357140793E+02  0.00000000000E+00 0.  1.
         35    2    1    2    0    0  0.00000000000E+00  0.00000000000E+00  0.57136854120E+03  0.63408282279E+03  0.27495275281E+03 0.  0.
         25    1    3    3    0    0 -0.82645593927E+01 -0.66433440692E+02  0.27588676499E+03  0.30821293302E+03  0.12000000000E+03 0.  0.
         25    1    3    3    0    0  0.82645593927E+01  0.66433440692E+02  0.29548177621E+03  0.32586988977E+03  0.12000000000E+03 0.  0.
<mgrwt>
<rscale>  0 0.27495275E+03</rscale>
<asrwt>0</asrwt>
<pdfrwt beam="1">  1        1 0.48241759E-02 0.27495275E+03</pdfrwt>
<pdfrwt beam="2">  1       -1 0.92727020E-01 0.27495275E+03</pdfrwt>
<totfact> 0.20809049E+03</totfact>
</mgrwt>
</event>
<event>
 5    1  0.1129390E+001  0.2732059E+03  0.7818608E-02  0.1099459E+00
          2   -1    0    0  501    0  0.00000000000E+00  0.00000000000E+00  0.25069143341E+04  0.25069143341E+04  0.00000000000E+00 0. -1.
         -2   -1    0    0    0  501 -0.00000000000E+00 -0.00000000000E+00 -0.74435616436E+01  0.74435616436E+01  0.00000000000E+00 0. -1.
         35    2    1    2    0    0  0.00000000000E+00  0.00000000000E+00  0.24994707724E+04  0.25143578957E+04  0.27320593977E+03 0.  0.
         25    1    3    3    0    0 -0.15055700792E+02 -0.60929565130E+02  0.14146968184E+04  0.14211636690E+04  0.12000000000E+03 0.  0.
         25    1    3    3    0    0  0.15055700792E+02  0.60929565130E+02  0.10847739540E+04  0.10931942267E+04  0.12000000000E+03 0.  0.
<mgrwt>
<rscale>  0 0.27320594E+03</rscale>
<asrwt>0</asrwt>
<pdfrwt beam="1">  1        2 0.38567846E+00 0.27320594E+03</pdfrwt>
<pdfrwt beam="2">  1       -2 0.11451653E-02 0.27320594E+03</pdfrwt>
<totfact> 0.69588436E+03</totfact>
</mgrwt>
</event>
<event>
 5    1  0.1129390E+001  0.2750790E+03  0.7818608E-02  0.1098407E+00
         -2   -1    0    0    0  501 -0.00000000000E+00  0.00000000000E+00  0.96588772749E+02  0.96588772749E+02  0.00000000000E+00 0. -1.
          2   -1    0    0  501    0  0.00000000000E+00 -0.00000000000E+00 -0.19585211772E+03  0.19585211772E+03  0.00000000000E+00 0. -1.
         35    2    1    2    0    0  0.00000000000E+00  0.00000000000E+00 -0.99263344973E+02  0.29244089047E+03  0.27507901186E+03 0.  0.
         25    1    3    3    0    0 -0.44995838397E+02  0.44528786243E+02 -0.25630727786E+02  0.13807379362E+03  0.12000000000E+03 0.  0.
         25    1    3    3    0    0  0.44995838397E+02 -0.44528786243E+02 -0.73632617187E+02  0.15436709685E+03  0.12000000000E+03 0.  0.
<mgrwt>
<rscale>  0 0.27507901E+03</rscale>
<asrwt>0</asrwt>
<pdfrwt beam="1">  1        2 0.30131095E-01 0.27507901E+03</pdfrwt>
<pdfrwt beam="2">  1       -2 0.14859811E-01 0.27507901E+03</pdfrwt>
<totfact> 0.60231502E+03</totfact>
</mgrwt>
</event>
<event>
 5    1  0.1129390E+001  0.2725610E+03  0.7818608E-02  0.1099823E+00
         -1   -1    0    0    0  501 -0.00000000000E+00  0.00000000000E+00  0.85008489103E+02  0.85008489103E+02  0.00000000000E+00 0.  1.
          1   -1    0    0  501    0  0.00000000000E+00 -0.00000000000E+00 -0.21847673301E+03  0.21847673301E+03  0.00000000000E+00 0.  1.
         35    2    1    2    0    0  0.00000000000E+00  0.00000000000E+00 -0.13346824391E+03  0.30348522212E+03  0.27256101686E+03 0.  0.
         25    1    3    3    0    0  0.50594993821E+02 -0.48899041647E+01 -0.22354583246E+02  0.13222515629E+03  0.12000000000E+03 0.  0.
         25    1    3    3    0    0 -0.50594993821E+02  0.48899041647E+01 -0.11111366067E+03  0.17126006583E+03  0.12000000000E+03 0.  0.
<mgrwt>
<rscale>  0 0.27256102E+03</rscale>
<asrwt>0</asrwt>
<pdfrwt beam="1">  1        1 0.33611804E-01 0.27256102E+03</pdfrwt>
<pdfrwt beam="2">  1       -1 0.13078229E-01 0.27256102E+03</pdfrwt>
<totfact> 0.52017586E+03</totfact>
</mgrwt>
</event>
<event>
 5    1  0.1129390E+001  0.2764845E+03  0.7818608E-02  0.1097625E+00
          2   -1    0    0  501    0  0.00000000000E+00  0.00000000000E+00  0.12300195858E+04  0.12300195858E+04  0.00000000000E+00 0.  1.
         -2   -1    0    0    0  501 -0.00000000000E+00 -0.00000000000E+00 -0.15537089473E+02  0.15537089473E+02  0.00000000000E+00 0.  1.
         35    2    1    2    0    0  0.00000000000E+00  0.00000000000E+00  0.12144824964E+04  0.12455566753E+04  0.27648453381E+03 0.  0.
         25    1    3    3    0    0  0.48186572324E+02 -0.88147286717E+01  0.39066099689E+03  0.41160133586E+03  0.12000000000E+03 0.  0.
         25    1    3    3    0    0 -0.48186572324E+02  0.88147286717E+01  0.82382149948E+03  0.83395533945E+03  0.12000000000E+03 0.  0.
<mgrwt>
<rscale>  0 0.27648453E+03</rscale>
<asrwt>0</asrwt>
<pdfrwt beam="1">  1        2 0.18923371E+00 0.27648453E+03</pdfrwt>
<pdfrwt beam="2">  1       -2 0.23903224E-02 0.27648453E+03</pdfrwt>
<totfact> 0.11399007E+04</totfact>
</mgrwt>
</event>
<event>
 5    1  0.1129390E+001  0.2754339E+03  0.7818608E-02  0.1098209E+00
          1   -1    0    0  501    0  0.00000000000E+00  0.00000000000E+00  0.59674298692E+02  0.59674298692E+02  0.00000000000E+00 0. -1.
         -1   -1    0    0    0  501 -0.00000000000E+00 -0.00000000000E+00 -0.31782456543E+03  0.31782456543E+03  0.00000000000E+00 0. -1.
         35    2    1    2    0    0  0.00000000000E+00  0.00000000000E+00 -0.25815026674E+03  0.37749886412E+03  0.27543389805E+03 0.  0.
         25    1    3    3    0    0 -0.51079051721E+02  0.43092575740E+02 -0.11537511706E+03  0.17938076052E+03  0.12000000000E+03 0.  0.
         25    1    3    3    0    0  0.51079051721E+02 -0.43092575740E+02 -0.14277514968E+03  0.19811810360E+03  0.12000000000E+03 0.  0.
<mgrwt>
<rscale>  0 0.27543390E+03</rscale>
<asrwt>0</asrwt>
<pdfrwt beam="1">  1        1 0.91806615E-02 0.27543390E+03</pdfrwt>
<pdfrwt beam="2">  1       -1 0.48896086E-01 0.27543390E+03</pdfrwt>
<totfact> 0.30741271E+03</totfact>
</mgrwt>
</event>
<event>
 5    1  0.1129390E+001  0.2735883E+03  0.7818608E-02  0.1099243E+00
         -2   -1    0    0    0  501 -0.00000000000E+00  0.00000000000E+00  0.22806691425E+02  0.22806691425E+02  0.00000000000E+00 0.  1.
          2   -1    0    0  501    0  0.00000000000E+00 -0.00000000000E+00 -0.82048881564E+03  0.82048881564E+03  0.00000000000E+00 0.  1.
         35    2    1    2    0    0  0.00000000000E+00  0.00000000000E+00 -0.79768212422E+03  0.84329550707E+03  0.27358826902E+03 0.  0.
         25    1    3    3    0    0  0.57807576375E+02 -0.22350326289E+02 -0.33191905863E+03  0.35834552383E+03  0.12000000000E+03 0.  0.
         25    1    3    3    0    0 -0.57807576375E+02  0.22350326289E+02 -0.46576306559E+03  0.48494998324E+03  0.12000000000E+03 0.  0.
<mgrwt>
<rscale>  0 0.27358827E+03</rscale>
<asrwt>0</asrwt>
<pdfrwt beam="1">  1        2 0.12622906E+00 0.27358827E+03</pdfrwt>
<pdfrwt beam="2">  1       -2 0.35087213E-02 0.27358827E+03</pdfrwt>
<totfact> 0.11457471E+04</totfact>
</mgrwt>
</event>
<event>
 5    1  0.1129390E+001  0.2750528E+03  0.7818608E-02  0.1098422E+00
         -3   -1    0    0    0  501 -0.00000000000E+00  0.00000000000E+00  0.33240090803E+03  0.33240090803E+03  0.00000000000E+00 0.  1.
          3   -1    0    0  501    0  0.00000000000E+00 -0.00000000000E+00 -0.56899714399E+02  0.56899714399E+02  0.00000000000E+00 0.  1.
         35    2    1    2    0    0  0.00000000000E+00  0.00000000000E+00  0.27550119363E+03  0.38930062243E+03  0.27505284389E+03 0.  0.
         25    1    3    3    0    0  0.63762990840E+02 -0.12600156161E+02  0.16181323674E+03  0.21167901767E+03  0.12000000000E+03 0.  0.
         25    1    3    3    0    0 -0.63762990840E+02  0.12600156161E+02  0.11368795689E+03  0.17762160476E+03  0.12000000000E+03 0.  0.
<mgrwt>
<rscale>  0 0.27505284E+03</rscale>
<asrwt>0</asrwt>
<pdfrwt beam="1">  1        3 0.87538024E-02 0.27505284E+03</pdfrwt>
<pdfrwt beam="2">  1       -3 0.51138600E-01 0.27505284E+03</pdfrwt>
<totfact> 0.89285303E+02</totfact>
</mgrwt>
</event>
<event>
 5    1  0.1129390E+001  0.2747835E+03  0.7818608E-02  0.1098573E+00
         -1   -1    0    0    0  501 -0.00000000000E+00  0.00000000000E+00  0.27142970375E+02  0.27142970375E+02  0.00000000000E+00 0.  1.
          1   -1    0    0  501    0  0.00000000000E+00 -0.00000000000E+00 -0.69544688129E+03  0.69544688129E+03  0.00000000000E+00 0.  1.
         35    2    1    2    0    0  0.00000000000E+00  0.00000000000E+00 -0.66830391092E+03  0.72258985167E+03  0.27478350821E+03 0.  0.
         25    1    3    3    0    0 -0.57302257197E+02 -0.64677328576E+01 -0.24493234285E+03  0.27877810678E+03  0.12000000000E+03 0.  0.
         25    1    3    3    0    0  0.57302257197E+02  0.64677328576E+01 -0.42337156807E+03  0.44381174489E+03  0.12000000000E+03 0.  0.
<mgrwt>
<rscale>  0 0.27478351E+03</rscale>
<asrwt>0</asrwt>
<pdfrwt beam="1">  1        1 0.10699183E+00 0.27478351E+03</pdfrwt>
<pdfrwt beam="2">  1       -1 0.41758415E-02 0.27478351E+03</pdfrwt>
<totfact> 0.65450894E+03</totfact>
</mgrwt>
</event>
<event>
 5    1  0.1129390E+001  0.2753024E+03  0.7818608E-02  0.1098283E+00
          3   -1    0    0  501    0  0.00000000000E+00  0.00000000000E+00  0.13041318503E+03  0.13041318503E+03  0.00000000000E+00 0.  1.
         -3   -1    0    0    0  501 -0.00000000000E+00 -0.00000000000E+00 -0.14529088972E+03  0.14529088972E+03  0.00000000000E+00 0.  1.
         35    2    1    2    0    0  0.00000000000E+00  0.00000000000E+00 -0.14877704688E+02  0.27570407475E+03  0.27530236239E+03 0.  0.
         25    1    3    3    0    0  0.35772020666E+02 -0.49445908791E+02 -0.36174140411E+02  0.13940266781E+03  0.12000000000E+03 0.  0.
         25    1    3    3    0    0 -0.35772020666E+02  0.49445908791E+02  0.21296435723E+02  0.13630140694E+03  0.12000000000E+03 0.  0.
<mgrwt>
<rscale>  0 0.27530236E+03</rscale>
<asrwt>0</asrwt>
<pdfrwt beam="1">  1        3 0.20063567E-01 0.27530236E+03</pdfrwt>
<pdfrwt beam="2">  1       -3 0.22352445E-01 0.27530236E+03</pdfrwt>
<totfact> 0.10442824E+03</totfact>
</mgrwt>
</event>
<event>
 5    1  0.1129390E+001  0.2747929E+03  0.7818608E-02  0.1098567E+00
         -2   -1    0    0    0  501 -0.00000000000E+00  0.00000000000E+00  0.14618387149E+02  0.14618387149E+02  0.00000000000E+00 0. -1.
          2   -1    0    0  501    0  0.00000000000E+00 -0.00000000000E+00 -0.12913728051E+04  0.12913728051E+04  0.00000000000E+00 0. -1.
         35    2    1    2    0    0  0.00000000000E+00  0.00000000000E+00 -0.12767544180E+04  0.13059911923E+04  0.27479292290E+03 0.  0.
         25    1    3    3    0    0 -0.44082157923E+02  0.23425843491E+02 -0.85016472721E+03  0.86004190025E+03  0.12000000000E+03 0.  0.
         25    1    3    3    0    0  0.44082157923E+02 -0.23425843491E+02 -0.42658969075E+03  0.44594929201E+03  0.12000000000E+03 0.  0.
<mgrwt>
<rscale>  0 0.27479292E+03</rscale>
<asrwt>0</asrwt>
<pdfrwt beam="1">  1        2 0.19867264E+00 0.27479292E+03</pdfrwt>
<pdfrwt beam="2">  1       -2 0.22489837E-02 0.27479292E+03</pdfrwt>
<totfact> 0.11523619E+04</totfact>
</mgrwt>
</event>
<event>
 5    1  0.1129390E+001  0.2766167E+03  0.7818608E-02  0.1097551E+00
          1   -1    0    0  501    0  0.00000000000E+00  0.00000000000E+00  0.17869173074E+03  0.17869173074E+03  0.00000000000E+00 0. -1.
         -1   -1    0    0    0  501 -0.00000000000E+00 -0.00000000000E+00 -0.10705137501E+03  0.10705137501E+03  0.00000000000E+00 0. -1.
         35    2    1    2    0    0  0.00000000000E+00  0.00000000000E+00  0.71640355734E+02  0.28574310575E+03  0.27661666963E+03 0.  0.
         25    1    3    3    0    0 -0.67908172958E+02 -0.10045049936E+02  0.31589633441E+02  0.14181088789E+03  0.12000000000E+03 0.  0.
         25    1    3    3    0    0  0.67908172958E+02  0.10045049936E+02  0.40050722293E+02  0.14393221786E+03  0.12000000000E+03 0.  0.
<mgrwt>
<rscale>  0 0.27661667E+03</rscale>
<asrwt>0</asrwt>
<pdfrwt beam="1">  1        1 0.27491035E-01 0.27661667E+03</pdfrwt>
<pdfrwt beam="2">  1       -1 0.16469442E-01 0.27661667E+03</pdfrwt>
<totfact> 0.46541825E+03</totfact>
</mgrwt>
</event>
<event>
 5    1  0.1129390E+001  0.2765615E+03  0.7818608E-02  0.1097582E+00
         -2   -1    0    0    0  501 -0.00000000000E+00  0.00000000000E+00  0.20709090711E+03  0.20709090711E+03  0.00000000000E+00 0. -1.
          2   -1    0    0  501    0  0.00000000000E+00 -0.00000000000E+00 -0.92334141737E+02  0.92334141737E+02  0.00000000000E+00 0. -1.
         35    2    1    2    0    0  0.00000000000E+00  0.00000000000E+00  0.11475676537E+03  0.29942504885E+03  0.27656146637E+03 0.  0.
         25    1    3    3    0    0  0.60722607729E+02 -0.13739380182E+02  0.88860760206E+02  0.16177836803E+03  0.12000000000E+03 0.  0.
         25    1    3    3    0    0 -0.60722607729E+02  0.13739380182E+02  0.25896005167E+02  0.13764668082E+03  0.12000000000E+03 0.  0.
<mgrwt>
<rscale>  0 0.27656147E+03</rscale>
<asrwt>0</asrwt>
<pdfrwt beam="1">  1        2 0.14205253E-01 0.27656147E+03</pdfrwt>
<pdfrwt beam="2">  1       -2 0.31860140E-01 0.27656147E+03</pdfrwt>
<totfact> 0.37895174E+03</totfact>
</mgrwt>
</event>
<event>
 5    1  0.1129390E+001  0.2753696E+03  0.7818608E-02  0.1098245E+00
          2   -1    0    0  501    0  0.00000000000E+00  0.00000000000E+00  0.12924984706E+03  0.12924984706E+03  0.00000000000E+00 0.  1.
         -2   -1    0    0    0  501 -0.00000000000E+00 -0.00000000000E+00 -0.14667027584E+03  0.14667027584E+03  0.00000000000E+00 0.  1.
         35    2    1    2    0    0  0.00000000000E+00  0.00000000000E+00 -0.17420428781E+02  0.27592012291E+03  0.27536964772E+03 0.  0.
         25    1    3    3    0    0 -0.26677469670E+02  0.46562556749E+02  0.32327140963E+02  0.13536913652E+03  0.12000000000E+03 0.  0.
         25    1    3    3    0    0  0.26677469670E+02 -0.46562556749E+02 -0.49747569744E+02  0.14055098639E+03  0.12000000000E+03 0.  0.
<mgrwt>
<rscale>  0 0.27536965E+03</rscale>
<asrwt>0</asrwt>
<pdfrwt beam="1">  1        2 0.19884592E-01 0.27536965E+03</pdfrwt>
<pdfrwt beam="2">  1       -2 0.22564658E-01 0.27536965E+03</pdfrwt>
<totfact> 0.47321873E+03</totfact>
</mgrwt>
</event>
<event>
 5    1  0.1129390E+001  0.2757349E+03  0.7818608E-02  0.1098042E+00
         -1   -1    0    0    0  501 -0.00000000000E+00  0.00000000000E+00  0.11478899078E+03  0.11478899078E+03  0.00000000000E+00 0.  1.
          1   -1    0    0  501    0  0.00000000000E+00 -0.00000000000E+00 -0.16558586512E+03  0.16558586512E+03  0.00000000000E+00 0.  1.
         35    2    1    2    0    0  0.00000000000E+00  0.00000000000E+00 -0.50796874343E+02  0.28037485590E+03  0.27573490417E+03 0.  0.
         25    1    3    3    0    0  0.53147343212E+01 -0.27978439054E+02 -0.88050158619E+02  0.15153834461E+03  0.12000000000E+03 0.  0.
         25    1    3    3    0    0 -0.53147343212E+01  0.27978439054E+02  0.37253284276E+02  0.12883651129E+03  0.12000000000E+03 0.  0.
<mgrwt>
<rscale>  0 0.27573490E+03</rscale>
<asrwt>0</asrwt>
<pdfrwt beam="1">  1        1 0.25474748E-01 0.27573490E+03</pdfrwt>
<pdfrwt beam="2">  1       -1 0.17659845E-01 0.27573490E+03</pdfrwt>
<totfact> 0.45836412E+03</totfact>
</mgrwt>
</event>
<event>
 5    1  0.1129390E+001  0.2746578E+03  0.7818608E-02  0.1098643E+00
         -3   -1    0    0    0  501 -0.00000000000E+00  0.00000000000E+00  0.87648661346E+03  0.87648661346E+03  0.00000000000E+00 0.  1.
          3   -1    0    0  501    0  0.00000000000E+00 -0.00000000000E+00 -0.21516839030E+02  0.21516839030E+02  0.00000000000E+00 0.  1.
         35    2    1    2    0    0  0.00000000000E+00  0.00000000000E+00  0.85496977443E+03  0.89800345249E+03  0.27465776067E+03 0.  0.
         25    1    3    3    0    0  0.22567237217E+02 -0.23097537803E+02  0.61859045648E+03  0.63094922877E+03  0.12000000000E+03 0.  0.
         25    1    3    3    0    0 -0.22567237217E+02  0.23097537803E+02  0.23637931795E+03  0.26705422372E+03  0.12000000000E+03 0.  0.
<mgrwt>
<rscale>  0 0.27465776E+03</rscale>
<asrwt>0</asrwt>
<pdfrwt beam="1">  1        3 0.33102836E-02 0.27465776E+03</pdfrwt>
<pdfrwt beam="2">  1       -3 0.13484407E+00 0.27465776E+03</pdfrwt>
<totfact> 0.49394938E+02</totfact>
</mgrwt>
</event>
<event>
 5    1  0.1129390E+001  0.2746977E+03  0.7818608E-02  0.1098621E+00
          1   -1    0    0  501    0  0.00000000000E+00  0.00000000000E+00  0.54163536837E+02  0.54163536837E+02  0.00000000000E+00 0.  1.
         -1   -1    0    0    0  501 -0.00000000000E+00 -0.00000000000E+00 -0.34829157828E+03  0.34829157828E+03  0.00000000000E+00 0.  1.
         35    2    1    2    0    0  0.00000000000E+00  0.00000000000E+00 -0.29412804144E+03  0.40245511512E+03  0.27469767913E+03 0.  0.
         25    1    3    3    0    0  0.62673185052E+02  0.85458841376E+01 -0.11551387532E+03  0.17816962606E+03  0.12000000000E+03 0.  0.
         25    1    3    3    0    0 -0.62673185052E+02 -0.85458841376E+01 -0.17861416612E+03  0.22428548905E+03  0.12000000000E+03 0.  0.
<mgrwt>
<rscale>  0 0.27469768E+03</rscale>
<asrwt>0</asrwt>
<pdfrwt beam="1">  1        1 0.83328518E-02 0.27469768E+03</pdfrwt>
<pdfrwt beam="2">  1       -1 0.53583320E-01 0.27469768E+03</pdfrwt>
<totfact> 0.29566155E+03</totfact>
</mgrwt>
</event>
<event>
 5    1  0.1129390E+001  0.2744278E+03  0.7818608E-02  0.1098772E+00
         -1   -1    0    0    0  501 -0.00000000000E+00  0.00000000000E+00  0.24552985613E+02  0.24552985613E+02  0.00000000000E+00 0. -1.
          1   -1    0    0  501    0  0.00000000000E+00 -0.00000000000E+00 -0.76681757558E+03  0.76681757558E+03  0.00000000000E+00 0. -1.
         35    2    1    2    0    0  0.00000000000E+00  0.00000000000E+00 -0.74226458997E+03  0.79137056119E+03  0.27442784772E+03 0.  0.
         25    1    3    3    0    0  0.55859100074E+02 -0.29688509061E+02 -0.31161217692E+03  0.33985849325E+03  0.12000000000E+03 0.  0.
         25    1    3    3    0    0 -0.55859100074E+02  0.29688509061E+02 -0.43065241305E+03  0.45151206794E+03  0.12000000000E+03 0.  0.
<mgrwt>
<rscale>  0 0.27442785E+03</rscale>
<asrwt>0</asrwt>
<pdfrwt beam="1">  1        1 0.11797194E+00 0.27442785E+03</pdfrwt>
<pdfrwt beam="2">  1       -1 0.37773824E-02 0.27442785E+03</pdfrwt>
<totfact> 0.65726985E+03</totfact>
</mgrwt>
</event>
<event>
 5    1  0.1129390E+001  0.2757967E+03  0.7818608E-02  0.1098007E+00
         -1   -1    0    0    0  501 -0.00000000000E+00  0.00000000000E+00  0.11066180526E+02  0.11066180526E+02  0.00000000000E+00 0. -1.
          1   -1    0    0  501    0  0.00000000000E+00 -0.00000000000E+00 -0.17183842724E+04  0.17183842724E+04  0.00000000000E+00 0. -1.
         35    2    1    2    0    0  0.00000000000E+00  0.00000000000E+00 -0.17073180919E+04  0.17294504529E+04  0.27579666837E+03 0.  0.
         25    1    3    3    0    0  0.27719544094E+01  0.52791148756E+02 -0.11212781912E+04  0.11289195592E+04  0.12000000000E+03 0.  0.
         25    1    3    3    0    0 -0.27719544094E+01 -0.52791148756E+02 -0.58603990063E+03  0.60053089367E+03  0.12000000000E+03 0.  0.
<mgrwt>
<rscale>  0 0.27579667E+03</rscale>
<asrwt>0</asrwt>
<pdfrwt beam="1">  1        1 0.26436686E+00 0.27579667E+03</pdfrwt>
<pdfrwt beam="2">  1       -1 0.17024890E-02 0.27579667E+03</pdfrwt>
<totfact> 0.44625992E+03</totfact>
</mgrwt>
</event>
<event>
 5    1  0.1129390E+001  0.2746291E+03  0.7818608E-02  0.1098659E+00
         -1   -1    0    0    0  501 -0.00000000000E+00  0.00000000000E+00  0.12598731744E+02  0.12598731744E+02  0.00000000000E+00 0.  1.
          1   -1    0    0  501    0  0.00000000000E+00 -0.00000000000E+00 -0.14966015286E+04  0.14966015286E+04  0.00000000000E+00 0.  1.
         35    2    1    2    0    0  0.00000000000E+00  0.00000000000E+00 -0.14840027969E+04  0.15092002604E+04  0.27462906756E+03 0.  0.
         25    1    3    3    0    0  0.34474821645E+02 -0.46976595471E+02 -0.56308645706E+03  0.57867233559E+03  0.12000000000E+03 0.  0.
         25    1    3    3    0    0 -0.34474821645E+02  0.46976595471E+02 -0.92091633981E+03  0.93052792477E+03  0.12000000000E+03 0.  0.
<mgrwt>
<rscale>  0 0.27462907E+03</rscale>
<asrwt>0</asrwt>
<pdfrwt beam="1">  1        1 0.23024647E+00 0.27462907E+03</pdfrwt>
<pdfrwt beam="2">  1       -1 0.19382658E-02 0.27462907E+03</pdfrwt>
<totfact> 0.51642316E+03</totfact>
</mgrwt>
</event>
<event>
 5    1  0.1129390E+001  0.2746935E+03  0.7818608E-02  0.1098623E+00
          2   -1    0    0  501    0  0.00000000000E+00  0.00000000000E+00  0.50518114378E+03  0.50518114378E+03  0.00000000000E+00 0. -1.
         -2   -1    0    0    0  501 -0.00000000000E+00 -0.00000000000E+00 -0.37341310174E+02  0.37341310174E+02  0.00000000000E+00 0. -1.
         35    2    1    2    0    0  0.00000000000E+00  0.00000000000E+00  0.46783983360E+03  0.54252245395E+03  0.27469347123E+03 0.  0.
         25    1    3    3    0    0 -0.62832270985E+02 -0.11006872239E+02  0.27317645969E+03  0.30511378802E+03  0.12000000000E+03 0.  0.
         25    1    3    3    0    0  0.62832270985E+02  0.11006872239E+02  0.19466337392E+03  0.23740866593E+03  0.12000000000E+03 0.  0.
<mgrwt>
<rscale>  0 0.27469347E+03</rscale>
<asrwt>0</asrwt>
<pdfrwt beam="1">  1        2 0.77720171E-01 0.27469347E+03</pdfrwt>
<pdfrwt beam="2">  1       -2 0.57448173E-02 0.27469347E+03</pdfrwt>
<totfact> 0.96811910E+03</totfact>
</mgrwt>
</event>
<event>
 5    1  0.1129390E+001  0.2769743E+03  0.7818608E-02  0.1097353E+00
          1   -1    0    0  501    0  0.00000000000E+00  0.00000000000E+00  0.20423394978E+04  0.20423394978E+04  0.00000000000E+00 0.  1.
         -1   -1    0    0    0  501 -0.00000000000E+00 -0.00000000000E+00 -0.93905474669E+01  0.93905474669E+01  0.00000000000E+00 0.  1.
         35    2    1    2    0    0  0.00000000000E+00  0.00000000000E+00  0.20329489503E+04  0.20517300453E+04  0.27697426594E+03 0.  0.
         25    1    3    3    0    0 -0.56544428117E+02 -0.30563055369E+02  0.12049426657E+04  0.12126080160E+04  0.12000000000E+03 0.  0.
         25    1    3    3    0    0  0.56544428117E+02  0.30563055369E+02  0.82800628460E+03  0.83912202929E+03  0.12000000000E+03 0.  0.
<mgrwt>
<rscale>  0 0.27697427E+03</rscale>
<asrwt>0</asrwt>
<pdfrwt beam="1">  1        1 0.31420572E+00 0.27697427E+03</pdfrwt>
<pdfrwt beam="2">  1       -1 0.14447012E-02 0.27697427E+03</pdfrwt>
<totfact> 0.34909097E+03</totfact>
</mgrwt>
</event>
<event>
 5    1  0.1129390E+001  0.2743589E+03  0.7818608E-02  0.1098811E+00
         -4   -1    0    0    0  501 -0.00000000000E+00  0.00000000000E+00  0.35729285192E+03  0.35729285192E+03  0.00000000000E+00 0.  1.
          4   -1    0    0  501    0  0.00000000000E+00 -0.00000000000E+00 -0.52668839400E+02  0.52668839400E+02  0.00000000000E+00 0.  1.
         35    2    1    2    0    0  0.00000000000E+00  0.00000000000E+00  0.30462401252E+03  0.40996169132E+03  0.27435888786E+03 0.  0.
         25    1    3    3    0    0 -0.65039564174E+02 -0.15729994826E+01  0.13195609584E+03  0.18985528822E+03  0.12000000000E+03 0.  0.
         25    1    3    3    0    0  0.65039564174E+02  0.15729994826E+01  0.17266791668E+03  0.22010640310E+03  0.12000000000E+03 0.  0.
<mgrwt>
<rscale>  0 0.27435889E+03</rscale>
<asrwt>0</asrwt>
<pdfrwt beam="1">  1        4 0.81028986E-02 0.27435889E+03</pdfrwt>
<pdfrwt beam="2">  1       -4 0.54968130E-01 0.27435889E+03</pdfrwt>
<totfact> 0.64580352E+02</totfact>
</mgrwt>
</event>
<event>
 5    1  0.1129390E+001  0.2737083E+03  0.7818608E-02  0.1099176E+00
          2   -1    0    0  501    0  0.00000000000E+00  0.00000000000E+00  0.59081670903E+03  0.59081670903E+03  0.00000000000E+00 0. -1.
         -2   -1    0    0    0  501 -0.00000000000E+00 -0.00000000000E+00 -0.31700287513E+02  0.31700287513E+02  0.00000000000E+00 0. -1.
         35    2    1    2    0    0  0.00000000000E+00  0.00000000000E+00  0.55911642152E+03  0.62251699655E+03  0.27370830856E+03 0.  0.
         25    1    3    3    0    0 -0.40538383753E+02  0.35003045941E+02  0.19263977612E+03  0.23319231790E+03  0.12000000000E+03 0.  0.
         25    1    3    3    0    0  0.40538383753E+02 -0.35003045941E+02  0.36647664540E+03  0.38932467865E+03  0.12000000000E+03 0.  0.
<mgrwt>
<rscale>  0 0.27370831E+03</rscale>
<asrwt>0</asrwt>
<pdfrwt beam="1">  1        2 0.90894870E-01 0.27370831E+03</pdfrwt>
<pdfrwt beam="2">  1       -2 0.48769678E-02 0.27370831E+03</pdfrwt>
<totfact> 0.10396563E+04</totfact>
</mgrwt>
</event>
<event>
 5    1  0.1129390E+001  0.2749319E+03  0.7818608E-02  0.1098490E+00
         -2   -1    0    0    0  501 -0.00000000000E+00  0.00000000000E+00  0.65908712471E+02  0.65908712471E+02  0.00000000000E+00 0.  1.
          2   -1    0    0  501    0  0.00000000000E+00 -0.00000000000E+00 -0.28671313982E+03  0.28671313982E+03  0.00000000000E+00 0.  1.
         35    2    1    2    0    0  0.00000000000E+00  0.00000000000E+00 -0.22080442735E+03  0.35262185229E+03  0.27493194717E+03 0.  0.
         25    1    3    3    0    0 -0.28758935348E+02 -0.51758670045E+00 -0.32707691921E+02  0.12766024193E+03  0.12000000000E+03 0.  0.
         25    1    3    3    0    0  0.28758935348E+02  0.51758670045E+00 -0.18809673543E+03  0.22496161036E+03  0.12000000000E+03 0.  0.
<mgrwt>
<rscale>  0 0.27493195E+03</rscale>
<asrwt>0</asrwt>
<pdfrwt beam="1">  1        2 0.44109714E-01 0.27493195E+03</pdfrwt>
<pdfrwt beam="2">  1       -2 0.10139802E-01 0.27493195E+03</pdfrwt>
<totfact> 0.73981477E+03</totfact>
</mgrwt>
</event>
<event>
 5    1  0.1129390E+001  0.2749293E+03  0.7818608E-02  0.1098491E+00
          1   -1    0    0  501    0  0.00000000000E+00  0.00000000000E+00  0.61201018236E+03  0.61201018236E+03  0.00000000000E+00 0.  1.
         -1   -1    0    0    0  501 -0.00000000000E+00 -0.00000000000E+00 -0.30876169754E+02  0.30876169754E+02  0.00000000000E+00 0.  1.
         35    2    1    2    0    0  0.00000000000E+00  0.00000000000E+00  0.58113401260E+03  0.64288635211E+03  0.27492930205E+03 0.  0.
         25    1    3    3    0    0  0.14020709025E+02 -0.44363042145E+02  0.40348558161E+03  0.42351537676E+03  0.12000000000E+03 0.  0.
         25    1    3    3    0    0 -0.14020709025E+02  0.44363042145E+02  0.17764843099E+03  0.21937097535E+03  0.12000000000E+03 0.  0.
<mgrwt>
<rscale>  0 0.27492930E+03</rscale>
<asrwt>0</asrwt>
<pdfrwt beam="1">  1        1 0.94155404E-01 0.27492930E+03</pdfrwt>
<pdfrwt beam="2">  1       -1 0.47501804E-02 0.27492930E+03</pdfrwt>
<totfact> 0.64791208E+03</totfact>
</mgrwt>
</event>
<event>
 5    1  0.1129390E+001  0.2758282E+03  0.7818608E-02  0.1097990E+00
          3   -1    0    0  501    0  0.00000000000E+00  0.00000000000E+00  0.55389731752E+03  0.55389731752E+03  0.00000000000E+00 0.  1.
         -3   -1    0    0    0  501 -0.00000000000E+00 -0.00000000000E+00 -0.34339041085E+02  0.34339041085E+02  0.00000000000E+00 0.  1.
         35    2    1    2    0    0  0.00000000000E+00  0.00000000000E+00  0.51955827643E+03  0.58823635860E+03  0.27582822729E+03 0.  0.
         25    1    3    3    0    0 -0.22397654040E+02  0.46942593318E+02  0.16645324220E+03  0.21168831761E+03  0.12000000000E+03 0.  0.
         25    1    3    3    0    0  0.22397654040E+02 -0.46942593318E+02  0.35310503424E+03  0.37654804100E+03  0.12000000000E+03 0.  0.
<mgrwt>
<rscale>  0 0.27582823E+03</rscale>
<asrwt>0</asrwt>
<pdfrwt beam="1">  1        3 0.85214965E-01 0.27582823E+03</pdfrwt>
<pdfrwt beam="2">  1       -3 0.52829298E-02 0.27582823E+03</pdfrwt>
<totfact> 0.68906805E+02</totfact>
</mgrwt>
</event>
<event>
 5    1  0.1129390E+001  0.2760379E+03  0.7818608E-02  0.1097873E+00
         -2   -1    0    0    0  501 -0.00000000000E+00  0.00000000000E+00  0.97673863081E+02  0.97673863081E+02  0.00000000000E+00 0. -1.
          2   -1    0    0  501    0  0.00000000000E+00 -0.00000000000E+00 -0.19502900453E+03  0.19502900453E+03  0.00000000000E+00 0. -1.
         35    2    1    2    0    0  0.00000000000E+00  0.00000000000E+00 -0.97355141445E+02  0.29270286761E+03  0.27603794149E+03 0.  0.
         25    1    3    3    0    0 -0.75460416976E+01  0.24816336311E+02  0.18188465225E+02  0.12411129506E+03  0.12000000000E+03 0.  0.
         25    1    3    3    0    0  0.75460416976E+01 -0.24816336311E+02 -0.11554360667E+03  0.16859157255E+03  0.12000000000E+03 0.  0.
<mgrwt>
<rscale>  0 0.27603794E+03</rscale>
<asrwt>0</asrwt>
<pdfrwt beam="1">  1        2 0.30004462E-01 0.27603794E+03</pdfrwt>
<pdfrwt beam="2">  1       -2 0.15026748E-01 0.27603794E+03</pdfrwt>
<totfact> 0.59411849E+03</totfact>
</mgrwt>
</event>
<event>
 5    1  0.1129390E+001  0.2730089E+03  0.7818608E-02  0.1099570E+00
         -1   -1    0    0    0  501 -0.00000000000E+00  0.00000000000E+00  0.73517245497E+01  0.73517245497E+01  0.00000000000E+00 0. -1.
          1   -1    0    0  501    0  0.00000000000E+00 -0.00000000000E+00 -0.25345697962E+04  0.25345697962E+04  0.00000000000E+00 0. -1.
         35    2    1    2    0    0  0.00000000000E+00  0.00000000000E+00 -0.25272180716E+04  0.25419215207E+04  0.27300885695E+03 0.  0.
         25    1    3    3    0    0  0.19622172665E+02 -0.61892266610E+00 -0.18411802552E+04  0.18451910862E+04  0.12000000000E+03 0.  0.
         25    1    3    3    0    0 -0.19622172665E+02  0.61892266610E+00 -0.68603781646E+03  0.69673043448E+03  0.12000000000E+03 0.  0.
<mgrwt>
<rscale>  0 0.27300886E+03</rscale>
<asrwt>0</asrwt>
<pdfrwt beam="1">  1        1 0.38993396E+00 0.27300886E+03</pdfrwt>
<pdfrwt beam="2">  1       -1 0.11310341E-02 0.27300886E+03</pdfrwt>
<totfact> 0.23665717E+03</totfact>
</mgrwt>
</event>
<event>
 5    1  0.1129390E+001  0.2752283E+03  0.7818608E-02  0.1098324E+00
         -1   -1    0    0    0  501 -0.00000000000E+00  0.00000000000E+00  0.13120096402E+03  0.13120096402E+03  0.00000000000E+00 0. -1.
          1   -1    0    0  501    0  0.00000000000E+00 -0.00000000000E+00 -0.14434083892E+03  0.14434083892E+03  0.00000000000E+00 0. -1.
         35    2    1    2    0    0  0.00000000000E+00  0.00000000000E+00 -0.13139874903E+02  0.27554180294E+03  0.27522832132E+03 0.  0.
         25    1    3    3    0    0  0.10444276081E+02 -0.64913571256E+02  0.81029004365E+01  0.13707119184E+03  0.12000000000E+03 0.  0.
         25    1    3    3    0    0 -0.10444276081E+02  0.64913571256E+02 -0.21242775340E+02  0.13847061111E+03  0.12000000000E+03 0.  0.
<mgrwt>
<rscale>  0 0.27522832E+03</rscale>
<asrwt>0</asrwt>
<pdfrwt beam="1">  1        1 0.22206283E-01 0.27522832E+03</pdfrwt>
<pdfrwt beam="2">  1       -1 0.20184764E-01 0.27522832E+03</pdfrwt>
<totfact> 0.43997944E+03</totfact>
</mgrwt>
</event>
<event>
 5    1  0.1129390E+001  0.2745311E+03  0.7818608E-02  0.1098714E+00
         -3   -1    0    0    0  501 -0.00000000000E+00  0.00000000000E+00  0.19141217280E+02  0.19141217280E+02  0.00000000000E+00 0.  1.
          3   -1    0    0  501    0  0.00000000000E+00 -0.00000000000E+00 -0.98435925207E+03  0.98435925207E+03  0.00000000000E+00 0.  1.
         35    2    1    2    0    0  0.00000000000E+00  0.00000000000E+00 -0.96521803479E+03  0.10035004694E+04  0.27453112265E+03 0.  0.
         25    1    3    3    0    0 -0.63639914779E+02  0.54298697285E+01 -0.55218629074E+03  0.56867321189E+03  0.12000000000E+03 0.  0.
         25    1    3    3    0    0  0.63639914779E+02 -0.54298697285E+01 -0.41303174406E+03  0.43482725747E+03  0.12000000000E+03 0.  0.
<mgrwt>
<rscale>  0 0.27453112E+03</rscale>
<asrwt>0</asrwt>
<pdfrwt beam="1">  1        3 0.15143990E+00 0.27453112E+03</pdfrwt>
<pdfrwt beam="2">  1       -3 0.29448024E-02 0.27453112E+03</pdfrwt>
<totfact> 0.44554328E+02</totfact>
</mgrwt>
</event>
<event>
 5    1  0.1129390E+001  0.2758082E+03  0.7818608E-02  0.1098001E+00
         -2   -1    0    0    0  501 -0.00000000000E+00  0.00000000000E+00  0.25755249427E+03  0.25755249427E+03  0.00000000000E+00 0.  1.
          2   -1    0    0  501    0  0.00000000000E+00 -0.00000000000E+00 -0.73839469260E+02  0.73839469260E+02  0.00000000000E+00 0.  1.
         35    2    1    2    0    0  0.00000000000E+00  0.00000000000E+00  0.18371302501E+03  0.33139196353E+03  0.27580819047E+03 0.  0.
         25    1    3    3    0    0  0.48490026269E+02 -0.83315391161E+01  0.35540194367E+02  0.13447602986E+03  0.12000000000E+03 0.  0.
         25    1    3    3    0    0 -0.48490026269E+02  0.83315391161E+01  0.14817283064E+03  0.19691593367E+03  0.12000000000E+03 0.  0.
<mgrwt>
<rscale>  0 0.27580819E+03</rscale>
<asrwt>0</asrwt>
<pdfrwt beam="1">  1        2 0.11359919E-01 0.27580819E+03</pdfrwt>
<pdfrwt beam="2">  1       -2 0.39623460E-01 0.27580819E+03</pdfrwt>
<totfact> 0.33026395E+03</totfact>
</mgrwt>
</event>
<event>
 5    1  0.1129390E+001  0.2768092E+03  0.7818608E-02  0.1097445E+00
         -1   -1    0    0    0  501 -0.00000000000E+00  0.00000000000E+00  0.88072330736E+02  0.88072330736E+02  0.00000000000E+00 0. -1.
          1   -1    0    0  501    0  0.00000000000E+00 -0.00000000000E+00 -0.21750109815E+03  0.21750109815E+03  0.00000000000E+00 0. -1.
         35    2    1    2    0    0  0.00000000000E+00  0.00000000000E+00 -0.12942876742E+03  0.30557342889E+03  0.27680916641E+03 0.  0.
         25    1    3    3    0    0 -0.62801892502E+02 -0.77789829261E-01 -0.33262627254E+02  0.13946499964E+03  0.12000000000E+03 0.  0.
         25    1    3    3    0    0  0.62801892502E+02  0.77789829261E-01 -0.96166140162E+02  0.16610842925E+03  0.12000000000E+03 0.  0.
<mgrwt>
<rscale>  0 0.27680917E+03</rscale>
<asrwt>0</asrwt>
<pdfrwt beam="1">  1        1 0.33461707E-01 0.27680917E+03</pdfrwt>
<pdfrwt beam="2">  1       -1 0.13549589E-01 0.27680917E+03</pdfrwt>
<totfact> 0.49501861E+03</totfact>
</mgrwt>
</event>
<event>
 5    1  0.1129390E+001  0.2749311E+03  0.7818608E-02  0.1098490E+00
          1   -1    0    0  501    0  0.00000000000E+00  0.00000000000E+00  0.28578214814E+03  0.28578214814E+03  0.00000000000E+00 0.  1.
         -1   -1    0    0    0  501 -0.00000000000E+00 -0.00000000000E+00 -0.66123008557E+02  0.66123008557E+02  0.00000000000E+00 0.  1.
         35    2    1    2    0    0  0.00000000000E+00  0.00000000000E+00  0.21965913958E+03  0.35190515670E+03  0.27493108538E+03 0.  0.
         25    1    3    3    0    0  0.60759409177E+02  0.20083682106E+02  0.13548391832E+03  0.19196601838E+03  0.12000000000E+03 0.  0.
         25    1    3    3    0    0 -0.60759409177E+02 -0.20083682106E+02  0.84175221268E+02  0.15993913832E+03  0.12000000000E+03 0.  0.
<mgrwt>
<rscale>  0 0.27493109E+03</rscale>
<asrwt>0</asrwt>
<pdfrwt beam="1">  1        1 0.43966484E-01 0.27493109E+03</pdfrwt>
<pdfrwt beam="2">  1       -1 0.10172771E-01 0.27493109E+03</pdfrwt>
<totfact> 0.54938857E+03</totfact>
</mgrwt>
</event>
<event>
 5    1  0.1129390E+001  0.2752380E+03  0.7818608E-02  0.1098319E+00
          1   -1    0    0  501    0  0.00000000000E+00  0.00000000000E+00  0.75076818405E+03  0.75076818405E+03  0.00000000000E+00 0.  1.
         -1   -1    0    0    0  501 -0.00000000000E+00 -0.00000000000E+00 -0.25226151274E+02  0.25226151274E+02  0.00000000000E+00 0.  1.
         35    2    1    2    0    0  0.00000000000E+00  0.00000000000E+00  0.72554203277E+03  0.77599433532E+03  0.27523801905E+03 0.  0.
         25    1    3    3    0    0 -0.13919893644E+02 -0.64838822445E+02  0.32927455358E+03  0.35667852188E+03  0.12000000000E+03 0.  0.
         25    1    3    3    0    0  0.13919893644E+02  0.64838822445E+02  0.39626747920E+03  0.41931581344E+03  0.12000000000E+03 0.  0.
<mgrwt>
<rscale>  0 0.27523802E+03</rscale>
<asrwt>0</asrwt>
<pdfrwt beam="1">  1        1 0.11550278E+00 0.27523802E+03</pdfrwt>
<pdfrwt beam="2">  1       -1 0.38809469E-02 0.27523802E+03</pdfrwt>
<totfact> 0.65185896E+03</totfact>
</mgrwt>
</event>
<event>
 5    1  0.1129390E+001  0.2751971E+03  0.7818608E-02  0.1098341E+00
         -1   -1    0    0    0  501 -0.00000000000E+00  0.00000000000E+00  0.14272855135E+02  0.14272855135E+02  0.00000000000E+00 0. -1.
          1   -1    0    0  501    0  0.00000000000E+00 -0.00000000000E+00 -0.13265291491E+04  0.13265291491E+04  0.00000000000E+00 0. -1.
         35    2    1    2    0    0  0.00000000000E+00  0.00000000000E+00 -0.13122562940E+04  0.13408020043E+04  0.27519708122E+03 0.  0.
         25    1    3    3    0    0  0.44189918842E+02 -0.46112629193E+02 -0.75996728322E+03  0.77202940039E+03  0.12000000000E+03 0.  0.
         25    1    3    3    0    0 -0.44189918842E+02  0.46112629193E+02 -0.55228901078E+03  0.56877260388E+03  0.12000000000E+03 0.  0.
<mgrwt>
<rscale>  0 0.27519708E+03</rscale>
<asrwt>0</asrwt>
<pdfrwt beam="1">  1        1 0.20408139E+00 0.27519708E+03</pdfrwt>
<pdfrwt beam="2">  1       -1 0.21958241E-02 0.27519708E+03</pdfrwt>
<totfact> 0.55955492E+03</totfact>
</mgrwt>
</event>
<event>
 5    1  0.1129390E+001  0.2747360E+03  0.7818608E-02  0.1098599E+00
          2   -1    0    0  501    0  0.00000000000E+00  0.00000000000E+00  0.28047947619E+03  0.28047947619E+03  0.00000000000E+00 0. -1.
         -2   -1    0    0    0  501 -0.00000000000E+00 -0.00000000000E+00 -0.67277551216E+02  0.67277551216E+02  0.00000000000E+00 0. -1.
         35    2    1    2    0    0  0.00000000000E+00  0.00000000000E+00  0.21320192497E+03  0.34775702740E+03  0.27473603567E+03 0.  0.
         25    1    3    3    0    0  0.17071603230E+02  0.56624406329E+02  0.14606851287E+03  0.19807517129E+03  0.12000000000E+03 0.  0.
         25    1    3    3    0    0 -0.17071603230E+02 -0.56624406329E+02  0.67133412096E+02  0.14968185611E+03  0.12000000000E+03 0.  0.
<mgrwt>
<rscale>  0 0.27473604E+03</rscale>
<asrwt>0</asrwt>
<pdfrwt beam="1">  1        2 0.43150688E-01 0.27473604E+03</pdfrwt>
<pdfrwt beam="2">  1       -2 0.10350393E-01 0.27473604E+03</pdfrwt>
<totfact> 0.73309774E+03</totfact>
</mgrwt>
</event>
<event>
 5    1  0.1129390E+001  0.2749159E+03  0.7818608E-02  0.1098499E+00
         -3   -1    0    0    0  501 -0.00000000000E+00  0.00000000000E+00  0.22422957785E+02  0.22422957785E+02  0.00000000000E+00 0.  1.
          3   -1    0    0  501    0  0.00000000000E+00 -0.00000000000E+00 -0.84264914327E+03  0.84264914327E+03  0.00000000000E+00 0.  1.
         35    2    1    2    0    0  0.00000000000E+00  0.00000000000E+00 -0.82022618548E+03  0.86507210105E+03  0.27491588654E+03 0.  0.
         25    1    3    3    0    0 -0.28964468439E+02  0.60437224891E+02 -0.41564228614E+03  0.43777860684E+03  0.12000000000E+03 0.  0.
         25    1    3    3    0    0  0.28964468439E+02 -0.60437224891E+02 -0.40458389934E+03  0.42729349421E+03  0.12000000000E+03 0.  0.
<mgrwt>
<rscale>  0 0.27491589E+03</rscale>
<asrwt>0</asrwt>
<pdfrwt beam="1">  1        3 0.12963830E+00 0.27491589E+03</pdfrwt>
<pdfrwt beam="2">  1       -3 0.34496865E-02 0.27491589E+03</pdfrwt>
<totfact> 0.51139943E+02</totfact>
</mgrwt>
</event>
<event>
 5    1  0.1129390E+001  0.2752419E+03  0.7818608E-02  0.1098316E+00
          2   -1    0    0  501    0  0.00000000000E+00  0.00000000000E+00  0.14459777928E+03  0.14459777928E+03  0.00000000000E+00 0. -1.
         -2   -1    0    0    0  501 -0.00000000000E+00 -0.00000000000E+00 -0.13098076714E+03  0.13098076714E+03  0.00000000000E+00 0. -1.
         35    2    1    2    0    0  0.00000000000E+00  0.00000000000E+00  0.13617012144E+02  0.27557854642E+03  0.27524191583E+03 0.  0.
         25    1    3    3    0    0  0.14507805315E+02  0.45429005878E+02 -0.40844420746E+02  0.13543462517E+03  0.12000000000E+03 0.  0.
         25    1    3    3    0    0 -0.14507805315E+02 -0.45429005878E+02  0.54461432890E+02  0.14014392125E+03  0.12000000000E+03 0.  0.
<mgrwt>
<rscale>  0 0.27524192E+03</rscale>
<asrwt>0</asrwt>
<pdfrwt beam="1">  1        2 0.22245812E-01 0.27524192E+03</pdfrwt>
<pdfrwt beam="2">  1       -2 0.20150887E-01 0.27524192E+03</pdfrwt>
<totfact> 0.50622798E+03</totfact>
</mgrwt>
</event>
<event>
 5    1  0.1129390E+001  0.2641103E+03  0.7818608E-02  0.1104699E+00
         -2   -1    0    0    0  501 -0.00000000000E+00  0.00000000000E+00  0.56372503257E+03  0.56372503257E+03  0.00000000000E+00 0. -1.
          2   -1    0    0  501    0  0.00000000000E+00 -0.00000000000E+00 -0.30934520857E+02  0.30934520857E+02  0.00000000000E+00 0. -1.
         35    2    1    2    0    0  0.00000000000E+00  0.00000000000E+00  0.53279051171E+03  0.59465955343E+03  0.26411030860E+03 0.  0.
         25    1    3    3    0    0 -0.33832693812E+02  0.31634923536E+02  0.19910629157E+03  0.23704163115E+03  0.12000000000E+03 0.  0.
         25    1    3    3    0    0  0.33832693812E+02 -0.31634923536E+02  0.33368422015E+03  0.35761792228E+03  0.12000000000E+03 0.  0.
<mgrwt>
<rscale>  0 0.26411031E+03</rscale>
<asrwt>0</asrwt>
<pdfrwt beam="1">  1        2 0.47591575E-02 0.26411031E+03</pdfrwt>
<pdfrwt beam="2">  1       -2 0.86726921E-01 0.26411031E+03</pdfrwt>
<totfact> 0.19895620E+03</totfact>
</mgrwt>
</event>
<event>
 5    1  0.1129390E+001  0.2748188E+03  0.7818608E-02  0.1098553E+00
         -1   -1    0    0    0  501 -0.00000000000E+00  0.00000000000E+00  0.54099126783E+02  0.54099126783E+02  0.00000000000E+00 0.  1.
          1   -1    0    0  501    0  0.00000000000E+00 -0.00000000000E+00 -0.34901384186E+03  0.34901384186E+03  0.00000000000E+00 0.  1.
         35    2    1    2    0    0  0.00000000000E+00  0.00000000000E+00 -0.29491471507E+03  0.40311296864E+03  0.27481880634E+03 0.  0.
         25    1    3    3    0    0 -0.52906802015E+02 -0.14042128326E+02 -0.90931341773E+02  0.16020243439E+03  0.12000000000E+03 0.  0.
         25    1    3    3    0    0  0.52906802015E+02  0.14042128326E+02 -0.20398337330E+03  0.24291053425E+03  0.12000000000E+03 0.  0.
<mgrwt>
<rscale>  0 0.27481881E+03</rscale>
<asrwt>0</asrwt>
<pdfrwt beam="1">  1        1 0.53694437E-01 0.27481881E+03</pdfrwt>
<pdfrwt beam="2">  1       -1 0.83229426E-02 0.27481881E+03</pdfrwt>
<totfact> 0.58146325E+03</totfact>
</mgrwt>
</event>
<event>
 5    1  0.1129390E+001  0.2743098E+03  0.7818608E-02  0.1098838E+00
         -1   -1    0    0    0  501 -0.00000000000E+00  0.00000000000E+00  0.15322526055E+03  0.15322526055E+03  0.00000000000E+00 0. -1.
          1   -1    0    0  501    0  0.00000000000E+00 -0.00000000000E+00 -0.12277000355E+03  0.12277000355E+03  0.00000000000E+00 0. -1.
         35    2    1    2    0    0  0.00000000000E+00  0.00000000000E+00  0.30455257000E+02  0.27599526411E+03  0.27430979408E+03 0.  0.
         25    1    3    3    0    0  0.76246446041E+01  0.59026202423E+02 -0.14436368525E+02  0.13472429816E+03  0.12000000000E+03 0.  0.
         25    1    3    3    0    0 -0.76246446041E+01 -0.59026202423E+02  0.44891625525E+02  0.14127096595E+03  0.12000000000E+03 0.  0.
<mgrwt>
<rscale>  0 0.27430979E+03</rscale>
<asrwt>0</asrwt>
<pdfrwt beam="1">  1        1 0.18887693E-01 0.27430979E+03</pdfrwt>
<pdfrwt beam="2">  1       -1 0.23573117E-01 0.27430979E+03</pdfrwt>
<totfact> 0.42009373E+03</totfact>
</mgrwt>
</event>
<event>
 5    1  0.1129390E+001  0.2750813E+03  0.7818608E-02  0.1098406E+00
         -2   -1    0    0    0  501 -0.00000000000E+00  0.00000000000E+00  0.22435987999E+03  0.22435987999E+03  0.00000000000E+00 0.  1.
          2   -1    0    0  501    0  0.00000000000E+00 -0.00000000000E+00 -0.84317375308E+02  0.84317375308E+02  0.00000000000E+00 0.  1.
         35    2    1    2    0    0  0.00000000000E+00  0.00000000000E+00  0.14004250468E+03  0.30867725529E+03  0.27508134219E+03 0.  0.
         25    1    3    3    0    0  0.11441482821E+02 -0.10495051129E+01 -0.42891219729E+01  0.12062506190E+03  0.12000000000E+03 0.  0.
         25    1    3    3    0    0 -0.11441482821E+02  0.10495051129E+01  0.14433162665E+03  0.18805219340E+03  0.12000000000E+03 0.  0.
<mgrwt>
<rscale>  0 0.27508134E+03</rscale>
<asrwt>0</asrwt>
<pdfrwt beam="1">  1        2 0.12971904E-01 0.27508134E+03</pdfrwt>
<pdfrwt beam="2">  1       -2 0.34516904E-01 0.27508134E+03</pdfrwt>
<totfact> 0.36440433E+03</totfact>
</mgrwt>
</event>
<event>
 5    1  0.1129390E+001  0.2740747E+03  0.7818608E-02  0.1098970E+00
         -2   -1    0    0    0  501 -0.00000000000E+00  0.00000000000E+00  0.19102415015E+02  0.19102415015E+02  0.00000000000E+00 0. -1.
          2   -1    0    0  501    0  0.00000000000E+00 -0.00000000000E+00 -0.98308197935E+03  0.98308197935E+03  0.00000000000E+00 0. -1.
         35    2    1    2    0    0  0.00000000000E+00  0.00000000000E+00 -0.96397956434E+03  0.10021843944E+04  0.27407473407E+03 0.  0.
         25    1    3    3    0    0 -0.25217776725E+02  0.11117571370E+02 -0.26199361135E+03  0.28948262304E+03  0.12000000000E+03 0.  0.
         25    1    3    3    0    0  0.25217776725E+02 -0.11117571370E+02 -0.70198595299E+03  0.71270177132E+03  0.12000000000E+03 0.  0.
<mgrwt>
<rscale>  0 0.27407473E+03</rscale>
<asrwt>0</asrwt>
<pdfrwt beam="1">  1        2 0.15124339E+00 0.27407473E+03</pdfrwt>
<pdfrwt beam="2">  1       -2 0.29388328E-02 0.27407473E+03</pdfrwt>
<totfact> 0.11717166E+04</totfact>
</mgrwt>
</event>
<event>
 5    1  0.1129390E+001  0.2742304E+03  0.7818608E-02  0.1098883E+00
          1   -1    0    0  501    0  0.00000000000E+00  0.00000000000E+00  0.72826479480E+03  0.72826479480E+03  0.00000000000E+00 0.  1.
         -1   -1    0    0    0  501 -0.00000000000E+00 -0.00000000000E+00 -0.25815588211E+02  0.25815588211E+02  0.00000000000E+00 0.  1.
         35    2    1    2    0    0  0.00000000000E+00  0.00000000000E+00  0.70244920659E+03  0.75408038301E+03  0.27423044361E+03 0.  0.
         25    1    3    3    0    0 -0.52942521874E+02 -0.12586036882E+02  0.24690345119E+03  0.27986181082E+03  0.12000000000E+03 0.  0.
         25    1    3    3    0    0  0.52942521874E+02  0.12586036882E+02  0.45554575540E+03  0.47421857219E+03  0.12000000000E+03 0.  0.
<mgrwt>
<rscale>  0 0.27423044E+03</rscale>
<asrwt>0</asrwt>
<pdfrwt beam="1">  1        1 0.11204072E+00 0.27423044E+03</pdfrwt>
<pdfrwt beam="2">  1       -1 0.39716295E-02 0.27423044E+03</pdfrwt>
<totfact> 0.65900424E+03</totfact>
</mgrwt>
</event>
<event>
 5    1  0.1129390E+001  0.2777578E+03  0.7818608E-02  0.1096920E+00
          2   -1    0    0  501    0  0.00000000000E+00  0.00000000000E+00  0.91501770305E+03  0.91501770305E+03  0.00000000000E+00 0. -1.
         -2   -1    0    0    0  501 -0.00000000000E+00 -0.00000000000E+00 -0.21078660532E+02  0.21078660532E+02  0.00000000000E+00 0. -1.
         35    2    1    2    0    0  0.00000000000E+00  0.00000000000E+00  0.89393904251E+03  0.93609636358E+03  0.27775779048E+03 0.  0.
         25    1    3    3    0    0  0.65931415228E+02 -0.47001963344E+01  0.37024279528E+03  0.39477686205E+03  0.12000000000E+03 0.  0.
         25    1    3    3    0    0 -0.65931415228E+02  0.47001963344E+01  0.52369624724E+03  0.54131950152E+03  0.12000000000E+03 0.  0.
<mgrwt>
<rscale>  0 0.27775779E+03</rscale>
<asrwt>0</asrwt>
<pdfrwt beam="1">  1        2 0.14077192E+00 0.27775779E+03</pdfrwt>
<pdfrwt beam="2">  1       -2 0.32428716E-02 0.27775779E+03</pdfrwt>
<totfact> 0.11171172E+04</totfact>
</mgrwt>
</event>
<event>
 5    1  0.1129390E+001  0.2750623E+03  0.7818608E-02  0.1098417E+00
          2   -1    0    0  501    0  0.00000000000E+00  0.00000000000E+00  0.17471999033E+03  0.17471999033E+03  0.00000000000E+00 0. -1.
         -2   -1    0    0    0  501 -0.00000000000E+00 -0.00000000000E+00 -0.10825788410E+03  0.10825788410E+03  0.00000000000E+00 0. -1.
         35    2    1    2    0    0  0.00000000000E+00  0.00000000000E+00  0.66462106226E+02  0.28297787443E+03  0.27506229449E+03 0.  0.
         25    1    3    3    0    0  0.40339461920E+02  0.51631818106E+02  0.17912988160E+02  0.13789123240E+03  0.12000000000E+03 0.  0.
         25    1    3    3    0    0 -0.40339461920E+02 -0.51631818106E+02  0.48549118066E+02  0.14508664202E+03  0.12000000000E+03 0.  0.
<mgrwt>
<rscale>  0 0.27506229E+03</rscale>
<asrwt>0</asrwt>
<pdfrwt beam="1">  1        2 0.26879998E-01 0.27506229E+03</pdfrwt>
<pdfrwt beam="2">  1       -2 0.16655059E-01 0.27506229E+03</pdfrwt>
<totfact> 0.56523903E+03</totfact>
</mgrwt>
</event>
<event>
 5    1  0.1129390E+001  0.2745195E+03  0.7818608E-02  0.1098720E+00
         -2   -1    0    0    0  501 -0.00000000000E+00  0.00000000000E+00  0.13676038640E+03  0.13676038640E+03  0.00000000000E+00 0.  1.
          2   -1    0    0  501    0  0.00000000000E+00 -0.00000000000E+00 -0.13776092749E+03  0.13776092749E+03  0.00000000000E+00 0.  1.
         35    2    1    2    0    0  0.00000000000E+00  0.00000000000E+00 -0.10005410985E+01  0.27452131389E+03  0.27451949056E+03 0.  0.
         25    1    3    3    0    0  0.58610123208E+02 -0.29876934520E+02 -0.11105052930E+02  0.13729930793E+03  0.12000000000E+03 0.  0.
         25    1    3    3    0    0 -0.58610123208E+02  0.29876934520E+02  0.10104511832E+02  0.13722200595E+03  0.12000000000E+03 0.  0.
<mgrwt>
<rscale>  0 0.27451949E+03</rscale>
<asrwt>0</asrwt>
<pdfrwt beam="1">  1        2 0.21193989E-01 0.27451949E+03</pdfrwt>
<pdfrwt beam="2">  1       -2 0.21040060E-01 0.27451949E+03</pdfrwt>
<totfact> 0.49655538E+03</totfact>
</mgrwt>
</event>
<event>
 5    1  0.1129390E+001  0.2751675E+03  0.7818608E-02  0.1098358E+00
         -3   -1    0    0    0  501 -0.00000000000E+00  0.00000000000E+00  0.47471058885E+03  0.47471058885E+03  0.00000000000E+00 0. -1.
          3   -1    0    0  501    0  0.00000000000E+00 -0.00000000000E+00 -0.39875437051E+02  0.39875437051E+02  0.00000000000E+00 0. -1.
         35    2    1    2    0    0  0.00000000000E+00  0.00000000000E+00  0.43483515179E+03  0.51458602590E+03  0.27516752863E+03 0.  0.
         25    1    3    3    0    0  0.97103219926E+01 -0.18313815933E+02  0.97679613108E+02  0.15611211684E+03  0.12000000000E+03 0.  0.
         25    1    3    3    0    0 -0.97103219926E+01  0.18313815933E+02  0.33715553869E+03  0.35847390906E+03  0.12000000000E+03 0.  0.
<mgrwt>
<rscale>  0 0.27516753E+03</rscale>
<asrwt>0</asrwt>
<pdfrwt beam="1">  1        3 0.61346829E-02 0.27516753E+03</pdfrwt>
<pdfrwt beam="2">  1       -3 0.73032395E-01 0.27516753E+03</pdfrwt>
<totfact> 0.75813945E+02</totfact>
</mgrwt>
</event>
<event>
 5    1  0.1129390E+001  0.2751192E+03  0.7818608E-02  0.1098385E+00
          1   -1    0    0  501    0  0.00000000000E+00  0.00000000000E+00  0.21952797508E+03  0.21952797508E+03  0.00000000000E+00 0. -1.
         -1   -1    0    0    0  501 -0.00000000000E+00 -0.00000000000E+00 -0.86196941709E+02  0.86196941709E+02  0.00000000000E+00 0. -1.
         35    2    1    2    0    0  0.00000000000E+00  0.00000000000E+00  0.13333103337E+03  0.30572491679E+03  0.27511917470E+03 0.  0.
         25    1    3    3    0    0  0.49399624903E+02 -0.41323956760E+02  0.45156451904E+02  0.14348204589E+03  0.12000000000E+03 0.  0.
         25    1    3    3    0    0 -0.49399624903E+02  0.41323956760E+02  0.88174581470E+02  0.16224287091E+03  0.12000000000E+03 0.  0.
<mgrwt>
<rscale>  0 0.27511917E+03</rscale>
<asrwt>0</asrwt>
<pdfrwt beam="1">  1        1 0.33773534E-01 0.27511917E+03</pdfrwt>
<pdfrwt beam="2">  1       -1 0.13261068E-01 0.27511917E+03</pdfrwt>
<totfact> 0.50603818E+03</totfact>
</mgrwt>
</event>
<event>
 5    1  0.1129390E+001  0.2783428E+03  0.7818608E-02  0.1096598E+00
         -2   -1    0    0    0  501 -0.00000000000E+00  0.00000000000E+00  0.94108385397E+01  0.94108385397E+01  0.00000000000E+00 0. -1.
          2   -1    0    0  501    0  0.00000000000E+00 -0.00000000000E+00 -0.20581244274E+04  0.20581244274E+04  0.00000000000E+00 0. -1.
         35    2    1    2    0    0  0.00000000000E+00  0.00000000000E+00 -0.20487135889E+04  0.20675352659E+04  0.27834278637E+03 0.  0.
         25    1    3    3    0    0 -0.47050162064E+02 -0.36326322445E+02 -0.13057754967E+04  0.13126244578E+04  0.12000000000E+03 0.  0.
         25    1    3    3    0    0  0.47050162064E+02  0.36326322445E+02 -0.74293809220E+03  0.75491080818E+03  0.12000000000E+03 0.  0.
<mgrwt>
<rscale>  0 0.27834279E+03</rscale>
<asrwt>0</asrwt>
<pdfrwt beam="1">  1        2 0.31663432E+00 0.27834279E+03</pdfrwt>
<pdfrwt beam="2">  1       -2 0.14478223E-02 0.27834279E+03</pdfrwt>
<totfact> 0.86038190E+03</totfact>
</mgrwt>
</event>
<event>
 5    1  0.1129390E+001  0.2752376E+03  0.7818608E-02  0.1098319E+00
         -2   -1    0    0    0  501 -0.00000000000E+00  0.00000000000E+00  0.13686836432E+02  0.13686836432E+02  0.00000000000E+00 0.  1.
          2   -1    0    0  501    0  0.00000000000E+00 -0.00000000000E+00 -0.13837337896E+04  0.13837337896E+04  0.00000000000E+00 0.  1.
         35    2    1    2    0    0  0.00000000000E+00  0.00000000000E+00 -0.13700469531E+04  0.13974206260E+04  0.27523762856E+03 0.  0.
         25    1    3    3    0    0  0.53246486697E+02 -0.39918865963E+02 -0.73832956392E+03  0.75097220265E+03  0.12000000000E+03 0.  0.
         25    1    3    3    0    0 -0.53246486697E+02  0.39918865963E+02 -0.63171738922E+03  0.64644842334E+03  0.12000000000E+03 0.  0.
<mgrwt>
<rscale>  0 0.27523763E+03</rscale>
<asrwt>0</asrwt>
<pdfrwt beam="1">  1        2 0.21288215E+00 0.27523763E+03</pdfrwt>
<pdfrwt beam="2">  1       -2 0.21056668E-02 0.27523763E+03</pdfrwt>
<totfact> 0.11298369E+04</totfact>
</mgrwt>
</event>
<event>
 5    1  0.1129390E+001  0.2746835E+03  0.7818608E-02  0.1098629E+00
         -2   -1    0    0    0  501 -0.00000000000E+00  0.00000000000E+00  0.51843667547E+01  0.51843667547E+01  0.00000000000E+00 0.  1.
          2   -1    0    0  501    0  0.00000000000E+00 -0.00000000000E+00 -0.36383915063E+04  0.36383915063E+04  0.00000000000E+00 0.  1.
         35    2    1    2    0    0  0.00000000000E+00  0.00000000000E+00 -0.36332071395E+04  0.36435758730E+04  0.27468349762E+03 0.  0.
         25    1    3    3    0    0 -0.22320766929E+02  0.12691660996E+02 -0.99854436321E+03  0.10060567281E+04  0.12000000000E+03 0.  0.
         25    1    3    3    0    0  0.22320766929E+02 -0.12691660996E+02 -0.26346627763E+04  0.26375191449E+04  0.12000000000E+03 0.  0.
<mgrwt>
<rscale>  0 0.27468350E+03</rscale>
<asrwt>0</asrwt>
<pdfrwt beam="1">  1        2 0.55975076E+00 0.27468350E+03</pdfrwt>
<pdfrwt beam="2">  1       -2 0.79759743E-03 0.27468350E+03</pdfrwt>
<totfact> 0.24214567E+03</totfact>
</mgrwt>
</event>
<event>
 5    1  0.1129390E+001  0.2746678E+03  0.7818608E-02  0.1098637E+00
          3   -1    0    0  501    0  0.00000000000E+00  0.00000000000E+00  0.12478758072E+03  0.12478758072E+03  0.00000000000E+00 0.  1.
         -3   -1    0    0    0  501 -0.00000000000E+00 -0.00000000000E+00 -0.15114160586E+03  0.15114160586E+03  0.00000000000E+00 0.  1.
         35    2    1    2    0    0  0.00000000000E+00  0.00000000000E+00 -0.26354025139E+02  0.27592918658E+03  0.27466776543E+03 0.  0.
         25    1    3    3    0    0  0.64654097353E+02  0.69971244869E+01  0.21074356828E+01  0.13650477406E+03  0.12000000000E+03 0.  0.
         25    1    3    3    0    0 -0.64654097353E+02 -0.69971244869E+01 -0.28461460822E+02  0.13942441252E+03  0.12000000000E+03 0.  0.
<mgrwt>
<rscale>  0 0.27466777E+03</rscale>
<asrwt>0</asrwt>
<pdfrwt beam="1">  1        3 0.19198089E-01 0.27466777E+03</pdfrwt>
<pdfrwt beam="2">  1       -3 0.23252555E-01 0.27466777E+03</pdfrwt>
<totfact> 0.10513634E+03</totfact>
</mgrwt>
</event>
<event>
 5    1  0.1129390E+001  0.2742803E+03  0.7818608E-02  0.1098855E+00
          2   -1    0    0  501    0  0.00000000000E+00  0.00000000000E+00  0.86335664404E+03  0.86335664404E+03  0.00000000000E+00 0. -1.
         -2   -1    0    0    0  501 -0.00000000000E+00 -0.00000000000E+00 -0.21784075919E+02  0.21784075919E+02  0.00000000000E+00 0. -1.
         35    2    1    2    0    0  0.00000000000E+00  0.00000000000E+00  0.84157256812E+03  0.88514071996E+03  0.27428034329E+03 0.  0.
         25    1    3    3    0    0  0.49039972593E+02 -0.44200897845E+02  0.44332742577E+03  0.46400198784E+03  0.12000000000E+03 0.  0.
         25    1    3    3    0    0 -0.49039972593E+02  0.44200897845E+02  0.39824514235E+03  0.42113873212E+03  0.12000000000E+03 0.  0.
<mgrwt>
<rscale>  0 0.27428034E+03</rscale>
<asrwt>0</asrwt>
<pdfrwt beam="1">  1        2 0.13282407E+00 0.27428034E+03</pdfrwt>
<pdfrwt beam="2">  1       -2 0.33513970E-02 0.27428034E+03</pdfrwt>
<totfact> 0.11486097E+04</totfact>
</mgrwt>
</event>
<event>
 5    1  0.1129390E+001  0.2752055E+03  0.7818608E-02  0.1098337E+00
          3   -1    0    0  501    0  0.00000000000E+00  0.00000000000E+00  0.21893113687E+02  0.21893113687E+02  0.00000000000E+00 0.  1.
         -3   -1    0    0    0  501 -0.00000000000E+00 -0.00000000000E+00 -0.86486166341E+03  0.86486166341E+03  0.00000000000E+00 0.  1.
         35    2    1    2    0    0  0.00000000000E+00  0.00000000000E+00 -0.84296854973E+03  0.88675477710E+03  0.27520548483E+03 0.  0.
         25    1    3    3    0    0  0.20395252616E+01  0.17340039265E+02 -0.63104027952E+03  0.64258592500E+03  0.12000000000E+03 0.  0.
         25    1    3    3    0    0 -0.20395252616E+01 -0.17340039265E+02 -0.21192827020E+03  0.24416885210E+03  0.12000000000E+03 0.  0.
<mgrwt>
<rscale>  0 0.27520548E+03</rscale>
<asrwt>0</asrwt>
<pdfrwt beam="1">  1        3 0.33681707E-02 0.27520548E+03</pdfrwt>
<pdfrwt beam="2">  1       -3 0.13305566E+00 0.27520548E+03</pdfrwt>
<totfact> 0.49677550E+02</totfact>
</mgrwt>
</event>
<event>
 5    1  0.1129390E+001  0.2754883E+03  0.7818608E-02  0.1098179E+00
         -4   -1    0    0    0  501 -0.00000000000E+00  0.00000000000E+00  0.37627989948E+03  0.37627989948E+03  0.00000000000E+00 0. -1.
          4   -1    0    0  501    0  0.00000000000E+00 -0.00000000000E+00 -0.50423773731E+02  0.50423773731E+02  0.00000000000E+00 0. -1.
         35    2    1    2    0    0  0.00000000000E+00  0.00000000000E+00  0.32585612575E+03  0.42670367321E+03  0.27548831199E+03 0.  0.
         25    1    3    3    0    0  0.63060594289E+02 -0.22112370455E+02  0.17901403957E+03  0.22563603844E+03  0.12000000000E+03 0.  0.
         25    1    3    3    0    0 -0.63060594289E+02  0.22112370455E+02  0.14684208618E+03  0.20106763477E+03  0.12000000000E+03 0.  0.
<mgrwt>
<rscale>  0 0.27548831E+03</rscale>
<asrwt>0</asrwt>
<pdfrwt beam="1">  1        4 0.77575039E-02 0.27548831E+03</pdfrwt>
<pdfrwt beam="2">  1       -4 0.57889214E-01 0.27548831E+03</pdfrwt>
<totfact> 0.62336488E+02</totfact>
</mgrwt>
</event>
<event>
 5    1  0.1129390E+001  0.2748069E+03  0.7818608E-02  0.1098560E+00
         -1   -1    0    0    0  501 -0.00000000000E+00  0.00000000000E+00  0.39241578677E+02  0.39241578677E+02  0.00000000000E+00 0.  1.
          1   -1    0    0  501    0  0.00000000000E+00 -0.00000000000E+00 -0.48111484247E+03  0.48111484247E+03  0.00000000000E+00 0.  1.
         35    2    1    2    0    0  0.00000000000E+00  0.00000000000E+00 -0.44187326380E+03  0.52035642115E+03  0.27480688451E+03 0.  0.
         25    1    3    3    0    0  0.16479094071E+02  0.51387541382E+02 -0.29590401882E+03  0.32383858371E+03  0.12000000000E+03 0.  0.
         25    1    3    3    0    0 -0.16479094071E+02 -0.51387541382E+02 -0.14596924498E+03  0.19651783744E+03  0.12000000000E+03 0.  0.
<mgrwt>
<rscale>  0 0.27480688E+03</rscale>
<asrwt>0</asrwt>
<pdfrwt beam="1">  1        1 0.74017667E-01 0.27480688E+03</pdfrwt>
<pdfrwt beam="2">  1       -1 0.60371660E-02 0.27480688E+03</pdfrwt>
<totfact> 0.62616695E+03</totfact>
</mgrwt>
</event>
<event>
 5    1  0.1129390E+001  0.2741872E+03  0.7818608E-02  0.1098907E+00
          4   -1    0    0  501    0  0.00000000000E+00  0.00000000000E+00  0.10614507706E+04  0.10614507706E+04  0.00000000000E+00 0. -1.
         -4   -1    0    0    0  501 -0.00000000000E+00 -0.00000000000E+00 -0.17706570179E+02  0.17706570179E+02  0.00000000000E+00 0. -1.
         35    2    1    2    0    0  0.00000000000E+00  0.00000000000E+00  0.10437442004E+04  0.10791573408E+04  0.27418718104E+03 0.  0.
         25    1    3    3    0    0  0.25358609027E+02 -0.43183789425E+02  0.35091181090E+03  0.37422853679E+03  0.12000000000E+03 0.  0.
         25    1    3    3    0    0 -0.25358609027E+02  0.43183789425E+02  0.69283238954E+03  0.70492880400E+03  0.12000000000E+03 0.  0.
<mgrwt>
<rscale>  0 0.27418718E+03</rscale>
<asrwt>0</asrwt>
<pdfrwt beam="1">  1        4 0.16330007E+00 0.27418718E+03</pdfrwt>
<pdfrwt beam="2">  1       -4 0.27240886E-02 0.27418718E+03</pdfrwt>
<totfact> 0.29715807E+02</totfact>
</mgrwt>
</event>
<event>
 5    1  0.1129390E+001  0.2756787E+03  0.7818608E-02  0.1098073E+00
          2   -1    0    0  501    0  0.00000000000E+00  0.00000000000E+00  0.10457498547E+03  0.10457498547E+03  0.00000000000E+00 0.  1.
         -2   -1    0    0    0  501 -0.00000000000E+00 -0.00000000000E+00 -0.18168486088E+03  0.18168486088E+03  0.00000000000E+00 0.  1.
         35    2    1    2    0    0  0.00000000000E+00  0.00000000000E+00 -0.77109875412E+02  0.28625984635E+03  0.27567873829E+03 0.  0.
         25    1    3    3    0    0  0.20208633062E+02  0.52852859117E+02 -0.77378181125E+02  0.15358774847E+03  0.12000000000E+03 0.  0.
         25    1    3    3    0    0 -0.20208633062E+02 -0.52852859117E+02  0.26830571248E+00  0.13267209788E+03  0.12000000000E+03 0.  0.
<mgrwt>
<rscale>  0 0.27567874E+03</rscale>
<asrwt>0</asrwt>
<pdfrwt beam="1">  1        2 0.16088459E-01 0.27567874E+03</pdfrwt>
<pdfrwt beam="2">  1       -2 0.27951517E-01 0.27567874E+03</pdfrwt>
<totfact> 0.41463218E+03</totfact>
</mgrwt>
</event>
<event>
 5    1  0.1129390E+001  0.2731103E+03  0.7818608E-02  0.1099513E+00
          2   -1    0    0  501    0  0.00000000000E+00  0.00000000000E+00  0.42555007884E+04  0.42555007884E+04  0.00000000000E+00 0.  1.
         -2   -1    0    0    0  501 -0.00000000000E+00 -0.00000000000E+00 -0.43819317377E+01  0.43819317377E+01  0.00000000000E+00 0.  1.
         35    2    1    2    0    0  0.00000000000E+00  0.00000000000E+00  0.42511188567E+04  0.42598827201E+04  0.27311033642E+03 0.  0.
         25    1    3    3    0    0 -0.23775043947E+02 -0.37823116275E+02  0.28656636629E+04  0.28685229770E+04  0.12000000000E+03 0.  0.
         25    1    3    3    0    0  0.23775043947E+02  0.37823116275E+02  0.13854551938E+04  0.13913597431E+04  0.12000000000E+03 0.  0.
<mgrwt>
<rscale>  0 0.27311034E+03</rscale>
<asrwt>0</asrwt>
<pdfrwt beam="1">  1        2 0.65468912E+00 0.27311034E+03</pdfrwt>
<pdfrwt beam="2">  1       -2 0.67414675E-03 0.27311034E+03</pdfrwt>
<totfact> 0.10539810E+03</totfact>
</mgrwt>
</event>
<event>
 5    1  0.1129390E+001  0.2778267E+03  0.7818608E-02  0.1096882E+00
         -1   -1    0    0    0  501 -0.00000000000E+00  0.00000000000E+00  0.17811979279E+02  0.17811979279E+02  0.00000000000E+00 0. -1.
          1   -1    0    0  501    0  0.00000000000E+00 -0.00000000000E+00 -0.10833673545E+04  0.10833673545E+04  0.00000000000E+00 0. -1.
         35    2    1    2    0    0  0.00000000000E+00  0.00000000000E+00 -0.10655553752E+04  0.11011793337E+04  0.27782668604E+03 0.  0.
         25    1    3    3    0    0  0.67682917085E+01  0.69093835899E+02 -0.56759129830E+03  0.58427703176E+03  0.12000000000E+03 0.  0.
         25    1    3    3    0    0 -0.67682917085E+01 -0.69093835899E+02 -0.49796407687E+03  0.51690230198E+03  0.12000000000E+03 0.  0.
<mgrwt>
<rscale>  0 0.27782669E+03</rscale>
<asrwt>0</asrwt>
<pdfrwt beam="1">  1        1 0.16667187E+00 0.27782669E+03</pdfrwt>
<pdfrwt beam="2">  1       -1 0.27403050E-02 0.27782669E+03</pdfrwt>
<totfact> 0.59823716E+03</totfact>
</mgrwt>
</event>
<event>
 5    1  0.1129390E+001  0.2751337E+03  0.7818608E-02  0.1098377E+00
          1   -1    0    0  501    0  0.00000000000E+00  0.00000000000E+00  0.57479698273E+03  0.57479698273E+03  0.00000000000E+00 0. -1.
         -1   -1    0    0    0  501 -0.00000000000E+00 -0.00000000000E+00 -0.32924048281E+02  0.32924048281E+02  0.00000000000E+00 0. -1.
         35    2    1    2    0    0  0.00000000000E+00  0.00000000000E+00  0.54187293445E+03  0.60772103101E+03  0.27513373919E+03 0.  0.
         25    1    3    3    0    0 -0.13151472014E+02  0.65919353160E+02  0.27648991525E+03  0.30881223352E+03  0.12000000000E+03 0.  0.
         25    1    3    3    0    0  0.13151472014E+02 -0.65919353160E+02  0.26538301920E+03  0.29890879749E+03  0.12000000000E+03 0.  0.
<mgrwt>
<rscale>  0 0.27513374E+03</rscale>
<asrwt>0</asrwt>
<pdfrwt beam="1">  1        1 0.88430298E-01 0.27513374E+03</pdfrwt>
<pdfrwt beam="2">  1       -1 0.50652386E-02 0.27513374E+03</pdfrwt>
<totfact> 0.64193045E+03</totfact>
</mgrwt>
</event>
<event>
 5    1  0.1129390E+001  0.2682361E+03  0.7818608E-02  0.1102293E+00
         -2   -1    0    0    0  501 -0.00000000000E+00  0.00000000000E+00  0.63850924517E+02  0.63850924517E+02  0.00000000000E+00 0.  1.
          2   -1    0    0  501    0  0.00000000000E+00 -0.00000000000E+00 -0.28171330544E+03  0.28171330544E+03  0.00000000000E+00 0.  1.
         35    2    1    2    0    0  0.00000000000E+00  0.00000000000E+00 -0.21786238092E+03  0.34556422996E+03  0.26823612733E+03 0.  0.
         25    1    3    3    0    0  0.47678237626E+02  0.82923741578E+01 -0.63462309391E+02  0.14411607310E+03  0.12000000000E+03 0.  0.
         25    1    3    3    0    0 -0.47678237626E+02 -0.82923741578E+01 -0.15440007153E+03  0.20144815686E+03  0.12000000000E+03 0.  0.
<mgrwt>
<rscale>  0 0.26823613E+03</rscale>
<asrwt>0</asrwt>
<pdfrwt beam="1">  1        2 0.43340508E-01 0.26823613E+03</pdfrwt>
<pdfrwt beam="2">  1       -2 0.98232192E-02 0.26823613E+03</pdfrwt>
<totfact> 0.79214571E+03</totfact>
</mgrwt>
</event>
<event>
 5    1  0.1129390E+001  0.2751864E+03  0.7818608E-02  0.1098347E+00
         -2   -1    0    0    0  501 -0.00000000000E+00  0.00000000000E+00  0.19908855357E+02  0.19908855357E+02  0.00000000000E+00 0. -1.
          2   -1    0    0  501    0  0.00000000000E+00 -0.00000000000E+00 -0.95092831333E+03  0.95092831333E+03  0.00000000000E+00 0. -1.
         35    2    1    2    0    0  0.00000000000E+00  0.00000000000E+00 -0.93101945797E+03  0.97083716869E+03  0.27518644040E+03 0.  0.
         25    1    3    3    0    0 -0.28970637184E+02 -0.78544831872E+01 -0.67809184174E+03  0.68928189919E+03  0.12000000000E+03 0.  0.
         25    1    3    3    0    0  0.28970637184E+02  0.78544831872E+01 -0.25292761623E+03  0.28155526949E+03  0.12000000000E+03 0.  0.
<mgrwt>
<rscale>  0 0.27518644E+03</rscale>
<asrwt>0</asrwt>
<pdfrwt beam="1">  1        2 0.14629666E+00 0.27518644E+03</pdfrwt>
<pdfrwt beam="2">  1       -2 0.30629010E-02 0.27518644E+03</pdfrwt>
<totfact> 0.11539044E+04</totfact>
</mgrwt>
</event>
<event>
 5    1  0.1129390E+001  0.2742563E+03  0.7818608E-02  0.1098868E+00
         -1   -1    0    0    0  501 -0.00000000000E+00  0.00000000000E+00  0.42109596782E+02  0.42109596782E+02  0.00000000000E+00 0.  1.
          1   -1    0    0  501    0  0.00000000000E+00 -0.00000000000E+00 -0.44655201952E+03  0.44655201952E+03  0.00000000000E+00 0.  1.
         35    2    1    2    0    0  0.00000000000E+00  0.00000000000E+00 -0.40444242274E+03  0.48866161630E+03  0.27425627055E+03 0.  0.
         25    1    3    3    0    0  0.54168177716E+01 -0.63689032091E+01 -0.84918738083E+02  0.14724502342E+03  0.12000000000E+03 0.  0.
         25    1    3    3    0    0 -0.54168177716E+01  0.63689032091E+01 -0.31952368466E+03  0.34141659289E+03  0.12000000000E+03 0.  0.
<mgrwt>
<rscale>  0 0.27425627E+03</rscale>
<asrwt>0</asrwt>
<pdfrwt beam="1">  1        1 0.68700308E-01 0.27425627E+03</pdfrwt>
<pdfrwt beam="2">  1       -1 0.64783998E-02 0.27425627E+03</pdfrwt>
<totfact> 0.62057432E+03</totfact>
</mgrwt>
</event>
<event>
 5    1  0.1129390E+001  0.2751985E+03  0.7818608E-02  0.1098341E+00
          1   -1    0    0  501    0  0.00000000000E+00  0.00000000000E+00  0.27769190839E+03  0.27769190839E+03  0.00000000000E+00 0. -1.
         -1   -1    0    0    0  501 -0.00000000000E+00 -0.00000000000E+00 -0.68181878575E+02  0.68181878575E+02  0.00000000000E+00 0. -1.
         35    2    1    2    0    0  0.00000000000E+00  0.00000000000E+00  0.20951002981E+03  0.34587378696E+03  0.27519851728E+03 0.  0.
         25    1    3    3    0    0 -0.26234244369E+02  0.60386840116E+02  0.87036591938E+02  0.16220411330E+03  0.12000000000E+03 0.  0.
         25    1    3    3    0    0  0.26234244369E+02 -0.60386840116E+02  0.12247343788E+03  0.18366967366E+03  0.12000000000E+03 0.  0.
<mgrwt>
<rscale>  0 0.27519852E+03</rscale>
<asrwt>0</asrwt>
<pdfrwt beam="1">  1        1 0.42721832E-01 0.27519852E+03</pdfrwt>
<pdfrwt beam="2">  1       -1 0.10489520E-01 0.27519852E+03</pdfrwt>
<totfact> 0.54316831E+03</totfact>
</mgrwt>
</event>
<event>
 5    1  0.1129390E+001  0.2750984E+03  0.7818608E-02  0.1098397E+00
         -2   -1    0    0    0  501 -0.00000000000E+00  0.00000000000E+00  0.90046364478E+02  0.90046364478E+02  0.00000000000E+00 0. -1.
          2   -1    0    0  501    0  0.00000000000E+00 -0.00000000000E+00 -0.21011151116E+03  0.21011151116E+03  0.00000000000E+00 0. -1.
         35    2    1    2    0    0  0.00000000000E+00  0.00000000000E+00 -0.12006514668E+03  0.30015787564E+03  0.27509836579E+03 0.  0.
         25    1    3    3    0    0  0.70317850681E+01 -0.61718006058E+02 -0.31976005686E+02  0.13885612415E+03  0.12000000000E+03 0.  0.
         25    1    3    3    0    0 -0.70317850681E+01  0.61718006058E+02 -0.88089140995E+02  0.16130175149E+03  0.12000000000E+03 0.  0.
<mgrwt>
<rscale>  0 0.27509837E+03</rscale>
<asrwt>0</asrwt>
<pdfrwt beam="1">  1        2 0.32324848E-01 0.27509837E+03</pdfrwt>
<pdfrwt beam="2">  1       -2 0.13853287E-01 0.27509837E+03</pdfrwt>
<totfact> 0.62591604E+03</totfact>
</mgrwt>
</event>
<event>
 5    1  0.1129390E+001  0.2746259E+03  0.7818608E-02  0.1098661E+00
          2   -1    0    0  501    0  0.00000000000E+00  0.00000000000E+00  0.28655688240E+04  0.28655688240E+04  0.00000000000E+00 0. -1.
         -2   -1    0    0    0  501 -0.00000000000E+00 -0.00000000000E+00 -0.65797903408E+01  0.65797903408E+01  0.00000000000E+00 0. -1.
         35    2    1    2    0    0  0.00000000000E+00  0.00000000000E+00  0.28589890337E+04  0.28721486143E+04  0.27462586964E+03 0.  0.
         25    1    3    3    0    0  0.15961137315E+02  0.58500526050E+02  0.17211645339E+04  0.17264079536E+04  0.12000000000E+03 0.  0.
         25    1    3    3    0    0 -0.15961137315E+02 -0.58500526050E+02  0.11378244997E+04  0.11457406607E+04  0.12000000000E+03 0.  0.
<mgrwt>
<rscale>  0 0.27462587E+03</rscale>
<asrwt>0</asrwt>
<pdfrwt beam="1">  1        2 0.44085575E+00 0.27462587E+03</pdfrwt>
<pdfrwt beam="2">  1       -2 0.10122777E-02 0.27462587E+03</pdfrwt>
<totfact> 0.52319738E+03</totfact>
</mgrwt>
</event>
<event>
 5    1  0.1129390E+001  0.2757463E+03  0.7818608E-02  0.1098035E+00
          2   -1    0    0  501    0  0.00000000000E+00  0.00000000000E+00  0.84999578639E+03  0.84999578639E+03  0.00000000000E+00 0.  1.
         -2   -1    0    0    0  501 -0.00000000000E+00 -0.00000000000E+00 -0.22363645133E+02  0.22363645133E+02  0.00000000000E+00 0.  1.
         35    2    1    2    0    0  0.00000000000E+00  0.00000000000E+00  0.82763214126E+03  0.87235943152E+03  0.27574629014E+03 0.  0.
         25    1    3    3    0    0 -0.51826454457E+02  0.30318479901E+02  0.51404938426E+03  0.53127390399E+03  0.12000000000E+03 0.  0.
         25    1    3    3    0    0  0.51826454457E+02 -0.30318479901E+02  0.31358275700E+03  0.34108552753E+03  0.12000000000E+03 0.  0.
<mgrwt>
<rscale>  0 0.27574629E+03</rscale>
<asrwt>0</asrwt>
<pdfrwt beam="1">  1        2 0.13076856E+00 0.27574629E+03</pdfrwt>
<pdfrwt beam="2">  1       -2 0.34405615E-02 0.27574629E+03</pdfrwt>
<totfact> 0.11273947E+04</totfact>
</mgrwt>
</event>
<event>
 5    1  0.1129390E+001  0.2754357E+03  0.7818608E-02  0.1098208E+00
         -1   -1    0    0    0  501 -0.00000000000E+00  0.00000000000E+00  0.96758093676E+02  0.96758093676E+02  0.00000000000E+00 0. -1.
          1   -1    0    0  501    0  0.00000000000E+00 -0.00000000000E+00 -0.19601677351E+03  0.19601677351E+03  0.00000000000E+00 0. -1.
         35    2    1    2    0    0  0.00000000000E+00  0.00000000000E+00 -0.99258679837E+02  0.29277486719E+03  0.27543572269E+03 0.  0.
         25    1    3    3    0    0  0.43960880701E+02  0.47967906767E+02 -0.69018529277E+02  0.15296089858E+03  0.12000000000E+03 0.  0.
         25    1    3    3    0    0 -0.43960880701E+02 -0.47967906767E+02 -0.30240150560E+02  0.13981396861E+03  0.12000000000E+03 0.  0.
<mgrwt>
<rscale>  0 0.27543572E+03</rscale>
<asrwt>0</asrwt>
<pdfrwt beam="1">  1        1 0.30156426E-01 0.27543572E+03</pdfrwt>
<pdfrwt beam="2">  1       -1 0.14885861E-01 0.27543572E+03</pdfrwt>
<totfact> 0.48628230E+03</totfact>
</mgrwt>
</event>
<event>
 5    1  0.1129390E+001  0.2739734E+03  0.7818608E-02  0.1099027E+00
         -2   -1    0    0    0  501 -0.00000000000E+00  0.00000000000E+00  0.93390905913E+01  0.93390905913E+01  0.00000000000E+00 0. -1.
          2   -1    0    0  501    0  0.00000000000E+00 -0.00000000000E+00 -0.20093349869E+04  0.20093349869E+04  0.00000000000E+00 0. -1.
         35    2    1    2    0    0  0.00000000000E+00  0.00000000000E+00 -0.19999958964E+04  0.20186740775E+04  0.27397344011E+03 0.  0.
         25    1    3    3    0    0 -0.23612639725E+02 -0.37126417395E+02 -0.63682768377E+03  0.64952707907E+03  0.12000000000E+03 0.  0.
         25    1    3    3    0    0  0.23612639725E+02  0.37126417395E+02 -0.13631682126E+04  0.13691469985E+04  0.12000000000E+03 0.  0.
<mgrwt>
<rscale>  0 0.27397344E+03</rscale>
<asrwt>0</asrwt>
<pdfrwt beam="1">  1        2 0.30912842E+00 0.27397344E+03</pdfrwt>
<pdfrwt beam="2">  1       -2 0.14367834E-02 0.27397344E+03</pdfrwt>
<totfact> 0.92300318E+03</totfact>
</mgrwt>
</event>
<event>
 5    1  0.1129390E+001  0.2754022E+03  0.7818608E-02  0.1098227E+00
         -1   -1    0    0    0  501 -0.00000000000E+00  0.00000000000E+00  0.69751184200E+01  0.69751184200E+01  0.00000000000E+00 0. -1.
          1   -1    0    0  501    0  0.00000000000E+00 -0.00000000000E+00 -0.27184623094E+04  0.27184623094E+04  0.00000000000E+00 0. -1.
         35    2    1    2    0    0  0.00000000000E+00  0.00000000000E+00 -0.27114871910E+04  0.27254374278E+04  0.27540222605E+03 0.  0.
         25    1    3    3    0    0 -0.52486242455E+02 -0.42360311445E+02 -0.13905845630E+04  0.13973813468E+04  0.12000000000E+03 0.  0.
         25    1    3    3    0    0  0.52486242455E+02  0.42360311445E+02 -0.13209026280E+04  0.13280560810E+04  0.12000000000E+03 0.  0.
<mgrwt>
<rscale>  0 0.27540223E+03</rscale>
<asrwt>0</asrwt>
<pdfrwt beam="1">  1        1 0.41822428E+00 0.27540223E+03</pdfrwt>
<pdfrwt beam="2">  1       -1 0.10730969E-02 0.27540223E+03</pdfrwt>
<totfact> 0.19208948E+03</totfact>
</mgrwt>
</event>
<event>
 5    1  0.1129390E+001  0.2747684E+03  0.7818608E-02  0.1098581E+00
         -2   -1    0    0    0  501 -0.00000000000E+00  0.00000000000E+00  0.11741747137E+02  0.11741747137E+02  0.00000000000E+00 0. -1.
          2   -1    0    0  501    0  0.00000000000E+00 -0.00000000000E+00 -0.16074624942E+04  0.16074624942E+04  0.00000000000E+00 0. -1.
         35    2    1    2    0    0  0.00000000000E+00  0.00000000000E+00 -0.15957207471E+04  0.16192042413E+04  0.27476839804E+03 0.  0.
         25    1    3    3    0    0  0.27869534435E+02  0.58678020460E+02 -0.70383142460E+03  0.71693688375E+03  0.12000000000E+03 0.  0.
         25    1    3    3    0    0 -0.27869534435E+02 -0.58678020460E+02 -0.89188932246E+03  0.90226735757E+03  0.12000000000E+03 0.  0.
<mgrwt>
<rscale>  0 0.27476840E+03</rscale>
<asrwt>0</asrwt>
<pdfrwt beam="1">  1        2 0.24730202E+00 0.27476840E+03</pdfrwt>
<pdfrwt beam="2">  1       -2 0.18064219E-02 0.27476840E+03</pdfrwt>
<totfact> 0.10738638E+04</totfact>
</mgrwt>
</event>
<event>
 5    1  0.1129390E+001  0.2750168E+03  0.7818608E-02  0.1098442E+00
          2   -1    0    0  501    0  0.00000000000E+00  0.00000000000E+00  0.70683909877E+03  0.70683909877E+03  0.00000000000E+00 0.  1.
         -2   -1    0    0    0  501 -0.00000000000E+00 -0.00000000000E+00 -0.26750877136E+02  0.26750877136E+02  0.00000000000E+00 0.  1.
         35    2    1    2    0    0  0.00000000000E+00  0.00000000000E+00  0.68008822164E+03  0.73358997591E+03  0.27501684229E+03 0.  0.
         25    1    3    3    0    0 -0.37993025440E+02  0.43496571721E+02  0.43140699206E+03  0.45149464508E+03  0.12000000000E+03 0.  0.
         25    1    3    3    0    0  0.37993025440E+02 -0.43496571721E+02  0.24868122957E+03  0.28209533083E+03  0.12000000000E+03 0.  0.
<mgrwt>
<rscale>  0 0.27501684E+03</rscale>
<asrwt>0</asrwt>
<pdfrwt beam="1">  1        2 0.10874446E+00 0.27501684E+03</pdfrwt>
<pdfrwt beam="2">  1       -2 0.41155201E-02 0.27501684E+03</pdfrwt>
<totfact> 0.10867177E+04</totfact>
</mgrwt>
</event>
<event>
 5    1  0.1129390E+001  0.2769885E+03  0.7818608E-02  0.1097345E+00
          2   -1    0    0  501    0  0.00000000000E+00  0.00000000000E+00  0.24595238663E+04  0.24595238663E+04  0.00000000000E+00 0. -1.
         -2   -1    0    0    0  501 -0.00000000000E+00 -0.00000000000E+00 -0.77985236119E+01  0.77985236119E+01  0.00000000000E+00 0. -1.
         35    2    1    2    0    0  0.00000000000E+00  0.00000000000E+00  0.24517253427E+04  0.24673223899E+04  0.27698848312E+03 0.  0.
         25    1    3    3    0    0 -0.26040544933E+02 -0.49804950781E+02  0.86711325910E+03  0.87717959803E+03  0.12000000000E+03 0.  0.
         25    1    3    3    0    0  0.26040544933E+02  0.49804950781E+02  0.15846120836E+04  0.15901427919E+04  0.12000000000E+03 0.  0.
<mgrwt>
<rscale>  0 0.27698848E+03</rscale>
<asrwt>0</asrwt>
<pdfrwt beam="1">  1        2 0.37838767E+00 0.27698848E+03</pdfrwt>
<pdfrwt beam="2">  1       -2 0.11997748E-02 0.27698848E+03</pdfrwt>
<totfact> 0.69018160E+03</totfact>
</mgrwt>
</event>
<event>
 5    1  0.1129390E+001  0.2745754E+03  0.7818608E-02  0.1098689E+00
          1   -1    0    0  501    0  0.00000000000E+00  0.00000000000E+00  0.15034465813E+03  0.15034465813E+03  0.00000000000E+00 0.  1.
         -1   -1    0    0    0  501 -0.00000000000E+00 -0.00000000000E+00 -0.12536472389E+03  0.12536472389E+03  0.00000000000E+00 0.  1.
         35    2    1    2    0    0  0.00000000000E+00  0.00000000000E+00  0.24979934240E+02  0.27570938202E+03  0.27457542902E+03 0.  0.
         25    1    3    3    0    0  0.42338705836E+02 -0.49582444975E+02  0.26581157469E+02  0.13913138680E+03  0.12000000000E+03 0.  0.
         25    1    3    3    0    0 -0.42338705836E+02  0.49582444975E+02 -0.16012232291E+01  0.13657799522E+03  0.12000000000E+03 0.  0.
<mgrwt>
<rscale>  0 0.27457543E+03</rscale>
<asrwt>0</asrwt>
<pdfrwt beam="1">  1        1 0.23129947E-01 0.27457543E+03</pdfrwt>
<pdfrwt beam="2">  1       -1 0.19286881E-01 0.27457543E+03</pdfrwt>
<totfact> 0.44961951E+03</totfact>
</mgrwt>
</event>
<event>
 5    1  0.1129390E+001  0.2745607E+03  0.7818608E-02  0.1098697E+00
         -2   -1    0    0    0  501 -0.00000000000E+00  0.00000000000E+00  0.19158329915E+03  0.19158329915E+03  0.00000000000E+00 0.  1.
          2   -1    0    0  501    0  0.00000000000E+00 -0.00000000000E+00 -0.98369185767E+02  0.98369185767E+02  0.00000000000E+00 0.  1.
         35    2    1    2    0    0  0.00000000000E+00  0.00000000000E+00  0.93214113379E+02  0.28995248491E+03  0.27456069015E+03 0.  0.
         25    1    3    3    0    0  0.13187967643E+02 -0.18030295700E+01 -0.22391069769E+02  0.12279467990E+03  0.12000000000E+03 0.  0.
         25    1    3    3    0    0 -0.13187967643E+02  0.18030295700E+01  0.11560518315E+03  0.16715780501E+03  0.12000000000E+03 0.  0.
<mgrwt>
<rscale>  0 0.27456069E+03</rscale>
<asrwt>0</asrwt>
<pdfrwt beam="1">  1        2 0.15133721E-01 0.27456069E+03</pdfrwt>
<pdfrwt beam="2">  1       -2 0.29474354E-01 0.27456069E+03</pdfrwt>
<totfact> 0.40495623E+03</totfact>
</mgrwt>
</event>
<event>
 5    1  0.1129390E+001  0.2751450E+03  0.7818608E-02  0.1098371E+00
          1   -1    0    0  501    0  0.00000000000E+00  0.00000000000E+00  0.11763233371E+02  0.11763233371E+02  0.00000000000E+00 0.  1.
         -1   -1    0    0    0  501 -0.00000000000E+00 -0.00000000000E+00 -0.16089277827E+04  0.16089277827E+04  0.00000000000E+00 0.  1.
         35    2    1    2    0    0  0.00000000000E+00  0.00000000000E+00 -0.15971645493E+04  0.16206910161E+04  0.27514500166E+03 0.  0.
         25    1    3    3    0    0  0.21631450225E+01  0.11091001565E+02 -0.11892351872E+04  0.11953275785E+04  0.12000000000E+03 0.  0.
         25    1    3    3    0    0 -0.21631450225E+01 -0.11091001565E+02 -0.40792936211E+03  0.42536343752E+03  0.12000000000E+03 0.  0.
<mgrwt>
<rscale>  0 0.27514500E+03</rscale>
<asrwt>0</asrwt>
<pdfrwt beam="1">  1        1 0.18097284E-02 0.27514500E+03</pdfrwt>
<pdfrwt beam="2">  1       -1 0.24752732E+00 0.27514500E+03</pdfrwt>
<totfact> 0.57334707E+02</totfact>
</mgrwt>
</event>
<event>
 5    1  0.1129390E+001  0.2745532E+03  0.7818608E-02  0.1098702E+00
          2   -1    0    0  501    0  0.00000000000E+00  0.00000000000E+00  0.33016902366E+03  0.33016902366E+03  0.00000000000E+00 0.  1.
         -2   -1    0    0    0  501 -0.00000000000E+00 -0.00000000000E+00 -0.57076419841E+02  0.57076419841E+02  0.00000000000E+00 0.  1.
         35    2    1    2    0    0  0.00000000000E+00  0.00000000000E+00  0.27309260381E+03  0.38724544350E+03  0.27455320659E+03 0.  0.
         25    1    3    3    0    0  0.62919148625E+02 -0.82804382986E-01  0.10545093650E+03  0.17169369857E+03  0.12000000000E+03 0.  0.
         25    1    3    3    0    0 -0.62919148625E+02  0.82804382986E-01  0.16764166731E+03  0.21555174493E+03  0.12000000000E+03 0.  0.
<mgrwt>
<rscale>  0 0.27455321E+03</rscale>
<asrwt>0</asrwt>
<pdfrwt beam="1">  1        2 0.50795233E-01 0.27455321E+03</pdfrwt>
<pdfrwt beam="2">  1       -2 0.87809878E-02 0.27455321E+03</pdfrwt>
<totfact> 0.79803549E+03</totfact>
</mgrwt>
</event>
<event>
 5    1  0.1129390E+001  0.2754153E+03  0.7818608E-02  0.1098220E+00
         -4   -1    0    0    0  501 -0.00000000000E+00  0.00000000000E+00  0.81842663624E+03  0.81842663624E+03  0.00000000000E+00 0. -1.
          4   -1    0    0  501    0  0.00000000000E+00 -0.00000000000E+00 -0.23170550506E+02  0.23170550506E+02  0.00000000000E+00 0. -1.
         35    2    1    2    0    0  0.00000000000E+00  0.00000000000E+00  0.79525608574E+03  0.84159718675E+03  0.27541529159E+03 0.  0.
         25    1    3    3    0    0 -0.64234040768E+02 -0.20908091768E+02  0.39911067733E+03  0.42219958912E+03  0.12000000000E+03 0.  0.
         25    1    3    3    0    0  0.64234040768E+02  0.20908091768E+02  0.39614540841E+03  0.41939759763E+03  0.12000000000E+03 0.  0.
<mgrwt>
<rscale>  0 0.27541529E+03</rscale>
<asrwt>0</asrwt>
<pdfrwt beam="1">  1        4 0.35647007E-02 0.27541529E+03</pdfrwt>
<pdfrwt beam="2">  1       -4 0.12591177E+00 0.27541529E+03</pdfrwt>
<totfact> 0.37806404E+02</totfact>
</mgrwt>
</event>
<event>
 5    1  0.1129390E+001  0.2770719E+03  0.7818608E-02  0.1097299E+00
         -1   -1    0    0    0  501 -0.00000000000E+00  0.00000000000E+00  0.12558932277E+02  0.12558932277E+02  0.00000000000E+00 0. -1.
          1   -1    0    0  501    0  0.00000000000E+00 -0.00000000000E+00 -0.15281723706E+04  0.15281723706E+04  0.00000000000E+00 0. -1.
         35    2    1    2    0    0  0.00000000000E+00  0.00000000000E+00 -0.15156134383E+04  0.15407313029E+04  0.27707192792E+03 0.  0.
         25    1    3    3    0    0  0.30697124928E+02 -0.50997247633E+02 -0.95434492583E+03  0.96369978220E+03  0.12000000000E+03 0.  0.
         25    1    3    3    0    0 -0.30697124928E+02  0.50997247633E+02 -0.56126851248E+03  0.57703152067E+03  0.12000000000E+03 0.  0.
<mgrwt>
<rscale>  0 0.27707193E+03</rscale>
<asrwt>0</asrwt>
<pdfrwt beam="1">  1        1 0.23510348E+00 0.27707193E+03</pdfrwt>
<pdfrwt beam="2">  1       -1 0.19321431E-02 0.27707193E+03</pdfrwt>
<totfact> 0.49447043E+03</totfact>
</mgrwt>
</event>
<event>
 5    1  0.1129390E+001  0.2756409E+03  0.7818608E-02  0.1098094E+00
          4   -1    0    0  501    0  0.00000000000E+00  0.00000000000E+00  0.13260057685E+03  0.13260057685E+03  0.00000000000E+00 0.  1.
         -4   -1    0    0    0  501 -0.00000000000E+00 -0.00000000000E+00 -0.14324577747E+03  0.14324577747E+03  0.00000000000E+00 0.  1.
         35    2    1    2    0    0  0.00000000000E+00  0.00000000000E+00 -0.10645200620E+02  0.27584635431E+03  0.27564087304E+03 0.  0.
         25    1    3    3    0    0  0.26462139955E+02 -0.38018418522E+02 -0.54845121735E+02  0.13983430329E+03  0.12000000000E+03 0.  0.
         25    1    3    3    0    0 -0.26462139955E+02  0.38018418522E+02  0.44199921115E+02  0.13601205103E+03  0.12000000000E+03 0.  0.
<mgrwt>
<rscale>  0 0.27564087E+03</rscale>
<asrwt>0</asrwt>
<pdfrwt beam="1">  1        4 0.20400089E-01 0.27564087E+03</pdfrwt>
<pdfrwt beam="2">  1       -4 0.22037812E-01 0.27564087E+03</pdfrwt>
<totfact> 0.77205159E+02</totfact>
</mgrwt>
</event>
<event>
 5    1  0.1129390E+001  0.2784955E+03  0.7818608E-02  0.1096514E+00
         -2   -1    0    0    0  501 -0.00000000000E+00  0.00000000000E+00  0.20615651886E+02  0.20615651886E+02  0.00000000000E+00 0. -1.
          2   -1    0    0  501    0  0.00000000000E+00 -0.00000000000E+00 -0.94054443894E+03  0.94054443894E+03  0.00000000000E+00 0. -1.
         35    2    1    2    0    0  0.00000000000E+00  0.00000000000E+00 -0.91992878706E+03  0.96116009083E+03  0.27849550615E+03 0.  0.
         25    1    3    3    0    0 -0.93193518875E+01  0.64815979723E+02 -0.36852392989E+03  0.39306214324E+03  0.12000000000E+03 0.  0.
         25    1    3    3    0    0  0.93193518875E+01 -0.64815979723E+02 -0.55140485716E+03  0.56809794759E+03  0.12000000000E+03 0.  0.
<mgrwt>
<rscale>  0 0.27849551E+03</rscale>
<asrwt>0</asrwt>
<pdfrwt beam="1">  1        2 0.14469917E+00 0.27849551E+03</pdfrwt>
<pdfrwt beam="2">  1       -2 0.31716383E-02 0.27849551E+03</pdfrwt>
<totfact> 0.11124805E+04</totfact>
</mgrwt>
</event>
<event>
 5    1  0.1129390E+001  0.2767305E+03  0.7818608E-02  0.1097488E+00
          1   -1    0    0  501    0  0.00000000000E+00  0.00000000000E+00  0.26201268721E+03  0.26201268721E+03  0.00000000000E+00 0. -1.
         -1   -1    0    0    0  501 -0.00000000000E+00 -0.00000000000E+00 -0.73068751212E+02  0.73068751212E+02  0.00000000000E+00 0. -1.
         35    2    1    2    0    0  0.00000000000E+00  0.00000000000E+00  0.18894393600E+03  0.33508143843E+03  0.27673048156E+03 0.  0.
         25    1    3    3    0    0 -0.54998798880E+02 -0.22342040571E+02  0.52162813725E+02  0.14368365875E+03  0.12000000000E+03 0.  0.
         25    1    3    3    0    0  0.54998798880E+02  0.22342040571E+02  0.13678112228E+03  0.19139777968E+03  0.12000000000E+03 0.  0.
<mgrwt>
<rscale>  0 0.27673048E+03</rscale>
<asrwt>0</asrwt>
<pdfrwt beam="1">  1        1 0.40309644E-01 0.27673048E+03</pdfrwt>
<pdfrwt beam="2">  1       -1 0.11241346E-01 0.27673048E+03</pdfrwt>
<totfact> 0.52480854E+03</totfact>
</mgrwt>
</event>
<event>
 5    1  0.1129390E+001  0.2750600E+03  0.7818608E-02  0.1098418E+00
          2   -1    0    0  501    0  0.00000000000E+00  0.00000000000E+00  0.91233107584E+02  0.91233107584E+02  0.00000000000E+00 0. -1.
         -2   -1    0    0    0  501 -0.00000000000E+00 -0.00000000000E+00 -0.20732056122E+03  0.20732056122E+03  0.00000000000E+00 0. -1.
         35    2    1    2    0    0  0.00000000000E+00  0.00000000000E+00 -0.11608745364E+03  0.29855366881E+03  0.27505998667E+03 0.  0.
         25    1    3    3    0    0  0.49333406531E+01  0.65695494719E+02 -0.43715322603E+02  0.14370548113E+03  0.12000000000E+03 0.  0.
         25    1    3    3    0    0 -0.49333406531E+01 -0.65695494719E+02 -0.72372131037E+02  0.15484818768E+03  0.12000000000E+03 0.  0.
<mgrwt>
<rscale>  0 0.27505999E+03</rscale>
<asrwt>0</asrwt>
<pdfrwt beam="1">  1        2 0.14035863E-01 0.27505999E+03</pdfrwt>
<pdfrwt beam="2">  1       -2 0.31895471E-01 0.27505999E+03</pdfrwt>
<totfact> 0.38357157E+03</totfact>
</mgrwt>
</event>
<event>
 5    1  0.1129390E+001  0.2746130E+03  0.7818608E-02  0.1098668E+00
          1   -1    0    0  501    0  0.00000000000E+00  0.00000000000E+00  0.32986174405E+03  0.32986174405E+03  0.00000000000E+00 0.  1.
         -1   -1    0    0    0  501 -0.00000000000E+00 -0.00000000000E+00 -0.57154487900E+02  0.57154487900E+02  0.00000000000E+00 0.  1.
         35    2    1    2    0    0  0.00000000000E+00  0.00000000000E+00  0.27270725615E+03  0.38701623195E+03  0.27461302998E+03 0.  0.
         25    1    3    3    0    0  0.39278817079E+02  0.34024702778E+02  0.19535282795E+03  0.23508133329E+03  0.12000000000E+03 0.  0.
         25    1    3    3    0    0 -0.39278817079E+02 -0.34024702778E+02  0.77354428195E+02  0.15193489866E+03  0.12000000000E+03 0.  0.
<mgrwt>
<rscale>  0 0.27461303E+03</rscale>
<asrwt>0</asrwt>
<pdfrwt beam="1">  1        1 0.50747960E-01 0.27461303E+03</pdfrwt>
<pdfrwt beam="2">  1       -1 0.87929983E-02 0.27461303E+03</pdfrwt>
<totfact> 0.57406964E+03</totfact>
</mgrwt>
</event>
<event>
 5    1  0.1129390E+001  0.2745845E+03  0.7818608E-02  0.1098684E+00
          3   -1    0    0  501    0  0.00000000000E+00  0.00000000000E+00  0.85336345680E+02  0.85336345680E+02  0.00000000000E+00 0. -1.
         -3   -1    0    0    0  501 -0.00000000000E+00 -0.00000000000E+00 -0.22088077592E+03  0.22088077592E+03  0.00000000000E+00 0. -1.
         35    2    1    2    0    0  0.00000000000E+00  0.00000000000E+00 -0.13554443024E+03  0.30621712160E+03  0.27458447333E+03 0.  0.
         25    1    3    3    0    0  0.45086536136E+02 -0.27986081735E+02 -0.22704511167E+02  0.13315972116E+03  0.12000000000E+03 0.  0.
         25    1    3    3    0    0 -0.45086536136E+02  0.27986081735E+02 -0.11283991908E+03  0.17305740045E+03  0.12000000000E+03 0.  0.
<mgrwt>
<rscale>  0 0.27458447E+03</rscale>
<asrwt>0</asrwt>
<pdfrwt beam="1">  1        3 0.13128669E-01 0.27458447E+03</pdfrwt>
<pdfrwt beam="2">  1       -3 0.33981657E-01 0.27458447E+03</pdfrwt>
<totfact> 0.10072027E+03</totfact>
</mgrwt>
</event>
<event>
 5    1  0.1129390E+001  0.2749750E+03  0.7818608E-02  0.1098466E+00
         -2   -1    0    0    0  501 -0.00000000000E+00  0.00000000000E+00  0.40941797066E+03  0.40941797066E+03  0.00000000000E+00 0.  1.
          2   -1    0    0  501    0  0.00000000000E+00 -0.00000000000E+00 -0.46169962706E+02  0.46169962706E+02  0.00000000000E+00 0.  1.
         35    2    1    2    0    0  0.00000000000E+00  0.00000000000E+00  0.36324800795E+03  0.45558793337E+03  0.27497499840E+03 0.  0.
         25    1    3    3    0    0 -0.10668288658E+02 -0.24172935881E+02  0.79427166298E+02  0.14631068983E+03  0.12000000000E+03 0.  0.
         25    1    3    3    0    0  0.10668288658E+02  0.24172935881E+02  0.28382084166E+03  0.30927724354E+03  0.12000000000E+03 0.  0.
<mgrwt>
<rscale>  0 0.27497500E+03</rscale>
<asrwt>0</asrwt>
<pdfrwt beam="1">  1        2 0.71030715E-02 0.27497500E+03</pdfrwt>
<pdfrwt beam="2">  1       -2 0.62987378E-01 0.27497500E+03</pdfrwt>
<totfact> 0.23610848E+03</totfact>
</mgrwt>
</event>
<event>
 5    1  0.1129390E+001  0.2753716E+03  0.7818608E-02  0.1098244E+00
          2   -1    0    0  501    0  0.00000000000E+00  0.00000000000E+00  0.20572302923E+04  0.20572302923E+04  0.00000000000E+00 0. -1.
         -2   -1    0    0    0  501 -0.00000000000E+00 -0.00000000000E+00 -0.92150000891E+01  0.92150000891E+01  0.00000000000E+00 0. -1.
         35    2    1    2    0    0  0.00000000000E+00  0.00000000000E+00  0.20480152922E+04  0.20664452924E+04  0.27537158406E+03 0.  0.
         25    1    3    3    0    0 -0.16596333406E+02 -0.18642819088E+02  0.55330874898E+03  0.56672177008E+03  0.12000000000E+03 0.  0.
         25    1    3    3    0    0  0.16596333406E+02  0.18642819088E+02  0.14947065432E+04  0.14997235223E+04  0.12000000000E+03 0.  0.
<mgrwt>
<rscale>  0 0.27537158E+03</rscale>
<asrwt>0</asrwt>
<pdfrwt beam="1">  1        2 0.31649660E+00 0.27537158E+03</pdfrwt>
<pdfrwt beam="2">  1       -2 0.14176940E-02 0.27537158E+03</pdfrwt>
<totfact> 0.88814062E+03</totfact>
</mgrwt>
</event>
<event>
 5    1  0.1129390E+001  0.2763086E+03  0.7818608E-02  0.1097722E+00
         -2   -1    0    0    0  501 -0.00000000000E+00  0.00000000000E+00  0.73758114160E+02  0.73758114160E+02  0.00000000000E+00 0. -1.
          2   -1    0    0  501    0  0.00000000000E+00 -0.00000000000E+00 -0.25877298455E+03  0.25877298455E+03  0.00000000000E+00 0. -1.
         35    2    1    2    0    0  0.00000000000E+00  0.00000000000E+00 -0.18501487039E+03  0.33253109871E+03  0.27630857631E+03 0.  0.
         25    1    3    3    0    0  0.64813414608E+02 -0.22041371504E+02 -0.92604944717E+02  0.16631980206E+03  0.12000000000E+03 0.  0.
         25    1    3    3    0    0 -0.64813414608E+02  0.22041371504E+02 -0.92409925669E+02  0.16621129665E+03  0.12000000000E+03 0.  0.
<mgrwt>
<rscale>  0 0.27630858E+03</rscale>
<asrwt>0</asrwt>
<pdfrwt beam="1">  1        2 0.39811228E-01 0.27630858E+03</pdfrwt>
<pdfrwt beam="2">  1       -2 0.11347402E-01 0.27630858E+03</pdfrwt>
<totfact> 0.69024976E+03</totfact>
</mgrwt>
</event>
<event>
 5    1  0.1129390E+001  0.2748102E+03  0.7818608E-02  0.1098558E+00
          1   -1    0    0  501    0  0.00000000000E+00  0.00000000000E+00  0.46090724052E+03  0.46090724052E+03  0.00000000000E+00 0. -1.
         -1   -1    0    0    0  501 -0.00000000000E+00 -0.00000000000E+00 -0.40963026656E+02  0.40963026656E+02  0.00000000000E+00 0. -1.
         35    2    1    2    0    0  0.00000000000E+00  0.00000000000E+00  0.41994421386E+03  0.50187026718E+03  0.27481015687E+03 0.  0.
         25    1    3    3    0    0 -0.60145972060E+02  0.29331775865E+02  0.20722389941E+03  0.24863554757E+03  0.12000000000E+03 0.  0.
         25    1    3    3    0    0  0.60145972060E+02 -0.29331775865E+02  0.21272031445E+03  0.25323471960E+03  0.12000000000E+03 0.  0.
<mgrwt>
<rscale>  0 0.27481016E+03</rscale>
<asrwt>0</asrwt>
<pdfrwt beam="1">  1        1 0.70908803E-01 0.27481016E+03</pdfrwt>
<pdfrwt beam="2">  1       -1 0.63020044E-02 0.27481016E+03</pdfrwt>
<totfact> 0.62089041E+03</totfact>
</mgrwt>
</event>
<event>
 5    1  0.1129390E+001  0.2736864E+03  0.7818608E-02  0.1099188E+00
         -1   -1    0    0    0  501 -0.00000000000E+00  0.00000000000E+00  0.41492564337E+03  0.41492564337E+03  0.00000000000E+00 0. -1.
          1   -1    0    0  501    0  0.00000000000E+00 -0.00000000000E+00 -0.45131129545E+02  0.45131129545E+02  0.00000000000E+00 0. -1.
         35    2    1    2    0    0  0.00000000000E+00  0.00000000000E+00  0.36979451383E+03  0.46005677292E+03  0.27368641152E+03 0.  0.
         25    1    3    3    0    0 -0.56049313843E+02  0.15987784256E+02  0.23613019377E+03  0.27120951907E+03  0.12000000000E+03 0.  0.
         25    1    3    3    0    0  0.56049313843E+02 -0.15987784256E+02  0.13366432006E+03  0.18884725385E+03  0.12000000000E+03 0.  0.
<mgrwt>
<rscale>  0 0.27368641E+03</rscale>
<asrwt>0</asrwt>
<pdfrwt beam="1">  1        1 0.69432510E-02 0.27368641E+03</pdfrwt>
<pdfrwt beam="2">  1       -1 0.63834712E-01 0.27368641E+03</pdfrwt>
<totfact> 0.27119773E+03</totfact>
</mgrwt>
</event>
<event>
 5    1  0.1129390E+001  0.2729815E+03  0.7818608E-02  0.1099585E+00
         -2   -1    0    0    0  501 -0.00000000000E+00  0.00000000000E+00  0.54784181306E+02  0.54784181306E+02  0.00000000000E+00 0.  1.
          2   -1    0    0  501    0  0.00000000000E+00 -0.00000000000E+00 -0.34005659915E+03  0.34005659915E+03  0.00000000000E+00 0.  1.
         35    2    1    2    0    0  0.00000000000E+00  0.00000000000E+00 -0.28527241784E+03  0.39484078046E+03  0.27298148203E+03 0.  0.
         25    1    3    3    0    0  0.36024702894E+02  0.51027091030E+02 -0.16883880390E+03  0.21635176204E+03  0.12000000000E+03 0.  0.
         25    1    3    3    0    0 -0.36024702894E+02 -0.51027091030E+02 -0.11643361395E+03  0.17848901841E+03  0.12000000000E+03 0.  0.
<mgrwt>
<rscale>  0 0.27298148E+03</rscale>
<asrwt>0</asrwt>
<pdfrwt beam="1">  1        2 0.52316400E-01 0.27298148E+03</pdfrwt>
<pdfrwt beam="2">  1       -2 0.84283355E-02 0.27298148E+03</pdfrwt>
<totfact> 0.82427306E+03</totfact>
</mgrwt>
</event>
<event>
 5    1  0.1129390E+001  0.2748191E+03  0.7818608E-02  0.1098553E+00
          2   -1    0    0  501    0  0.00000000000E+00  0.00000000000E+00  0.48991639502E+03  0.48991639502E+03  0.00000000000E+00 0. -1.
         -2   -1    0    0    0  501 -0.00000000000E+00 -0.00000000000E+00 -0.38540003738E+02  0.38540003738E+02  0.00000000000E+00 0. -1.
         35    2    1    2    0    0  0.00000000000E+00  0.00000000000E+00  0.45137639128E+03  0.52845639876E+03  0.27481906553E+03 0.  0.
         25    1    3    3    0    0 -0.17544434683E+02 -0.20900024044E+02  0.34323477413E+03  0.36462957692E+03  0.12000000000E+03 0.  0.
         25    1    3    3    0    0  0.17544434683E+02  0.20900024044E+02  0.10814161716E+03  0.16382682184E+03  0.12000000000E+03 0.  0.
<mgrwt>
<rscale>  0 0.27481907E+03</rscale>
<asrwt>0</asrwt>
<pdfrwt beam="1">  1        2 0.75371749E-01 0.27481907E+03</pdfrwt>
<pdfrwt beam="2">  1       -2 0.59292317E-02 0.27481907E+03</pdfrwt>
<totfact> 0.95458127E+03</totfact>
</mgrwt>
</event>
<event>
 5    1  0.1129390E+001  0.2743916E+03  0.7818608E-02  0.1098792E+00
         -1   -1    0    0    0  501 -0.00000000000E+00  0.00000000000E+00  0.35797087601E+02  0.35797087601E+02  0.00000000000E+00 0. -1.
          1   -1    0    0  501    0  0.00000000000E+00 -0.00000000000E+00 -0.52581602760E+03  0.52581602760E+03  0.00000000000E+00 0. -1.
         35    2    1    2    0    0  0.00000000000E+00  0.00000000000E+00 -0.49001894000E+03  0.56161311521E+03  0.27439156257E+03 0.  0.
         25    1    3    3    0    0 -0.26547825637E+02 -0.37786187172E+02 -0.34295703782E+03  0.36626781564E+03  0.12000000000E+03 0.  0.
         25    1    3    3    0    0  0.26547825637E+02  0.37786187172E+02 -0.14706190219E+03  0.19534529957E+03  0.12000000000E+03 0.  0.
<mgrwt>
<rscale>  0 0.27439156E+03</rscale>
<asrwt>0</asrwt>
<pdfrwt beam="1">  1        1 0.80894770E-01 0.27439156E+03</pdfrwt>
<pdfrwt beam="2">  1       -1 0.55072445E-02 0.27439156E+03</pdfrwt>
<totfact> 0.63888167E+03</totfact>
</mgrwt>
</event>
<event>
 5    1  0.1129390E+001  0.2747846E+03  0.7818608E-02  0.1098572E+00
          1   -1    0    0  501    0  0.00000000000E+00  0.00000000000E+00  0.13320871692E+03  0.13320871692E+03  0.00000000000E+00 0. -1.
         -1   -1    0    0    0  501 -0.00000000000E+00 -0.00000000000E+00 -0.14170724477E+03  0.14170724477E+03  0.00000000000E+00 0. -1.
         35    2    1    2    0    0  0.00000000000E+00  0.00000000000E+00 -0.84985278530E+01  0.27491596169E+03  0.27478457202E+03 0.  0.
         25    1    3    3    0    0 -0.39335138936E+01  0.48020627790E+02  0.42196925910E+02  0.13602218121E+03  0.12000000000E+03 0.  0.
         25    1    3    3    0    0  0.39335138936E+01 -0.48020627790E+02 -0.50695453763E+02  0.13889378048E+03  0.12000000000E+03 0.  0.
<mgrwt>
<rscale>  0 0.27478457E+03</rscale>
<asrwt>0</asrwt>
<pdfrwt beam="1">  1        1 0.20493649E-01 0.27478457E+03</pdfrwt>
<pdfrwt beam="2">  1       -1 0.21801115E-01 0.27478457E+03</pdfrwt>
<totfact> 0.43004840E+03</totfact>
</mgrwt>
</event>
<event>
 5    1  0.1129390E+001  0.2858206E+03  0.7818608E-02  0.1092552E+00
         -1   -1    0    0    0  501 -0.00000000000E+00  0.00000000000E+00  0.91040035140E+02  0.91040035140E+02  0.00000000000E+00 0. -1.
          1   -1    0    0  501    0  0.00000000000E+00 -0.00000000000E+00 -0.22433379954E+03  0.22433379954E+03  0.00000000000E+00 0. -1.
         35    2    1    2    0    0  0.00000000000E+00  0.00000000000E+00 -0.13329376440E+03  0.31537383468E+03  0.28582062202E+03 0.  0.
         25    1    3    3    0    0 -0.53086444809E+02 -0.49014558188E+02 -0.97909462052E+02  0.17090014715E+03  0.12000000000E+03 0.  0.
         25    1    3    3    0    0  0.53086444809E+02  0.49014558188E+02 -0.35384302353E+02  0.14447368753E+03  0.12000000000E+03 0.  0.
<mgrwt>
<rscale>  0 0.28582062E+03</rscale>
<asrwt>0</asrwt>
<pdfrwt beam="1">  1        1 0.34512891E-01 0.28582062E+03</pdfrwt>
<pdfrwt beam="2">  1       -1 0.14006160E-01 0.28582062E+03</pdfrwt>
<totfact> 0.45229073E+03</totfact>
</mgrwt>
</event>
<event>
 5    1  0.1129390E+001  0.2739288E+03  0.7818608E-02  0.1099052E+00
          2   -1    0    0  501    0  0.00000000000E+00  0.00000000000E+00  0.10559571658E+04  0.10559571658E+04  0.00000000000E+00 0. -1.
         -2   -1    0    0    0  501 -0.00000000000E+00 -0.00000000000E+00 -0.17765164382E+02  0.17765164382E+02  0.00000000000E+00 0. -1.
         35    2    1    2    0    0  0.00000000000E+00  0.00000000000E+00  0.10381920014E+04  0.10737223301E+04  0.27392884207E+03 0.  0.
         25    1    3    3    0    0 -0.59379639497E+01 -0.14030130190E+02  0.26728234392E+03  0.29338022316E+03  0.12000000000E+03 0.  0.
         25    1    3    3    0    0  0.59379639497E+01  0.14030130190E+02  0.77090965745E+03  0.78034210698E+03  0.12000000000E+03 0.  0.
<mgrwt>
<rscale>  0 0.27392884E+03</rscale>
<asrwt>0</asrwt>
<pdfrwt beam="1">  1        2 0.16245490E+00 0.27392884E+03</pdfrwt>
<pdfrwt beam="2">  1       -2 0.27331031E-02 0.27392884E+03</pdfrwt>
<totfact> 0.11786451E+04</totfact>
</mgrwt>
</event>
<event>
 5    1  0.1129390E+001  0.2759901E+03  0.7818608E-02  0.1097899E+00
          2   -1    0    0  501    0  0.00000000000E+00  0.00000000000E+00  0.23121428101E+03  0.23121428101E+03  0.00000000000E+00 0. -1.
         -2   -1    0    0    0  501 -0.00000000000E+00 -0.00000000000E+00 -0.82359274927E+02  0.82359274927E+02  0.00000000000E+00 0. -1.
         35    2    1    2    0    0  0.00000000000E+00  0.00000000000E+00  0.14885500609E+03  0.31357355594E+03  0.27599014864E+03 0.  0.
         25    1    3    3    0    0 -0.45245985272E+01  0.37105732690E+02  0.97019912215E+01  0.12606123918E+03  0.12000000000E+03 0.  0.
         25    1    3    3    0    0  0.45245985272E+01 -0.37105732690E+02  0.13915301487E+03  0.18751231676E+03  0.12000000000E+03 0.  0.
<mgrwt>
<rscale>  0 0.27599015E+03</rscale>
<asrwt>0</asrwt>
<pdfrwt beam="1">  1        2 0.35571428E-01 0.27599015E+03</pdfrwt>
<pdfrwt beam="2">  1       -2 0.12670658E-01 0.27599015E+03</pdfrwt>
<totfact> 0.65244815E+03</totfact>
</mgrwt>
</event>
<event>
 4    1  0.1129390E+001  0.2946593E+03  0.7818608E-02  0.1087941E+00
          2   -1    0    0  501    0  0.00000000000E+00  0.00000000000E+00  0.15358160245E+04  0.15358160245E+04  0.00000000000E+00 0. -1.
         -2   -1    0    0    0  501 -0.00000000000E+00 -0.00000000000E+00 -0.14133221617E+02  0.14133221617E+02  0.00000000000E+00 0. -1.
         25    1    1    2    0    0 -0.49838031569E+02 -0.22529956786E+02  0.11063569246E+04  0.11141889755E+04  0.12000000000E+03 0.  0.
         25    1    1    2    0    0  0.49838031569E+02  0.22529956786E+02  0.41532587826E+03  0.43576027067E+03  0.12000000000E+03 0.  0.
<mgrwt>
<rscale>  0 0.29465932E+03</rscale>
<asrwt>0</asrwt>
<pdfrwt beam="1">  1        2 0.23627926E+00 0.29465932E+03</pdfrwt>
<pdfrwt beam="2">  1       -2 0.21743430E-02 0.29465932E+03</pdfrwt>
<totfact> 0.89335307E+03</totfact>
</mgrwt>
</event>
<event>
 5    1  0.1129390E+001  0.2746753E+03  0.7818608E-02  0.1098633E+00
          2   -1    0    0  501    0  0.00000000000E+00  0.00000000000E+00  0.32899620043E+03  0.32899620043E+03  0.00000000000E+00 0.  1.
         -2   -1    0    0    0  501 -0.00000000000E+00 -0.00000000000E+00 -0.57330837468E+02  0.57330837468E+02  0.00000000000E+00 0.  1.
         35    2    1    2    0    0  0.00000000000E+00  0.00000000000E+00  0.27166536296E+03  0.38632703790E+03  0.27467528243E+03 0.  0.
         25    1    3    3    0    0 -0.45359659941E+02  0.11172937977E+02  0.20298109192E+03  0.24038231418E+03  0.12000000000E+03 0.  0.
         25    1    3    3    0    0  0.45359659941E+02 -0.11172937977E+02  0.68684271046E+02  0.14594472372E+03  0.12000000000E+03 0.  0.
<mgrwt>
<rscale>  0 0.27467528E+03</rscale>
<asrwt>0</asrwt>
<pdfrwt beam="1">  1        2 0.50614799E-01 0.27467528E+03</pdfrwt>
<pdfrwt beam="2">  1       -2 0.88201290E-02 0.27467528E+03</pdfrwt>
<totfact> 0.79552844E+03</totfact>
</mgrwt>
</event>
<event>
 5    1  0.1129390E+001  0.2748650E+03  0.7818608E-02  0.1098527E+00
         -2   -1    0    0    0  501 -0.00000000000E+00  0.00000000000E+00  0.14896660090E+02  0.14896660090E+02  0.00000000000E+00 0.  1.
          2   -1    0    0  501    0  0.00000000000E+00 -0.00000000000E+00 -0.12679144370E+04  0.12679144370E+04  0.00000000000E+00 0.  1.
         35    2    1    2    0    0  0.00000000000E+00  0.00000000000E+00 -0.12530177770E+04  0.12828110971E+04  0.27486498788E+03 0.  0.
         25    1    3    3    0    0  0.15579901150E+02  0.42261932017E+02 -0.39508270282E+03  0.41535424192E+03  0.12000000000E+03 0.  0.
         25    1    3    3    0    0 -0.15579901150E+02 -0.42261932017E+02 -0.85793507413E+03  0.86745685521E+03  0.12000000000E+03 0.  0.
<mgrwt>
<rscale>  0 0.27486499E+03</rscale>
<asrwt>0</asrwt>
<pdfrwt beam="1">  1        2 0.19506380E+00 0.27486499E+03</pdfrwt>
<pdfrwt beam="2">  1       -2 0.22917934E-02 0.27486499E+03</pdfrwt>
<totfact> 0.11549326E+04</totfact>
</mgrwt>
</event>
<event>
 5    1  0.1129390E+001  0.2787245E+03  0.7818608E-02  0.1096388E+00
          2   -1    0    0  501    0  0.00000000000E+00  0.00000000000E+00  0.24943929253E+03  0.24943929253E+03  0.00000000000E+00 0.  1.
         -2   -1    0    0    0  501 -0.00000000000E+00 -0.00000000000E+00 -0.77861968378E+02  0.77861968378E+02  0.00000000000E+00 0.  1.
         35    2    1    2    0    0  0.00000000000E+00  0.00000000000E+00  0.17157732416E+03  0.32730126091E+03  0.27872448265E+03 0.  0.
         25    1    3    3    0    0 -0.40553595111E+02  0.17858195026E+02  0.15072897620E+03  0.19769353422E+03  0.12000000000E+03 0.  0.
         25    1    3    3    0    0  0.40553595111E+02 -0.17858195026E+02  0.20848347957E+02  0.12960772669E+03  0.12000000000E+03 0.  0.
<mgrwt>
<rscale>  0 0.27872448E+03</rscale>
<asrwt>0</asrwt>
<pdfrwt beam="1">  1        2 0.38375275E-01 0.27872448E+03</pdfrwt>
<pdfrwt beam="2">  1       -2 0.11978764E-01 0.27872448E+03</pdfrwt>
<totfact> 0.65841294E+03</totfact>
</mgrwt>
</event>
<event>
 5    1  0.1129390E+001  0.2748032E+03  0.7818608E-02  0.1098562E+00
          1   -1    0    0  501    0  0.00000000000E+00  0.00000000000E+00  0.57116768728E+02  0.57116768728E+02  0.00000000000E+00 0. -1.
         -1   -1    0    0    0  501 -0.00000000000E+00 -0.00000000000E+00 -0.33053698770E+03  0.33053698770E+03  0.00000000000E+00 0. -1.
         35    2    1    2    0    0  0.00000000000E+00  0.00000000000E+00 -0.27342021897E+03  0.38765375642E+03  0.27480323639E+03 0.  0.
         25    1    3    3    0    0 -0.58133553357E+02 -0.29235457988E+02 -0.11463057971E+03  0.17825372881E+03  0.12000000000E+03 0.  0.
         25    1    3    3    0    0  0.58133553357E+02  0.29235457988E+02 -0.15878963926E+03  0.20940002762E+03  0.12000000000E+03 0.  0.
<mgrwt>
<rscale>  0 0.27480324E+03</rscale>
<asrwt>0</asrwt>
<pdfrwt beam="1">  1        1 0.87871951E-02 0.27480324E+03</pdfrwt>
<pdfrwt beam="2">  1       -1 0.50851845E-01 0.27480324E+03</pdfrwt>
<totfact> 0.30334402E+03</totfact>
</mgrwt>
</event>
<event>
 5    1  0.1129390E+001  0.2722782E+03  0.7818608E-02  0.1099983E+00
          1   -1    0    0  501    0  0.00000000000E+00  0.00000000000E+00  0.20297825762E+04  0.20297825762E+04  0.00000000000E+00 0.  1.
         -1   -1    0    0    0  501 -0.00000000000E+00 -0.00000000000E+00 -0.91309581477E+01  0.91309581477E+01  0.00000000000E+00 0.  1.
         35    2    1    2    0    0  0.00000000000E+00  0.00000000000E+00  0.20206516180E+04  0.20389135343E+04  0.27227823822E+03 0.  0.
         25    1    3    3    0    0 -0.50761640550E+02  0.17269172569E+02  0.74463288432E+03  0.75614357161E+03  0.12000000000E+03 0.  0.
         25    1    3    3    0    0  0.50761640550E+02 -0.17269172569E+02  0.12760187337E+04  0.12827699627E+04  0.12000000000E+03 0.  0.
<mgrwt>
<rscale>  0 0.27227824E+03</rscale>
<asrwt>0</asrwt>
<pdfrwt beam="1">  1        1 0.31227388E+00 0.27227824E+03</pdfrwt>
<pdfrwt beam="2">  1       -1 0.14047644E-02 0.27227824E+03</pdfrwt>
<totfact> 0.37054388E+03</totfact>
</mgrwt>
</event>
<event>
 5    1  0.1129390E+001  0.2757185E+03  0.7818608E-02  0.1098051E+00
         -1   -1    0    0    0  501 -0.00000000000E+00  0.00000000000E+00  0.45078793560E+03  0.45078793560E+03  0.00000000000E+00 0. -1.
          1   -1    0    0  501    0  0.00000000000E+00 -0.00000000000E+00 -0.42159887184E+02  0.42159887184E+02  0.00000000000E+00 0. -1.
         35    2    1    2    0    0  0.00000000000E+00  0.00000000000E+00  0.40862804842E+03  0.49294782279E+03  0.27571846880E+03 0.  0.
         25    1    3    3    0    0  0.25544702178E+02  0.32734724784E+02  0.10834914111E+03  0.16692402582E+03  0.12000000000E+03 0.  0.
         25    1    3    3    0    0 -0.25544702178E+02 -0.32734724784E+02  0.30027890731E+03  0.32602379697E+03  0.12000000000E+03 0.  0.
<mgrwt>
<rscale>  0 0.27571847E+03</rscale>
<asrwt>0</asrwt>
<pdfrwt beam="1">  1        1 0.64861368E-02 0.27571847E+03</pdfrwt>
<pdfrwt beam="2">  1       -1 0.69351987E-01 0.27571847E+03</pdfrwt>
<totfact> 0.25285199E+03</totfact>
</mgrwt>
</event>
<event>
 5    1  0.1129390E+001  0.2751443E+03  0.7818608E-02  0.1098371E+00
          1   -1    0    0  501    0  0.00000000000E+00  0.00000000000E+00  0.11161519724E+03  0.11161519724E+03  0.00000000000E+00 0. -1.
         -1   -1    0    0    0  501 -0.00000000000E+00 -0.00000000000E+00 -0.16956559623E+03  0.16956559623E+03  0.00000000000E+00 0. -1.
         35    2    1    2    0    0  0.00000000000E+00  0.00000000000E+00 -0.57950398989E+02  0.28118079346E+03  0.27514430735E+03 0.  0.
         25    1    3    3    0    0  0.57214740285E+02  0.11472921878E+02  0.52398277221E+01  0.13353879675E+03  0.12000000000E+03 0.  0.
         25    1    3    3    0    0 -0.57214740285E+02 -0.11472921878E+02 -0.63190226711E+02  0.14764199672E+03  0.12000000000E+03 0.  0.
<mgrwt>
<rscale>  0 0.27514431E+03</rscale>
<asrwt>0</asrwt>
<pdfrwt beam="1">  1        1 0.17171569E-01 0.27514431E+03</pdfrwt>
<pdfrwt beam="2">  1       -1 0.26087015E-01 0.27514431E+03</pdfrwt>
<totfact> 0.40171519E+03</totfact>
</mgrwt>
</event>
<event>
 5    1  0.1129390E+001  0.2747149E+03  0.7818608E-02  0.1098611E+00
         -3   -1    0    0    0  501 -0.00000000000E+00  0.00000000000E+00  0.99802255294E+03  0.99802255294E+03  0.00000000000E+00 0.  1.
          3   -1    0    0  501    0  0.00000000000E+00 -0.00000000000E+00 -0.18904451786E+02  0.18904451786E+02  0.00000000000E+00 0.  1.
         35    2    1    2    0    0  0.00000000000E+00  0.00000000000E+00  0.97911810116E+03  0.10169270047E+04  0.27471490119E+03 0.  0.
         25    1    3    3    0    0  0.34406515144E+02  0.18971691494E+02  0.28941304786E+03  0.31575884094E+03  0.12000000000E+03 0.  0.
         25    1    3    3    0    0 -0.34406515144E+02 -0.18971691494E+02  0.68970505330E+03  0.70116816379E+03  0.12000000000E+03 0.  0.
<mgrwt>
<rscale>  0 0.27471490E+03</rscale>
<asrwt>0</asrwt>
<pdfrwt beam="1">  1        3 0.29083780E-02 0.27471490E+03</pdfrwt>
<pdfrwt beam="2">  1       -3 0.15354189E+00 0.27471490E+03</pdfrwt>
<totfact> 0.43689122E+02</totfact>
</mgrwt>
</event>
<event>
 5    1  0.1129390E+001  0.2724869E+03  0.7818608E-02  0.1099865E+00
          2   -1    0    0  501    0  0.00000000000E+00  0.00000000000E+00  0.87433920857E+03  0.87433920857E+03  0.00000000000E+00 0.  1.
         -2   -1    0    0    0  501 -0.00000000000E+00 -0.00000000000E+00 -0.21230061237E+02  0.21230061237E+02  0.00000000000E+00 0.  1.
         35    2    1    2    0    0  0.00000000000E+00  0.00000000000E+00  0.85310914734E+03  0.89556926981E+03  0.27248687998E+03 0.  0.
         25    1    3    3    0    0 -0.61492581271E+02  0.12396428120E+02  0.37700718375E+03  0.40058635221E+03  0.12000000000E+03 0.  0.
         25    1    3    3    0    0  0.61492581271E+02 -0.12396428120E+02  0.47610196359E+03  0.49498291760E+03  0.12000000000E+03 0.  0.
<mgrwt>
<rscale>  0 0.27248688E+03</rscale>
<asrwt>0</asrwt>
<pdfrwt beam="1">  1        2 0.13451370E+00 0.27248688E+03</pdfrwt>
<pdfrwt beam="2">  1       -2 0.32661639E-02 0.27248688E+03</pdfrwt>
<totfact> 0.11736758E+04</totfact>
</mgrwt>
</event>
<event>
 5    1  0.1129390E+001  0.2731184E+03  0.7818608E-02  0.1099508E+00
          2   -1    0    0  501    0  0.00000000000E+00  0.00000000000E+00  0.31600829230E+04  0.31600829230E+04  0.00000000000E+00 0.  1.
         -2   -1    0    0    0  501 -0.00000000000E+00 -0.00000000000E+00 -0.59012431276E+01  0.59012431276E+01  0.00000000000E+00 0.  1.
         35    2    1    2    0    0  0.00000000000E+00  0.00000000000E+00  0.31541816798E+04  0.31659841661E+04  0.27311841851E+03 0.  0.
         25    1    3    3    0    0 -0.43072158840E+02 -0.27892624718E+02  0.11112130444E+04  0.11188510354E+04  0.12000000000E+03 0.  0.
         25    1    3    3    0    0  0.43072158840E+02  0.27892624718E+02  0.20429686354E+04  0.20471331306E+04  0.12000000000E+03 0.  0.
<mgrwt>
<rscale>  0 0.27311842E+03</rscale>
<asrwt>0</asrwt>
<pdfrwt beam="1">  1        2 0.48616525E+00 0.27311842E+03</pdfrwt>
<pdfrwt beam="2">  1       -2 0.90788608E-03 0.27311842E+03</pdfrwt>
<totfact> 0.40947157E+03</totfact>
</mgrwt>
</event>
<event>
 5    1  0.1129390E+001  0.2748776E+03  0.7818608E-02  0.1098520E+00
          2   -1    0    0  501    0  0.00000000000E+00  0.00000000000E+00  0.17375728566E+03  0.17375728566E+03  0.00000000000E+00 0.  1.
         -2   -1    0    0    0  501 -0.00000000000E+00 -0.00000000000E+00 -0.10871152681E+03  0.10871152681E+03  0.00000000000E+00 0.  1.
         35    2    1    2    0    0  0.00000000000E+00  0.00000000000E+00  0.65045758843E+02  0.28246881247E+03  0.27487757143E+03 0.  0.
         25    1    3    3    0    0 -0.39437789822E+02 -0.27121916968E+02  0.80705750319E+02  0.15232976000E+03  0.12000000000E+03 0.  0.
         25    1    3    3    0    0  0.39437789822E+02  0.27121916968E+02 -0.15659991476E+02  0.13013905248E+03  0.12000000000E+03 0.  0.
<mgrwt>
<rscale>  0 0.27487757E+03</rscale>
<asrwt>0</asrwt>
<pdfrwt beam="1">  1        2 0.26731890E-01 0.27487757E+03</pdfrwt>
<pdfrwt beam="2">  1       -2 0.16724850E-01 0.27487757E+03</pdfrwt>
<totfact> 0.56473977E+03</totfact>
</mgrwt>
</event>
<event>
 5    1  0.1129390E+001  0.2736628E+03  0.7818608E-02  0.1099201E+00
         -1   -1    0    0    0  501 -0.00000000000E+00  0.00000000000E+00  0.27988323884E+03  0.27988323884E+03  0.00000000000E+00 0. -1.
          1   -1    0    0  501    0  0.00000000000E+00 -0.00000000000E+00 -0.66895173047E+02  0.66895173047E+02  0.00000000000E+00 0. -1.
         35    2    1    2    0    0  0.00000000000E+00  0.00000000000E+00  0.21298806579E+03  0.34677841188E+03  0.27366284143E+03 0.  0.
         25    1    3    3    0    0  0.13984718710E+02  0.46220018726E+02  0.49952295743E+02  0.13866179841E+03  0.12000000000E+03 0.  0.
         25    1    3    3    0    0 -0.13984718710E+02 -0.46220018726E+02  0.16303577005E+03  0.20811661347E+03  0.12000000000E+03 0.  0.
<mgrwt>
<rscale>  0 0.27366284E+03</rscale>
<asrwt>0</asrwt>
<pdfrwt beam="1">  1        1 0.10291565E-01 0.27366284E+03</pdfrwt>
<pdfrwt beam="2">  1       -1 0.43058959E-01 0.27366284E+03</pdfrwt>
<totfact> 0.33212280E+03</totfact>
</mgrwt>
</event>
<event>
 5    1  0.1129390E+001  0.2763901E+03  0.7818608E-02  0.1097677E+00
          1   -1    0    0  501    0  0.00000000000E+00  0.00000000000E+00  0.38345745171E+04  0.38345745171E+04  0.00000000000E+00 0. -1.
         -1   -1    0    0    0  501 -0.00000000000E+00 -0.00000000000E+00 -0.49804399421E+01  0.49804399421E+01  0.00000000000E+00 0. -1.
         35    2    1    2    0    0  0.00000000000E+00  0.00000000000E+00  0.38295940772E+04  0.38395549571E+04  0.27639007280E+03 0.  0.
         25    1    3    3    0    0  0.55237567665E+02  0.81912239661E+01  0.13626818675E+04  0.13690946487E+04  0.12000000000E+03 0.  0.
         25    1    3    3    0    0 -0.55237567665E+02 -0.81912239661E+01  0.24669122097E+04  0.24704603084E+04  0.12000000000E+03 0.  0.
<mgrwt>
<rscale>  0 0.27639007E+03</rscale>
<asrwt>0</asrwt>
<pdfrwt beam="1">  1        1 0.58993218E+00 0.27639007E+03</pdfrwt>
<pdfrwt beam="2">  1       -1 0.76622459E-03 0.27639007E+03</pdfrwt>
<totfact> 0.47473440E+02</totfact>
</mgrwt>
</event>
<event>
 5    1  0.1129390E+001  0.2750208E+03  0.7818608E-02  0.1098440E+00
          2   -1    0    0  501    0  0.00000000000E+00  0.00000000000E+00  0.76038864792E+02  0.76038864792E+02  0.00000000000E+00 0.  1.
         -2   -1    0    0    0  501 -0.00000000000E+00 -0.00000000000E+00 -0.24867689722E+03  0.24867689722E+03  0.00000000000E+00 0.  1.
         35    2    1    2    0    0  0.00000000000E+00  0.00000000000E+00 -0.17263803243E+03  0.32471576201E+03  0.27502079168E+03 0.  0.
         25    1    3    3    0    0  0.51248995676E+02 -0.43287826490E+02 -0.82813825417E+02  0.16049431504E+03  0.12000000000E+03 0.  0.
         25    1    3    3    0    0 -0.51248995676E+02  0.43287826490E+02 -0.89824207008E+02  0.16422144697E+03  0.12000000000E+03 0.  0.
<mgrwt>
<rscale>  0 0.27502079E+03</rscale>
<asrwt>0</asrwt>
<pdfrwt beam="1">  1        2 0.11698287E-01 0.27502079E+03</pdfrwt>
<pdfrwt beam="2">  1       -2 0.38257984E-01 0.27502079E+03</pdfrwt>
<totfact> 0.34054715E+03</totfact>
</mgrwt>
</event>
<event>
 5    1  0.1129390E+001  0.2774529E+03  0.7818608E-02  0.1097088E+00
         -2   -1    0    0    0  501 -0.00000000000E+00  0.00000000000E+00  0.64611649639E+01  0.64611649639E+01  0.00000000000E+00 0.  1.
          2   -1    0    0  501    0  0.00000000000E+00 -0.00000000000E+00 -0.29785687417E+04  0.29785687417E+04  0.00000000000E+00 0.  1.
         35    2    1    2    0    0  0.00000000000E+00  0.00000000000E+00 -0.29721075768E+04  0.29850299067E+04  0.27745287165E+03 0.  0.
         25    1    3    3    0    0 -0.46378303798E+01  0.44533172938E+02 -0.91267395647E+03  0.92161730875E+03  0.12000000000E+03 0.  0.
         25    1    3    3    0    0  0.46378303798E+01 -0.44533172938E+02 -0.20594336203E+04  0.20634125980E+04  0.12000000000E+03 0.  0.
<mgrwt>
<rscale>  0 0.27745287E+03</rscale>
<asrwt>0</asrwt>
<pdfrwt beam="1">  1        2 0.45824196E+00 0.27745287E+03</pdfrwt>
<pdfrwt beam="2">  1       -2 0.99402406E-03 0.27745287E+03</pdfrwt>
<totfact> 0.46132640E+03</totfact>
</mgrwt>
</event>
<event>
 5    1  0.1129390E+001  0.2762933E+03  0.7818608E-02  0.1097731E+00
         -1   -1    0    0    0  501 -0.00000000000E+00  0.00000000000E+00  0.12002636234E+02  0.12002636234E+02  0.00000000000E+00 0. -1.
          1   -1    0    0  501    0  0.00000000000E+00 -0.00000000000E+00 -0.15900254715E+04  0.15900254715E+04  0.00000000000E+00 0. -1.
         35    2    1    2    0    0  0.00000000000E+00  0.00000000000E+00 -0.15780228353E+04  0.16020281078E+04  0.27629330313E+03 0.  0.
         25    1    3    3    0    0  0.23634519582E+02 -0.19663291361E+02 -0.43444899252E+03  0.45176449910E+03  0.12000000000E+03 0.  0.
         25    1    3    3    0    0 -0.23634519582E+02  0.19663291361E+02 -0.11435738428E+04  0.11502636087E+04  0.12000000000E+03 0.  0.
<mgrwt>
<rscale>  0 0.27629330E+03</rscale>
<asrwt>0</asrwt>
<pdfrwt beam="1">  1        1 0.24461907E+00 0.27629330E+03</pdfrwt>
<pdfrwt beam="2">  1       -1 0.18465612E-02 0.27629330E+03</pdfrwt>
<totfact> 0.48095877E+03</totfact>
</mgrwt>
</event>
<event>
 5    1  0.1129390E+001  0.2745215E+03  0.7818608E-02  0.1098719E+00
          2   -1    0    0  501    0  0.00000000000E+00  0.00000000000E+00  0.38451219038E+03  0.38451219038E+03  0.00000000000E+00 0.  1.
         -2   -1    0    0    0  501 -0.00000000000E+00 -0.00000000000E+00 -0.48998493260E+02  0.48998493260E+02  0.00000000000E+00 0.  1.
         35    2    1    2    0    0  0.00000000000E+00  0.00000000000E+00  0.33551369712E+03  0.43351068364E+03  0.27452153262E+03 0.  0.
         25    1    3    3    0    0  0.14586674337E+02  0.50904880349E+02  0.10387559337E+03  0.16731472383E+03  0.12000000000E+03 0.  0.
         25    1    3    3    0    0 -0.14586674337E+02 -0.50904880349E+02  0.23163810375E+03  0.26619595981E+03  0.12000000000E+03 0.  0.
<mgrwt>
<rscale>  0 0.27452153E+03</rscale>
<asrwt>0</asrwt>
<pdfrwt beam="1">  1        2 0.59155720E-01 0.27452153E+03</pdfrwt>
<pdfrwt beam="2">  1       -2 0.75382300E-02 0.27452153E+03</pdfrwt>
<totfact> 0.85941789E+03</totfact>
</mgrwt>
</event>
<event>
 5    1  0.1129390E+001  0.2747384E+03  0.7818608E-02  0.1098598E+00
          2   -1    0    0  501    0  0.00000000000E+00  0.00000000000E+00  0.12497802744E+04  0.12497802744E+04  0.00000000000E+00 0.  1.
         -2   -1    0    0    0  501 -0.00000000000E+00 -0.00000000000E+00 -0.15098892850E+02  0.15098892850E+02  0.00000000000E+00 0.  1.
         35    2    1    2    0    0  0.00000000000E+00  0.00000000000E+00  0.12346813816E+04  0.12648791673E+04  0.27473840977E+03 0.  0.
         25    1    3    3    0    0 -0.62822455336E+02  0.22758809156E+02  0.62830750555E+03  0.64314457614E+03  0.12000000000E+03 0.  0.
         25    1    3    3    0    0  0.62822455336E+02 -0.22758809156E+02  0.60637387603E+03  0.62173459114E+03  0.12000000000E+03 0.  0.
<mgrwt>
<rscale>  0 0.27473841E+03</rscale>
<asrwt>0</asrwt>
<pdfrwt beam="1">  1        2 0.19227381E+00 0.27473841E+03</pdfrwt>
<pdfrwt beam="2">  1       -2 0.23229076E-02 0.27473841E+03</pdfrwt>
<totfact> 0.11588979E+04</totfact>
</mgrwt>
</event>
<event>
 5    1  0.1129390E+001  0.2795656E+03  0.7818608E-02  0.1095926E+00
          2   -1    0    0  501    0  0.00000000000E+00  0.00000000000E+00  0.80750447948E+03  0.80750447948E+03  0.00000000000E+00 0.  1.
         -2   -1    0    0    0  501 -0.00000000000E+00 -0.00000000000E+00 -0.24197062892E+02  0.24197062892E+02  0.00000000000E+00 0.  1.
         35    2    1    2    0    0  0.00000000000E+00  0.00000000000E+00  0.78330741659E+03  0.83170154237E+03  0.27956563934E+03 0.  0.
         25    1    3    3    0    0 -0.58543358344E+01  0.16879764247E+02  0.18511146015E+03  0.22132657402E+03  0.12000000000E+03 0.  0.
         25    1    3    3    0    0  0.58543358344E+01 -0.16879764247E+02  0.59819595644E+03  0.61037496835E+03  0.12000000000E+03 0.  0.
<mgrwt>
<rscale>  0 0.27956564E+03</rscale>
<asrwt>0</asrwt>
<pdfrwt beam="1">  1        2 0.12423144E+00 0.27956564E+03</pdfrwt>
<pdfrwt beam="2">  1       -2 0.37226257E-02 0.27956564E+03</pdfrwt>
<totfact> 0.10709877E+04</totfact>
</mgrwt>
</event>
<event>
 5    1  0.1129390E+001  0.2745296E+03  0.7818608E-02  0.1098715E+00
         -2   -1    0    0    0  501 -0.00000000000E+00  0.00000000000E+00  0.31498989901E+02  0.31498989901E+02  0.00000000000E+00 0.  1.
          2   -1    0    0  501    0  0.00000000000E+00 -0.00000000000E+00 -0.59816580641E+03  0.59816580641E+03  0.00000000000E+00 0.  1.
         35    2    1    2    0    0  0.00000000000E+00  0.00000000000E+00 -0.56666681651E+03  0.62966479631E+03  0.27452955174E+03 0.  0.
         25    1    3    3    0    0 -0.25022291106E+02  0.37498728525E+02 -0.17075109474E+03  0.21351394813E+03  0.12000000000E+03 0.  0.
         25    1    3    3    0    0  0.25022291106E+02 -0.37498728525E+02 -0.39591572177E+03  0.41615084818E+03  0.12000000000E+03 0.  0.
<mgrwt>
<rscale>  0 0.27452955E+03</rscale>
<asrwt>0</asrwt>
<pdfrwt beam="1">  1        2 0.92025492E-01 0.27452955E+03</pdfrwt>
<pdfrwt beam="2">  1       -2 0.48459993E-02 0.27452955E+03</pdfrwt>
<totfact> 0.10349429E+04</totfact>
</mgrwt>
</event>
<event>
 5    1  0.1129390E+001  0.2750889E+03  0.7818608E-02  0.1098402E+00
          2   -1    0    0  501    0  0.00000000000E+00  0.00000000000E+00  0.10424583344E+04  0.10424583344E+04  0.00000000000E+00 0. -1.
         -2   -1    0    0    0  501 -0.00000000000E+00 -0.00000000000E+00 -0.18147944964E+02  0.18147944964E+02  0.00000000000E+00 0. -1.
         35    2    1    2    0    0  0.00000000000E+00  0.00000000000E+00  0.10243103894E+04  0.10606062793E+04  0.27508890548E+03 0.  0.
         25    1    3    3    0    0 -0.51459993954E+02  0.33504170208E+02  0.40672172027E+03  0.42847779189E+03  0.12000000000E+03 0.  0.
         25    1    3    3    0    0  0.51459993954E+02 -0.33504170208E+02  0.61758866911E+03  0.63212848743E+03  0.12000000000E+03 0.  0.
<mgrwt>
<rscale>  0 0.27508891E+03</rscale>
<asrwt>0</asrwt>
<pdfrwt beam="1">  1        2 0.16037816E+00 0.27508891E+03</pdfrwt>
<pdfrwt beam="2">  1       -2 0.27919924E-02 0.27508891E+03</pdfrwt>
<totfact> 0.11635585E+04</totfact>
</mgrwt>
</event>
<event>
 5    1  0.1129390E+001  0.2761989E+03  0.7818608E-02  0.1097783E+00
         -2   -1    0    0    0  501 -0.00000000000E+00  0.00000000000E+00  0.22151884807E+02  0.22151884807E+02  0.00000000000E+00 0.  1.
          2   -1    0    0  501    0  0.00000000000E+00 -0.00000000000E+00 -0.86094074433E+03  0.86094074433E+03  0.00000000000E+00 0.  1.
         35    2    1    2    0    0  0.00000000000E+00  0.00000000000E+00 -0.83878885952E+03  0.88309262914E+03  0.27619891524E+03 0.  0.
         25    1    3    3    0    0  0.13191164751E+02  0.43578254848E+02 -0.58237520595E+03  0.59635052748E+03  0.12000000000E+03 0.  0.
         25    1    3    3    0    0 -0.13191164751E+02 -0.43578254848E+02 -0.25641365357E+03  0.28674210166E+03  0.12000000000E+03 0.  0.
<mgrwt>
<rscale>  0 0.27619892E+03</rscale>
<asrwt>0</asrwt>
<pdfrwt beam="1">  1        2 0.13245242E+00 0.27619892E+03</pdfrwt>
<pdfrwt beam="2">  1       -2 0.34079823E-02 0.27619892E+03</pdfrwt>
<totfact> 0.11246207E+04</totfact>
</mgrwt>
</event>
<event>
 5    1  0.1129390E+001  0.2755629E+03  0.7818608E-02  0.1098137E+00
          1   -1    0    0  501    0  0.00000000000E+00  0.00000000000E+00  0.55559047488E+03  0.55559047488E+03  0.00000000000E+00 0.  1.
         -1   -1    0    0    0  501 -0.00000000000E+00 -0.00000000000E+00 -0.34168563367E+02  0.34168563367E+02  0.00000000000E+00 0.  1.
         35    2    1    2    0    0  0.00000000000E+00  0.00000000000E+00  0.52142191151E+03  0.58975903825E+03  0.27556290278E+03 0.  0.
         25    1    3    3    0    0  0.44531023108E+02  0.49701980271E+02  0.23626867409E+03  0.27326943704E+03  0.12000000000E+03 0.  0.
         25    1    3    3    0    0 -0.44531023108E+02 -0.49701980271E+02  0.28515323742E+03  0.31648960121E+03  0.12000000000E+03 0.  0.
<mgrwt>
<rscale>  0 0.27556290E+03</rscale>
<asrwt>0</asrwt>
<pdfrwt beam="1">  1        1 0.85475451E-01 0.27556290E+03</pdfrwt>
<pdfrwt beam="2">  1       -1 0.52567025E-02 0.27556290E+03</pdfrwt>
<totfact> 0.63608243E+03</totfact>
</mgrwt>
</event>
<event>
 5    1  0.1129390E+001  0.2689128E+03  0.7818608E-02  0.1101903E+00
         -2   -1    0    0    0  501 -0.00000000000E+00  0.00000000000E+00  0.10360635480E+03  0.10360635480E+03  0.00000000000E+00 0. -1.
          2   -1    0    0  501    0  0.00000000000E+00 -0.00000000000E+00 -0.17449248205E+03  0.17449248205E+03  0.00000000000E+00 0. -1.
         35    2    1    2    0    0  0.00000000000E+00  0.00000000000E+00 -0.70886127249E+02  0.27809883686E+03  0.26891284838E+03 0.  0.
         25    1    3    3    0    0 -0.33110044601E+01  0.30596224701E+02 -0.89491522631E+02  0.15282612453E+03  0.12000000000E+03 0.  0.
         25    1    3    3    0    0  0.33110044601E+01 -0.30596224701E+02  0.18605395382E+02  0.12527271233E+03  0.12000000000E+03 0.  0.
<mgrwt>
<rscale>  0 0.26891285E+03</rscale>
<asrwt>0</asrwt>
<pdfrwt beam="1">  1        2 0.26844997E-01 0.26891285E+03</pdfrwt>
<pdfrwt beam="2">  1       -2 0.15939439E-01 0.26891285E+03</pdfrwt>
<totfact> 0.60854735E+03</totfact>
</mgrwt>
</event>
<event>
 5    1  0.1129390E+001  0.2768018E+03  0.7818608E-02  0.1097449E+00
          1   -1    0    0  501    0  0.00000000000E+00  0.00000000000E+00  0.29040540561E+03  0.29040540561E+03  0.00000000000E+00 0. -1.
         -1   -1    0    0    0  501 -0.00000000000E+00 -0.00000000000E+00 -0.65958849046E+02  0.65958849046E+02  0.00000000000E+00 0. -1.
         35    2    1    2    0    0  0.00000000000E+00  0.00000000000E+00  0.22444655656E+03  0.35636425465E+03  0.27680177970E+03 0.  0.
         25    1    3    3    0    0 -0.15490600450E+02  0.52811571200E+02  0.16570663692E+03  0.21186719961E+03  0.12000000000E+03 0.  0.
         25    1    3    3    0    0  0.15490600450E+02 -0.52811571200E+02  0.58739919646E+02  0.14449705504E+03  0.12000000000E+03 0.  0.
<mgrwt>
<rscale>  0 0.27680178E+03</rscale>
<asrwt>0</asrwt>
<pdfrwt beam="1">  1        1 0.44677754E-01 0.27680178E+03</pdfrwt>
<pdfrwt beam="2">  1       -1 0.10147515E-01 0.27680178E+03</pdfrwt>
<totfact> 0.54061708E+03</totfact>
</mgrwt>
</event>
<event>
 5    1  0.1129390E+001  0.2751809E+03  0.7818608E-02  0.1098351E+00
          2   -1    0    0  501    0  0.00000000000E+00  0.00000000000E+00  0.55905920358E+03  0.55905920358E+03  0.00000000000E+00 0.  1.
         -2   -1    0    0    0  501 -0.00000000000E+00 -0.00000000000E+00 -0.33862483600E+02  0.33862483600E+02  0.00000000000E+00 0.  1.
         35    2    1    2    0    0  0.00000000000E+00  0.00000000000E+00  0.52519671998E+03  0.59292168718E+03  0.27518090858E+03 0.  0.
         25    1    3    3    0    0  0.16558254154E+02  0.17580612997E+01  0.40312898127E+03  0.42093971314E+03  0.12000000000E+03 0.  0.
         25    1    3    3    0    0 -0.16558254154E+02 -0.17580612997E+01  0.12206773871E+03  0.17198197404E+03  0.12000000000E+03 0.  0.
<mgrwt>
<rscale>  0 0.27518091E+03</rscale>
<asrwt>0</asrwt>
<pdfrwt beam="1">  1        2 0.86009102E-01 0.27518091E+03</pdfrwt>
<pdfrwt beam="2">  1       -2 0.52096133E-02 0.27518091E+03</pdfrwt>
<totfact> 0.10023099E+04</totfact>
</mgrwt>
</event>
<event>
 5    1  0.1129390E+001  0.2751628E+03  0.7818608E-02  0.1098361E+00
          1   -1    0    0  501    0  0.00000000000E+00  0.00000000000E+00  0.26361102390E+02  0.26361102390E+02  0.00000000000E+00 0. -1.
         -1   -1    0    0    0  501 -0.00000000000E+00 -0.00000000000E+00 -0.71805214835E+03  0.71805214835E+03  0.00000000000E+00 0. -1.
         35    2    1    2    0    0  0.00000000000E+00  0.00000000000E+00 -0.69169104596E+03  0.74441325074E+03  0.27516283327E+03 0.  0.
         25    1    3    3    0    0 -0.34970565214E+02 -0.40661758471E+02 -0.23587599913E+03  0.27002556545E+03  0.12000000000E+03 0.  0.
         25    1    3    3    0    0  0.34970565214E+02  0.40661758471E+02 -0.45581504684E+03  0.47438768529E+03  0.12000000000E+03 0.  0.
<mgrwt>
<rscale>  0 0.27516283E+03</rscale>
<asrwt>0</asrwt>
<pdfrwt beam="1">  1        1 0.40555540E-02 0.27516283E+03</pdfrwt>
<pdfrwt beam="2">  1       -1 0.11046957E+00 0.27516283E+03</pdfrwt>
<totfact> 0.17903238E+03</totfact>
</mgrwt>
</event>
<event>
 5    1  0.1129390E+001  0.2765211E+03  0.7818608E-02  0.1097604E+00
          1   -1    0    0  501    0  0.00000000000E+00  0.00000000000E+00  0.20167885563E+04  0.20167885563E+04  0.00000000000E+00 0.  1.
         -1   -1    0    0    0  501 -0.00000000000E+00 -0.00000000000E+00 -0.94784231280E+01  0.94784231280E+01  0.00000000000E+00 0.  1.
         35    2    1    2    0    0  0.00000000000E+00  0.00000000000E+00  0.20073101332E+04  0.20262669794E+04  0.27652106825E+03 0.  0.
         25    1    3    3    0    0 -0.40419910089E+02  0.50213784318E+02  0.11771814378E+04  0.11850364259E+04  0.12000000000E+03 0.  0.
         25    1    3    3    0    0  0.40419910089E+02 -0.50213784318E+02  0.83012869534E+03  0.84123055347E+03  0.12000000000E+03 0.  0.
<mgrwt>
<rscale>  0 0.27652107E+03</rscale>
<asrwt>0</asrwt>
<pdfrwt beam="1">  1        1 0.31027482E+00 0.27652107E+03</pdfrwt>
<pdfrwt beam="2">  1       -1 0.14582206E-02 0.27652107E+03</pdfrwt>
<totfact> 0.35781503E+03</totfact>
</mgrwt>
</event>
<event>
 5    1  0.1129390E+001  0.2749585E+03  0.7818608E-02  0.1098475E+00
         -2   -1    0    0    0  501 -0.00000000000E+00  0.00000000000E+00  0.38985912532E+02  0.38985912532E+02  0.00000000000E+00 0.  1.
          2   -1    0    0  501    0  0.00000000000E+00 -0.00000000000E+00 -0.48480451015E+03  0.48480451015E+03  0.00000000000E+00 0.  1.
         35    2    1    2    0    0  0.00000000000E+00  0.00000000000E+00 -0.44581859762E+03  0.52379042268E+03  0.27495851489E+03 0.  0.
         25    1    3    3    0    0  0.13686093141E+02 -0.52745902440E+02 -0.29744994112E+03  0.32533967917E+03  0.12000000000E+03 0.  0.
         25    1    3    3    0    0 -0.13686093141E+02  0.52745902440E+02 -0.14836865649E+03  0.19845074351E+03  0.12000000000E+03 0.  0.
<mgrwt>
<rscale>  0 0.27495851E+03</rscale>
<asrwt>0</asrwt>
<pdfrwt beam="1">  1        2 0.74585310E-01 0.27495851E+03</pdfrwt>
<pdfrwt beam="2">  1       -2 0.59978326E-02 0.27495851E+03</pdfrwt>
<totfact> 0.94893095E+03</totfact>
</mgrwt>
</event>
<event>
 5    1  0.1129390E+001  0.2751757E+03  0.7818608E-02  0.1098353E+00
          2   -1    0    0  501    0  0.00000000000E+00  0.00000000000E+00  0.14472440343E+04  0.14472440343E+04  0.00000000000E+00 0. -1.
         -2   -1    0    0    0  501 -0.00000000000E+00 -0.00000000000E+00 -0.13080319282E+02  0.13080319282E+02  0.00000000000E+00 0. -1.
         35    2    1    2    0    0  0.00000000000E+00  0.00000000000E+00  0.14341637150E+04  0.14603243536E+04  0.27517568241E+03 0.  0.
         25    1    3    3    0    0 -0.24372658800E+02  0.61513467461E+02  0.78261288220E+03  0.79451926129E+03  0.12000000000E+03 0.  0.
         25    1    3    3    0    0  0.24372658800E+02 -0.61513467461E+02  0.65155083280E+03  0.66580509228E+03  0.12000000000E+03 0.  0.
<mgrwt>
<rscale>  0 0.27517568E+03</rscale>
<asrwt>0</asrwt>
<pdfrwt beam="1">  1        2 0.22265280E+00 0.27517568E+03</pdfrwt>
<pdfrwt beam="2">  1       -2 0.20123580E-02 0.27517568E+03</pdfrwt>
<totfact> 0.11158154E+04</totfact>
</mgrwt>
</event>
<event>
 5    1  0.1129390E+001  0.2747345E+03  0.7818608E-02  0.1098600E+00
          2   -1    0    0  501    0  0.00000000000E+00  0.00000000000E+00  0.15399664072E+04  0.15399664072E+04  0.00000000000E+00 0.  1.
         -2   -1    0    0    0  501 -0.00000000000E+00 -0.00000000000E+00 -0.12253361501E+02  0.12253361501E+02  0.00000000000E+00 0.  1.
         35    2    1    2    0    0  0.00000000000E+00  0.00000000000E+00  0.15277130457E+04  0.15522197687E+04  0.27473452703E+03 0.  0.
         25    1    3    3    0    0 -0.50209377076E+02 -0.31159391563E+02  0.58717878509E+03  0.60222156627E+03  0.12000000000E+03 0.  0.
         25    1    3    3    0    0  0.50209377076E+02  0.31159391563E+02  0.94053426059E+03  0.94999820241E+03  0.12000000000E+03 0.  0.
<mgrwt>
<rscale>  0 0.27473453E+03</rscale>
<asrwt>0</asrwt>
<pdfrwt beam="1">  1        2 0.23691776E+00 0.27473453E+03</pdfrwt>
<pdfrwt beam="2">  1       -2 0.18851338E-02 0.27473453E+03</pdfrwt>
<totfact> 0.10954681E+04</totfact>
</mgrwt>
</event>
<event>
 5    1  0.1129390E+001  0.2730013E+03  0.7818608E-02  0.1099574E+00
          1   -1    0    0  501    0  0.00000000000E+00  0.00000000000E+00  0.43579125578E+02  0.43579125578E+02  0.00000000000E+00 0.  1.
         -1   -1    0    0    0  501 -0.00000000000E+00 -0.00000000000E+00 -0.42755386287E+03  0.42755386287E+03  0.00000000000E+00 0.  1.
         35    2    1    2    0    0  0.00000000000E+00  0.00000000000E+00 -0.38397473729E+03  0.47113298844E+03  0.27300127092E+03 0.  0.
         25    1    3    3    0    0  0.24121240679E+02 -0.42631716647E+02 -0.26587555387E+03  0.29578557717E+03  0.12000000000E+03 0.  0.
         25    1    3    3    0    0 -0.24121240679E+02  0.42631716647E+02 -0.11809918341E+03  0.17534741127E+03  0.12000000000E+03 0.  0.
<mgrwt>
<rscale>  0 0.27300127E+03</rscale>
<asrwt>0</asrwt>
<pdfrwt beam="1">  1        1 0.67044807E-02 0.27300127E+03</pdfrwt>
<pdfrwt beam="2">  1       -1 0.65777519E-01 0.27300127E+03</pdfrwt>
<totfact> 0.26825777E+03</totfact>
</mgrwt>
</event>
<event>
 5    1  0.1129390E+001  0.2745046E+03  0.7818608E-02  0.1098729E+00
          2   -1    0    0  501    0  0.00000000000E+00  0.00000000000E+00  0.38260086750E+04  0.38260086750E+04  0.00000000000E+00 0.  1.
         -2   -1    0    0    0  501 -0.00000000000E+00 -0.00000000000E+00 -0.49237208461E+01  0.49237208461E+01  0.00000000000E+00 0.  1.
         35    2    1    2    0    0  0.00000000000E+00  0.00000000000E+00  0.38210849542E+04  0.38309323958E+04  0.27450463508E+03 0.  0.
         25    1    3    3    0    0  0.56017768356E+01 -0.14165495716E+02  0.28156445747E+04  0.28182417235E+04  0.12000000000E+03 0.  0.
         25    1    3    3    0    0 -0.56017768356E+01  0.14165495716E+02  0.10054403795E+04  0.10126906723E+04  0.12000000000E+03 0.  0.
<mgrwt>
<rscale>  0 0.27450464E+03</rscale>
<asrwt>0</asrwt>
<pdfrwt beam="1">  1        2 0.58861434E+00 0.27450464E+03</pdfrwt>
<pdfrwt beam="2">  1       -2 0.75749857E-03 0.27450464E+03</pdfrwt>
<totfact> 0.19234963E+03</totfact>
</mgrwt>
</event>
<event>
 5    1  0.1129390E+001  0.2745389E+03  0.7818608E-02  0.1098710E+00
          2   -1    0    0  501    0  0.00000000000E+00  0.00000000000E+00  0.15375562336E+04  0.15375562336E+04  0.00000000000E+00 0.  1.
         -2   -1    0    0    0  501 -0.00000000000E+00 -0.00000000000E+00 -0.12255102079E+02  0.12255102079E+02  0.00000000000E+00 0.  1.
         35    2    1    2    0    0  0.00000000000E+00  0.00000000000E+00  0.15253011316E+04  0.15498113357E+04  0.27453894875E+03 0.  0.
         25    1    3    3    0    0  0.17247211064E+02  0.15589289471E+02  0.11152987634E+04  0.11219767484E+04  0.12000000000E+03 0.  0.
         25    1    3    3    0    0 -0.17247211064E+02 -0.15589289471E+02  0.41000236812E+03  0.42783458731E+03  0.12000000000E+03 0.  0.
<mgrwt>
<rscale>  0 0.27453895E+03</rscale>
<asrwt>0</asrwt>
<pdfrwt beam="1">  1        2 0.23654696E+00 0.27453895E+03</pdfrwt>
<pdfrwt beam="2">  1       -2 0.18854015E-02 0.27453895E+03</pdfrwt>
<totfact> 0.10984678E+04</totfact>
</mgrwt>
</event>
<event>
 5    1  0.1129390E+001  0.2771004E+03  0.7818608E-02  0.1097283E+00
         -1   -1    0    0    0  501 -0.00000000000E+00  0.00000000000E+00  0.29811224954E+02  0.29811224954E+02  0.00000000000E+00 0.  1.
          1   -1    0    0  501    0  0.00000000000E+00 -0.00000000000E+00 -0.64392373550E+03  0.64392373550E+03  0.00000000000E+00 0.  1.
         35    2    1    2    0    0  0.00000000000E+00  0.00000000000E+00 -0.61411251054E+03  0.67373496045E+03  0.27710038132E+03 0.  0.
         25    1    3    3    0    0 -0.40900675388E+02 -0.51415799908E+02 -0.36030867624E+03  0.38540730649E+03  0.12000000000E+03 0.  0.
         25    1    3    3    0    0  0.40900675388E+02  0.51415799908E+02 -0.25380383431E+03  0.28832765396E+03  0.12000000000E+03 0.  0.
<mgrwt>
<rscale>  0 0.27710038E+03</rscale>
<asrwt>0</asrwt>
<pdfrwt beam="1">  1        1 0.99065190E-01 0.27710038E+03</pdfrwt>
<pdfrwt beam="2">  1       -1 0.45863423E-02 0.27710038E+03</pdfrwt>
<totfact> 0.63580643E+03</totfact>
</mgrwt>
</event>
<event>
 5    1  0.1129390E+001  0.2741944E+03  0.7818608E-02  0.1098903E+00
         -2   -1    0    0    0  501 -0.00000000000E+00  0.00000000000E+00  0.17028331312E+02  0.17028331312E+02  0.00000000000E+00 0. -1.
          2   -1    0    0  501    0  0.00000000000E+00 -0.00000000000E+00 -0.11037868842E+04  0.11037868842E+04  0.00000000000E+00 0. -1.
         35    2    1    2    0    0  0.00000000000E+00  0.00000000000E+00 -0.10867585529E+04  0.11208152155E+04  0.27419444751E+03 0.  0.
         25    1    3    3    0    0 -0.58256881062E+01  0.40887973140E+01 -0.81282410055E+03  0.82166518445E+03  0.12000000000E+03 0.  0.
         25    1    3    3    0    0  0.58256881062E+01 -0.40887973140E+01 -0.27393445233E+03  0.29915003105E+03  0.12000000000E+03 0.  0.
<mgrwt>
<rscale>  0 0.27419445E+03</rscale>
<asrwt>0</asrwt>
<pdfrwt beam="1">  1        2 0.16981339E+00 0.27419445E+03</pdfrwt>
<pdfrwt beam="2">  1       -2 0.26197429E-02 0.27419445E+03</pdfrwt>
<totfact> 0.11758801E+04</totfact>
</mgrwt>
</event>
<event>
 5    1  0.1129390E+001  0.2756364E+03  0.7818608E-02  0.1098096E+00
         -2   -1    0    0    0  501 -0.00000000000E+00  0.00000000000E+00  0.11261437708E+02  0.11261437708E+02  0.00000000000E+00 0.  1.
          2   -1    0    0  501    0  0.00000000000E+00 -0.00000000000E+00 -0.16866284443E+04  0.16866284443E+04  0.00000000000E+00 0.  1.
         35    2    1    2    0    0  0.00000000000E+00  0.00000000000E+00 -0.16753670066E+04  0.16978898821E+04  0.27563643563E+03 0.  0.
         25    1    3    3    0    0  0.43765735169E+02 -0.31418232226E+02 -0.10910127365E+04  0.10989137073E+04  0.12000000000E+03 0.  0.
         25    1    3    3    0    0 -0.43765735169E+02  0.31418232226E+02 -0.58435427013E+03  0.59897617474E+03  0.12000000000E+03 0.  0.
<mgrwt>
<rscale>  0 0.27563644E+03</rscale>
<asrwt>0</asrwt>
<pdfrwt beam="1">  1        2 0.25948112E+00 0.27563644E+03</pdfrwt>
<pdfrwt beam="2">  1       -2 0.17325301E-02 0.27563644E+03</pdfrwt>
<totfact> 0.10369849E+04</totfact>
</mgrwt>
</event>
<event>
 5    1  0.1129390E+001  0.2763059E+03  0.7818608E-02  0.1097724E+00
          2   -1    0    0  501    0  0.00000000000E+00  0.00000000000E+00  0.10862297617E+04  0.10862297617E+04  0.00000000000E+00 0.  1.
         -2   -1    0    0    0  501 -0.00000000000E+00 -0.00000000000E+00 -0.17571088121E+02  0.17571088121E+02  0.00000000000E+00 0.  1.
         35    2    1    2    0    0  0.00000000000E+00  0.00000000000E+00  0.10686586736E+04  0.11038008498E+04  0.27630590918E+03 0.  0.
         25    1    3    3    0    0  0.35880000757E+02  0.39181141231E+02  0.70678952443E+03  0.71886992435E+03  0.12000000000E+03 0.  0.
         25    1    3    3    0    0 -0.35880000757E+02 -0.39181141231E+02  0.36186914915E+03  0.38493092548E+03  0.12000000000E+03 0.  0.
<mgrwt>
<rscale>  0 0.27630591E+03</rscale>
<asrwt>0</asrwt>
<pdfrwt beam="1">  1        2 0.16711222E+00 0.27630591E+03</pdfrwt>
<pdfrwt beam="2">  1       -2 0.27032452E-02 0.27630591E+03</pdfrwt>
<totfact> 0.11497194E+04</totfact>
</mgrwt>
</event>
<event>
 5    1  0.1129390E+001  0.2731742E+03  0.7818608E-02  0.1099477E+00
         -3   -1    0    0    0  501 -0.00000000000E+00  0.00000000000E+00  0.11542394965E+04  0.11542394965E+04  0.00000000000E+00 0.  1.
          3   -1    0    0  501    0  0.00000000000E+00 -0.00000000000E+00 -0.16163053176E+02  0.16163053176E+02  0.00000000000E+00 0.  1.
         35    2    1    2    0    0  0.00000000000E+00  0.00000000000E+00  0.11380764433E+04  0.11704025497E+04  0.27317418882E+03 0.  0.
         25    1    3    3    0    0 -0.18935742682E+01  0.10817496240E+02  0.29351642557E+03  0.31728929375E+03  0.12000000000E+03 0.  0.
         25    1    3    3    0    0  0.18935742682E+01 -0.10817496240E+02  0.84456001774E+03  0.85311325591E+03  0.12000000000E+03 0.  0.
<mgrwt>
<rscale>  0 0.27317419E+03</rscale>
<asrwt>0</asrwt>
<pdfrwt beam="1">  1        3 0.24866245E-02 0.27317419E+03</pdfrwt>
<pdfrwt beam="2">  1       -3 0.17757524E+00 0.27317419E+03</pdfrwt>
<totfact> 0.38095851E+02</totfact>
</mgrwt>
</event>
<event>
 5    1  0.1129390E+001  0.2724992E+03  0.7818608E-02  0.1099858E+00
          3   -1    0    0  501    0  0.00000000000E+00  0.00000000000E+00  0.10522374418E+04  0.10522374418E+04  0.00000000000E+00 0. -1.
         -3   -1    0    0    0  501 -0.00000000000E+00 -0.00000000000E+00 -0.17642361523E+02  0.17642361523E+02  0.00000000000E+00 0. -1.
         35    2    1    2    0    0  0.00000000000E+00  0.00000000000E+00  0.10345950803E+04  0.10698798034E+04  0.27249919895E+03 0.  0.
         25    1    3    3    0    0  0.10465506841E+02 -0.35393872770E+02  0.72511431334E+03  0.73590286076E+03  0.12000000000E+03 0.  0.
         25    1    3    3    0    0 -0.10465506841E+02  0.35393872770E+02  0.30948076698E+03  0.33397694261E+03  0.12000000000E+03 0.  0.
<mgrwt>
<rscale>  0 0.27249920E+03</rscale>
<asrwt>0</asrwt>
<pdfrwt beam="1">  1        3 0.16188263E+00 0.27249920E+03</pdfrwt>
<pdfrwt beam="2">  1       -3 0.27142103E-02 0.27249920E+03</pdfrwt>
<totfact> 0.42619364E+02</totfact>
</mgrwt>
</event>
<event>
 5    1  0.1129390E+001  0.2766790E+03  0.7818608E-02  0.1097517E+00
         -2   -1    0    0    0  501 -0.00000000000E+00  0.00000000000E+00  0.35961897885E+02  0.35961897885E+02  0.00000000000E+00 0.  1.
          2   -1    0    0  501    0  0.00000000000E+00 -0.00000000000E+00 -0.53216928968E+03  0.53216928968E+03  0.00000000000E+00 0.  1.
         35    2    1    2    0    0  0.00000000000E+00  0.00000000000E+00 -0.49620739180E+03  0.56813118757E+03  0.27667900284E+03 0.  0.
         25    1    3    3    0    0 -0.53629296549E+01 -0.17763705614E+02 -0.11199743291E+03  0.16518999737E+03  0.12000000000E+03 0.  0.
         25    1    3    3    0    0  0.53629296549E+01  0.17763705614E+02 -0.38420995889E+03  0.40294119020E+03  0.12000000000E+03 0.  0.
<mgrwt>
<rscale>  0 0.27667900E+03</rscale>
<asrwt>0</asrwt>
<pdfrwt beam="1">  1        2 0.81872197E-01 0.27667900E+03</pdfrwt>
<pdfrwt beam="2">  1       -2 0.55325998E-02 0.27667900E+03</pdfrwt>
<totfact> 0.96736014E+03</totfact>
</mgrwt>
</event>
<event>
 5    1  0.1129390E+001  0.2751919E+03  0.7818608E-02  0.1098344E+00
          2   -1    0    0  501    0  0.00000000000E+00  0.00000000000E+00  0.15077042102E+04  0.15077042102E+04  0.00000000000E+00 0. -1.
         -2   -1    0    0    0  501 -0.00000000000E+00 -0.00000000000E+00 -0.12557270229E+02  0.12557270229E+02  0.00000000000E+00 0. -1.
         35    2    1    2    0    0  0.00000000000E+00  0.00000000000E+00  0.14951469400E+04  0.15202614805E+04  0.27519192715E+03 0.  0.
         25    1    3    3    0    0  0.54141595247E+02 -0.37536619286E+02  0.82418892012E+03  0.83548051215E+03  0.12000000000E+03 0.  0.
         25    1    3    3    0    0 -0.54141595247E+02  0.37536619286E+02  0.67095801990E+03  0.68478096833E+03  0.12000000000E+03 0.  0.
<mgrwt>
<rscale>  0 0.27519193E+03</rscale>
<asrwt>0</asrwt>
<pdfrwt beam="1">  1        2 0.23195435E+00 0.27519193E+03</pdfrwt>
<pdfrwt beam="2">  1       -2 0.19318889E-02 0.27519193E+03</pdfrwt>
<totfact> 0.10995112E+04</totfact>
</mgrwt>
</event>
<event>
 5    1  0.1129390E+001  0.2740620E+03  0.7818608E-02  0.1098977E+00
          1   -1    0    0  501    0  0.00000000000E+00  0.00000000000E+00  0.88043488887E+02  0.88043488887E+02  0.00000000000E+00 0.  1.
         -1   -1    0    0    0  501 -0.00000000000E+00 -0.00000000000E+00 -0.21327528164E+03  0.21327528164E+03  0.00000000000E+00 0.  1.
         35    2    1    2    0    0  0.00000000000E+00  0.00000000000E+00 -0.12523179276E+03  0.30131877053E+03  0.27406203596E+03 0.  0.
         25    1    3    3    0    0 -0.12096097134E+02  0.28258283646E+01 -0.13406521327E+03  0.18035460150E+03  0.12000000000E+03 0.  0.
         25    1    3    3    0    0  0.12096097134E+02 -0.28258283646E+01  0.88334205153E+01  0.12096416903E+03  0.12000000000E+03 0.  0.
<mgrwt>
<rscale>  0 0.27406204E+03</rscale>
<asrwt>0</asrwt>
<pdfrwt beam="1">  1        1 0.13545152E-01 0.27406204E+03</pdfrwt>
<pdfrwt beam="2">  1       -1 0.32811582E-01 0.27406204E+03</pdfrwt>
<totfact> 0.37152645E+03</totfact>
</mgrwt>
</event>
<event>
 5    1  0.1129390E+001  0.2746163E+03  0.7818608E-02  0.1098666E+00
          2   -1    0    0  501    0  0.00000000000E+00  0.00000000000E+00  0.73397792252E+03  0.73397792252E+03  0.00000000000E+00 0.  1.
         -2   -1    0    0    0  501 -0.00000000000E+00 -0.00000000000E+00 -0.25686777884E+02  0.25686777884E+02  0.00000000000E+00 0.  1.
         35    2    1    2    0    0  0.00000000000E+00  0.00000000000E+00  0.70829114463E+03  0.75966470040E+03  0.27461629862E+03 0.  0.
         25    1    3    3    0    0 -0.36027143752E+02 -0.59388338721E+01  0.19962225477E+03  0.23575892228E+03  0.12000000000E+03 0.  0.
         25    1    3    3    0    0  0.36027143752E+02  0.59388338721E+01  0.50866888986E+03  0.52390577812E+03  0.12000000000E+03 0.  0.
<mgrwt>
<rscale>  0 0.27461630E+03</rscale>
<asrwt>0</asrwt>
<pdfrwt beam="1">  1        2 0.11291966E+00 0.27461630E+03</pdfrwt>
<pdfrwt beam="2">  1       -2 0.39518125E-02 0.27461630E+03</pdfrwt>
<totfact> 0.11029997E+04</totfact>
</mgrwt>
</event>
<event>
 5    1  0.1129390E+001  0.2762497E+03  0.7818608E-02  0.1097755E+00
         -3   -1    0    0    0  501 -0.00000000000E+00  0.00000000000E+00  0.98398198116E+03  0.98398198116E+03  0.00000000000E+00 0. -1.
          3   -1    0    0  501    0  0.00000000000E+00 -0.00000000000E+00 -0.19389049112E+02  0.19389049112E+02  0.00000000000E+00 0. -1.
         35    2    1    2    0    0  0.00000000000E+00  0.00000000000E+00  0.96459293205E+03  0.10033710303E+04  0.27624970558E+03 0.  0.
         25    1    3    3    0    0  0.93753768188E+01 -0.67574829601E+02  0.50017137593E+03  0.51886959882E+03  0.12000000000E+03 0.  0.
         25    1    3    3    0    0 -0.93753768188E+01  0.67574829601E+02  0.46442155612E+03  0.48450143145E+03  0.12000000000E+03 0.  0.
<mgrwt>
<rscale>  0 0.27624971E+03</rscale>
<asrwt>0</asrwt>
<pdfrwt beam="1">  1        3 0.29829314E-02 0.27624971E+03</pdfrwt>
<pdfrwt beam="2">  1       -3 0.15138180E+00 0.27624971E+03</pdfrwt>
<totfact> 0.43558690E+02</totfact>
</mgrwt>
</event>
<event>
 5    1  0.1129390E+001  0.2745809E+03  0.7818608E-02  0.1098686E+00
         -2   -1    0    0    0  501 -0.00000000000E+00  0.00000000000E+00  0.30720332974E+02  0.30720332974E+02  0.00000000000E+00 0. -1.
          2   -1    0    0  501    0  0.00000000000E+00 -0.00000000000E+00 -0.61355676784E+03  0.61355676784E+03  0.00000000000E+00 0. -1.
         35    2    1    2    0    0  0.00000000000E+00  0.00000000000E+00 -0.58283643486E+03  0.64427710081E+03  0.27458090397E+03 0.  0.
         25    1    3    3    0    0 -0.18045763864E+02 -0.26443179366E+02 -0.15412310009E+03  0.19793640724E+03  0.12000000000E+03 0.  0.
         25    1    3    3    0    0  0.18045763864E+02  0.26443179366E+02 -0.42871333477E+03  0.44634069357E+03  0.12000000000E+03 0.  0.
<mgrwt>
<rscale>  0 0.27458090E+03</rscale>
<asrwt>0</asrwt>
<pdfrwt beam="1">  1        2 0.94393344E-01 0.27458090E+03</pdfrwt>
<pdfrwt beam="2">  1       -2 0.47262053E-02 0.27458090E+03</pdfrwt>
<totfact> 0.10436574E+04</totfact>
</mgrwt>
</event>
<event>
 5    1  0.1129390E+001  0.2748238E+03  0.7818608E-02  0.1098550E+00
          1   -1    0    0  501    0  0.00000000000E+00  0.00000000000E+00  0.70970384186E+03  0.70970384186E+03  0.00000000000E+00 0.  1.
         -1   -1    0    0    0  501 -0.00000000000E+00 -0.00000000000E+00 -0.26605507603E+02  0.26605507603E+02  0.00000000000E+00 0.  1.
         35    2    1    2    0    0  0.00000000000E+00  0.00000000000E+00  0.68309833426E+03  0.73630934947E+03  0.27482380509E+03 0.  0.
         25    1    3    3    0    0 -0.10114552347E+02  0.49476569495E+02  0.22379220794E+03  0.25890768129E+03  0.12000000000E+03 0.  0.
         25    1    3    3    0    0  0.10114552347E+02 -0.49476569495E+02  0.45930612632E+03  0.47740166818E+03  0.12000000000E+03 0.  0.
<mgrwt>
<rscale>  0 0.27482381E+03</rscale>
<asrwt>0</asrwt>
<pdfrwt beam="1">  1        1 0.10918519E+00 0.27482381E+03</pdfrwt>
<pdfrwt beam="2">  1       -1 0.40931556E-02 0.27482381E+03</pdfrwt>
<totfact> 0.65458648E+03</totfact>
</mgrwt>
</event>
<event>
 5    1  0.1129390E+001  0.2747678E+03  0.7818608E-02  0.1098581E+00
         -2   -1    0    0    0  501 -0.00000000000E+00  0.00000000000E+00  0.77738117647E+01  0.77738117647E+01  0.00000000000E+00 0.  1.
          2   -1    0    0  501    0  0.00000000000E+00 -0.00000000000E+00 -0.24279378080E+04  0.24279378080E+04  0.00000000000E+00 0.  1.
         35    2    1    2    0    0  0.00000000000E+00  0.00000000000E+00 -0.24201639963E+04  0.24357116198E+04  0.27476776737E+03 0.  0.
         25    1    3    3    0    0 -0.52144726506E+02  0.40434443247E+02 -0.11128476746E+04  0.11212421520E+04  0.12000000000E+03 0.  0.
         25    1    3    3    0    0  0.52144726506E+02 -0.40434443247E+02 -0.13073163217E+04  0.13144694678E+04  0.12000000000E+03 0.  0.
<mgrwt>
<rscale>  0 0.27476777E+03</rscale>
<asrwt>0</asrwt>
<pdfrwt beam="1">  1        2 0.37352885E+00 0.27476777E+03</pdfrwt>
<pdfrwt beam="2">  1       -2 0.11959712E-02 0.27476777E+03</pdfrwt>
<totfact> 0.72140923E+03</totfact>
</mgrwt>
</event>
<event>
 5    1  0.1129390E+001  0.2746511E+03  0.7818608E-02  0.1098647E+00
          1   -1    0    0  501    0  0.00000000000E+00  0.00000000000E+00  0.84872732290E+03  0.84872732290E+03  0.00000000000E+00 0. -1.
         -1   -1    0    0    0  501 -0.00000000000E+00 -0.00000000000E+00 -0.22219511936E+02  0.22219511936E+02  0.00000000000E+00 0. -1.
         35    2    1    2    0    0  0.00000000000E+00  0.00000000000E+00  0.82650781096E+03  0.87094683483E+03  0.27465110145E+03 0.  0.
         25    1    3    3    0    0 -0.15249098383E+02 -0.64849106274E+02  0.39894337740E+03  0.42189306697E+03  0.12000000000E+03 0.  0.
         25    1    3    3    0    0  0.15249098383E+02  0.64849106274E+02  0.42756443357E+03  0.44905376787E+03  0.12000000000E+03 0.  0.
<mgrwt>
<rscale>  0 0.27465110E+03</rscale>
<asrwt>0</asrwt>
<pdfrwt beam="1">  1        1 0.13057341E+00 0.27465110E+03</pdfrwt>
<pdfrwt beam="2">  1       -1 0.34183871E-02 0.27465110E+03</pdfrwt>
<totfact> 0.65148423E+03</totfact>
</mgrwt>
</event>
<event>
 5    1  0.1129390E+001  0.2756649E+03  0.7818608E-02  0.1098081E+00
         -2   -1    0    0    0  501 -0.00000000000E+00  0.00000000000E+00  0.31152899398E+02  0.31152899398E+02  0.00000000000E+00 0. -1.
          2   -1    0    0  501    0  0.00000000000E+00 -0.00000000000E+00 -0.60982393904E+03  0.60982393904E+03  0.00000000000E+00 0. -1.
         35    2    1    2    0    0  0.00000000000E+00  0.00000000000E+00 -0.57867103964E+03  0.64097683844E+03  0.27566489674E+03 0.  0.
         25    1    3    3    0    0 -0.24663434244E+02  0.54367070815E+02 -0.36409433732E+03  0.38798034724E+03  0.12000000000E+03 0.  0.
         25    1    3    3    0    0  0.24663434244E+02 -0.54367070815E+02 -0.21457670232E+03  0.25299649120E+03  0.12000000000E+03 0.  0.
<mgrwt>
<rscale>  0 0.27566490E+03</rscale>
<asrwt>0</asrwt>
<pdfrwt beam="1">  1        2 0.93819068E-01 0.27566490E+03</pdfrwt>
<pdfrwt beam="2">  1       -2 0.47927537E-02 0.27566490E+03</pdfrwt>
<totfact> 0.10292228E+04</totfact>
</mgrwt>
</event>
<event>
 5    1  0.1129390E+001  0.2757783E+03  0.7818608E-02  0.1098017E+00
          2   -1    0    0  501    0  0.00000000000E+00  0.00000000000E+00  0.70275434746E+03  0.70275434746E+03  0.00000000000E+00 0. -1.
         -2   -1    0    0    0  501 -0.00000000000E+00 -0.00000000000E+00 -0.27055564394E+02  0.27055564394E+02  0.00000000000E+00 0. -1.
         35    2    1    2    0    0  0.00000000000E+00  0.00000000000E+00  0.67569878307E+03  0.72980991186E+03  0.27577828414E+03 0.  0.
         25    1    3    3    0    0 -0.40399583665E+02 -0.96443772483E+01  0.19562667408E+03  0.23322721965E+03  0.12000000000E+03 0.  0.
         25    1    3    3    0    0  0.40399583665E+02  0.96443772483E+01  0.48007210899E+03  0.49658269221E+03  0.12000000000E+03 0.  0.
<mgrwt>
<rscale>  0 0.27577828E+03</rscale>
<asrwt>0</asrwt>
<pdfrwt beam="1">  1        2 0.10811604E+00 0.27577828E+03</pdfrwt>
<pdfrwt beam="2">  1       -2 0.41623950E-02 0.27577828E+03</pdfrwt>
<totfact> 0.10760009E+04</totfact>
</mgrwt>
</event>
<event>
 5    1  0.1129390E+001  0.2751953E+03  0.7818608E-02  0.1098342E+00
         -2   -1    0    0    0  501 -0.00000000000E+00  0.00000000000E+00  0.79808435004E+01  0.79808435004E+01  0.00000000000E+00 0.  1.
          2   -1    0    0  501    0  0.00000000000E+00 -0.00000000000E+00 -0.23723205703E+04  0.23723205703E+04  0.00000000000E+00 0.  1.
         35    2    1    2    0    0  0.00000000000E+00  0.00000000000E+00 -0.23643397268E+04  0.23803014138E+04  0.27519534302E+03 0.  0.
         25    1    3    3    0    0 -0.62159135437E+02 -0.22504425027E+02 -0.12925694208E+04  0.12998099534E+04  0.12000000000E+03 0.  0.
         25    1    3    3    0    0  0.62159135437E+02  0.22504425027E+02 -0.10717703060E+04  0.10804914604E+04  0.12000000000E+03 0.  0.
<mgrwt>
<rscale>  0 0.27519534E+03</rscale>
<asrwt>0</asrwt>
<pdfrwt beam="1">  1        2 0.36497220E+00 0.27519534E+03</pdfrwt>
<pdfrwt beam="2">  1       -2 0.12278227E-02 0.27519534E+03</pdfrwt>
<totfact> 0.74418401E+03</totfact>
</mgrwt>
</event>
<event>
 5    1  0.1129390E+001  0.2743009E+03  0.7818608E-02  0.1098843E+00
         -3   -1    0    0    0  501 -0.00000000000E+00  0.00000000000E+00  0.14642237925E+04  0.14642237925E+04  0.00000000000E+00 0.  1.
          3   -1    0    0  501    0  0.00000000000E+00 -0.00000000000E+00 -0.12846567349E+02  0.12846567349E+02  0.00000000000E+00 0.  1.
         35    2    1    2    0    0  0.00000000000E+00  0.00000000000E+00  0.14513772251E+04  0.14770703598E+04  0.27430092646E+03 0.  0.
         25    1    3    3    0    0 -0.75261486053E+01  0.14993562711E+02  0.10716963556E+04  0.10785242364E+04  0.12000000000E+03 0.  0.
         25    1    3    3    0    0  0.75261486053E+01 -0.14993562711E+02  0.37968086955E+03  0.39854612347E+03  0.12000000000E+03 0.  0.
<mgrwt>
<rscale>  0 0.27430093E+03</rscale>
<asrwt>0</asrwt>
<pdfrwt beam="1">  1        3 0.19763961E-02 0.27430093E+03</pdfrwt>
<pdfrwt beam="2">  1       -3 0.22526507E+00 0.27430093E+03</pdfrwt>
<totfact> 0.27759394E+02</totfact>
</mgrwt>
</event>
<event>
 5    1  0.1129390E+001  0.2746732E+03  0.7818608E-02  0.1098634E+00
         -2   -1    0    0    0  501 -0.00000000000E+00  0.00000000000E+00  0.26113387405E+03  0.26113387405E+03  0.00000000000E+00 0. -1.
          2   -1    0    0  501    0  0.00000000000E+00 -0.00000000000E+00 -0.72228632201E+02  0.72228632201E+02  0.00000000000E+00 0. -1.
         35    2    1    2    0    0  0.00000000000E+00  0.00000000000E+00  0.18890524184E+03  0.33336250625E+03  0.27467320615E+03 0.  0.
         25    1    3    3    0    0  0.58183735299E+02  0.27579269528E+02  0.72899155603E+02  0.15446763431E+03  0.12000000000E+03 0.  0.
         25    1    3    3    0    0 -0.58183735299E+02 -0.27579269528E+02  0.11600608624E+03  0.17889487194E+03  0.12000000000E+03 0.  0.
<mgrwt>
<rscale>  0 0.27467321E+03</rscale>
<asrwt>0</asrwt>
<pdfrwt beam="1">  1        2 0.11112097E-01 0.27467321E+03</pdfrwt>
<pdfrwt beam="2">  1       -2 0.40174442E-01 0.27467321E+03</pdfrwt>
<totfact> 0.33044907E+03</totfact>
</mgrwt>
</event>
<event>
 5    1  0.1129390E+001  0.2792007E+03  0.7818608E-02  0.1096126E+00
          1   -1    0    0  501    0  0.00000000000E+00  0.00000000000E+00  0.89464243736E+03  0.89464243736E+03  0.00000000000E+00 0.  1.
         -1   -1    0    0    0  501 -0.00000000000E+00 -0.00000000000E+00 -0.21783295005E+02  0.21783295005E+02  0.00000000000E+00 0.  1.
         35    2    1    2    0    0  0.00000000000E+00  0.00000000000E+00  0.87285914236E+03  0.91642573237E+03  0.27920071731E+03 0.  0.
         25    1    3    3    0    0 -0.71662487530E+01  0.29774872553E+02  0.22497175948E+03  0.25680769210E+03  0.12000000000E+03 0.  0.
         25    1    3    3    0    0  0.71662487530E+01 -0.29774872553E+02  0.64788738288E+03  0.65961804027E+03  0.12000000000E+03 0.  0.
<mgrwt>
<rscale>  0 0.27920072E+03</rscale>
<asrwt>0</asrwt>
<pdfrwt beam="1">  1        1 0.13763727E+00 0.27920072E+03</pdfrwt>
<pdfrwt beam="2">  1       -1 0.33512768E-02 0.27920072E+03</pdfrwt>
<totfact> 0.61680958E+03</totfact>
</mgrwt>
</event>
<event>
 5    1  0.1129390E+001  0.2755329E+03  0.7818608E-02  0.1098154E+00
         -2   -1    0    0    0  501 -0.00000000000E+00  0.00000000000E+00  0.46982462645E+02  0.46982462645E+02  0.00000000000E+00 0. -1.
          2   -1    0    0  501    0  0.00000000000E+00 -0.00000000000E+00 -0.40397190771E+03  0.40397190771E+03  0.00000000000E+00 0. -1.
         35    2    1    2    0    0  0.00000000000E+00  0.00000000000E+00 -0.35698944506E+03  0.45095437035E+03  0.27553290231E+03 0.  0.
         25    1    3    3    0    0 -0.22637761245E+02 -0.62979800083E+02 -0.16207322943E+03  0.21247742269E+03  0.12000000000E+03 0.  0.
         25    1    3    3    0    0  0.22637761245E+02  0.62979800083E+02 -0.19491621563E+03  0.23847694766E+03  0.12000000000E+03 0.  0.
<mgrwt>
<rscale>  0 0.27553290E+03</rscale>
<asrwt>0</asrwt>
<pdfrwt beam="1">  1        2 0.62149523E-01 0.27553290E+03</pdfrwt>
<pdfrwt beam="2">  1       -2 0.72280713E-02 0.27553290E+03</pdfrwt>
<totfact> 0.86964491E+03</totfact>
</mgrwt>
</event>
<event>
 5    1  0.1129390E+001  0.2756789E+03  0.7818608E-02  0.1098073E+00
          3   -1    0    0  501    0  0.00000000000E+00  0.00000000000E+00  0.88574968900E+02  0.88574968900E+02  0.00000000000E+00 0.  1.
         -3   -1    0    0    0  501 -0.00000000000E+00 -0.00000000000E+00 -0.21450429836E+03  0.21450429836E+03  0.00000000000E+00 0.  1.
         35    2    1    2    0    0  0.00000000000E+00  0.00000000000E+00 -0.12592932946E+03  0.30307926726E+03  0.27567888244E+03 0.  0.
         25    1    3    3    0    0 -0.47062934906E+02 -0.48617860643E+02 -0.57915192365E+02  0.14944157963E+03  0.12000000000E+03 0.  0.
         25    1    3    3    0    0  0.47062934906E+02  0.48617860643E+02 -0.68014137094E+02  0.15363768763E+03  0.12000000000E+03 0.  0.
<mgrwt>
<rscale>  0 0.27567888E+03</rscale>
<asrwt>0</asrwt>
<pdfrwt beam="1">  1        3 0.13626918E-01 0.27567888E+03</pdfrwt>
<pdfrwt beam="2">  1       -3 0.33000661E-01 0.27567888E+03</pdfrwt>
<totfact> 0.99947594E+02</totfact>
</mgrwt>
</event>
<event>
 5    1  0.1129390E+001  0.2740813E+03  0.7818608E-02  0.1098966E+00
         -1   -1    0    0    0  501 -0.00000000000E+00  0.00000000000E+00  0.66268286192E+02  0.66268286192E+02  0.00000000000E+00 0.  1.
          1   -1    0    0  501    0  0.00000000000E+00 -0.00000000000E+00 -0.28339556787E+03  0.28339556787E+03  0.00000000000E+00 0.  1.
         35    2    1    2    0    0  0.00000000000E+00  0.00000000000E+00 -0.21712728168E+03  0.34966385406E+03  0.27408129157E+03 0.  0.
         25    1    3    3    0    0  0.61687264500E+02 -0.17576999400E+02 -0.87761632287E+02  0.16191471092E+03  0.12000000000E+03 0.  0.
         25    1    3    3    0    0 -0.61687264500E+02  0.17576999400E+02 -0.12936564939E+03  0.18774914314E+03  0.12000000000E+03 0.  0.
<mgrwt>
<rscale>  0 0.27408129E+03</rscale>
<asrwt>0</asrwt>
<pdfrwt beam="1">  1        1 0.43599318E-01 0.27408129E+03</pdfrwt>
<pdfrwt beam="2">  1       -1 0.10195121E-01 0.27408129E+03</pdfrwt>
<totfact> 0.55326638E+03</totfact>
</mgrwt>
</event>
<event>
 5    1  0.1129390E+001  0.2745551E+03  0.7818608E-02  0.1098701E+00
         -4   -1    0    0    0  501 -0.00000000000E+00  0.00000000000E+00  0.83472778413E+02  0.83472778413E+02  0.00000000000E+00 0. -1.
          4   -1    0    0  501    0  0.00000000000E+00 -0.00000000000E+00 -0.22576371033E+03  0.22576371033E+03  0.00000000000E+00 0. -1.
         35    2    1    2    0    0  0.00000000000E+00  0.00000000000E+00 -0.14229093192E+03  0.30923648874E+03  0.27455508858E+03 0.  0.
         25    1    3    3    0    0  0.53165084939E+02  0.26039247309E+02 -0.10568794095E+03  0.17051249080E+03  0.12000000000E+03 0.  0.
         25    1    3    3    0    0 -0.53165084939E+02 -0.26039247309E+02 -0.36602990966E+02  0.13872399794E+03  0.12000000000E+03 0.  0.
<mgrwt>
<rscale>  0 0.27455509E+03</rscale>
<asrwt>0</asrwt>
<pdfrwt beam="1">  1        4 0.34732878E-01 0.27455509E+03</pdfrwt>
<pdfrwt beam="2">  1       -4 0.12841966E-01 0.27455509E+03</pdfrwt>
<totfact> 0.74347673E+02</totfact>
</mgrwt>
</event>
<event>
 5    1  0.1129390E+001  0.2745389E+03  0.7818608E-02  0.1098710E+00
         -2   -1    0    0    0  501 -0.00000000000E+00  0.00000000000E+00  0.86549937278E+01  0.86549937278E+01  0.00000000000E+00 0.  1.
          2   -1    0    0  501    0  0.00000000000E+00 -0.00000000000E+00 -0.21771137539E+04  0.21771137539E+04  0.00000000000E+00 0.  1.
         35    2    1    2    0    0  0.00000000000E+00  0.00000000000E+00 -0.21684587601E+04  0.21857687476E+04  0.27453892900E+03 0.  0.
         25    1    3    3    0    0  0.42976430655E+02 -0.50189633781E+02 -0.10143970586E+04  0.10236050827E+04  0.12000000000E+03 0.  0.
         25    1    3    3    0    0 -0.42976430655E+02  0.50189633781E+02 -0.11540617016E+04  0.11621636649E+04  0.12000000000E+03 0.  0.
<mgrwt>
<rscale>  0 0.27453893E+03</rscale>
<asrwt>0</asrwt>
<pdfrwt beam="1">  1        2 0.33494108E+00 0.27453893E+03</pdfrwt>
<pdfrwt beam="2">  1       -2 0.13315355E-02 0.27453893E+03</pdfrwt>
<totfact> 0.84102582E+03</totfact>
</mgrwt>
</event>
<event>
 5    1  0.1129390E+001  0.2746299E+03  0.7818608E-02  0.1098659E+00
          1   -1    0    0  501    0  0.00000000000E+00  0.00000000000E+00  0.13965436336E+03  0.13965436336E+03  0.00000000000E+00 0. -1.
         -1   -1    0    0    0  501 -0.00000000000E+00 -0.00000000000E+00 -0.13501475294E+03  0.13501475294E+03  0.00000000000E+00 0. -1.
         35    2    1    2    0    0  0.00000000000E+00  0.00000000000E+00  0.46396104181E+01  0.27466911629E+03  0.27462992819E+03 0.  0.
         25    1    3    3    0    0 -0.78597818472E+01  0.53529081831E+02  0.41418357248E+02  0.13799499661E+03  0.12000000000E+03 0.  0.
         25    1    3    3    0    0  0.78597818472E+01 -0.53529081831E+02 -0.36778746830E+02  0.13667411968E+03  0.12000000000E+03 0.  0.
<mgrwt>
<rscale>  0 0.27462993E+03</rscale>
<asrwt>0</asrwt>
<pdfrwt beam="1">  1        1 0.21485287E-01 0.27462993E+03</pdfrwt>
<pdfrwt beam="2">  1       -1 0.20771501E-01 0.27462993E+03</pdfrwt>
<totfact> 0.43802963E+03</totfact>
</mgrwt>
</event>
<event>
 5    1  0.1129390E+001  0.2754251E+03  0.7818608E-02  0.1098214E+00
          2   -1    0    0  501    0  0.00000000000E+00  0.00000000000E+00  0.12141899742E+04  0.12141899742E+04  0.00000000000E+00 0. -1.
         -2   -1    0    0    0  501 -0.00000000000E+00 -0.00000000000E+00 -0.15619252944E+02  0.15619252944E+02  0.00000000000E+00 0. -1.
         35    2    1    2    0    0  0.00000000000E+00  0.00000000000E+00  0.11985707212E+04  0.12298092271E+04  0.27542505571E+03 0.  0.
         25    1    3    3    0    0  0.40302750854E+02 -0.45979663405E+02  0.47093326745E+03  0.48981280462E+03  0.12000000000E+03 0.  0.
         25    1    3    3    0    0 -0.40302750854E+02  0.45979663405E+02  0.72763745375E+03  0.73999642248E+03  0.12000000000E+03 0.  0.
<mgrwt>
<rscale>  0 0.27542506E+03</rscale>
<asrwt>0</asrwt>
<pdfrwt beam="1">  1        2 0.18679838E+00 0.27542506E+03</pdfrwt>
<pdfrwt beam="2">  1       -2 0.24029629E-02 0.27542506E+03</pdfrwt>
<totfact> 0.11544545E+04</totfact>
</mgrwt>
</event>
<event>
 5    1  0.1129390E+001  0.2757799E+03  0.7818608E-02  0.1098016E+00
         -2   -1    0    0    0  501 -0.00000000000E+00  0.00000000000E+00  0.19264472751E+02  0.19264472751E+02  0.00000000000E+00 0.  1.
          2   -1    0    0  501    0  0.00000000000E+00 -0.00000000000E+00 -0.98697942243E+03  0.98697942243E+03  0.00000000000E+00 0.  1.
         35    2    1    2    0    0  0.00000000000E+00  0.00000000000E+00 -0.96771494968E+03  0.10062438952E+04  0.27577989912E+03 0.  0.
         25    1    3    3    0    0 -0.34642034041E+02  0.55562961696E+02 -0.54976967265E+03  0.56651037608E+03  0.12000000000E+03 0.  0.
         25    1    3    3    0    0  0.34642034041E+02 -0.55562961696E+02 -0.41794527702E+03  0.43973351910E+03  0.12000000000E+03 0.  0.
<mgrwt>
<rscale>  0 0.27577990E+03</rscale>
<asrwt>0</asrwt>
<pdfrwt beam="1">  1        2 0.15184301E+00 0.27577990E+03</pdfrwt>
<pdfrwt beam="2">  1       -2 0.29637646E-02 0.27577990E+03</pdfrwt>
<totfact> 0.11509226E+04</totfact>
</mgrwt>
</event>
<event>
 5    1  0.1129390E+001  0.2749793E+03  0.7818608E-02  0.1098463E+00
         -1   -1    0    0    0  501 -0.00000000000E+00  0.00000000000E+00  0.30762263896E+02  0.30762263896E+02  0.00000000000E+00 0.  1.
          1   -1    0    0  501    0  0.00000000000E+00 -0.00000000000E+00 -0.61449960841E+03  0.61449960841E+03  0.00000000000E+00 0.  1.
         35    2    1    2    0    0  0.00000000000E+00  0.00000000000E+00 -0.58373734451E+03  0.64526187230E+03  0.27497926553E+03 0.  0.
         25    1    3    3    0    0 -0.29901299759E+02 -0.44447100854E+02 -0.19702004163E+03  0.23682594728E+03  0.12000000000E+03 0.  0.
         25    1    3    3    0    0  0.29901299759E+02  0.44447100854E+02 -0.38671730288E+03  0.40843592502E+03  0.12000000000E+03 0.  0.
<mgrwt>
<rscale>  0 0.27497927E+03</rscale>
<asrwt>0</asrwt>
<pdfrwt beam="1">  1        1 0.94538403E-01 0.27497927E+03</pdfrwt>
<pdfrwt beam="2">  1       -1 0.47326559E-02 0.27497927E+03</pdfrwt>
<totfact> 0.64782086E+03</totfact>
</mgrwt>
</event>
<event>
 5    1  0.1129390E+001  0.2751733E+03  0.7818608E-02  0.1098355E+00
          4   -1    0    0  501    0  0.00000000000E+00  0.00000000000E+00  0.35613241087E+03  0.35613241087E+03  0.00000000000E+00 0. -1.
         -4   -1    0    0    0  501 -0.00000000000E+00 -0.00000000000E+00 -0.53154641490E+02  0.53154641490E+02  0.00000000000E+00 0. -1.
         35    2    1    2    0    0  0.00000000000E+00  0.00000000000E+00  0.30297776938E+03  0.40928705236E+03  0.27517333172E+03 0.  0.
         25    1    3    3    0    0  0.64774119157E+01 -0.57318156325E+02  0.20307248397E+03  0.24282866728E+03  0.12000000000E+03 0.  0.
         25    1    3    3    0    0 -0.64774119157E+01  0.57318156325E+02  0.99905285415E+02  0.16645838508E+03  0.12000000000E+03 0.  0.
<mgrwt>
<rscale>  0 0.27517333E+03</rscale>
<asrwt>0</asrwt>
<pdfrwt beam="1">  1        4 0.54789600E-01 0.27517333E+03</pdfrwt>
<pdfrwt beam="2">  1       -4 0.81776374E-02 0.27517333E+03</pdfrwt>
<totfact> 0.64055560E+02</totfact>
</mgrwt>
</event>
<event>
 5    1  0.1129390E+001  0.2759048E+03  0.7818608E-02  0.1097947E+00
         -2   -1    0    0    0  501 -0.00000000000E+00  0.00000000000E+00  0.49534177768E+02  0.49534177768E+02  0.00000000000E+00 0.  1.
          2   -1    0    0  501    0  0.00000000000E+00 -0.00000000000E+00 -0.38419671817E+03  0.38419671817E+03  0.00000000000E+00 0.  1.
         35    2    1    2    0    0  0.00000000000E+00  0.00000000000E+00 -0.33466254040E+03  0.43373089594E+03  0.27590482805E+03 0.  0.
         25    1    3    3    0    0  0.37707334020E+02 -0.56597628868E+02 -0.17109558764E+03  0.21976995869E+03  0.12000000000E+03 0.  0.
         25    1    3    3    0    0 -0.37707334020E+02  0.56597628868E+02 -0.16356695276E+03  0.21396093725E+03  0.12000000000E+03 0.  0.
<mgrwt>
<rscale>  0 0.27590483E+03</rscale>
<asrwt>0</asrwt>
<pdfrwt beam="1">  1        2 0.59107187E-01 0.27590483E+03</pdfrwt>
<pdfrwt beam="2">  1       -2 0.76206427E-02 0.27590483E+03</pdfrwt>
<totfact> 0.84591039E+03</totfact>
</mgrwt>
</event>
<event>
 5    1  0.1129390E+001  0.2741926E+03  0.7818608E-02  0.1098904E+00
          2   -1    0    0  501    0  0.00000000000E+00  0.00000000000E+00  0.21917085670E+04  0.21917085670E+04  0.00000000000E+00 0.  1.
         -2   -1    0    0    0  501 -0.00000000000E+00 -0.00000000000E+00 -0.85756798306E+01  0.85756798306E+01  0.00000000000E+00 0.  1.
         35    2    1    2    0    0  0.00000000000E+00  0.00000000000E+00  0.21831328872E+04  0.22002842469E+04  0.27419256702E+03 0.  0.
         25    1    3    3    0    0  0.62616534896E+02  0.19763966576E+02  0.10180434018E+04  0.10271921986E+04  0.12000000000E+03 0.  0.
         25    1    3    3    0    0 -0.62616534896E+02 -0.19763966576E+02  0.11650894854E+04  0.11730920483E+04  0.12000000000E+03 0.  0.
<mgrwt>
<rscale>  0 0.27419257E+03</rscale>
<asrwt>0</asrwt>
<pdfrwt beam="1">  1        2 0.33718549E+00 0.27419257E+03</pdfrwt>
<pdfrwt beam="2">  1       -2 0.13193371E-02 0.27419257E+03</pdfrwt>
<totfact> 0.83731451E+03</totfact>
</mgrwt>
</event>
<event>
 5    1  0.1129390E+001  0.2752473E+03  0.7818608E-02  0.1098313E+00
          1   -1    0    0  501    0  0.00000000000E+00  0.00000000000E+00  0.87031721540E+03  0.87031721540E+03  0.00000000000E+00 0. -1.
         -1   -1    0    0    0  501 -0.00000000000E+00 -0.00000000000E+00 -0.21762482423E+02  0.21762482423E+02  0.00000000000E+00 0. -1.
         35    2    1    2    0    0  0.00000000000E+00  0.00000000000E+00  0.84855473297E+03  0.89207969782E+03  0.27524725686E+03 0.  0.
         25    1    3    3    0    0  0.55701139356E+02 -0.39796195324E+01  0.54648582214E+03  0.56228569971E+03  0.12000000000E+03 0.  0.
         25    1    3    3    0    0 -0.55701139356E+02  0.39796195324E+01  0.30206891083E+03  0.32979399811E+03  0.12000000000E+03 0.  0.
<mgrwt>
<rscale>  0 0.27524726E+03</rscale>
<asrwt>0</asrwt>
<pdfrwt beam="1">  1        1 0.13389493E+00 0.27524726E+03</pdfrwt>
<pdfrwt beam="2">  1       -1 0.33480749E-02 0.27524726E+03</pdfrwt>
<totfact> 0.64554574E+03</totfact>
</mgrwt>
</event>
<event>
 5    1  0.1129390E+001  0.2812378E+03  0.7818608E-02  0.1095015E+00
         -2   -1    0    0    0  501 -0.00000000000E+00  0.00000000000E+00  0.18643759054E+02  0.18643759054E+02  0.00000000000E+00 0.  1.
          2   -1    0    0  501    0  0.00000000000E+00 -0.00000000000E+00 -0.10606058263E+04  0.10606058263E+04  0.00000000000E+00 0.  1.
         35    2    1    2    0    0  0.00000000000E+00  0.00000000000E+00 -0.10419620672E+04  0.10792495853E+04  0.28123783157E+03 0.  0.
         25    1    3    3    0    0 -0.23598759939E+02  0.15289044230E+02 -0.26118999009E+03  0.28880939609E+03  0.12000000000E+03 0.  0.
         25    1    3    3    0    0  0.23598759939E+02 -0.15289044230E+02 -0.78077207711E+03  0.79044018922E+03  0.12000000000E+03 0.  0.
<mgrwt>
<rscale>  0 0.28123783E+03</rscale>
<asrwt>0</asrwt>
<pdfrwt beam="1">  1        2 0.16317018E+00 0.28123783E+03</pdfrwt>
<pdfrwt beam="2">  1       -2 0.28682697E-02 0.28123783E+03</pdfrwt>
<totfact> 0.10909653E+04</totfact>
</mgrwt>
</event>
<event>
 5    1  0.1129390E+001  0.2744119E+03  0.7818608E-02  0.1098781E+00
          3   -1    0    0  501    0  0.00000000000E+00  0.00000000000E+00  0.37852017653E+03  0.37852017653E+03  0.00000000000E+00 0.  1.
         -3   -1    0    0    0  501 -0.00000000000E+00 -0.00000000000E+00 -0.49734397915E+02  0.49734397915E+02  0.00000000000E+00 0.  1.
         35    2    1    2    0    0  0.00000000000E+00  0.00000000000E+00  0.32878577861E+03  0.42825457444E+03  0.27441190265E+03 0.  0.
         25    1    3    3    0    0 -0.46982252847E+02 -0.46644886182E+02  0.17455442627E+03  0.22192864894E+03  0.12000000000E+03 0.  0.
         25    1    3    3    0    0  0.46982252847E+02  0.46644886182E+02  0.15423135234E+03  0.20632592551E+03  0.12000000000E+03 0.  0.
<mgrwt>
<rscale>  0 0.27441190E+03</rscale>
<asrwt>0</asrwt>
<pdfrwt beam="1">  1        3 0.58233871E-01 0.27441190E+03</pdfrwt>
<pdfrwt beam="2">  1       -3 0.76514461E-02 0.27441190E+03</pdfrwt>
<totfact> 0.85441178E+02</totfact>
</mgrwt>
</event>
<event>
 5    1  0.1129390E+001  0.2748410E+03  0.7818608E-02  0.1098541E+00
          2   -1    0    0  501    0  0.00000000000E+00  0.00000000000E+00  0.77704322183E+03  0.77704322183E+03  0.00000000000E+00 0.  1.
         -2   -1    0    0    0  501 -0.00000000000E+00 -0.00000000000E+00 -0.24302888160E+02  0.24302888160E+02  0.00000000000E+00 0.  1.
         35    2    1    2    0    0  0.00000000000E+00  0.00000000000E+00  0.75274033367E+03  0.80134610999E+03  0.27484100506E+03 0.  0.
         25    1    3    3    0    0  0.53809909994E+02 -0.19197977173E+02  0.47822379341E+03  0.49634873358E+03  0.12000000000E+03 0.  0.
         25    1    3    3    0    0 -0.53809909994E+02  0.19197977173E+02  0.27451654026E+03  0.30499737641E+03  0.12000000000E+03 0.  0.
<mgrwt>
<rscale>  0 0.27484101E+03</rscale>
<asrwt>0</asrwt>
<pdfrwt beam="1">  1        2 0.11954509E+00 0.27484101E+03</pdfrwt>
<pdfrwt beam="2">  1       -2 0.37389065E-02 0.27484101E+03</pdfrwt>
<totfact> 0.11165251E+04</totfact>
</mgrwt>
</event>
<event>
 5    1  0.1129390E+001  0.2755089E+03  0.7818608E-02  0.1098167E+00
          2   -1    0    0  501    0  0.00000000000E+00  0.00000000000E+00  0.11811081098E+04  0.11811081098E+04  0.00000000000E+00 0. -1.
         -2   -1    0    0    0  501 -0.00000000000E+00 -0.00000000000E+00 -0.16066517741E+02  0.16066517741E+02  0.00000000000E+00 0. -1.
         35    2    1    2    0    0  0.00000000000E+00  0.00000000000E+00  0.11650415921E+04  0.11971746275E+04  0.27550894287E+03 0.  0.
         25    1    3    3    0    0  0.64649774915E+02 -0.12141477895E+02  0.51391349596E+03  0.53182148341E+03  0.12000000000E+03 0.  0.
         25    1    3    3    0    0 -0.64649774915E+02  0.12141477895E+02  0.65112809610E+03  0.66535314414E+03  0.12000000000E+03 0.  0.
<mgrwt>
<rscale>  0 0.27550894E+03</rscale>
<asrwt>0</asrwt>
<pdfrwt beam="1">  1        2 0.18170887E+00 0.27550894E+03</pdfrwt>
<pdfrwt beam="2">  1       -2 0.24717729E-02 0.27550894E+03</pdfrwt>
<totfact> 0.11562748E+04</totfact>
</mgrwt>
</event>
<event>
 5    1  0.1129390E+001  0.2751178E+03  0.7818608E-02  0.1098386E+00
          2   -1    0    0  501    0  0.00000000000E+00  0.00000000000E+00  0.31319028249E+04  0.31319028249E+04  0.00000000000E+00 0.  1.
         -2   -1    0    0    0  501 -0.00000000000E+00 -0.00000000000E+00 -0.60418405902E+01  0.60418405902E+01  0.00000000000E+00 0.  1.
         35    2    1    2    0    0  0.00000000000E+00  0.00000000000E+00  0.31258609843E+04  0.31379446655E+04  0.27511784829E+03 0.  0.
         25    1    3    3    0    0 -0.11088672405E+02 -0.66219785508E+02  0.15195899314E+04  0.15257986690E+04  0.12000000000E+03 0.  0.
         25    1    3    3    0    0  0.11088672405E+02  0.66219785508E+02  0.16062710529E+04  0.16121459965E+04  0.12000000000E+03 0.  0.
<mgrwt>
<rscale>  0 0.27511785E+03</rscale>
<asrwt>0</asrwt>
<pdfrwt beam="1">  1        2 0.48182991E+00 0.27511785E+03</pdfrwt>
<pdfrwt beam="2">  1       -2 0.92951644E-03 0.27511785E+03</pdfrwt>
<totfact> 0.41162773E+03</totfact>
</mgrwt>
</event>
<event>
 5    1  0.1129390E+001  0.2730373E+03  0.7818608E-02  0.1099554E+00
          2   -1    0    0  501    0  0.00000000000E+00  0.00000000000E+00  0.83576242625E+02  0.83576242625E+02  0.00000000000E+00 0.  1.
         -2   -1    0    0    0  501 -0.00000000000E+00 -0.00000000000E+00 -0.22299803978E+03  0.22299803978E+03  0.00000000000E+00 0.  1.
         35    2    1    2    0    0  0.00000000000E+00  0.00000000000E+00 -0.13942179715E+03  0.30657428240E+03  0.27303727421E+03 0.  0.
         25    1    3    3    0    0  0.35206203834E+01 -0.64715374962E+02 -0.62893580558E+02  0.15018680701E+03  0.12000000000E+03 0.  0.
         25    1    3    3    0    0 -0.35206203834E+01  0.64715374962E+02 -0.76528216593E+02  0.15638747539E+03  0.12000000000E+03 0.  0.
<mgrwt>
<rscale>  0 0.27303727E+03</rscale>
<asrwt>0</asrwt>
<pdfrwt beam="1">  1        2 0.12857884E-01 0.27303727E+03</pdfrwt>
<pdfrwt beam="2">  1       -2 0.34307390E-01 0.27303727E+03</pdfrwt>
<totfact> 0.37241032E+03</totfact>
</mgrwt>
</event>
<event>
 5    1  0.1129390E+001  0.2737862E+03  0.7818608E-02  0.1099132E+00
         -2   -1    0    0    0  501 -0.00000000000E+00  0.00000000000E+00  0.47174069374E+02  0.47174069374E+02  0.00000000000E+00 0. -1.
          2   -1    0    0  501    0  0.00000000000E+00 -0.00000000000E+00 -0.39724620359E+03  0.39724620359E+03  0.00000000000E+00 0. -1.
         35    2    1    2    0    0  0.00000000000E+00  0.00000000000E+00 -0.35007213422E+03  0.44442027297E+03  0.27378619371E+03 0.  0.
         25    1    3    3    0    0 -0.22736038323E+02  0.52638569881E+02 -0.22768441110E+03  0.26368150776E+03  0.12000000000E+03 0.  0.
         25    1    3    3    0    0  0.22736038323E+02 -0.52638569881E+02 -0.12238772312E+03  0.18073876521E+03  0.12000000000E+03 0.  0.
<mgrwt>
<rscale>  0 0.27378619E+03</rscale>
<asrwt>0</asrwt>
<pdfrwt beam="1">  1        2 0.61114801E-01 0.27378619E+03</pdfrwt>
<pdfrwt beam="2">  1       -2 0.72575490E-02 0.27378619E+03</pdfrwt>
<totfact> 0.87986931E+03</totfact>
</mgrwt>
</event>
<event>
 5    1  0.1129390E+001  0.2738543E+03  0.7818608E-02  0.1099094E+00
          2   -1    0    0  501    0  0.00000000000E+00  0.00000000000E+00  0.45597968279E+03  0.45597968279E+03  0.00000000000E+00 0.  1.
         -2   -1    0    0    0  501 -0.00000000000E+00 -0.00000000000E+00 -0.41118171320E+02  0.41118171320E+02  0.00000000000E+00 0.  1.
         35    2    1    2    0    0  0.00000000000E+00  0.00000000000E+00  0.41486151147E+03  0.49709785411E+03  0.27385434607E+03 0.  0.
         25    1    3    3    0    0 -0.53722720212E+02  0.36471706843E+02  0.18651784890E+03  0.23109570317E+03  0.12000000000E+03 0.  0.
         25    1    3    3    0    0  0.53722720212E+02 -0.36471706843E+02  0.22834366257E+03  0.26600215094E+03  0.12000000000E+03 0.  0.
<mgrwt>
<rscale>  0 0.27385435E+03</rscale>
<asrwt>0</asrwt>
<pdfrwt beam="1">  1        2 0.70150717E-01 0.27385435E+03</pdfrwt>
<pdfrwt beam="2">  1       -2 0.63258728E-02 0.27385435E+03</pdfrwt>
<totfact> 0.93567665E+03</totfact>
</mgrwt>
</event>
<event>
 5    1  0.1129390E+001  0.2747468E+03  0.7818608E-02  0.1098593E+00
          2   -1    0    0  501    0  0.00000000000E+00  0.00000000000E+00  0.34046921162E+03  0.34046921162E+03  0.00000000000E+00 0. -1.
         -2   -1    0    0    0  501 -0.00000000000E+00 -0.00000000000E+00 -0.55427779919E+02  0.55427779919E+02  0.00000000000E+00 0. -1.
         35    2    1    2    0    0  0.00000000000E+00  0.00000000000E+00  0.28504143170E+03  0.39589699154E+03  0.27474681094E+03 0.  0.
         25    1    3    3    0    0 -0.22342739760E+02 -0.48652044276E+02  0.20025298058E+03  0.23951508441E+03  0.12000000000E+03 0.  0.
         25    1    3    3    0    0  0.22342739760E+02  0.48652044276E+02  0.84788451128E+02  0.15638190713E+03  0.12000000000E+03 0.  0.
<mgrwt>
<rscale>  0 0.27474681E+03</rscale>
<asrwt>0</asrwt>
<pdfrwt beam="1">  1        2 0.52379877E-01 0.27474681E+03</pdfrwt>
<pdfrwt beam="2">  1       -2 0.85273510E-02 0.27474681E+03</pdfrwt>
<totfact> 0.80845500E+03</totfact>
</mgrwt>
</event>
<event>
 5    1  0.1129390E+001  0.2753184E+03  0.7818608E-02  0.1098274E+00
          2   -1    0    0  501    0  0.00000000000E+00  0.00000000000E+00  0.79843496378E+03  0.79843496378E+03  0.00000000000E+00 0. -1.
         -2   -1    0    0    0  501 -0.00000000000E+00 -0.00000000000E+00 -0.23734003194E+02  0.23734003194E+02  0.00000000000E+00 0. -1.
         35    2    1    2    0    0  0.00000000000E+00  0.00000000000E+00  0.77470096059E+03  0.82216896698E+03  0.27531841915E+03 0.  0.
         25    1    3    3    0    0  0.13367677527E+02 -0.59307287755E+02  0.30008208599E+03  0.32885453854E+03  0.12000000000E+03 0.  0.
         25    1    3    3    0    0 -0.13367677527E+02  0.59307287755E+02  0.47461887460E+03  0.49331442844E+03  0.12000000000E+03 0.  0.
<mgrwt>
<rscale>  0 0.27531842E+03</rscale>
<asrwt>0</asrwt>
<pdfrwt beam="1">  1        2 0.12283613E+00 0.27531842E+03</pdfrwt>
<pdfrwt beam="2">  1       -2 0.36513857E-02 0.27531842E+03</pdfrwt>
<totfact> 0.11178822E+04</totfact>
</mgrwt>
</event>
<event>
 5    1  0.1129390E+001  0.2771147E+03  0.7818608E-02  0.1097275E+00
          2   -1    0    0  501    0  0.00000000000E+00  0.00000000000E+00  0.59510400762E+03  0.59510400762E+03  0.00000000000E+00 0. -1.
         -2   -1    0    0    0  501 -0.00000000000E+00 -0.00000000000E+00 -0.32260149702E+02  0.32260149702E+02  0.00000000000E+00 0. -1.
         35    2    1    2    0    0  0.00000000000E+00  0.00000000000E+00  0.56284385792E+03  0.62736415732E+03  0.27711473706E+03 0.  0.
         25    1    3    3    0    0  0.39115422884E+02  0.15438782628E+02  0.40603541874E+03  0.42547988623E+03  0.12000000000E+03 0.  0.
         25    1    3    3    0    0 -0.39115422884E+02 -0.15438782628E+02  0.15680843918E+03  0.20188427109E+03  0.12000000000E+03 0.  0.
<mgrwt>
<rscale>  0 0.27711474E+03</rscale>
<asrwt>0</asrwt>
<pdfrwt beam="1">  1        2 0.91554454E-01 0.27711474E+03</pdfrwt>
<pdfrwt beam="2">  1       -2 0.49631004E-02 0.27711474E+03</pdfrwt>
<totfact> 0.10044079E+04</totfact>
</mgrwt>
</event>
<event>
 5    1  0.1129390E+001  0.2744444E+03  0.7818608E-02  0.1098763E+00
          2   -1    0    0  501    0  0.00000000000E+00  0.00000000000E+00  0.15849737038E+03  0.15849737038E+03  0.00000000000E+00 0.  1.
         -2   -1    0    0    0  501 -0.00000000000E+00 -0.00000000000E+00 -0.11880277313E+03  0.11880277313E+03  0.00000000000E+00 0.  1.
         35    2    1    2    0    0  0.00000000000E+00  0.00000000000E+00  0.39694597250E+02  0.27730014351E+03  0.27444436329E+03 0.  0.
         25    1    3    3    0    0 -0.33519594969E+02  0.44684022699E+02  0.56413683398E+02  0.14388442864E+03  0.12000000000E+03 0.  0.
         25    1    3    3    0    0  0.33519594969E+02 -0.44684022699E+02 -0.16719086149E+02  0.13341571487E+03  0.12000000000E+03 0.  0.
<mgrwt>
<rscale>  0 0.27444436E+03</rscale>
<asrwt>0</asrwt>
<pdfrwt beam="1">  1        2 0.24384211E-01 0.27444436E+03</pdfrwt>
<pdfrwt beam="2">  1       -2 0.18277350E-01 0.27444436E+03</pdfrwt>
<totfact> 0.53892824E+03</totfact>
</mgrwt>
</event>
<event>
 5    1  0.1129390E+001  0.2741842E+03  0.7818608E-02  0.1098908E+00
          1   -1    0    0  501    0  0.00000000000E+00  0.00000000000E+00  0.94076905849E+03  0.94076905849E+03  0.00000000000E+00 0.  1.
         -1   -1    0    0    0  501 -0.00000000000E+00 -0.00000000000E+00 -0.19977533688E+02  0.19977533688E+02  0.00000000000E+00 0.  1.
         35    2    1    2    0    0  0.00000000000E+00  0.00000000000E+00  0.92079152480E+03  0.96074659218E+03  0.27418421223E+03 0.  0.
         25    1    3    3    0    0  0.87423660747E+01 -0.54043050199E+02  0.59137133537E+03  0.60590191990E+03  0.12000000000E+03 0.  0.
         25    1    3    3    0    0 -0.87423660747E+01  0.54043050199E+02  0.32942018943E+03  0.35484467228E+03  0.12000000000E+03 0.  0.
<mgrwt>
<rscale>  0 0.27418421E+03</rscale>
<asrwt>0</asrwt>
<pdfrwt beam="1">  1        1 0.14473367E+00 0.27418421E+03</pdfrwt>
<pdfrwt beam="2">  1       -1 0.30734674E-02 0.27418421E+03</pdfrwt>
<totfact> 0.64508739E+03</totfact>
</mgrwt>
</event>
<event>
 5    1  0.1129390E+001  0.2738015E+03  0.7818608E-02  0.1099123E+00
          1   -1    0    0  501    0  0.00000000000E+00  0.00000000000E+00  0.16574626312E+03  0.16574626312E+03  0.00000000000E+00 0.  1.
         -1   -1    0    0    0  501 -0.00000000000E+00 -0.00000000000E+00 -0.11307530207E+03  0.11307530207E+03  0.00000000000E+00 0.  1.
         35    2    1    2    0    0  0.00000000000E+00  0.00000000000E+00  0.52670961047E+02  0.27882156519E+03  0.27380145192E+03 0.  0.
         25    1    3    3    0    0  0.55729986338E+02  0.39402275891E+01  0.61910976656E+02  0.14613119380E+03  0.12000000000E+03 0.  0.
         25    1    3    3    0    0 -0.55729986338E+02 -0.39402275891E+01 -0.92400156093E+01  0.13269037139E+03  0.12000000000E+03 0.  0.
<mgrwt>
<rscale>  0 0.27380145E+03</rscale>
<asrwt>0</asrwt>
<pdfrwt beam="1">  1        1 0.25499425E-01 0.27380145E+03</pdfrwt>
<pdfrwt beam="2">  1       -1 0.17396200E-01 0.27380145E+03</pdfrwt>
<totfact> 0.46889206E+03</totfact>
</mgrwt>
</event>
<event>
 5    1  0.1129390E+001  0.2770383E+03  0.7818608E-02  0.1097318E+00
          1   -1    0    0  501    0  0.00000000000E+00  0.00000000000E+00  0.32587918516E+04  0.32587918516E+04  0.00000000000E+00 0. -1.
         -1   -1    0    0    0  501 -0.00000000000E+00 -0.00000000000E+00 -0.58879369816E+01  0.58879369816E+01  0.00000000000E+00 0. -1.
         35    2    1    2    0    0  0.00000000000E+00  0.00000000000E+00  0.32529039146E+04  0.32646797886E+04  0.27703834434E+03 0.  0.
         25    1    3    3    0    0 -0.48407125365E+02 -0.39054603695E+02  0.12692037248E+04  0.12763802752E+04  0.12000000000E+03 0.  0.
         25    1    3    3    0    0  0.48407125365E+02  0.39054603695E+02  0.19837001899E+04  0.19882995134E+04  0.12000000000E+03 0.  0.
<mgrwt>
<rscale>  0 0.27703834E+03</rscale>
<asrwt>0</asrwt>
<pdfrwt beam="1">  1        1 0.50135115E+00 0.27703834E+03</pdfrwt>
<pdfrwt beam="2">  1       -1 0.90583906E-03 0.27703834E+03</pdfrwt>
<totfact> 0.10270441E+03</totfact>
</mgrwt>
</event>
<event>
 5    1  0.1129390E+001  0.2739947E+03  0.7818608E-02  0.1099015E+00
          2   -1    0    0  501    0  0.00000000000E+00  0.00000000000E+00  0.28392981683E+02  0.28392981683E+02  0.00000000000E+00 0.  1.
         -2   -1    0    0    0  501 -0.00000000000E+00 -0.00000000000E+00 -0.66101809302E+03  0.66101809302E+03  0.00000000000E+00 0.  1.
         35    2    1    2    0    0  0.00000000000E+00  0.00000000000E+00 -0.63262511133E+03  0.68941107470E+03  0.27399470511E+03 0.  0.
         25    1    3    3    0    0  0.24498342003E+02  0.58854681297E+02 -0.27242526495E+03  0.30443319013E+03  0.12000000000E+03 0.  0.
         25    1    3    3    0    0 -0.24498342003E+02 -0.58854681297E+02 -0.36019984638E+03  0.38497788457E+03  0.12000000000E+03 0.  0.
<mgrwt>
<rscale>  0 0.27399471E+03</rscale>
<asrwt>0</asrwt>
<pdfrwt beam="1">  1        2 0.43681510E-02 0.27399471E+03</pdfrwt>
<pdfrwt beam="2">  1       -2 0.10169509E+00 0.27399471E+03</pdfrwt>
<totfact> 0.15510562E+03</totfact>
</mgrwt>
</event>
<event>
 5    1  0.1129390E+001  0.2753488E+03  0.7818608E-02  0.1098257E+00
         -2   -1    0    0    0  501 -0.00000000000E+00  0.00000000000E+00  0.40171286892E+02  0.40171286892E+02  0.00000000000E+00 0. -1.
          2   -1    0    0  501    0  0.00000000000E+00 -0.00000000000E+00 -0.47183565398E+03  0.47183565398E+03  0.00000000000E+00 0. -1.
         35    2    1    2    0    0  0.00000000000E+00  0.00000000000E+00 -0.43166436709E+03  0.51200694088E+03  0.27534883637E+03 0.  0.
         25    1    3    3    0    0 -0.54838724794E+01 -0.66712564032E+02 -0.23178547459E+03  0.26945341952E+03  0.12000000000E+03 0.  0.
         25    1    3    3    0    0  0.54838724794E+01  0.66712564032E+02 -0.19987889250E+03  0.24255352136E+03  0.12000000000E+03 0.  0.
<mgrwt>
<rscale>  0 0.27534884E+03</rscale>
<asrwt>0</asrwt>
<pdfrwt beam="1">  1        2 0.72590102E-01 0.27534884E+03</pdfrwt>
<pdfrwt beam="2">  1       -2 0.61801979E-02 0.27534884E+03</pdfrwt>
<totfact> 0.93403968E+03</totfact>
</mgrwt>
</event>
<event>
 5    1  0.1129390E+001  0.2746983E+03  0.7818608E-02  0.1098620E+00
         -2   -1    0    0    0  501 -0.00000000000E+00  0.00000000000E+00  0.16549800380E+02  0.16549800380E+02  0.00000000000E+00 0.  1.
          2   -1    0    0  501    0  0.00000000000E+00 -0.00000000000E+00 -0.11398798043E+04  0.11398798043E+04  0.00000000000E+00 0.  1.
         35    2    1    2    0    0  0.00000000000E+00  0.00000000000E+00 -0.11233300039E+04  0.11564296047E+04  0.27469825786E+03 0.  0.
         25    1    3    3    0    0 -0.15936702568E+02 -0.51068620834E+02 -0.73020502814E+03  0.74193083616E+03  0.12000000000E+03 0.  0.
         25    1    3    3    0    0  0.15936702568E+02  0.51068620834E+02 -0.39312497575E+03  0.41449876849E+03  0.12000000000E+03 0.  0.
<mgrwt>
<rscale>  0 0.27469826E+03</rscale>
<asrwt>0</asrwt>
<pdfrwt beam="1">  1        2 0.17536613E+00 0.27469826E+03</pdfrwt>
<pdfrwt beam="2">  1       -2 0.25461230E-02 0.27469826E+03</pdfrwt>
<totfact> 0.11686656E+04</totfact>
</mgrwt>
</event>
<event>
 5    1  0.1129390E+001  0.2754338E+03  0.7818608E-02  0.1098209E+00
         -2   -1    0    0    0  501 -0.00000000000E+00  0.00000000000E+00  0.28445266677E+03  0.28445266677E+03  0.00000000000E+00 0.  1.
          2   -1    0    0  501    0  0.00000000000E+00 -0.00000000000E+00 -0.66675231937E+02  0.66675231937E+02  0.00000000000E+00 0.  1.
         35    2    1    2    0    0  0.00000000000E+00  0.00000000000E+00  0.21777743483E+03  0.35112789871E+03  0.27543382168E+03 0.  0.
         25    1    3    3    0    0  0.57335884763E+02 -0.23520740466E+02  0.74555659805E+02  0.15426981339E+03  0.12000000000E+03 0.  0.
         25    1    3    3    0    0 -0.57335884763E+02  0.23520740466E+02  0.14322177503E+03  0.19685808532E+03  0.12000000000E+03 0.  0.
<mgrwt>
<rscale>  0 0.27543382E+03</rscale>
<asrwt>0</asrwt>
<pdfrwt beam="1">  1        2 0.10257728E-01 0.27543382E+03</pdfrwt>
<pdfrwt beam="2">  1       -2 0.43761948E-01 0.27543382E+03</pdfrwt>
<totfact> 0.30932049E+03</totfact>
</mgrwt>
</event>
<event>
 5    1  0.1129390E+001  0.2761266E+03  0.7818608E-02  0.1097824E+00
         -2   -1    0    0    0  501 -0.00000000000E+00  0.00000000000E+00  0.44872330872E+03  0.44872330872E+03  0.00000000000E+00 0. -1.
          2   -1    0    0  501    0  0.00000000000E+00 -0.00000000000E+00 -0.42479344139E+02  0.42479344139E+02  0.00000000000E+00 0. -1.
         35    2    1    2    0    0  0.00000000000E+00  0.00000000000E+00  0.40624396458E+03  0.49120265286E+03  0.27612657861E+03 0.  0.
         25    1    3    3    0    0  0.59116738532E+02  0.25080538096E+02  0.16187404921E+03  0.21148765915E+03  0.12000000000E+03 0.  0.
         25    1    3    3    0    0 -0.59116738532E+02 -0.25080538096E+02  0.24436991537E+03  0.27971499371E+03  0.12000000000E+03 0.  0.
<mgrwt>
<rscale>  0 0.27612658E+03</rscale>
<asrwt>0</asrwt>
<pdfrwt beam="1">  1        2 0.65352840E-02 0.27612658E+03</pdfrwt>
<pdfrwt beam="2">  1       -2 0.69034352E-01 0.27612658E+03</pdfrwt>
<totfact> 0.21661843E+03</totfact>
</mgrwt>
</event>
<event>
 5    1  0.1129390E+001  0.2755150E+03  0.7818608E-02  0.1098164E+00
          2   -1    0    0  501    0  0.00000000000E+00  0.00000000000E+00  0.52967435100E+02  0.52967435100E+02  0.00000000000E+00 0.  1.
         -2   -1    0    0    0  501 -0.00000000000E+00 -0.00000000000E+00 -0.35827926734E+03  0.35827926734E+03  0.00000000000E+00 0.  1.
         35    2    1    2    0    0  0.00000000000E+00  0.00000000000E+00 -0.30531183224E+03  0.41124670244E+03  0.27551503655E+03 0.  0.
         25    1    3    3    0    0  0.18662665477E+01  0.27157865669E+02 -0.60206930185E+02  0.13698871144E+03  0.12000000000E+03 0.  0.
         25    1    3    3    0    0 -0.18662665477E+01 -0.27157865669E+02 -0.24510490206E+03  0.27425799101E+03  0.12000000000E+03 0.  0.
<mgrwt>
<rscale>  0 0.27551504E+03</rscale>
<asrwt>0</asrwt>
<pdfrwt beam="1">  1        2 0.81488360E-02 0.27551504E+03</pdfrwt>
<pdfrwt beam="2">  1       -2 0.55119888E-01 0.27551504E+03</pdfrwt>
<totfact> 0.26092627E+03</totfact>
</mgrwt>
</event>
<event>
 5    1  0.1129390E+001  0.2763136E+03  0.7818608E-02  0.1097720E+00
          1   -1    0    0  501    0  0.00000000000E+00  0.00000000000E+00  0.85378869851E+02  0.85378869851E+02  0.00000000000E+00 0.  1.
         -1   -1    0    0    0  501 -0.00000000000E+00 -0.00000000000E+00 -0.22355994598E+03  0.22355994598E+03  0.00000000000E+00 0.  1.
         35    2    1    2    0    0  0.00000000000E+00  0.00000000000E+00 -0.13818107613E+03  0.30893881583E+03  0.27631355762E+03 0.  0.
         25    1    3    3    0    0  0.20107893148E+02 -0.59637036999E+02 -0.38956606051E+02  0.14099120790E+03  0.12000000000E+03 0.  0.
         25    1    3    3    0    0 -0.20107893148E+02  0.59637036999E+02 -0.99224470076E+02  0.16794760793E+03  0.12000000000E+03 0.  0.
<mgrwt>
<rscale>  0 0.27631356E+03</rscale>
<asrwt>0</asrwt>
<pdfrwt beam="1">  1        1 0.13135211E-01 0.27631356E+03</pdfrwt>
<pdfrwt beam="2">  1       -1 0.34393838E-01 0.27631356E+03</pdfrwt>
<totfact> 0.35677650E+03</totfact>
</mgrwt>
</event>
<event>
 5    1  0.1129390E+001  0.2770689E+03  0.7818608E-02  0.1097301E+00
         -1   -1    0    0    0  501 -0.00000000000E+00  0.00000000000E+00  0.96983513068E+01  0.96983513068E+01  0.00000000000E+00 0.  1.
          1   -1    0    0  501    0  0.00000000000E+00 -0.00000000000E+00 -0.19788714427E+04  0.19788714427E+04  0.00000000000E+00 0.  1.
         35    2    1    2    0    0  0.00000000000E+00  0.00000000000E+00 -0.19691730914E+04  0.19885697940E+04  0.27706887550E+03 0.  0.
         25    1    3    3    0    0  0.10637753375E+02 -0.66459930511E+02 -0.11006940178E+04  0.11092598456E+04  0.12000000000E+03 0.  0.
         25    1    3    3    0    0 -0.10637753375E+02  0.66459930511E+02 -0.86847907355E+03  0.87930994840E+03  0.12000000000E+03 0.  0.
<mgrwt>
<rscale>  0 0.27706888E+03</rscale>
<asrwt>0</asrwt>
<pdfrwt beam="1">  1        1 0.30444190E+00 0.27706888E+03</pdfrwt>
<pdfrwt beam="2">  1       -1 0.14920534E-02 0.27706888E+03</pdfrwt>
<totfact> 0.36625202E+03</totfact>
</mgrwt>
</event>
<event>
 5    1  0.1129390E+001  0.2742470E+03  0.7818608E-02  0.1098873E+00
          1   -1    0    0  501    0  0.00000000000E+00  0.00000000000E+00  0.52937992112E+03  0.52937992112E+03  0.00000000000E+00 0.  1.
         -1   -1    0    0    0  501 -0.00000000000E+00 -0.00000000000E+00 -0.35518641938E+02  0.35518641938E+02  0.00000000000E+00 0.  1.
         35    2    1    2    0    0  0.00000000000E+00  0.00000000000E+00  0.49386127918E+03  0.56489856306E+03  0.27424701178E+03 0.  0.
         25    1    3    3    0    0 -0.37256036720E+01  0.10328188822E+01  0.38337556035E+03  0.40173594202E+03  0.12000000000E+03 0.  0.
         25    1    3    3    0    0  0.37256036720E+01 -0.10328188822E+01  0.11048571883E+03  0.16316262103E+03  0.12000000000E+03 0.  0.
<mgrwt>
<rscale>  0 0.27424701E+03</rscale>
<asrwt>0</asrwt>
<pdfrwt beam="1">  1        1 0.81443059E-01 0.27424701E+03</pdfrwt>
<pdfrwt beam="2">  1       -1 0.54644068E-02 0.27424701E+03</pdfrwt>
<totfact> 0.64057264E+03</totfact>
</mgrwt>
</event>
<event>
 5    1  0.1129390E+001  0.2753756E+03  0.7818608E-02  0.1098242E+00
         -2   -1    0    0    0  501 -0.00000000000E+00  0.00000000000E+00  0.11422197260E+02  0.11422197260E+02  0.00000000000E+00 0.  1.
          2   -1    0    0  501    0  0.00000000000E+00 -0.00000000000E+00 -0.16597451662E+04  0.16597451662E+04  0.00000000000E+00 0.  1.
         35    2    1    2    0    0  0.00000000000E+00  0.00000000000E+00 -0.16483229689E+04  0.16711673635E+04  0.27537564664E+03 0.  0.
         25    1    3    3    0    0  0.42654414584E+02  0.22799870031E+02 -0.11100153393E+04  0.11175299936E+04  0.12000000000E+03 0.  0.
         25    1    3    3    0    0 -0.42654414584E+02 -0.22799870031E+02 -0.53830762966E+03  0.55363736986E+03  0.12000000000E+03 0.  0.
<mgrwt>
<rscale>  0 0.27537565E+03</rscale>
<asrwt>0</asrwt>
<pdfrwt beam="1">  1        2 0.25534521E+00 0.27537565E+03</pdfrwt>
<pdfrwt beam="2">  1       -2 0.17572625E-02 0.27537565E+03</pdfrwt>
<totfact> 0.10493327E+04</totfact>
</mgrwt>
</event>
<event>
 5    1  0.1129390E+001  0.2746922E+03  0.7818608E-02  0.1098624E+00
         -2   -1    0    0    0  501 -0.00000000000E+00  0.00000000000E+00  0.76397497031E+01  0.76397497031E+01  0.00000000000E+00 0. -1.
          2   -1    0    0  501    0  0.00000000000E+00 -0.00000000000E+00 -0.24691848458E+04  0.24691848458E+04  0.00000000000E+00 0. -1.
         35    2    1    2    0    0  0.00000000000E+00  0.00000000000E+00 -0.24615450960E+04  0.24768245955E+04  0.27469222189E+03 0.  0.
         25    1    3    3    0    0 -0.50928604410E+02  0.20816343968E+02 -0.88897899652E+03  0.89872726629E+03  0.12000000000E+03 0.  0.
         25    1    3    3    0    0  0.50928604410E+02 -0.20816343968E+02 -0.15725660995E+04  0.15780973292E+04  0.12000000000E+03 0.  0.
<mgrwt>
<rscale>  0 0.27469222E+03</rscale>
<asrwt>0</asrwt>
<pdfrwt beam="1">  1        2 0.37987486E+00 0.27469222E+03</pdfrwt>
<pdfrwt beam="2">  1       -2 0.11753453E-02 0.27469222E+03</pdfrwt>
<totfact> 0.70261790E+03</totfact>
</mgrwt>
</event>
<event>
 5    1  0.1129390E+001  0.2750133E+03  0.7818608E-02  0.1098444E+00
          1   -1    0    0  501    0  0.00000000000E+00  0.00000000000E+00  0.69465304601E+03  0.69465304601E+03  0.00000000000E+00 0. -1.
         -1   -1    0    0    0  501 -0.00000000000E+00 -0.00000000000E+00 -0.27219452537E+02  0.27219452537E+02  0.00000000000E+00 0. -1.
         35    2    1    2    0    0  0.00000000000E+00  0.00000000000E+00  0.66743359347E+03  0.72187249855E+03  0.27501327688E+03 0.  0.
         25    1    3    3    0    0 -0.66076767334E+02 -0.11873398867E+02  0.33114652876E+03  0.35855981411E+03  0.12000000000E+03 0.  0.
         25    1    3    3    0    0  0.66076767334E+02  0.11873398867E+02  0.33628706471E+03  0.36331268444E+03  0.12000000000E+03 0.  0.
<mgrwt>
<rscale>  0 0.27501328E+03</rscale>
<asrwt>0</asrwt>
<pdfrwt beam="1">  1        1 0.10686969E+00 0.27501328E+03</pdfrwt>
<pdfrwt beam="2">  1       -1 0.41876086E-02 0.27501328E+03</pdfrwt>
<totfact> 0.65287185E+03</totfact>
</mgrwt>
</event>
<event>
 5    1  0.1129390E+001  0.2752124E+03  0.7818608E-02  0.1098333E+00
         -1   -1    0    0    0  501 -0.00000000000E+00  0.00000000000E+00  0.12375894540E+03  0.12375894540E+03  0.00000000000E+00 0. -1.
          1   -1    0    0  501    0  0.00000000000E+00 -0.00000000000E+00 -0.15300278211E+03  0.15300278211E+03  0.00000000000E+00 0. -1.
         35    2    1    2    0    0  0.00000000000E+00  0.00000000000E+00 -0.29243836708E+02  0.27676172751E+03  0.27521237586E+03 0.  0.
         25    1    3    3    0    0  0.41390649839E+02  0.27840610993E+02 -0.60122381460E+02  0.14318863875E+03  0.12000000000E+03 0.  0.
         25    1    3    3    0    0 -0.41390649839E+02 -0.27840610993E+02  0.30878544752E+02  0.13357308876E+03  0.12000000000E+03 0.  0.
<mgrwt>
<rscale>  0 0.27521238E+03</rscale>
<asrwt>0</asrwt>
<pdfrwt beam="1">  1        1 0.23538889E-01 0.27521238E+03</pdfrwt>
<pdfrwt beam="2">  1       -1 0.19039838E-01 0.27521238E+03</pdfrwt>
<totfact> 0.44897362E+03</totfact>
</mgrwt>
</event>
<event>
 5    1  0.1129390E+001  0.2750739E+03  0.7818608E-02  0.1098410E+00
         -1   -1    0    0    0  501 -0.00000000000E+00  0.00000000000E+00  0.23299485875E+02  0.23299485875E+02  0.00000000000E+00 0. -1.
          1   -1    0    0  501    0  0.00000000000E+00 -0.00000000000E+00 -0.81188094103E+03  0.81188094103E+03  0.00000000000E+00 0. -1.
         35    2    1    2    0    0  0.00000000000E+00  0.00000000000E+00 -0.78858145516E+03  0.83518042691E+03  0.27507387021E+03 0.  0.
         25    1    3    3    0    0 -0.50685699283E+02 -0.14196415699E+02 -0.26742860624E+03  0.29780637630E+03  0.12000000000E+03 0.  0.
         25    1    3    3    0    0  0.50685699283E+02  0.14196415699E+02 -0.52115284891E+03  0.53737405060E+03  0.12000000000E+03 0.  0.
<mgrwt>
<rscale>  0 0.27507387E+03</rscale>
<asrwt>0</asrwt>
<pdfrwt beam="1">  1        1 0.12490476E+00 0.27507387E+03</pdfrwt>
<pdfrwt beam="2">  1       -1 0.35845364E-02 0.27507387E+03</pdfrwt>
<totfact> 0.65097478E+03</totfact>
</mgrwt>
</event>
<event>
 5    1  0.1129390E+001  0.2752787E+03  0.7818608E-02  0.1098296E+00
         -2   -1    0    0    0  501 -0.00000000000E+00  0.00000000000E+00  0.52228181951E+01  0.52228181951E+01  0.00000000000E+00 0.  1.
          2   -1    0    0  501    0  0.00000000000E+00 -0.00000000000E+00 -0.36272739413E+04  0.36272739413E+04  0.00000000000E+00 0.  1.
         35    2    1    2    0    0  0.00000000000E+00  0.00000000000E+00 -0.36220511232E+04  0.36324967595E+04  0.27527871214E+03 0.  0.
         25    1    3    3    0    0  0.15112777026E+02  0.44763832491E+02 -0.11764787359E+04  0.11835262620E+04  0.12000000000E+03 0.  0.
         25    1    3    3    0    0 -0.15112777026E+02 -0.44763832491E+02 -0.24455723873E+04  0.24489704976E+04  0.12000000000E+03 0.  0.
<mgrwt>
<rscale>  0 0.27527871E+03</rscale>
<asrwt>0</asrwt>
<pdfrwt beam="1">  1        2 0.55804141E+00 0.27527871E+03</pdfrwt>
<pdfrwt beam="2">  1       -2 0.80351155E-03 0.27527871E+03</pdfrwt>
<totfact> 0.24378829E+03</totfact>
</mgrwt>
</event>
<event>
 5    1  0.1129390E+001  0.2755489E+03  0.7818608E-02  0.1098145E+00
          2   -1    0    0  501    0  0.00000000000E+00  0.00000000000E+00  0.12670877660E+04  0.12670877660E+04  0.00000000000E+00 0.  1.
         -2   -1    0    0    0  501 -0.00000000000E+00 -0.00000000000E+00 -0.14980654240E+02  0.14980654240E+02  0.00000000000E+00 0.  1.
         35    2    1    2    0    0  0.00000000000E+00  0.00000000000E+00  0.12521071118E+04  0.12820684203E+04  0.27554893369E+03 0.  0.
         25    1    3    3    0    0 -0.64497043242E+02 -0.16462537028E+02  0.56889439163E+03  0.58521082743E+03  0.12000000000E+03 0.  0.
         25    1    3    3    0    0  0.64497043242E+02  0.16462537028E+02  0.68321272018E+03  0.69685759286E+03  0.12000000000E+03 0.  0.
<mgrwt>
<rscale>  0 0.27554893E+03</rscale>
<asrwt>0</asrwt>
<pdfrwt beam="1">  1        2 0.19493649E+00 0.27554893E+03</pdfrwt>
<pdfrwt beam="2">  1       -2 0.23047170E-02 0.27554893E+03</pdfrwt>
<totfact> 0.11466757E+04</totfact>
</mgrwt>
</event>
<event>
 5    1  0.1129390E+001  0.2788148E+03  0.7818608E-02  0.1096338E+00
         -1   -1    0    0    0  501 -0.00000000000E+00  0.00000000000E+00  0.23267480589E+03  0.23267480589E+03  0.00000000000E+00 0. -1.
          1   -1    0    0  501    0  0.00000000000E+00 -0.00000000000E+00 -0.83526138064E+02  0.83526138064E+02  0.00000000000E+00 0. -1.
         35    2    1    2    0    0  0.00000000000E+00  0.00000000000E+00  0.14914866782E+03  0.31620094395E+03  0.27881483433E+03 0.  0.
         25    1    3    3    0    0  0.30362745067E+02  0.85927738753E+01  0.14664654779E+03  0.19209617911E+03  0.12000000000E+03 0.  0.
         25    1    3    3    0    0 -0.30362745067E+02 -0.85927738753E+01  0.25021200320E+01  0.12410476484E+03  0.12000000000E+03 0.  0.
<mgrwt>
<rscale>  0 0.27881483E+03</rscale>
<asrwt>0</asrwt>
<pdfrwt beam="1">  1        1 0.12850175E-01 0.27881483E+03</pdfrwt>
<pdfrwt beam="2">  1       -1 0.35796124E-01 0.27881483E+03</pdfrwt>
<totfact> 0.34272260E+03</totfact>
</mgrwt>
</event>
<event>
 5    1  0.1129390E+001  0.2745636E+03  0.7818608E-02  0.1098696E+00
          1   -1    0    0  501    0  0.00000000000E+00  0.00000000000E+00  0.34449242108E+03  0.34449242108E+03  0.00000000000E+00 0. -1.
         -1   -1    0    0    0  501 -0.00000000000E+00 -0.00000000000E+00 -0.54707438554E+02  0.54707438554E+02  0.00000000000E+00 0. -1.
         35    2    1    2    0    0  0.00000000000E+00  0.00000000000E+00  0.28978498253E+03  0.39919985964E+03  0.27456363895E+03 0.  0.
         25    1    3    3    0    0  0.38031393350E+02  0.19349835020E+02  0.70393060831E+02  0.14551971003E+03  0.12000000000E+03 0.  0.
         25    1    3    3    0    0 -0.38031393350E+02 -0.19349835020E+02  0.21939192170E+03  0.25368014960E+03  0.12000000000E+03 0.  0.
<mgrwt>
<rscale>  0 0.27456364E+03</rscale>
<asrwt>0</asrwt>
<pdfrwt beam="1">  1        1 0.52998833E-01 0.27456364E+03</pdfrwt>
<pdfrwt beam="2">  1       -1 0.84165291E-02 0.27456364E+03</pdfrwt>
<totfact> 0.58110173E+03</totfact>
</mgrwt>
</event>
<event>
 5    1  0.1129390E+001  0.2755272E+03  0.7818608E-02  0.1098157E+00
          4   -1    0    0  501    0  0.00000000000E+00  0.00000000000E+00  0.25447085120E+04  0.25447085120E+04  0.00000000000E+00 0. -1.
         -4   -1    0    0    0  501 -0.00000000000E+00 -0.00000000000E+00 -0.74581462598E+01  0.74581462598E+01  0.00000000000E+00 0. -1.
         35    2    1    2    0    0  0.00000000000E+00  0.00000000000E+00  0.25372503657E+04  0.25521666583E+04  0.27552719119E+03 0.  0.
         25    1    3    3    0    0 -0.93268979036E+01  0.39702637841E+02  0.17687776484E+04  0.17733126233E+04  0.12000000000E+03 0.  0.
         25    1    3    3    0    0  0.93268979036E+01 -0.39702637841E+02  0.76847271729E+03  0.77885403491E+03  0.12000000000E+03 0.  0.
<mgrwt>
<rscale>  0 0.27552719E+03</rscale>
<asrwt>0</asrwt>
<pdfrwt beam="1">  1        4 0.39149292E+00 0.27552719E+03</pdfrwt>
<pdfrwt beam="2">  1       -4 0.11474092E-02 0.27552719E+03</pdfrwt>
<totfact> 0.43636304E+01</totfact>
</mgrwt>
</event>
<event>
 5    1  0.1129390E+001  0.2755248E+03  0.7818608E-02  0.1098159E+00
          1   -1    0    0  501    0  0.00000000000E+00  0.00000000000E+00  0.17162555680E+03  0.17162555680E+03  0.00000000000E+00 0.  1.
         -1   -1    0    0    0  501 -0.00000000000E+00 -0.00000000000E+00 -0.11058070801E+03  0.11058070801E+03  0.00000000000E+00 0.  1.
         35    2    1    2    0    0  0.00000000000E+00  0.00000000000E+00  0.61044848788E+02  0.28220626481E+03  0.27552477626E+03 0.  0.
         25    1    3    3    0    0  0.60535145244E+02  0.15479024523E+02  0.57120830943E+02  0.14685671022E+03  0.12000000000E+03 0.  0.
         25    1    3    3    0    0 -0.60535145244E+02 -0.15479024523E+02  0.39240178447E+01  0.13534955458E+03  0.12000000000E+03 0.  0.
<mgrwt>
<rscale>  0 0.27552478E+03</rscale>
<asrwt>0</asrwt>
<pdfrwt beam="1">  1        1 0.26403932E-01 0.27552478E+03</pdfrwt>
<pdfrwt beam="2">  1       -1 0.17012417E-01 0.27552478E+03</pdfrwt>
<totfact> 0.46501306E+03</totfact>
</mgrwt>
</event>
<event>
 5    1  0.1129390E+001  0.2719820E+03  0.7818608E-02  0.1100151E+00
         -1   -1    0    0    0  501 -0.00000000000E+00  0.00000000000E+00  0.49623031741E+02  0.49623031741E+02  0.00000000000E+00 0.  1.
          1   -1    0    0  501    0  0.00000000000E+00 -0.00000000000E+00 -0.37268083761E+03  0.37268083761E+03  0.00000000000E+00 0.  1.
         35    2    1    2    0    0  0.00000000000E+00  0.00000000000E+00 -0.32305780587E+03  0.42230386935E+03  0.27198200701E+03 0.  0.
         25    1    3    3    0    0 -0.10608216827E+02 -0.50606132885E+02 -0.22003954750E+03  0.25591193293E+03  0.12000000000E+03 0.  0.
         25    1    3    3    0    0  0.10608216827E+02  0.50606132885E+02 -0.10301825837E+03  0.16639193642E+03  0.12000000000E+03 0.  0.
<mgrwt>
<rscale>  0 0.27198201E+03</rscale>
<asrwt>0</asrwt>
<pdfrwt beam="1">  1        1 0.57335515E-01 0.27198201E+03</pdfrwt>
<pdfrwt beam="2">  1       -1 0.76343124E-02 0.27198201E+03</pdfrwt>
<totfact> 0.61014468E+03</totfact>
</mgrwt>
</event>
<event>
 5    1  0.1129390E+001  0.2750825E+03  0.7818608E-02  0.1098405E+00
         -2   -1    0    0    0  501 -0.00000000000E+00  0.00000000000E+00  0.63678270636E+02  0.63678270636E+02  0.00000000000E+00 0.  1.
          2   -1    0    0  501    0  0.00000000000E+00 -0.00000000000E+00 -0.29708090077E+03  0.29708090077E+03  0.00000000000E+00 0.  1.
         35    2    1    2    0    0  0.00000000000E+00  0.00000000000E+00 -0.23340263013E+03  0.36075917140E+03  0.27508251853E+03 0.  0.
         25    1    3    3    0    0  0.14196256992E+02  0.59892525301E+02 -0.15210945963E+03  0.20328781569E+03  0.12000000000E+03 0.  0.
         25    1    3    3    0    0 -0.14196256992E+02 -0.59892525301E+02 -0.81293170496E+02  0.15747135571E+03  0.12000000000E+03 0.  0.
<mgrwt>
<rscale>  0 0.27508252E+03</rscale>
<asrwt>0</asrwt>
<pdfrwt beam="1">  1        2 0.45704754E-01 0.27508252E+03</pdfrwt>
<pdfrwt beam="2">  1       -2 0.97966570E-02 0.27508252E+03</pdfrwt>
<totfact> 0.75214198E+03</totfact>
</mgrwt>
</event>
<event>
 5    1  0.1129390E+001  0.2747597E+03  0.7818608E-02  0.1098586E+00
          3   -1    0    0  501    0  0.00000000000E+00  0.00000000000E+00  0.87024366949E+03  0.87024366949E+03  0.00000000000E+00 0.  1.
         -3   -1    0    0    0  501 -0.00000000000E+00 -0.00000000000E+00 -0.21687283199E+02  0.21687283199E+02  0.00000000000E+00 0.  1.
         35    2    1    2    0    0  0.00000000000E+00  0.00000000000E+00  0.84855638629E+03  0.89193095269E+03  0.27475968345E+03 0.  0.
         25    1    3    3    0    0  0.19074879794E+02  0.24373445973E+01  0.21633165163E+03  0.24813136679E+03  0.12000000000E+03 0.  0.
         25    1    3    3    0    0 -0.19074879794E+02 -0.24373445973E+01  0.63222473467E+03  0.64379958591E+03  0.12000000000E+03 0.  0.
<mgrwt>
<rscale>  0 0.27475968E+03</rscale>
<asrwt>0</asrwt>
<pdfrwt beam="1">  1        3 0.13388361E+00 0.27475968E+03</pdfrwt>
<pdfrwt beam="2">  1       -3 0.33365058E-02 0.27475968E+03</pdfrwt>
<totfact> 0.49817214E+02</totfact>
</mgrwt>
</event>
<event>
 5    1  0.1129390E+001  0.2752451E+03  0.7818608E-02  0.1098315E+00
         -1   -1    0    0    0  501 -0.00000000000E+00  0.00000000000E+00  0.13979436938E+03  0.13979436938E+03  0.00000000000E+00 0. -1.
          1   -1    0    0  501    0  0.00000000000E+00 -0.00000000000E+00 -0.13548444133E+03  0.13548444133E+03  0.00000000000E+00 0. -1.
         35    2    1    2    0    0  0.00000000000E+00  0.00000000000E+00  0.43099280486E+01  0.27527881071E+03  0.27524506925E+03 0.  0.
         25    1    3    3    0    0  0.20262963184E+02 -0.63909954548E+02  0.88559397681E+01  0.13774431980E+03  0.12000000000E+03 0.  0.
         25    1    3    3    0    0 -0.20262963184E+02  0.63909954548E+02 -0.45460117195E+01  0.13753449091E+03  0.12000000000E+03 0.  0.
<mgrwt>
<rscale>  0 0.27524507E+03</rscale>
<asrwt>0</asrwt>
<pdfrwt beam="1">  1        1 0.20843760E-01 0.27524507E+03</pdfrwt>
<pdfrwt beam="2">  1       -1 0.21506826E-01 0.27524507E+03</pdfrwt>
<totfact> 0.43027696E+03</totfact>
</mgrwt>
</event>
<event>
 5    1  0.1129390E+001  0.2738223E+03  0.7818608E-02  0.1099112E+00
          1   -1    0    0  501    0  0.00000000000E+00  0.00000000000E+00  0.38424980288E+03  0.38424980288E+03  0.00000000000E+00 0. -1.
         -1   -1    0    0    0  501 -0.00000000000E+00 -0.00000000000E+00 -0.48782502500E+02  0.48782502500E+02  0.00000000000E+00 0. -1.
         35    2    1    2    0    0  0.00000000000E+00  0.00000000000E+00  0.33546730038E+03  0.43303230538E+03  0.27382232903E+03 0.  0.
         25    1    3    3    0    0 -0.45816083241E+02  0.45732515193E+02  0.14810278567E+03  0.20130825009E+03  0.12000000000E+03 0.  0.
         25    1    3    3    0    0  0.45816083241E+02 -0.45732515193E+02  0.18736451470E+03  0.23172405529E+03  0.12000000000E+03 0.  0.
<mgrwt>
<rscale>  0 0.27382233E+03</rscale>
<asrwt>0</asrwt>
<pdfrwt beam="1">  1        1 0.59115352E-01 0.27382233E+03</pdfrwt>
<pdfrwt beam="2">  1       -1 0.75050006E-02 0.27382233E+03</pdfrwt>
<totfact> 0.60242242E+03</totfact>
</mgrwt>
</event>
<event>
 5    1  0.1129390E+001  0.2797439E+03  0.7818608E-02  0.1095829E+00
          2   -1    0    0  501    0  0.00000000000E+00  0.00000000000E+00  0.16362531970E+03  0.16362531970E+03  0.00000000000E+00 0.  1.
         -2   -1    0    0    0  501 -0.00000000000E+00 -0.00000000000E+00 -0.11956681063E+03  0.11956681063E+03  0.00000000000E+00 0.  1.
         35    2    1    2    0    0  0.00000000000E+00  0.00000000000E+00  0.44058509063E+02  0.28319213033E+03  0.27974386581E+03 0.  0.
         25    1    3    3    0    0  0.59431954930E+02  0.28196333751E+02 -0.72577399003E+01  0.13703964861E+03  0.12000000000E+03 0.  0.
         25    1    3    3    0    0 -0.59431954930E+02 -0.28196333751E+02  0.51316248963E+02  0.14615248171E+03  0.12000000000E+03 0.  0.
<mgrwt>
<rscale>  0 0.27974387E+03</rscale>
<asrwt>0</asrwt>
<pdfrwt beam="1">  1        2 0.25173126E-01 0.27974387E+03</pdfrwt>
<pdfrwt beam="2">  1       -2 0.18394894E-01 0.27974387E+03</pdfrwt>
<totfact> 0.51480459E+03</totfact>
</mgrwt>
</event>
<event>
 5    1  0.1129390E+001  0.2747730E+03  0.7818608E-02  0.1098579E+00
          2   -1    0    0  501    0  0.00000000000E+00  0.00000000000E+00  0.27086546768E+04  0.27086546768E+04  0.00000000000E+00 0.  1.
         -2   -1    0    0    0  501 -0.00000000000E+00 -0.00000000000E+00 -0.69684236633E+01  0.69684236633E+01  0.00000000000E+00 0.  1.
         35    2    1    2    0    0  0.00000000000E+00  0.00000000000E+00  0.27016862531E+04  0.27156231005E+04  0.27477302157E+03 0.  0.
         25    1    3    3    0    0  0.22193284309E+02 -0.55269074213E+02  0.16518886434E+04  0.16573120716E+04  0.12000000000E+03 0.  0.
         25    1    3    3    0    0 -0.22193284309E+02  0.55269074213E+02  0.10497976097E+04  0.10583110288E+04  0.12000000000E+03 0.  0.
<mgrwt>
<rscale>  0 0.27477302E+03</rscale>
<asrwt>0</asrwt>
<pdfrwt beam="1">  1        2 0.41671526E+00 0.27477302E+03</pdfrwt>
<pdfrwt beam="2">  1       -2 0.10720673E-02 0.27477302E+03</pdfrwt>
<totfact> 0.59162528E+03</totfact>
</mgrwt>
</event>
<event>
 5    1  0.1129390E+001  0.2887649E+03  0.7818608E-02  0.1090996E+00
         -4   -1    0    0    0  501 -0.00000000000E+00  0.00000000000E+00  0.12934501733E+03  0.12934501733E+03  0.00000000000E+00 0.  1.
          4   -1    0    0  501    0  0.00000000000E+00 -0.00000000000E+00 -0.16116814246E+03  0.16116814246E+03  0.00000000000E+00 0.  1.
         35    2    1    2    0    0  0.00000000000E+00  0.00000000000E+00 -0.31823125124E+02  0.29051315979E+03  0.28876492986E+03 0.  0.
         25    1    3    3    0    0 -0.15865671413E+02 -0.75619665420E+02  0.60435464359E+01  0.14285159355E+03  0.12000000000E+03 0.  0.
         25    1    3    3    0    0  0.15865671413E+02  0.75619665420E+02 -0.37866671560E+02  0.14766156623E+03  0.12000000000E+03 0.  0.
<mgrwt>
<rscale>  0 0.28876493E+03</rscale>
<asrwt>0</asrwt>
<pdfrwt beam="1">  1        4 0.24795099E-01 0.28876493E+03</pdfrwt>
<pdfrwt beam="2">  1       -4 0.19899234E-01 0.28876493E+03</pdfrwt>
<totfact> 0.65359651E+02</totfact>
</mgrwt>
</event>
<event>
 5    1  0.1129390E+001  0.2751026E+03  0.7818608E-02  0.1098394E+00
          1   -1    0    0  501    0  0.00000000000E+00  0.00000000000E+00  0.43655947961E+02  0.43655947961E+02  0.00000000000E+00 0.  1.
         -1   -1    0    0    0  501 -0.00000000000E+00 -0.00000000000E+00 -0.43339713095E+03  0.43339713095E+03  0.00000000000E+00 0.  1.
         35    2    1    2    0    0  0.00000000000E+00  0.00000000000E+00 -0.38974118299E+03  0.47705307891E+03  0.27510261791E+03 0.  0.
         25    1    3    3    0    0 -0.22509300552E+02  0.29210003952E+02 -0.29235783534E+03  0.31817133250E+03  0.12000000000E+03 0.  0.
         25    1    3    3    0    0  0.22509300552E+02 -0.29210003952E+02 -0.97383347652E+02  0.15888174641E+03  0.12000000000E+03 0.  0.
<mgrwt>
<rscale>  0 0.27510262E+03</rscale>
<asrwt>0</asrwt>
<pdfrwt beam="1">  1        1 0.67163001E-02 0.27510262E+03</pdfrwt>
<pdfrwt beam="2">  1       -1 0.66676477E-01 0.27510262E+03</pdfrwt>
<totfact> 0.26059704E+03</totfact>
</mgrwt>
</event>
<event>
 5    1  0.1129390E+001  0.2745818E+03  0.7818608E-02  0.1098686E+00
          2   -1    0    0  501    0  0.00000000000E+00  0.00000000000E+00  0.34015527331E+03  0.34015527331E+03  0.00000000000E+00 0. -1.
         -2   -1    0    0    0  501 -0.00000000000E+00 -0.00000000000E+00 -0.55412330997E+02  0.55412330997E+02  0.00000000000E+00 0. -1.
         35    2    1    2    0    0  0.00000000000E+00  0.00000000000E+00  0.28474294231E+03  0.39556760430E+03  0.27458183913E+03 0.  0.
         25    1    3    3    0    0 -0.50833834590E+02 -0.36436187399E+02  0.10898385439E+03  0.17375026621E+03  0.12000000000E+03 0.  0.
         25    1    3    3    0    0  0.50833834590E+02  0.36436187399E+02  0.17575908792E+03  0.22181733809E+03  0.12000000000E+03 0.  0.
<mgrwt>
<rscale>  0 0.27458184E+03</rscale>
<asrwt>0</asrwt>
<pdfrwt beam="1">  1        2 0.52331579E-01 0.27458184E+03</pdfrwt>
<pdfrwt beam="2">  1       -2 0.85249742E-02 0.27458184E+03</pdfrwt>
<totfact> 0.80959477E+03</totfact>
</mgrwt>
</event>
<event>
 5    1  0.1129390E+001  0.2768823E+03  0.7818608E-02  0.1097404E+00
         -1   -1    0    0    0  501 -0.00000000000E+00  0.00000000000E+00  0.14918236110E+02  0.14918236110E+02  0.00000000000E+00 0.  1.
          1   -1    0    0  501    0  0.00000000000E+00 -0.00000000000E+00 -0.12847330266E+04  0.12847330266E+04  0.00000000000E+00 0.  1.
         35    2    1    2    0    0  0.00000000000E+00  0.00000000000E+00 -0.12698147905E+04  0.12996512627E+04  0.27688229000E+03 0.  0.
         25    1    3    3    0    0 -0.54202774146E+02 -0.35559984353E+02 -0.74633110650E+03  0.75869135604E+03  0.12000000000E+03 0.  0.
         25    1    3    3    0    0  0.54202774146E+02  0.35559984353E+02 -0.52348368403E+03  0.54095990670E+03  0.12000000000E+03 0.  0.
<mgrwt>
<rscale>  0 0.27688229E+03</rscale>
<asrwt>0</asrwt>
<pdfrwt beam="1">  1        1 0.19765125E+00 0.27688229E+03</pdfrwt>
<pdfrwt beam="2">  1       -1 0.22951131E-02 0.27688229E+03</pdfrwt>
<totfact> 0.56010940E+03</totfact>
</mgrwt>
</event>
<event>
 5    1  0.1129390E+001  0.2749040E+03  0.7818608E-02  0.1098505E+00
          2   -1    0    0  501    0  0.00000000000E+00  0.00000000000E+00  0.15086327046E+03  0.15086327046E+03  0.00000000000E+00 0.  1.
         -2   -1    0    0    0  501 -0.00000000000E+00 -0.00000000000E+00 -0.12523296029E+03  0.12523296029E+03  0.00000000000E+00 0.  1.
         35    2    1    2    0    0  0.00000000000E+00  0.00000000000E+00  0.25630310168E+02  0.27609623074E+03  0.27490401203E+03 0.  0.
         25    1    3    3    0    0  0.27565672129E+02 -0.29190544619E+02 -0.41093506489E+02  0.13304371631E+03  0.12000000000E+03 0.  0.
         25    1    3    3    0    0 -0.27565672129E+02  0.29190544619E+02  0.66723816658E+02  0.14305251443E+03  0.12000000000E+03 0.  0.
<mgrwt>
<rscale>  0 0.27490401E+03</rscale>
<asrwt>0</asrwt>
<pdfrwt beam="1">  1        2 0.23209734E-01 0.27490401E+03</pdfrwt>
<pdfrwt beam="2">  1       -2 0.19266609E-01 0.27490401E+03</pdfrwt>
<totfact> 0.52096273E+03</totfact>
</mgrwt>
</event>
<event>
 5    1  0.1129390E+001  0.2760498E+03  0.7818608E-02  0.1097866E+00
         -1   -1    0    0    0  501 -0.00000000000E+00  0.00000000000E+00  0.91671216943E+03  0.91671216943E+03  0.00000000000E+00 0.  1.
          1   -1    0    0  501    0  0.00000000000E+00 -0.00000000000E+00 -0.20781741612E+02  0.20781741612E+02  0.00000000000E+00 0.  1.
         35    2    1    2    0    0  0.00000000000E+00  0.00000000000E+00  0.89593042782E+03  0.93749391104E+03  0.27604981752E+03 0.  0.
         25    1    3    3    0    0 -0.60769867664E+01  0.15608766700E+02  0.67247600297E+03  0.68330413282E+03  0.12000000000E+03 0.  0.
         25    1    3    3    0    0  0.60769867664E+01 -0.15608766700E+02  0.22345442485E+03  0.25418977822E+03  0.12000000000E+03 0.  0.
<mgrwt>
<rscale>  0 0.27604982E+03</rscale>
<asrwt>0</asrwt>
<pdfrwt beam="1">  1        1 0.31971917E-02 0.27604982E+03</pdfrwt>
<pdfrwt beam="2">  1       -1 0.14103261E+00 0.27604982E+03</pdfrwt>
<totfact> 0.13819460E+03</totfact>
</mgrwt>
</event>
<event>
 5    1  0.1129390E+001  0.2739790E+03  0.7818608E-02  0.1099024E+00
          1   -1    0    0  501    0  0.00000000000E+00  0.00000000000E+00  0.86227964802E+02  0.86227964802E+02  0.00000000000E+00 0.  1.
         -1   -1    0    0    0  501 -0.00000000000E+00 -0.00000000000E+00 -0.21763385982E+03  0.21763385982E+03  0.00000000000E+00 0.  1.
         35    2    1    2    0    0  0.00000000000E+00  0.00000000000E+00 -0.13140589501E+03  0.30386182462E+03  0.27397901236E+03 0.  0.
         25    1    3    3    0    0 -0.29272477704E+02 -0.59237090212E+02 -0.65189895036E+02  0.15170904133E+03  0.12000000000E+03 0.  0.
         25    1    3    3    0    0  0.29272477704E+02  0.59237090212E+02 -0.66215999979E+02  0.15215278328E+03  0.12000000000E+03 0.  0.
<mgrwt>
<rscale>  0 0.27397901E+03</rscale>
<asrwt>0</asrwt>
<pdfrwt beam="1">  1        1 0.13265841E-01 0.27397901E+03</pdfrwt>
<pdfrwt beam="2">  1       -1 0.33482132E-01 0.27397901E+03</pdfrwt>
<totfact> 0.36880155E+03</totfact>
</mgrwt>
</event>
<event>
 5    1  0.1129390E+001  0.2747876E+03  0.7818608E-02  0.1098570E+00
          1   -1    0    0  501    0  0.00000000000E+00  0.00000000000E+00  0.62081937963E+03  0.62081937963E+03  0.00000000000E+00 0.  1.
         -1   -1    0    0    0  501 -0.00000000000E+00 -0.00000000000E+00 -0.30406682833E+02  0.30406682833E+02  0.00000000000E+00 0.  1.
         35    2    1    2    0    0  0.00000000000E+00  0.00000000000E+00  0.59041269680E+03  0.65122606247E+03  0.27478761233E+03 0.  0.
         25    1    3    3    0    0 -0.62311486226E+02  0.82817491386E+01  0.34954689084E+03  0.37487909729E+03  0.12000000000E+03 0.  0.
         25    1    3    3    0    0  0.62311486226E+02 -0.82817491386E+01  0.24086580596E+03  0.27634696518E+03  0.12000000000E+03 0.  0.
<mgrwt>
<rscale>  0 0.27478761E+03</rscale>
<asrwt>0</asrwt>
<pdfrwt beam="1">  1        1 0.95510664E-01 0.27478761E+03</pdfrwt>
<pdfrwt beam="2">  1       -1 0.46779517E-02 0.27478761E+03</pdfrwt>
<totfact> 0.64978831E+03</totfact>
</mgrwt>
</event>
<event>
 5    1  0.1129390E+001  0.2745268E+03  0.7818608E-02  0.1098716E+00
          4   -1    0    0  501    0  0.00000000000E+00  0.00000000000E+00  0.28691176324E+02  0.28691176324E+02  0.00000000000E+00 0. -1.
         -4   -1    0    0    0  501 -0.00000000000E+00 -0.00000000000E+00 -0.65669130455E+03  0.65669130455E+03  0.00000000000E+00 0. -1.
         35    2    1    2    0    0  0.00000000000E+00  0.00000000000E+00 -0.62800012822E+03  0.68538248087E+03  0.27452683664E+03 0.  0.
         25    1    3    3    0    0  0.18643584498E+02  0.50901083780E+02 -0.41078114515E+03  0.43136950841E+03  0.12000000000E+03 0.  0.
         25    1    3    3    0    0 -0.18643584498E+02 -0.50901083780E+02 -0.21721898308E+03  0.25401297247E+03  0.12000000000E+03 0.  0.
<mgrwt>
<rscale>  0 0.27452684E+03</rscale>
<asrwt>0</asrwt>
<pdfrwt beam="1">  1        4 0.44140276E-02 0.27452684E+03</pdfrwt>
<pdfrwt beam="2">  1       -4 0.10102942E+00 0.27452684E+03</pdfrwt>
<totfact> 0.45574560E+02</totfact>
</mgrwt>
</event>
<event>
 5    1  0.1129390E+001  0.2710867E+03  0.7818608E-02  0.1100659E+00
         -2   -1    0    0    0  501 -0.00000000000E+00  0.00000000000E+00  0.11208811798E+04  0.11208811798E+04  0.00000000000E+00 0. -1.
          2   -1    0    0  501    0  0.00000000000E+00 -0.00000000000E+00 -0.16390680290E+02  0.16390680290E+02  0.00000000000E+00 0. -1.
         35    2    1    2    0    0  0.00000000000E+00  0.00000000000E+00  0.11044904995E+04  0.11372718601E+04  0.27108673934E+03 0.  0.
         25    1    3    3    0    0 -0.46602745488E+01  0.51740507711E+02  0.70193962713E+03  0.71401543291E+03  0.12000000000E+03 0.  0.
         25    1    3    3    0    0  0.46602745488E+01 -0.51740507711E+02  0.40255087241E+03  0.42325642721E+03  0.12000000000E+03 0.  0.
<mgrwt>
<rscale>  0 0.27108674E+03</rscale>
<asrwt>0</asrwt>
<pdfrwt beam="1">  1        2 0.25216440E-02 0.27108674E+03</pdfrwt>
<pdfrwt beam="2">  1       -2 0.17244320E+00 0.27108674E+03</pdfrwt>
<totfact> 0.87041278E+02</totfact>
</mgrwt>
</event>
<event>
 5    1  0.1129390E+001  0.2769175E+03  0.7818608E-02  0.1097385E+00
          2   -1    0    0  501    0  0.00000000000E+00  0.00000000000E+00  0.35142714206E+04  0.35142714206E+04  0.00000000000E+00 0. -1.
         -2   -1    0    0    0  501 -0.00000000000E+00 -0.00000000000E+00 -0.54551368834E+01  0.54551368834E+01  0.00000000000E+00 0. -1.
         35    2    1    2    0    0  0.00000000000E+00  0.00000000000E+00  0.35088162837E+04  0.35197265575E+04  0.27691754473E+03 0.  0.
         25    1    3    3    0    0  0.22098755167E+02  0.56084650582E+02  0.21829926951E+04  0.21871193269E+04  0.12000000000E+03 0.  0.
         25    1    3    3    0    0 -0.22098755167E+02 -0.56084650582E+02  0.13258235886E+04  0.13326072307E+04  0.12000000000E+03 0.  0.
<mgrwt>
<rscale>  0 0.27691754E+03</rscale>
<asrwt>0</asrwt>
<pdfrwt beam="1">  1        2 0.54065533E+00 0.27691754E+03</pdfrwt>
<pdfrwt beam="2">  1       -2 0.83925464E-03 0.27691754E+03</pdfrwt>
<totfact> 0.27277102E+03</totfact>
</mgrwt>
</event>
<event>
 5    1  0.1129390E+001  0.2742419E+03  0.7818608E-02  0.1098876E+00
          2   -1    0    0  501    0  0.00000000000E+00  0.00000000000E+00  0.24732640202E+04  0.24732640202E+04  0.00000000000E+00 0. -1.
         -2   -1    0    0    0  501 -0.00000000000E+00 -0.00000000000E+00 -0.76021620691E+01  0.76021620691E+01  0.00000000000E+00 0. -1.
         35    2    1    2    0    0  0.00000000000E+00  0.00000000000E+00  0.24656618581E+04  0.24808661823E+04  0.27424189265E+03 0.  0.
         25    1    3    3    0    0 -0.64099481188E+02  0.90764716207E+01  0.13642443381E+04  0.13710411153E+04  0.12000000000E+03 0.  0.
         25    1    3    3    0    0  0.64099481188E+02 -0.90764716207E+01  0.11014175201E+04  0.11098250670E+04  0.12000000000E+03 0.  0.
<mgrwt>
<rscale>  0 0.27424189E+03</rscale>
<asrwt>0</asrwt>
<pdfrwt beam="1">  1        2 0.38050152E+00 0.27424189E+03</pdfrwt>
<pdfrwt beam="2">  1       -2 0.11695654E-02 0.27424189E+03</pdfrwt>
<totfact> 0.70406975E+03</totfact>
</mgrwt>
</event>
<event>
 5    1  0.1129390E+001  0.2741588E+03  0.7818608E-02  0.1098923E+00
         -1   -1    0    0    0  501 -0.00000000000E+00  0.00000000000E+00  0.29563690694E+02  0.29563690694E+02  0.00000000000E+00 0.  1.
          1   -1    0    0  501    0  0.00000000000E+00 -0.00000000000E+00 -0.63560294088E+03  0.63560294088E+03  0.00000000000E+00 0.  1.
         35    2    1    2    0    0  0.00000000000E+00  0.00000000000E+00 -0.60603925019E+03  0.66516663158E+03  0.27415884993E+03 0.  0.
         25    1    3    3    0    0 -0.47315348853E+02  0.42245815996E+02 -0.25652004620E+03  0.29021713476E+03  0.12000000000E+03 0.  0.
         25    1    3    3    0    0  0.47315348853E+02 -0.42245815996E+02 -0.34951920398E+03  0.37494949681E+03  0.12000000000E+03 0.  0.
<mgrwt>
<rscale>  0 0.27415885E+03</rscale>
<asrwt>0</asrwt>
<pdfrwt beam="1">  1        1 0.97785066E-01 0.27415885E+03</pdfrwt>
<pdfrwt beam="2">  1       -1 0.45482602E-02 0.27415885E+03</pdfrwt>
<totfact> 0.65554120E+03</totfact>
</mgrwt>
</event>
<event>
 5    1  0.1129390E+001  0.2748261E+03  0.7818608E-02  0.1098549E+00
         -2   -1    0    0    0  501 -0.00000000000E+00  0.00000000000E+00  0.71530914099E+01  0.71530914099E+01  0.00000000000E+00 0.  1.
          2   -1    0    0  501    0  0.00000000000E+00 -0.00000000000E+00 -0.26397469133E+04  0.26397469133E+04  0.00000000000E+00 0.  1.
         35    2    1    2    0    0  0.00000000000E+00  0.00000000000E+00 -0.26325938219E+04  0.26469000047E+04  0.27482613391E+03 0.  0.
         25    1    3    3    0    0  0.30786870855E+02 -0.52609057236E+02 -0.10495972637E+04  0.10581918353E+04  0.12000000000E+03 0.  0.
         25    1    3    3    0    0 -0.30786870855E+02  0.52609057236E+02 -0.15829965582E+04  0.15887081694E+04  0.12000000000E+03 0.  0.
<mgrwt>
<rscale>  0 0.27482613E+03</rscale>
<asrwt>0</asrwt>
<pdfrwt beam="1">  1        2 0.40611543E+00 0.27482613E+03</pdfrwt>
<pdfrwt beam="2">  1       -2 0.11004742E-02 0.27482613E+03</pdfrwt>
<totfact> 0.62256729E+03</totfact>
</mgrwt>
</event>
<event>
 5    1  0.1129390E+001  0.2749848E+03  0.7818608E-02  0.1098460E+00
          2   -1    0    0  501    0  0.00000000000E+00  0.00000000000E+00  0.32816207338E+03  0.32816207338E+03  0.00000000000E+00 0. -1.
         -2   -1    0    0    0  501 -0.00000000000E+00 -0.00000000000E+00 -0.57606186031E+02  0.57606186031E+02  0.00000000000E+00 0. -1.
         35    2    1    2    0    0  0.00000000000E+00  0.00000000000E+00  0.27055588735E+03  0.38576825941E+03  0.27498483920E+03 0.  0.
         25    1    3    3    0    0  0.59604124252E+02  0.10892111518E+02  0.94791666543E+02  0.16448936065E+03  0.12000000000E+03 0.  0.
         25    1    3    3    0    0 -0.59604124252E+02 -0.10892111518E+02  0.17576422080E+03  0.22127889876E+03  0.12000000000E+03 0.  0.
<mgrwt>
<rscale>  0 0.27498484E+03</rscale>
<asrwt>0</asrwt>
<pdfrwt beam="1">  1        2 0.50486472E-01 0.27498484E+03</pdfrwt>
<pdfrwt beam="2">  1       -2 0.88624903E-02 0.27498484E+03</pdfrwt>
<totfact> 0.79174897E+03</totfact>
</mgrwt>
</event>
<event>
 5    1  0.1129390E+001  0.2754093E+03  0.7818608E-02  0.1098223E+00
         -2   -1    0    0    0  501 -0.00000000000E+00  0.00000000000E+00  0.59562464572E+02  0.59562464572E+02  0.00000000000E+00 0. -1.
          2   -1    0    0  501    0  0.00000000000E+00 -0.00000000000E+00 -0.31836451639E+03  0.31836451639E+03  0.00000000000E+00 0. -1.
         35    2    1    2    0    0  0.00000000000E+00  0.00000000000E+00 -0.25880205181E+03  0.37792698096E+03  0.27540933338E+03 0.  0.
         25    1    3    3    0    0 -0.36900669663E+01 -0.53947672175E+02 -0.73853248451E+02  0.15092471711E+03  0.12000000000E+03 0.  0.
         25    1    3    3    0    0  0.36900669663E+01  0.53947672175E+02 -0.18494880336E+03  0.22700226385E+03  0.12000000000E+03 0.  0.
<mgrwt>
<rscale>  0 0.27540933E+03</rscale>
<asrwt>0</asrwt>
<pdfrwt beam="1">  1        2 0.48979156E-01 0.27540933E+03</pdfrwt>
<pdfrwt beam="2">  1       -2 0.91634561E-02 0.27540933E+03</pdfrwt>
<totfact> 0.77610628E+03</totfact>
</mgrwt>
</event>
<event>
 5    1  0.1129390E+001  0.2688968E+03  0.7818608E-02  0.1101913E+00
          2   -1    0    0  501    0  0.00000000000E+00  0.00000000000E+00  0.31736840175E+04  0.31736840175E+04  0.00000000000E+00 0. -1.
         -2   -1    0    0    0  501 -0.00000000000E+00 -0.00000000000E+00 -0.56957046667E+01  0.56957046667E+01  0.00000000000E+00 0. -1.
         35    2    1    2    0    0  0.00000000000E+00  0.00000000000E+00  0.31679883128E+04  0.31793797221E+04  0.26889675988E+03 0.  0.
         25    1    3    3    0    0  0.50153437618E+02  0.23660830580E+02  0.12940905940E+04  0.13008249950E+04  0.12000000000E+03 0.  0.
         25    1    3    3    0    0 -0.50153437618E+02 -0.23660830580E+02  0.18738977188E+04  0.18785547271E+04  0.12000000000E+03 0.  0.
<mgrwt>
<rscale>  0 0.26889676E+03</rscale>
<asrwt>0</asrwt>
<pdfrwt beam="1">  1        2 0.48825767E+00 0.26889676E+03</pdfrwt>
<pdfrwt beam="2">  1       -2 0.87626479E-03 0.26889676E+03</pdfrwt>
<totfact> 0.42304168E+03</totfact>
</mgrwt>
</event>
<event>
 5    1  0.1129390E+001  0.2756560E+03  0.7818608E-02  0.1098085E+00
         -2   -1    0    0    0  501 -0.00000000000E+00  0.00000000000E+00  0.65744962228E+03  0.65744962228E+03  0.00000000000E+00 0.  1.
          2   -1    0    0  501    0  0.00000000000E+00 -0.00000000000E+00 -0.28894309059E+02  0.28894309059E+02  0.00000000000E+00 0.  1.
         35    2    1    2    0    0  0.00000000000E+00  0.00000000000E+00  0.62855531322E+03  0.68634393134E+03  0.27565596367E+03 0.  0.
         25    1    3    3    0    0 -0.62262243255E+02 -0.22857983835E+02  0.34926685589E+03  0.37521515292E+03  0.12000000000E+03 0.  0.
         25    1    3    3    0    0  0.62262243255E+02  0.22857983835E+02  0.27928845733E+03  0.31112877842E+03  0.12000000000E+03 0.  0.
<mgrwt>
<rscale>  0 0.27565596E+03</rscale>
<asrwt>0</asrwt>
<pdfrwt beam="1">  1        2 0.44452788E-02 0.27565596E+03</pdfrwt>
<pdfrwt beam="2">  1       -2 0.10114608E+00 0.27565596E+03</pdfrwt>
<totfact> 0.15348085E+03</totfact>
</mgrwt>
</event>
<event>
 5    1  0.1129390E+001  0.2745814E+03  0.7818608E-02  0.1098686E+00
         -2   -1    0    0    0  501 -0.00000000000E+00  0.00000000000E+00  0.10237479858E+02  0.10237479858E+02  0.00000000000E+00 0.  1.
          2   -1    0    0  501    0  0.00000000000E+00 -0.00000000000E+00 -0.18411494264E+04  0.18411494264E+04  0.00000000000E+00 0.  1.
         35    2    1    2    0    0  0.00000000000E+00  0.00000000000E+00 -0.18309119466E+04  0.18513869063E+04  0.27458135529E+03 0.  0.
         25    1    3    3    0    0 -0.33052280906E+02  0.10869662089E+02 -0.53177248893E+03  0.54625322224E+03  0.12000000000E+03 0.  0.
         25    1    3    3    0    0  0.33052280906E+02 -0.10869662089E+02 -0.12991394576E+04  0.13051336840E+04  0.12000000000E+03 0.  0.
<mgrwt>
<rscale>  0 0.27458136E+03</rscale>
<asrwt>0</asrwt>
<pdfrwt beam="1">  1        2 0.28325380E+00 0.27458136E+03</pdfrwt>
<pdfrwt beam="2">  1       -2 0.15749967E-02 0.27458136E+03</pdfrwt>
<totfact> 0.98900573E+03</totfact>
</mgrwt>
</event>
<event>
 5    1  0.1129390E+001  0.2754644E+03  0.7818608E-02  0.1098192E+00
         -4   -1    0    0    0  501 -0.00000000000E+00  0.00000000000E+00  0.33992052713E+03  0.33992052713E+03  0.00000000000E+00 0.  1.
          4   -1    0    0  501    0  0.00000000000E+00 -0.00000000000E+00 -0.55807610242E+02  0.55807610242E+02  0.00000000000E+00 0.  1.
         35    2    1    2    0    0  0.00000000000E+00  0.00000000000E+00  0.28411291689E+03  0.39572813737E+03  0.27546435190E+03 0.  0.
         25    1    3    3    0    0 -0.27419716521E+02 -0.49448997252E+02  0.19528982008E+03  0.23608294731E+03  0.12000000000E+03 0.  0.
         25    1    3    3    0    0  0.27419716521E+02  0.49448997252E+02  0.88823096804E+02  0.15964519006E+03  0.12000000000E+03 0.  0.
<mgrwt>
<rscale>  0 0.27546435E+03</rscale>
<asrwt>0</asrwt>
<pdfrwt beam="1">  1        4 0.85857864E-02 0.27546435E+03</pdfrwt>
<pdfrwt beam="2">  1       -4 0.52295464E-01 0.27546435E+03</pdfrwt>
<totfact> 0.65050318E+02</totfact>
</mgrwt>
</event>
<event>
 5    1  0.1129390E+001  0.2759761E+03  0.7818608E-02  0.1097907E+00
          1   -1    0    0  501    0  0.00000000000E+00  0.00000000000E+00  0.10045583379E+04  0.10045583379E+04  0.00000000000E+00 0. -1.
         -1   -1    0    0    0  501 -0.00000000000E+00 -0.00000000000E+00 -0.18954305163E+02  0.18954305163E+02  0.00000000000E+00 0. -1.
         35    2    1    2    0    0  0.00000000000E+00  0.00000000000E+00  0.98560403275E+03  0.10235126431E+04  0.27597612427E+03 0.  0.
         25    1    3    3    0    0 -0.24167835803E+02 -0.26837207987E+02  0.27858212334E+03  0.30547065238E+03  0.12000000000E+03 0.  0.
         25    1    3    3    0    0  0.24167835803E+02  0.26837207987E+02  0.70702190941E+03  0.71804199070E+03  0.12000000000E+03 0.  0.
<mgrwt>
<rscale>  0 0.27597612E+03</rscale>
<asrwt>0</asrwt>
<pdfrwt beam="1">  1        1 0.15454740E+00 0.27597612E+03</pdfrwt>
<pdfrwt beam="2">  1       -1 0.29160477E-02 0.27597612E+03</pdfrwt>
<totfact> 0.62377805E+03</totfact>
</mgrwt>
</event>
<event>
 5    1  0.1129390E+001  0.2765946E+03  0.7818608E-02  0.1097564E+00
          1   -1    0    0  501    0  0.00000000000E+00  0.00000000000E+00  0.12186967444E+04  0.12186967444E+04  0.00000000000E+00 0.  1.
         -1   -1    0    0    0  501 -0.00000000000E+00 -0.00000000000E+00 -0.15693936403E+02  0.15693936403E+02  0.00000000000E+00 0.  1.
         35    2    1    2    0    0  0.00000000000E+00  0.00000000000E+00  0.12030028080E+04  0.12343906808E+04  0.27659464349E+03 0.  0.
         25    1    3    3    0    0 -0.48668296421E+02 -0.48536197046E+02  0.59554107972E+03  0.61138657422E+03  0.12000000000E+03 0.  0.
         25    1    3    3    0    0  0.48668296421E+02  0.48536197046E+02  0.60746172830E+03  0.62300410661E+03  0.12000000000E+03 0.  0.
<mgrwt>
<rscale>  0 0.27659464E+03</rscale>
<asrwt>0</asrwt>
<pdfrwt beam="1">  1        1 0.18749173E+00 0.27659464E+03</pdfrwt>
<pdfrwt beam="2">  1       -1 0.24144527E-02 0.27659464E+03</pdfrwt>
<totfact> 0.57756632E+03</totfact>
</mgrwt>
</event>
<event>
 5    1  0.1129390E+001  0.2753060E+03  0.7818608E-02  0.1098281E+00
         -2   -1    0    0    0  501 -0.00000000000E+00  0.00000000000E+00  0.62394629315E+01  0.62394629315E+01  0.00000000000E+00 0. -1.
          2   -1    0    0  501    0  0.00000000000E+00 -0.00000000000E+00 -0.30368551139E+04  0.30368551139E+04  0.00000000000E+00 0. -1.
         35    2    1    2    0    0  0.00000000000E+00  0.00000000000E+00 -0.30306156509E+04  0.30430945768E+04  0.27530597459E+03 0.  0.
         25    1    3    3    0    0  0.11140708778E+02  0.48592253661E+02 -0.20173633910E+04  0.20215440569E+04  0.12000000000E+03 0.  0.
         25    1    3    3    0    0 -0.11140708778E+02 -0.48592253661E+02 -0.10132522599E+04  0.10215505199E+04  0.12000000000E+03 0.  0.
<mgrwt>
<rscale>  0 0.27530597E+03</rscale>
<asrwt>0</asrwt>
<pdfrwt beam="1">  1        2 0.46720707E+00 0.27530597E+03</pdfrwt>
<pdfrwt beam="2">  1       -2 0.95992027E-03 0.27530597E+03</pdfrwt>
<totfact> 0.44822841E+03</totfact>
</mgrwt>
</event>
<event>
 5    1  0.1129390E+001  0.2761090E+03  0.7818608E-02  0.1097833E+00
         -2   -1    0    0    0  501 -0.00000000000E+00  0.00000000000E+00  0.97639518821E+02  0.97639518821E+02  0.00000000000E+00 0. -1.
          2   -1    0    0  501    0  0.00000000000E+00 -0.00000000000E+00 -0.19519803849E+03  0.19519803849E+03  0.00000000000E+00 0. -1.
         35    2    1    2    0    0  0.00000000000E+00  0.00000000000E+00 -0.97558519670E+02  0.29283755731E+03  0.27610898249E+03 0.  0.
         25    1    3    3    0    0 -0.78712250082E+01  0.32503107982E+01  0.23047780817E+02  0.12248967672E+03  0.12000000000E+03 0.  0.
         25    1    3    3    0    0  0.78712250082E+01 -0.32503107982E+01 -0.12060630049E+03  0.17034788059E+03  0.12000000000E+03 0.  0.
<mgrwt>
<rscale>  0 0.27610898E+03</rscale>
<asrwt>0</asrwt>
<pdfrwt beam="1">  1        2 0.30030467E-01 0.27610898E+03</pdfrwt>
<pdfrwt beam="2">  1       -2 0.15021464E-01 0.27610898E+03</pdfrwt>
<totfact> 0.59390441E+03</totfact>
</mgrwt>
</event>
<event>
 5    1  0.1129390E+001  0.2743221E+03  0.7818608E-02  0.1098831E+00
         -2   -1    0    0    0  501 -0.00000000000E+00  0.00000000000E+00  0.54344778688E+01  0.54344778688E+01  0.00000000000E+00 0. -1.
          2   -1    0    0  501    0  0.00000000000E+00 -0.00000000000E+00 -0.34618133222E+04  0.34618133222E+04  0.00000000000E+00 0. -1.
         35    2    1    2    0    0  0.00000000000E+00  0.00000000000E+00 -0.34563788443E+04  0.34672478001E+04  0.27432205807E+03 0.  0.
         25    1    3    3    0    0  0.48175452231E+02 -0.31753256336E+02 -0.13120492204E+04  0.13187881939E+04  0.12000000000E+03 0.  0.
         25    1    3    3    0    0 -0.48175452231E+02  0.31753256336E+02 -0.21443296239E+04  0.21484596062E+04  0.12000000000E+03 0.  0.
<mgrwt>
<rscale>  0 0.27432206E+03</rscale>
<asrwt>0</asrwt>
<pdfrwt beam="1">  1        2 0.53258575E+00 0.27432206E+03</pdfrwt>
<pdfrwt beam="2">  1       -2 0.83607495E-03 0.27432206E+03</pdfrwt>
<totfact> 0.29716336E+03</totfact>
</mgrwt>
</event>
<event>
 5    1  0.1129390E+001  0.2757441E+03  0.7818608E-02  0.1098036E+00
         -2   -1    0    0    0  501 -0.00000000000E+00  0.00000000000E+00  0.81615176524E+02  0.81615176524E+02  0.00000000000E+00 0. -1.
          2   -1    0    0  501    0  0.00000000000E+00 -0.00000000000E+00 -0.23290643585E+03  0.23290643585E+03  0.00000000000E+00 0. -1.
         35    2    1    2    0    0  0.00000000000E+00  0.00000000000E+00 -0.15129125933E+03  0.31452161238E+03  0.27574408335E+03 0.  0.
         25    1    3    3    0    0  0.27799815880E+02  0.31869152980E+02 -0.13621964168E+03  0.18639813157E+03  0.12000000000E+03 0.  0.
         25    1    3    3    0    0 -0.27799815880E+02 -0.31869152980E+02 -0.15071617647E+02  0.12812348080E+03  0.12000000000E+03 0.  0.
<mgrwt>
<rscale>  0 0.27574408E+03</rscale>
<asrwt>0</asrwt>
<pdfrwt beam="1">  1        2 0.35831759E-01 0.27574408E+03</pdfrwt>
<pdfrwt beam="2">  1       -2 0.12556181E-01 0.27574408E+03</pdfrwt>
<totfact> 0.65688824E+03</totfact>
</mgrwt>
</event>
<event>
 5    1  0.1129390E+001  0.2747899E+03  0.7818608E-02  0.1098569E+00
         -4   -1    0    0    0  501 -0.00000000000E+00  0.00000000000E+00  0.50324513471E+02  0.50324513471E+02  0.00000000000E+00 0.  1.
          4   -1    0    0  501    0  0.00000000000E+00 -0.00000000000E+00 -0.37511272750E+03  0.37511272750E+03  0.00000000000E+00 0.  1.
         35    2    1    2    0    0  0.00000000000E+00  0.00000000000E+00 -0.32478821403E+03  0.42543724098E+03  0.27478985068E+03 0.  0.
         25    1    3    3    0    0 -0.45888322608E+02  0.43323429581E+02 -0.12795838470E+03  0.18642962725E+03  0.12000000000E+03 0.  0.
         25    1    3    3    0    0  0.45888322608E+02 -0.43323429581E+02 -0.19682982933E+03  0.23900761372E+03  0.12000000000E+03 0.  0.
<mgrwt>
<rscale>  0 0.27478985E+03</rscale>
<asrwt>0</asrwt>
<pdfrwt beam="1">  1        4 0.57709650E-01 0.27478985E+03</pdfrwt>
<pdfrwt beam="2">  1       -4 0.77422329E-02 0.27478985E+03</pdfrwt>
<totfact> 0.62930693E+02</totfact>
</mgrwt>
</event>
<event>
 5    1  0.1129390E+001  0.2761502E+03  0.7818608E-02  0.1097810E+00
         -1   -1    0    0    0  501 -0.00000000000E+00  0.00000000000E+00  0.18174225094E+02  0.18174225094E+02  0.00000000000E+00 0. -1.
          1   -1    0    0  501    0  0.00000000000E+00 -0.00000000000E+00 -0.10489985525E+04  0.10489985525E+04  0.00000000000E+00 0. -1.
         35    2    1    2    0    0  0.00000000000E+00  0.00000000000E+00 -0.10308243274E+04  0.10671727776E+04  0.27615021866E+03 0.  0.
         25    1    3    3    0    0  0.39318364352E+02  0.34990770451E+02 -0.34721034235E+03  0.37111360744E+03  0.12000000000E+03 0.  0.
         25    1    3    3    0    0 -0.39318364352E+02 -0.34990770451E+02 -0.68361398507E+03  0.69605917017E+03  0.12000000000E+03 0.  0.
<mgrwt>
<rscale>  0 0.27615022E+03</rscale>
<asrwt>0</asrwt>
<pdfrwt beam="1">  1        1 0.16138440E+00 0.27615022E+03</pdfrwt>
<pdfrwt beam="2">  1       -1 0.27960346E-02 0.27615022E+03</pdfrwt>
<totfact> 0.61520762E+03</totfact>
</mgrwt>
</event>
<event>
 5    1  0.1129390E+001  0.2743425E+03  0.7818608E-02  0.1098820E+00
          1   -1    0    0  501    0  0.00000000000E+00  0.00000000000E+00  0.20264850286E+04  0.20264850286E+04  0.00000000000E+00 0.  1.
         -1   -1    0    0    0  501 -0.00000000000E+00 -0.00000000000E+00 -0.92850214795E+01  0.92850214795E+01  0.00000000000E+00 0.  1.
         35    2    1    2    0    0  0.00000000000E+00  0.00000000000E+00  0.20172000072E+04  0.20357700501E+04  0.27434253785E+03 0.  0.
         25    1    3    3    0    0  0.53285104198E+02 -0.38574715637E+02  0.93873412129E+03  0.94865645072E+03  0.12000000000E+03 0.  0.
         25    1    3    3    0    0 -0.53285104198E+02  0.38574715637E+02  0.10784658859E+04  0.10871135994E+04  0.12000000000E+03 0.  0.
<mgrwt>
<rscale>  0 0.27434254E+03</rscale>
<asrwt>0</asrwt>
<pdfrwt beam="1">  1        1 0.31176658E+00 0.27434254E+03</pdfrwt>
<pdfrwt beam="2">  1       -1 0.14284665E-02 0.27434254E+03</pdfrwt>
<totfact> 0.36341369E+03</totfact>
</mgrwt>
</event>
<event>
 5    1  0.1129390E+001  0.2780421E+03  0.7818608E-02  0.1096763E+00
         -1   -1    0    0    0  501 -0.00000000000E+00  0.00000000000E+00  0.30045428078E+03  0.30045428078E+03  0.00000000000E+00 0. -1.
          1   -1    0    0  501    0  0.00000000000E+00 -0.00000000000E+00 -0.64325415275E+02  0.64325415275E+02  0.00000000000E+00 0. -1.
         35    2    1    2    0    0  0.00000000000E+00  0.00000000000E+00  0.23612886550E+03  0.36477969605E+03  0.27804205712E+03 0.  0.
         25    1    3    3    0    0 -0.58253844605E+02  0.88661598832E+01  0.16810369991E+03  0.21478122154E+03  0.12000000000E+03 0.  0.
         25    1    3    3    0    0  0.58253844605E+02 -0.88661598832E+01  0.68025165592E+02  0.14999847451E+03  0.12000000000E+03 0.  0.
<mgrwt>
<rscale>  0 0.27804206E+03</rscale>
<asrwt>0</asrwt>
<pdfrwt beam="1">  1        1 0.98962179E-02 0.27804206E+03</pdfrwt>
<pdfrwt beam="2">  1       -1 0.46223735E-01 0.27804206E+03</pdfrwt>
<totfact> 0.30803328E+03</totfact>
</mgrwt>
</event>
<event>
 5    1  0.1129390E+001  0.2730961E+03  0.7818608E-02  0.1099521E+00
          2   -1    0    0  501    0  0.00000000000E+00  0.00000000000E+00  0.44717883771E+02  0.44717883771E+02  0.00000000000E+00 0.  1.
         -2   -1    0    0    0  501 -0.00000000000E+00 -0.00000000000E+00 -0.41695559515E+03  0.41695559515E+03  0.00000000000E+00 0.  1.
         35    2    1    2    0    0  0.00000000000E+00  0.00000000000E+00 -0.37223771138E+03  0.46167347892E+03  0.27309611379E+03 0.  0.
         25    1    3    3    0    0  0.39793666564E+02  0.41776861338E+02 -0.13493974892E+03  0.18957209151E+03  0.12000000000E+03 0.  0.
         25    1    3    3    0    0 -0.39793666564E+02 -0.41776861338E+02 -0.23729796246E+03  0.27210138741E+03  0.12000000000E+03 0.  0.
<mgrwt>
<rscale>  0 0.27309611E+03</rscale>
<asrwt>0</asrwt>
<pdfrwt beam="1">  1        2 0.68796745E-02 0.27309611E+03</pdfrwt>
<pdfrwt beam="2">  1       -2 0.64147014E-01 0.27309611E+03</pdfrwt>
<totfact> 0.23674294E+03</totfact>
</mgrwt>
</event>
<event>
 5    1  0.1129390E+001  0.2742746E+03  0.7818608E-02  0.1098858E+00
          2   -1    0    0  501    0  0.00000000000E+00  0.00000000000E+00  0.14565119464E+04  0.14565119464E+04  0.00000000000E+00 0.  1.
         -2   -1    0    0    0  501 -0.00000000000E+00 -0.00000000000E+00 -0.12912111168E+02  0.12912111168E+02  0.00000000000E+00 0.  1.
         35    2    1    2    0    0  0.00000000000E+00  0.00000000000E+00  0.14435998352E+04  0.14694240576E+04  0.27427463732E+03 0.  0.
         25    1    3    3    0    0  0.62982193472E+02  0.19605833580E+02  0.76171188681E+03  0.77392256971E+03  0.12000000000E+03 0.  0.
         25    1    3    3    0    0 -0.62982193472E+02 -0.19605833580E+02  0.68188794842E+03  0.69550148785E+03  0.12000000000E+03 0.  0.
<mgrwt>
<rscale>  0 0.27427464E+03</rscale>
<asrwt>0</asrwt>
<pdfrwt beam="1">  1        2 0.22407863E+00 0.27427464E+03</pdfrwt>
<pdfrwt beam="2">  1       -2 0.19864798E-02 0.27427464E+03</pdfrwt>
<totfact> 0.11241852E+04</totfact>
</mgrwt>
</event>
<event>
 5    1  0.1129390E+001  0.2735672E+03  0.7818608E-02  0.1099255E+00
          1   -1    0    0  501    0  0.00000000000E+00  0.00000000000E+00  0.19990001121E+02  0.19990001121E+02  0.00000000000E+00 0.  1.
         -1   -1    0    0    0  501 -0.00000000000E+00 -0.00000000000E+00 -0.93595552429E+03  0.93595552429E+03  0.00000000000E+00 0.  1.
         35    2    1    2    0    0  0.00000000000E+00  0.00000000000E+00 -0.91596552317E+03  0.95594552541E+03  0.27356719087E+03 0.  0.
         25    1    3    3    0    0 -0.58056955051E+02 -0.30357699304E+02 -0.44334303481E+03  0.46394530546E+03  0.12000000000E+03 0.  0.
         25    1    3    3    0    0  0.58056955051E+02  0.30357699304E+02 -0.47262248835E+03  0.49200021995E+03  0.12000000000E+03 0.  0.
<mgrwt>
<rscale>  0 0.27356719E+03</rscale>
<asrwt>0</asrwt>
<pdfrwt beam="1">  1        1 0.30753839E-02 0.27356719E+03</pdfrwt>
<pdfrwt beam="2">  1       -1 0.14399320E+00 0.27356719E+03</pdfrwt>
<totfact> 0.13834810E+03</totfact>
</mgrwt>
</event>
<event>
 5    1  0.1129390E+001  0.2751739E+03  0.7818608E-02  0.1098354E+00
          2   -1    0    0  501    0  0.00000000000E+00  0.00000000000E+00  0.16595905953E+04  0.16595905953E+04  0.00000000000E+00 0. -1.
         -2   -1    0    0    0  501 -0.00000000000E+00 -0.00000000000E+00 -0.11406527306E+02  0.11406527306E+02  0.00000000000E+00 0. -1.
         35    2    1    2    0    0  0.00000000000E+00  0.00000000000E+00  0.16481840680E+04  0.16709971226E+04  0.27517387552E+03 0.  0.
         25    1    3    3    0    0 -0.54291157811E+02 -0.37699226955E+02  0.74694388149E+03  0.75940366316E+03  0.12000000000E+03 0.  0.
         25    1    3    3    0    0  0.54291157811E+02  0.37699226955E+02  0.90124018654E+03  0.91159345948E+03  0.12000000000E+03 0.  0.
<mgrwt>
<rscale>  0 0.27517388E+03</rscale>
<asrwt>0</asrwt>
<pdfrwt beam="1">  1        2 0.25532144E+00 0.27517388E+03</pdfrwt>
<pdfrwt beam="2">  1       -2 0.17548517E-02 0.27517388E+03</pdfrwt>
<totfact> 0.10516325E+04</totfact>
</mgrwt>
</event>
<event>
 5    1  0.1129390E+001  0.2645177E+03  0.7818608E-02  0.1104459E+00
         -2   -1    0    0    0  501 -0.00000000000E+00  0.00000000000E+00  0.14272594716E+02  0.14272594716E+02  0.00000000000E+00 0.  1.
          2   -1    0    0  501    0  0.00000000000E+00 -0.00000000000E+00 -0.12255939468E+04  0.12255939468E+04  0.00000000000E+00 0.  1.
         35    2    1    2    0    0  0.00000000000E+00  0.00000000000E+00 -0.12113213521E+04  0.12398665415E+04  0.26451771728E+03 0.  0.
         25    1    3    3    0    0 -0.16000290192E+02 -0.33994415676E+02 -0.41349531469E+03  0.43219209254E+03  0.12000000000E+03 0.  0.
         25    1    3    3    0    0  0.16000290192E+02  0.33994415676E+02 -0.79782603737E+03  0.80767444895E+03  0.12000000000E+03 0.  0.
<mgrwt>
<rscale>  0 0.26451772E+03</rscale>
<asrwt>0</asrwt>
<pdfrwt beam="1">  1        2 0.18855293E+00 0.26451772E+03</pdfrwt>
<pdfrwt beam="2">  1       -2 0.21957836E-02 0.26451772E+03</pdfrwt>
<totfact> 0.12978437E+04</totfact>
</mgrwt>
</event>
<event>
 5    1  0.1129390E+001  0.2746483E+03  0.7818608E-02  0.1098648E+00
         -2   -1    0    0    0  501 -0.00000000000E+00  0.00000000000E+00  0.20548480315E+02  0.20548480315E+02  0.00000000000E+00 0.  1.
          2   -1    0    0  501    0  0.00000000000E+00 -0.00000000000E+00 -0.91772833685E+03  0.91772833685E+03  0.00000000000E+00 0.  1.
         35    2    1    2    0    0  0.00000000000E+00  0.00000000000E+00 -0.89717985654E+03  0.93827681717E+03  0.27464830357E+03 0.  0.
         25    1    3    3    0    0  0.88555894384E+01 -0.27371144334E+02 -0.65442843301E+03  0.66596109116E+03  0.12000000000E+03 0.  0.
         25    1    3    3    0    0 -0.88555894384E+01  0.27371144334E+02 -0.24275142353E+03  0.27231572601E+03  0.12000000000E+03 0.  0.
<mgrwt>
<rscale>  0 0.27464830E+03</rscale>
<asrwt>0</asrwt>
<pdfrwt beam="1">  1        2 0.14118897E+00 0.27464830E+03</pdfrwt>
<pdfrwt beam="2">  1       -2 0.31613047E-02 0.27464830E+03</pdfrwt>
<totfact> 0.11553353E+04</totfact>
</mgrwt>
</event>
<event>
 5    1  0.1129390E+001  0.2747271E+03  0.7818608E-02  0.1098604E+00
         -4   -1    0    0    0  501 -0.00000000000E+00  0.00000000000E+00  0.37706764524E+02  0.37706764524E+02  0.00000000000E+00 0.  1.
          4   -1    0    0  501    0  0.00000000000E+00 -0.00000000000E+00 -0.50040747928E+03  0.50040747928E+03  0.00000000000E+00 0.  1.
         35    2    1    2    0    0  0.00000000000E+00  0.00000000000E+00 -0.46270071476E+03  0.53811424381E+03  0.27472711543E+03 0.  0.
         25    1    3    3    0    0 -0.18405844326E+02  0.64255940251E+02 -0.23344721978E+03  0.27086012144E+03  0.12000000000E+03 0.  0.
         25    1    3    3    0    0  0.18405844326E+02 -0.64255940251E+02 -0.22925349498E+03  0.26725412237E+03  0.12000000000E+03 0.  0.
<mgrwt>
<rscale>  0 0.27472712E+03</rscale>
<asrwt>0</asrwt>
<pdfrwt beam="1">  1        4 0.76985763E-01 0.27472712E+03</pdfrwt>
<pdfrwt beam="2">  1       -4 0.58010409E-02 0.27472712E+03</pdfrwt>
<totfact> 0.54355937E+02</totfact>
</mgrwt>
</event>
<event>
 5    1  0.1129390E+001  0.2770388E+03  0.7818608E-02  0.1097317E+00
          1   -1    0    0  501    0  0.00000000000E+00  0.00000000000E+00  0.96441055094E+02  0.96441055094E+02  0.00000000000E+00 0.  1.
         -1   -1    0    0    0  501 -0.00000000000E+00 -0.00000000000E+00 -0.19895700628E+03  0.19895700628E+03  0.00000000000E+00 0.  1.
         35    2    1    2    0    0  0.00000000000E+00  0.00000000000E+00 -0.10251595119E+03  0.29539806138E+03  0.27703879587E+03 0.  0.
         25    1    3    3    0    0  0.13033637568E+02 -0.67397980195E+02 -0.42007807525E+02  0.14448882080E+03  0.12000000000E+03 0.  0.
         25    1    3    3    0    0 -0.13033637568E+02  0.67397980195E+02 -0.60508143666E+02  0.15090924058E+03  0.12000000000E+03 0.  0.
<mgrwt>
<rscale>  0 0.27703880E+03</rscale>
<asrwt>0</asrwt>
<pdfrwt beam="1">  1        1 0.14837086E-01 0.27703880E+03</pdfrwt>
<pdfrwt beam="2">  1       -1 0.30608770E-01 0.27703880E+03</pdfrwt>
<totfact> 0.37132103E+03</totfact>
</mgrwt>
</event>
<event>
 5    1  0.1129390E+001  0.2754356E+03  0.7818608E-02  0.1098208E+00
          2   -1    0    0  501    0  0.00000000000E+00  0.00000000000E+00  0.31937763693E+04  0.31937763693E+04  0.00000000000E+00 0. -1.
         -2   -1    0    0    0  501 -0.00000000000E+00 -0.00000000000E+00 -0.59384866029E+01  0.59384866029E+01  0.00000000000E+00 0. -1.
         35    2    1    2    0    0  0.00000000000E+00  0.00000000000E+00  0.31878378827E+04  0.31997148559E+04  0.27543564172E+03 0.  0.
         25    1    3    3    0    0  0.52540629771E+02  0.21259681618E+02  0.11665003863E+04  0.11740254014E+04  0.12000000000E+03 0.  0.
         25    1    3    3    0    0 -0.52540629771E+02 -0.21259681618E+02  0.20213374964E+04  0.20256894545E+04  0.12000000000E+03 0.  0.
<mgrwt>
<rscale>  0 0.27543564E+03</rscale>
<asrwt>0</asrwt>
<pdfrwt beam="1">  1        2 0.49134884E+00 0.27543564E+03</pdfrwt>
<pdfrwt beam="2">  1       -2 0.91361588E-03 0.27543564E+03</pdfrwt>
<totfact> 0.38677991E+03</totfact>
</mgrwt>
</event>
<event>
 5    1  0.1129390E+001  0.2751968E+03  0.7818608E-02  0.1098342E+00
         -2   -1    0    0    0  501 -0.00000000000E+00  0.00000000000E+00  0.40541076561E+02  0.40541076561E+02  0.00000000000E+00 0.  1.
          2   -1    0    0  501    0  0.00000000000E+00 -0.00000000000E+00 -0.46701585832E+03  0.46701585832E+03  0.00000000000E+00 0.  1.
         35    2    1    2    0    0  0.00000000000E+00  0.00000000000E+00 -0.42647478176E+03  0.50755693488E+03  0.27519684350E+03 0.  0.
         25    1    3    3    0    0 -0.54677647329E+02  0.37813944531E+02 -0.23291108967E+03  0.27030929545E+03  0.12000000000E+03 0.  0.
         25    1    3    3    0    0  0.54677647329E+02 -0.37813944531E+02 -0.19356369209E+03  0.23724763943E+03  0.12000000000E+03 0.  0.
<mgrwt>
<rscale>  0 0.27519684E+03</rscale>
<asrwt>0</asrwt>
<pdfrwt beam="1">  1        2 0.71848589E-01 0.27519684E+03</pdfrwt>
<pdfrwt beam="2">  1       -2 0.62370891E-02 0.27519684E+03</pdfrwt>
<totfact> 0.93148686E+03</totfact>
</mgrwt>
</event>
<event>
 5    1  0.1129390E+001  0.2749742E+03  0.7818608E-02  0.1098466E+00
          2   -1    0    0  501    0  0.00000000000E+00  0.00000000000E+00  0.40126877252E+02  0.40126877252E+02  0.00000000000E+00 0. -1.
         -2   -1    0    0    0  501 -0.00000000000E+00 -0.00000000000E+00 -0.47107324242E+03  0.47107324242E+03  0.00000000000E+00 0. -1.
         35    2    1    2    0    0  0.00000000000E+00  0.00000000000E+00 -0.43094636517E+03  0.51120011967E+03  0.27497416733E+03 0.  0.
         25    1    3    3    0    0 -0.22656075708E+02 -0.22653766200E+02 -0.10586275196E+03  0.16319746672E+03  0.12000000000E+03 0.  0.
         25    1    3    3    0    0  0.22656075708E+02  0.22653766200E+02 -0.32508361320E+03  0.34800265295E+03  0.12000000000E+03 0.  0.
<mgrwt>
<rscale>  0 0.27497417E+03</rscale>
<asrwt>0</asrwt>
<pdfrwt beam="1">  1        2 0.61733651E-02 0.27497417E+03</pdfrwt>
<pdfrwt beam="2">  1       -2 0.72472813E-01 0.27497417E+03</pdfrwt>
<totfact> 0.21011043E+03</totfact>
</mgrwt>
</event>
<event>
 5    1  0.1129390E+001  0.2770042E+03  0.7818608E-02  0.1097337E+00
          2   -1    0    0  501    0  0.00000000000E+00  0.00000000000E+00  0.54935510733E+03  0.54935510733E+03  0.00000000000E+00 0. -1.
         -2   -1    0    0    0  501 -0.00000000000E+00 -0.00000000000E+00 -0.34918827771E+02  0.34918827771E+02  0.00000000000E+00 0. -1.
         35    2    1    2    0    0  0.00000000000E+00  0.00000000000E+00  0.51443627956E+03  0.58427393510E+03  0.27700423374E+03 0.  0.
         25    1    3    3    0    0  0.67621707432E+02  0.84975995262E+01  0.28199021607E+03  0.31394806334E+03  0.12000000000E+03 0.  0.
         25    1    3    3    0    0 -0.67621707432E+02 -0.84975995262E+01  0.23244606349E+03  0.27032587176E+03  0.12000000000E+03 0.  0.
<mgrwt>
<rscale>  0 0.27700423E+03</rscale>
<asrwt>0</asrwt>
<pdfrwt beam="1">  1        2 0.84516164E-01 0.27700423E+03</pdfrwt>
<pdfrwt beam="2">  1       -2 0.53721278E-02 0.27700423E+03</pdfrwt>
<totfact> 0.97600534E+03</totfact>
</mgrwt>
</event>
<event>
 5    1  0.1129390E+001  0.2815081E+03  0.7818608E-02  0.1094868E+00
         -3   -1    0    0    0  501 -0.00000000000E+00  0.00000000000E+00  0.26836687745E+03  0.26836687745E+03  0.00000000000E+00 0. -1.
          3   -1    0    0  501    0  0.00000000000E+00 -0.00000000000E+00 -0.73823193327E+02  0.73823193327E+02  0.00000000000E+00 0. -1.
         35    2    1    2    0    0  0.00000000000E+00  0.00000000000E+00  0.19454368413E+03  0.34219007078E+03  0.28150808071E+03 0.  0.
         25    1    3    3    0    0 -0.28137137987E+02 -0.64588822981E+02  0.71535087481E+02  0.15646304142E+03  0.12000000000E+03 0.  0.
         25    1    3    3    0    0  0.28137137987E+02  0.64588822981E+02  0.12300859665E+03  0.18572702937E+03  0.12000000000E+03 0.  0.
<mgrwt>
<rscale>  0 0.28150808E+03</rscale>
<asrwt>0</asrwt>
<pdfrwt beam="1">  1        3 0.11357414E-01 0.28150808E+03</pdfrwt>
<pdfrwt beam="2">  1       -3 0.41287211E-01 0.28150808E+03</pdfrwt>
<totfact> 0.88711156E+02</totfact>
</mgrwt>
</event>
<event>
 5    1  0.1129390E+001  0.2750828E+03  0.7818608E-02  0.1098405E+00
         -2   -1    0    0    0  501 -0.00000000000E+00  0.00000000000E+00  0.21526263820E+02  0.21526263820E+02  0.00000000000E+00 0.  1.
          2   -1    0    0  501    0  0.00000000000E+00 -0.00000000000E+00 -0.87881642452E+03  0.87881642452E+03  0.00000000000E+00 0.  1.
         35    2    1    2    0    0  0.00000000000E+00  0.00000000000E+00 -0.85729016070E+03  0.90034268834E+03  0.27508278175E+03 0.  0.
         25    1    3    3    0    0  0.61449394206E+02  0.48253740149E+01 -0.51636616532E+03  0.53369778805E+03  0.12000000000E+03 0.  0.
         25    1    3    3    0    0 -0.61449394206E+02 -0.48253740149E+01 -0.34092399538E+03  0.36664490029E+03  0.12000000000E+03 0.  0.
<mgrwt>
<rscale>  0 0.27508278E+03</rscale>
<asrwt>0</asrwt>
<pdfrwt beam="1">  1        2 0.13520254E+00 0.27508278E+03</pdfrwt>
<pdfrwt beam="2">  1       -2 0.33117326E-02 0.27508278E+03</pdfrwt>
<totfact> 0.11422781E+04</totfact>
</mgrwt>
</event>
<event>
 5    1  0.1129390E+001  0.2762327E+03  0.7818608E-02  0.1097765E+00
         -2   -1    0    0    0  501 -0.00000000000E+00  0.00000000000E+00  0.43050673047E+02  0.43050673047E+02  0.00000000000E+00 0.  1.
          2   -1    0    0  501    0  0.00000000000E+00 -0.00000000000E+00 -0.44310851900E+03  0.44310851900E+03  0.00000000000E+00 0.  1.
         35    2    1    2    0    0  0.00000000000E+00  0.00000000000E+00 -0.40005784596E+03  0.48615919205E+03  0.27623265539E+03 0.  0.
         25    1    3    3    0    0 -0.55270451215E+02  0.28868667475E+02 -0.15062763498E+03  0.20242753558E+03  0.12000000000E+03 0.  0.
         25    1    3    3    0    0  0.55270451215E+02 -0.28868667475E+02 -0.24943021097E+03  0.28373165647E+03  0.12000000000E+03 0.  0.
<mgrwt>
<rscale>  0 0.27623266E+03</rscale>
<asrwt>0</asrwt>
<pdfrwt beam="1">  1        2 0.68170548E-01 0.27623266E+03</pdfrwt>
<pdfrwt beam="2">  1       -2 0.66231798E-02 0.27623266E+03</pdfrwt>
<totfact> 0.89995441E+03</totfact>
</mgrwt>
</event>
<event>
 5    1  0.1129390E+001  0.2739409E+03  0.7818608E-02  0.1099045E+00
          2   -1    0    0  501    0  0.00000000000E+00  0.00000000000E+00  0.64649117240E+02  0.64649117240E+02  0.00000000000E+00 0. -1.
         -2   -1    0    0    0  501 -0.00000000000E+00 -0.00000000000E+00 -0.29019581553E+03  0.29019581553E+03  0.00000000000E+00 0. -1.
         35    2    1    2    0    0  0.00000000000E+00  0.00000000000E+00 -0.22554669829E+03  0.35484493277E+03  0.27394089363E+03 0.  0.
         25    1    3    3    0    0 -0.47172008945E+02  0.43723166405E+02 -0.93387016552E+02  0.16510011680E+03  0.12000000000E+03 0.  0.
         25    1    3    3    0    0  0.47172008945E+02 -0.43723166405E+02 -0.13215968174E+03  0.18974481596E+03  0.12000000000E+03 0.  0.
<mgrwt>
<rscale>  0 0.27394089E+03</rscale>
<asrwt>0</asrwt>
<pdfrwt beam="1">  1        2 0.99460181E-02 0.27394089E+03</pdfrwt>
<pdfrwt beam="2">  1       -2 0.44645510E-01 0.27394089E+03</pdfrwt>
<totfact> 0.30907811E+03</totfact>
</mgrwt>
</event>
<event>
 5    1  0.1129390E+001  0.2746425E+03  0.7818608E-02  0.1098652E+00
          2   -1    0    0  501    0  0.00000000000E+00  0.00000000000E+00  0.27580986117E+03  0.27580986117E+03  0.00000000000E+00 0.  1.
         -2   -1    0    0    0  501 -0.00000000000E+00 -0.00000000000E+00 -0.68370022197E+02  0.68370022197E+02  0.00000000000E+00 0.  1.
         35    2    1    2    0    0  0.00000000000E+00  0.00000000000E+00  0.20743983897E+03  0.34417988336E+03  0.27464250458E+03 0.  0.
         25    1    3    3    0    0 -0.41239576555E+01 -0.36427655263E+02  0.33797342925E+02  0.12994707185E+03  0.12000000000E+03 0.  0.
         25    1    3    3    0    0  0.41239576555E+01  0.36427655263E+02  0.17364249604E+03  0.21423281151E+03  0.12000000000E+03 0.  0.
<mgrwt>
<rscale>  0 0.27464250E+03</rscale>
<asrwt>0</asrwt>
<pdfrwt beam="1">  1        2 0.42432286E-01 0.27464250E+03</pdfrwt>
<pdfrwt beam="2">  1       -2 0.10518465E-01 0.27464250E+03</pdfrwt>
<totfact> 0.72751637E+03</totfact>
</mgrwt>
</event>
<event>
 5    1  0.1129390E+001  0.2744512E+03  0.7818608E-02  0.1098759E+00
          2   -1    0    0  501    0  0.00000000000E+00  0.00000000000E+00  0.76526394524E+03  0.76526394524E+03  0.00000000000E+00 0. -1.
         -2   -1    0    0    0  501 -0.00000000000E+00 -0.00000000000E+00 -0.24607020163E+02  0.24607020163E+02  0.00000000000E+00 0. -1.
         35    2    1    2    0    0  0.00000000000E+00  0.00000000000E+00  0.74065692508E+03  0.78987096540E+03  0.27445120026E+03 0.  0.
         25    1    3    3    0    0 -0.36623692607E+01 -0.65420423480E+02  0.40409081483E+03  0.42659422334E+03  0.12000000000E+03 0.  0.
         25    1    3    3    0    0  0.36623692607E+01  0.65420423480E+02  0.33656611025E+03  0.36327674206E+03  0.12000000000E+03 0.  0.
<mgrwt>
<rscale>  0 0.27445120E+03</rscale>
<asrwt>0</asrwt>
<pdfrwt beam="1">  1        2 0.11773290E+00 0.27445120E+03</pdfrwt>
<pdfrwt beam="2">  1       -2 0.37856960E-02 0.27445120E+03</pdfrwt>
<totfact> 0.11170381E+04</totfact>
</mgrwt>
</event>
<event>
 5    1  0.1129390E+001  0.2756885E+03  0.7818608E-02  0.1098067E+00
         -2   -1    0    0    0  501 -0.00000000000E+00  0.00000000000E+00  0.11282557558E+02  0.11282557558E+02  0.00000000000E+00 0.  1.
          2   -1    0    0  501    0  0.00000000000E+00 -0.00000000000E+00 -0.16841072842E+04  0.16841072842E+04  0.00000000000E+00 0.  1.
         35    2    1    2    0    0  0.00000000000E+00  0.00000000000E+00 -0.16728247267E+04  0.16953898418E+04  0.27568850081E+03 0.  0.
         25    1    3    3    0    0  0.48642177647E+02  0.43398319782E+02 -0.72110640710E+03  0.73392365132E+03  0.12000000000E+03 0.  0.
         25    1    3    3    0    0 -0.48642177647E+02 -0.43398319782E+02 -0.95171831957E+03  0.96146619047E+03  0.12000000000E+03 0.  0.
<mgrwt>
<rscale>  0 0.27568850E+03</rscale>
<asrwt>0</asrwt>
<pdfrwt beam="1">  1        2 0.25909349E+00 0.27568850E+03</pdfrwt>
<pdfrwt beam="2">  1       -2 0.17357777E-02 0.27568850E+03</pdfrwt>
<totfact> 0.10373106E+04</totfact>
</mgrwt>
</event>
<event>
 5    1  0.1129390E+001  0.2752548E+03  0.7818608E-02  0.1098309E+00
         -3   -1    0    0    0  501 -0.00000000000E+00  0.00000000000E+00  0.56300913261E+02  0.56300913261E+02  0.00000000000E+00 0. -1.
          3   -1    0    0  501    0  0.00000000000E+00 -0.00000000000E+00 -0.33642970281E+03  0.33642970281E+03  0.00000000000E+00 0. -1.
         35    2    1    2    0    0  0.00000000000E+00  0.00000000000E+00 -0.28012878955E+03  0.39273061607E+03  0.27525478754E+03 0.  0.
         25    1    3    3    0    0  0.56106518856E+02  0.36764092535E+02 -0.13084424821E+03  0.18978871738E+03  0.12000000000E+03 0.  0.
         25    1    3    3    0    0 -0.56106518856E+02 -0.36764092535E+02 -0.14928454134E+03  0.20294189869E+03  0.12000000000E+03 0.  0.
<mgrwt>
<rscale>  0 0.27525479E+03</rscale>
<asrwt>0</asrwt>
<pdfrwt beam="1">  1        3 0.51758414E-01 0.27525479E+03</pdfrwt>
<pdfrwt beam="2">  1       -3 0.86616792E-02 0.27525479E+03</pdfrwt>
<totfact> 0.88727540E+02</totfact>
</mgrwt>
</event>
<event>
 5    1  0.1129390E+001  0.2711560E+03  0.7818608E-02  0.1100620E+00
         -2   -1    0    0    0  501 -0.00000000000E+00  0.00000000000E+00  0.18028555982E+02  0.18028555982E+02  0.00000000000E+00 0. -1.
          2   -1    0    0  501    0  0.00000000000E+00 -0.00000000000E+00 -0.10195710437E+04  0.10195710437E+04  0.00000000000E+00 0. -1.
         35    2    1    2    0    0  0.00000000000E+00  0.00000000000E+00 -0.10015424877E+04  0.10375995996E+04  0.27115599671E+03 0.  0.
         25    1    3    3    0    0 -0.41813980261E+02  0.38942374287E+02 -0.60319753793E+03  0.61766672828E+03  0.12000000000E+03 0.  0.
         25    1    3    3    0    0  0.41813980261E+02 -0.38942374287E+02 -0.39834494974E+03  0.41993287135E+03  0.12000000000E+03 0.  0.
<mgrwt>
<rscale>  0 0.27115600E+03</rscale>
<asrwt>0</asrwt>
<pdfrwt beam="1">  1        2 0.15685708E+00 0.27115600E+03</pdfrwt>
<pdfrwt beam="2">  1       -2 0.27736241E-02 0.27115600E+03</pdfrwt>
<totfact> 0.12124557E+04</totfact>
</mgrwt>
</event>
<event>
 5    1  0.1129390E+001  0.2749990E+03  0.7818608E-02  0.1098452E+00
          2   -1    0    0  501    0  0.00000000000E+00  0.00000000000E+00  0.21029667475E+03  0.21029667475E+03  0.00000000000E+00 0. -1.
         -2   -1    0    0    0  501 -0.00000000000E+00 -0.00000000000E+00 -0.89902082100E+02  0.89902082100E+02  0.00000000000E+00 0. -1.
         35    2    1    2    0    0  0.00000000000E+00  0.00000000000E+00  0.12039459265E+03  0.30019875685E+03  0.27499897395E+03 0.  0.
         25    1    3    3    0    0  0.13499307845E+02  0.55696864125E+02  0.22040960069E+02  0.13479679487E+03  0.12000000000E+03 0.  0.
         25    1    3    3    0    0 -0.13499307845E+02 -0.55696864125E+02  0.98353632581E+02  0.16540196198E+03  0.12000000000E+03 0.  0.
<mgrwt>
<rscale>  0 0.27499897E+03</rscale>
<asrwt>0</asrwt>
<pdfrwt beam="1">  1        2 0.32353334E-01 0.27499897E+03</pdfrwt>
<pdfrwt beam="2">  1       -2 0.13831090E-01 0.27499897E+03</pdfrwt>
<totfact> 0.62695115E+03</totfact>
</mgrwt>
</event>
<event>
 5    1  0.1129390E+001  0.2781542E+03  0.7818608E-02  0.1096701E+00
         -1   -1    0    0    0  501 -0.00000000000E+00  0.00000000000E+00  0.17820933449E+02  0.17820933449E+02  0.00000000000E+00 0.  1.
          1   -1    0    0  501    0  0.00000000000E+00 -0.00000000000E+00 -0.10853778279E+04  0.10853778279E+04  0.00000000000E+00 0.  1.
         35    2    1    2    0    0  0.00000000000E+00  0.00000000000E+00 -0.10675568944E+04  0.11031987613E+04  0.27815424525E+03 0.  0.
         25    1    3    3    0    0 -0.51387908855E+02  0.41477141696E+02 -0.43814793875E+03  0.45905847851E+03  0.12000000000E+03 0.  0.
         25    1    3    3    0    0  0.51387908855E+02 -0.41477141696E+02 -0.62940895567E+03  0.64414028281E+03  0.12000000000E+03 0.  0.
<mgrwt>
<rscale>  0 0.27815425E+03</rscale>
<asrwt>0</asrwt>
<pdfrwt beam="1">  1        1 0.16698122E+00 0.27815425E+03</pdfrwt>
<pdfrwt beam="2">  1       -1 0.27416818E-02 0.27815425E+03</pdfrwt>
<totfact> 0.59580442E+03</totfact>
</mgrwt>
</event>
<event>
 5    1  0.1129390E+001  0.2731256E+03  0.7818608E-02  0.1099504E+00
          1   -1    0    0  501    0  0.00000000000E+00  0.00000000000E+00  0.12165691784E+02  0.12165691784E+02  0.00000000000E+00 0. -1.
         -1   -1    0    0    0  501 -0.00000000000E+00 -0.00000000000E+00 -0.15329495477E+04  0.15329495477E+04  0.00000000000E+00 0. -1.
         35    2    1    2    0    0  0.00000000000E+00  0.00000000000E+00 -0.15207838559E+04  0.15451152394E+04  0.27312555147E+03 0.  0.
         25    1    3    3    0    0  0.98574971414E+01 -0.62086288686E+01 -0.11232305438E+04  0.11296825093E+04  0.12000000000E+03 0.  0.
         25    1    3    3    0    0 -0.98574971414E+01  0.62086288686E+01 -0.39755331211E+03  0.41543273016E+03  0.12000000000E+03 0.  0.
<mgrwt>
<rscale>  0 0.27312555E+03</rscale>
<asrwt>0</asrwt>
<pdfrwt beam="1">  1        1 0.18716463E-02 0.27312555E+03</pdfrwt>
<pdfrwt beam="2">  1       -1 0.23583821E+00 0.27312555E+03</pdfrwt>
<totfact> 0.64831099E+02</totfact>
</mgrwt>
</event>
<event>
 5    1  0.1129390E+001  0.2747705E+03  0.7818608E-02  0.1098580E+00
         -1   -1    0    0    0  501 -0.00000000000E+00  0.00000000000E+00  0.47550888808E+03  0.47550888808E+03  0.00000000000E+00 0.  1.
          1   -1    0    0  501    0  0.00000000000E+00 -0.00000000000E+00 -0.39693701556E+02  0.39693701556E+02  0.00000000000E+00 0.  1.
         35    2    1    2    0    0  0.00000000000E+00  0.00000000000E+00  0.43581518653E+03  0.51520258964E+03  0.27477050708E+03 0.  0.
         25    1    3    3    0    0  0.73974478993E+01 -0.37984548957E+02  0.11559973631E+03  0.17105802299E+03  0.12000000000E+03 0.  0.
         25    1    3    3    0    0 -0.73974478993E+01  0.37984548957E+02  0.32021545022E+03  0.34414456665E+03  0.12000000000E+03 0.  0.
<mgrwt>
<rscale>  0 0.27477051E+03</rscale>
<asrwt>0</asrwt>
<pdfrwt beam="1">  1        1 0.61067236E-02 0.27477051E+03</pdfrwt>
<pdfrwt beam="2">  1       -1 0.73155210E-01 0.27477051E+03</pdfrwt>
<totfact> 0.24674617E+03</totfact>
</mgrwt>
</event>
<event>
 5    1  0.1129390E+001  0.2752662E+03  0.7818608E-02  0.1098303E+00
          2   -1    0    0  501    0  0.00000000000E+00  0.00000000000E+00  0.10189279095E+03  0.10189279095E+03  0.00000000000E+00 0.  1.
         -2   -1    0    0    0  501 -0.00000000000E+00 -0.00000000000E+00 -0.18590980519E+03  0.18590980519E+03  0.00000000000E+00 0.  1.
         35    2    1    2    0    0  0.00000000000E+00  0.00000000000E+00 -0.84017014245E+02  0.28780259614E+03  0.27526619056E+03 0.  0.
         25    1    3    3    0    0  0.33398788935E+02 -0.34182712310E+02 -0.91701300760E+02  0.15840790853E+03  0.12000000000E+03 0.  0.
         25    1    3    3    0    0 -0.33398788935E+02  0.34182712310E+02  0.76842865148E+01  0.12939468761E+03  0.12000000000E+03 0.  0.
<mgrwt>
<rscale>  0 0.27526619E+03</rscale>
<asrwt>0</asrwt>
<pdfrwt beam="1">  1        2 0.15675814E-01 0.27526619E+03</pdfrwt>
<pdfrwt beam="2">  1       -2 0.28601508E-01 0.27526619E+03</pdfrwt>
<totfact> 0.41017415E+03</totfact>
</mgrwt>
</event>
<event>
 5    1  0.1129390E+001  0.2738206E+03  0.7818608E-02  0.1099113E+00
         -1   -1    0    0    0  501 -0.00000000000E+00  0.00000000000E+00  0.14541216455E+03  0.14541216455E+03  0.00000000000E+00 0. -1.
          1   -1    0    0  501    0  0.00000000000E+00 -0.00000000000E+00 -0.12890549974E+03  0.12890549974E+03  0.00000000000E+00 0. -1.
         35    2    1    2    0    0  0.00000000000E+00  0.00000000000E+00  0.16506664813E+02  0.27431766429E+03  0.27382058169E+03 0.  0.
         25    1    3    3    0    0  0.49159019055E+02 -0.43620370361E+02  0.32360600144E+01  0.13685692511E+03  0.12000000000E+03 0.  0.
         25    1    3    3    0    0 -0.49159019055E+02  0.43620370361E+02  0.13270604799E+02  0.13746073918E+03  0.12000000000E+03 0.  0.
<mgrwt>
<rscale>  0 0.27382058E+03</rscale>
<asrwt>0</asrwt>
<pdfrwt beam="1">  1        1 0.19831615E-01 0.27382058E+03</pdfrwt>
<pdfrwt beam="2">  1       -1 0.22371102E-01 0.27382058E+03</pdfrwt>
<totfact> 0.42997059E+03</totfact>
</mgrwt>
</event>
<event>
 5    1  0.1129390E+001  0.2778547E+03  0.7818608E-02  0.1096866E+00
          1   -1    0    0  501    0  0.00000000000E+00  0.00000000000E+00  0.22718098182E+04  0.22718098182E+04  0.00000000000E+00 0.  1.
         -1   -1    0    0    0  501 -0.00000000000E+00 -0.00000000000E+00 -0.84957844754E+01  0.84957844754E+01  0.00000000000E+00 0.  1.
         35    2    1    2    0    0  0.00000000000E+00  0.00000000000E+00  0.22633140337E+04  0.22803056027E+04  0.27785468565E+03 0.  0.
         25    1    3    3    0    0  0.38402877963E+02  0.30021324281E+02  0.71928978777E+03  0.73085830346E+03  0.12000000000E+03 0.  0.
         25    1    3    3    0    0 -0.38402877963E+02 -0.30021324281E+02  0.15440242459E+04  0.15494472992E+04  0.12000000000E+03 0.  0.
<mgrwt>
<rscale>  0 0.27785469E+03</rscale>
<asrwt>0</asrwt>
<pdfrwt beam="1">  1        1 0.34950872E+00 0.27785469E+03</pdfrwt>
<pdfrwt beam="2">  1       -1 0.13070456E-02 0.27785469E+03</pdfrwt>
<totfact> 0.28606726E+03</totfact>
</mgrwt>
</event>
<event>
 5    1  0.1129390E+001  0.2755188E+03  0.7818608E-02  0.1098162E+00
          1   -1    0    0  501    0  0.00000000000E+00  0.00000000000E+00  0.22108742208E+03  0.22108742208E+03  0.00000000000E+00 0. -1.
         -1   -1    0    0    0  501 -0.00000000000E+00 -0.00000000000E+00 -0.85837776331E+02  0.85837776331E+02  0.00000000000E+00 0. -1.
         35    2    1    2    0    0  0.00000000000E+00  0.00000000000E+00  0.13524964575E+03  0.30692519841E+03  0.27551880289E+03 0.  0.
         25    1    3    3    0    0 -0.11853536218E+02 -0.40423263980E+02  0.86453250764E+01  0.12747269605E+03  0.12000000000E+03 0.  0.
         25    1    3    3    0    0  0.11853536218E+02  0.40423263980E+02  0.12660432067E+03  0.17945250236E+03  0.12000000000E+03 0.  0.
<mgrwt>
<rscale>  0 0.27551880E+03</rscale>
<asrwt>0</asrwt>
<pdfrwt beam="1">  1        1 0.34013449E-01 0.27551880E+03</pdfrwt>
<pdfrwt beam="2">  1       -1 0.13205812E-01 0.27551880E+03</pdfrwt>
<totfact> 0.50488169E+03</totfact>
</mgrwt>
</event>
<event>
 5    1  0.1129390E+001  0.2755296E+03  0.7818608E-02  0.1098156E+00
         -1   -1    0    0    0  501 -0.00000000000E+00  0.00000000000E+00  0.47551269458E+03  0.47551269458E+03  0.00000000000E+00 0.  1.
          1   -1    0    0  501    0  0.00000000000E+00 -0.00000000000E+00 -0.39913017101E+02  0.39913017101E+02  0.00000000000E+00 0.  1.
         35    2    1    2    0    0  0.00000000000E+00  0.00000000000E+00  0.43559967748E+03  0.51542571168E+03  0.27552964494E+03 0.  0.
         25    1    3    3    0    0 -0.39722348396E+02  0.54467243382E+02  0.20679609466E+03  0.24841330546E+03  0.12000000000E+03 0.  0.
         25    1    3    3    0    0  0.39722348396E+02 -0.54467243382E+02  0.22880358282E+03  0.26701240622E+03  0.12000000000E+03 0.  0.
<mgrwt>
<rscale>  0 0.27552964E+03</rscale>
<asrwt>0</asrwt>
<pdfrwt beam="1">  1        1 0.61404645E-02 0.27552964E+03</pdfrwt>
<pdfrwt beam="2">  1       -1 0.73155795E-01 0.27552964E+03</pdfrwt>
<totfact> 0.24489479E+03</totfact>
</mgrwt>
</event>
<event>
 5    1  0.1129390E+001  0.2747095E+03  0.7818608E-02  0.1098614E+00
         -2   -1    0    0    0  501 -0.00000000000E+00  0.00000000000E+00  0.12738180308E+02  0.12738180308E+02  0.00000000000E+00 0. -1.
          2   -1    0    0  501    0  0.00000000000E+00 -0.00000000000E+00 -0.14810850214E+04  0.14810850214E+04  0.00000000000E+00 0. -1.
         35    2    1    2    0    0  0.00000000000E+00  0.00000000000E+00 -0.14683468411E+04  0.14938232017E+04  0.27470950515E+03 0.  0.
         25    1    3    3    0    0  0.51051551765E+02 -0.26733518772E+02 -0.55013797947E+03  0.56601478639E+03  0.12000000000E+03 0.  0.
         25    1    3    3    0    0 -0.51051551765E+02  0.26733518772E+02 -0.91820886165E+03  0.92780841534E+03  0.12000000000E+03 0.  0.
<mgrwt>
<rscale>  0 0.27470951E+03</rscale>
<asrwt>0</asrwt>
<pdfrwt beam="1">  1        2 0.22785918E+00 0.27470951E+03</pdfrwt>
<pdfrwt beam="2">  1       -2 0.19597205E-02 0.27470951E+03</pdfrwt>
<totfact> 0.11125221E+04</totfact>
</mgrwt>
</event>
<event>
 5    1  0.1129390E+001  0.2746999E+03  0.7818608E-02  0.1098619E+00
          2   -1    0    0  501    0  0.00000000000E+00  0.00000000000E+00  0.24426611149E+03  0.24426611149E+03  0.00000000000E+00 0.  1.
         -2   -1    0    0    0  501 -0.00000000000E+00 -0.00000000000E+00 -0.77231380582E+02  0.77231380582E+02  0.00000000000E+00 0.  1.
         35    2    1    2    0    0  0.00000000000E+00  0.00000000000E+00  0.16703473091E+03  0.32149749207E+03  0.27469990185E+03 0.  0.
         25    1    3    3    0    0  0.33131951228E+01  0.40374833903E+02  0.21323995264E+02  0.12843604342E+03  0.12000000000E+03 0.  0.
         25    1    3    3    0    0 -0.33131951228E+01 -0.40374833903E+02  0.14571073564E+03  0.19306144865E+03  0.12000000000E+03 0.  0.
<mgrwt>
<rscale>  0 0.27469990E+03</rscale>
<asrwt>0</asrwt>
<pdfrwt beam="1">  1        2 0.37579401E-01 0.27469990E+03</pdfrwt>
<pdfrwt beam="2">  1       -2 0.11881751E-01 0.27469990E+03</pdfrwt>
<totfact> 0.68203933E+03</totfact>
</mgrwt>
</event>
<event>
 5    1  0.1129390E+001  0.2746276E+03  0.7818608E-02  0.1098660E+00
         -1   -1    0    0    0  501 -0.00000000000E+00  0.00000000000E+00  0.28299215357E+03  0.28299215357E+03  0.00000000000E+00 0. -1.
          1   -1    0    0  501    0  0.00000000000E+00 -0.00000000000E+00 -0.66627548060E+02  0.66627548060E+02  0.00000000000E+00 0. -1.
         35    2    1    2    0    0  0.00000000000E+00  0.00000000000E+00  0.21636460551E+03  0.34961970163E+03  0.27462755370E+03 0.  0.
         25    1    3    3    0    0  0.23256024284E+01 -0.13329379912E+02  0.19139067594E+03  0.22630393640E+03  0.12000000000E+03 0.  0.
         25    1    3    3    0    0 -0.23256024284E+01  0.13329379912E+02  0.24973929574E+02  0.12331576523E+03  0.12000000000E+03 0.  0.
<mgrwt>
<rscale>  0 0.27462755E+03</rscale>
<asrwt>0</asrwt>
<pdfrwt beam="1">  1        1 0.10250392E-01 0.27462755E+03</pdfrwt>
<pdfrwt beam="2">  1       -1 0.43537254E-01 0.27462755E+03</pdfrwt>
<totfact> 0.32737284E+03</totfact>
</mgrwt>
</event>
<event>
 5    1  0.1129390E+001  0.2749017E+03  0.7818608E-02  0.1098507E+00
          1   -1    0    0  501    0  0.00000000000E+00  0.00000000000E+00  0.37946234042E+04  0.37946234042E+04  0.00000000000E+00 0. -1.
         -1   -1    0    0    0  501 -0.00000000000E+00 -0.00000000000E+00 -0.49788172076E+01  0.49788172076E+01  0.00000000000E+00 0. -1.
         35    2    1    2    0    0  0.00000000000E+00  0.00000000000E+00  0.37896445869E+04  0.37996022214E+04  0.27490170098E+03 0.  0.
         25    1    3    3    0    0 -0.15463599244E+01 -0.57309647927E+02  0.14148399791E+04  0.14210766881E+04  0.12000000000E+03 0.  0.
         25    1    3    3    0    0  0.15463599244E+01  0.57309647927E+02  0.23748046078E+04  0.23785255333E+04  0.12000000000E+03 0.  0.
<mgrwt>
<rscale>  0 0.27490170E+03</rscale>
<asrwt>0</asrwt>
<pdfrwt beam="1">  1        1 0.58378590E+00 0.27490170E+03</pdfrwt>
<pdfrwt beam="2">  1       -1 0.76597491E-03 0.27490170E+03</pdfrwt>
<totfact> 0.51167887E+02</totfact>
</mgrwt>
</event>
<event>
 5    1  0.1129390E+001  0.2750243E+03  0.7818608E-02  0.1098438E+00
         -2   -1    0    0    0  501 -0.00000000000E+00  0.00000000000E+00  0.14830658208E+02  0.14830658208E+02  0.00000000000E+00 0. -1.
          2   -1    0    0  501    0  0.00000000000E+00 -0.00000000000E+00 -0.12750342516E+04  0.12750342516E+04  0.00000000000E+00 0. -1.
         35    2    1    2    0    0  0.00000000000E+00  0.00000000000E+00 -0.12602035934E+04  0.12898649098E+04  0.27502434211E+03 0.  0.
         25    1    3    3    0    0 -0.84313176644E+01  0.11649680353E+02 -0.93774577741E+03  0.94550195411E+03  0.12000000000E+03 0.  0.
         25    1    3    3    0    0  0.84313176644E+01 -0.11649680353E+02 -0.32245781594E+03  0.34436295566E+03  0.12000000000E+03 0.  0.
<mgrwt>
<rscale>  0 0.27502434E+03</rscale>
<asrwt>0</asrwt>
<pdfrwt beam="1">  1        2 0.19615916E+00 0.27502434E+03</pdfrwt>
<pdfrwt beam="2">  1       -2 0.22816392E-02 0.27502434E+03</pdfrwt>
<totfact> 0.11519692E+04</totfact>
</mgrwt>
</event>
<event>
 5    1  0.1129390E+001  0.2696375E+03  0.7818608E-02  0.1101487E+00
         -1   -1    0    0    0  501 -0.00000000000E+00  0.00000000000E+00  0.49554329709E+03  0.49554329709E+03  0.00000000000E+00 0. -1.
          1   -1    0    0  501    0  0.00000000000E+00 -0.00000000000E+00 -0.36679139677E+02  0.36679139677E+02  0.00000000000E+00 0. -1.
         35    2    1    2    0    0  0.00000000000E+00  0.00000000000E+00  0.45886415742E+03  0.53222243677E+03  0.26963754791E+03 0.  0.
         25    1    3    3    0    0 -0.47693064605E+02 -0.38426245229E+02  0.23928096190E+03  0.27460259187E+03  0.12000000000E+03 0.  0.
         25    1    3    3    0    0  0.47693064605E+02  0.38426245229E+02  0.21958319552E+03  0.25761984490E+03  0.12000000000E+03 0.  0.
<mgrwt>
<rscale>  0 0.26963755E+03</rscale>
<asrwt>0</asrwt>
<pdfrwt beam="1">  1        1 0.56429449E-02 0.26963755E+03</pdfrwt>
<pdfrwt beam="2">  1       -1 0.76237425E-01 0.26963755E+03</pdfrwt>
<totfact> 0.25285287E+03</totfact>
</mgrwt>
</event>
<event>
 5    1  0.1129390E+001  0.2753087E+03  0.7818608E-02  0.1098279E+00
         -1   -1    0    0    0  501 -0.00000000000E+00  0.00000000000E+00  0.31363993031E+02  0.31363993031E+02  0.00000000000E+00 0.  1.
          1   -1    0    0  501    0  0.00000000000E+00 -0.00000000000E+00 -0.60415537938E+03  0.60415537938E+03  0.00000000000E+00 0.  1.
         35    2    1    2    0    0  0.00000000000E+00  0.00000000000E+00 -0.57279138635E+03  0.63551937241E+03  0.27530873657E+03 0.  0.
         25    1    3    3    0    0 -0.34804609075E+02  0.57479819786E+02 -0.27304797735E+03  0.30572943665E+03  0.12000000000E+03 0.  0.
         25    1    3    3    0    0  0.34804609075E+02 -0.57479819786E+02 -0.29974340900E+03  0.32978993577E+03  0.12000000000E+03 0.  0.
<mgrwt>
<rscale>  0 0.27530874E+03</rscale>
<asrwt>0</asrwt>
<pdfrwt beam="1">  1        1 0.92946975E-01 0.27530874E+03</pdfrwt>
<pdfrwt beam="2">  1       -1 0.48252300E-02 0.27530874E+03</pdfrwt>
<totfact> 0.64442160E+03</totfact>
</mgrwt>
</event>
<event>
 5    1  0.1129390E+001  0.2749932E+03  0.7818608E-02  0.1098455E+00
         -2   -1    0    0    0  501 -0.00000000000E+00  0.00000000000E+00  0.10205030277E+02  0.10205030277E+02  0.00000000000E+00 0. -1.
          2   -1    0    0  501    0  0.00000000000E+00 -0.00000000000E+00 -0.18525486770E+04  0.18525486770E+04  0.00000000000E+00 0. -1.
         35    2    1    2    0    0  0.00000000000E+00  0.00000000000E+00 -0.18423436467E+04  0.18627537072E+04  0.27499320237E+03 0.  0.
         25    1    3    3    0    0 -0.26422497801E+02 -0.41324913680E+02 -0.12315441439E+04  0.12383484467E+04  0.12000000000E+03 0.  0.
         25    1    3    3    0    0  0.26422497801E+02  0.41324913680E+02 -0.61079950276E+03  0.62440526059E+03  0.12000000000E+03 0.  0.
<mgrwt>
<rscale>  0 0.27499320E+03</rscale>
<asrwt>0</asrwt>
<pdfrwt beam="1">  1        2 0.28500706E+00 0.27499320E+03</pdfrwt>
<pdfrwt beam="2">  1       -2 0.15700070E-02 0.27499320E+03</pdfrwt>
<totfact> 0.98004080E+03</totfact>
</mgrwt>
</event>
<event>
 5    1  0.1129390E+001  0.2748261E+03  0.7818608E-02  0.1098549E+00
         -2   -1    0    0    0  501 -0.00000000000E+00  0.00000000000E+00  0.57444168845E+02  0.57444168845E+02  0.00000000000E+00 0. -1.
          2   -1    0    0  501    0  0.00000000000E+00 -0.00000000000E+00 -0.32870787918E+03  0.32870787918E+03  0.00000000000E+00 0. -1.
         35    2    1    2    0    0  0.00000000000E+00  0.00000000000E+00 -0.27126371033E+03  0.38615204802E+03  0.27482613349E+03 0.  0.
         25    1    3    3    0    0 -0.18444378498E+02 -0.60000087242E+02 -0.16834770312E+03  0.21605822066E+03  0.12000000000E+03 0.  0.
         25    1    3    3    0    0  0.18444378498E+02  0.60000087242E+02 -0.10291600721E+03  0.17009382736E+03  0.12000000000E+03 0.  0.
<mgrwt>
<rscale>  0 0.27482613E+03</rscale>
<asrwt>0</asrwt>
<pdfrwt beam="1">  1        2 0.50570443E-01 0.27482613E+03</pdfrwt>
<pdfrwt beam="2">  1       -2 0.88375645E-02 0.27482613E+03</pdfrwt>
<totfact> 0.79382637E+03</totfact>
</mgrwt>
</event>
<event>
 5    1  0.1129390E+001  0.2754012E+03  0.7818608E-02  0.1098228E+00
         -2   -1    0    0    0  501 -0.00000000000E+00  0.00000000000E+00  0.78434390057E+02  0.78434390057E+02  0.00000000000E+00 0. -1.
          2   -1    0    0  501    0  0.00000000000E+00 -0.00000000000E+00 -0.24174918621E+03  0.24174918621E+03  0.00000000000E+00 0. -1.
         35    2    1    2    0    0  0.00000000000E+00  0.00000000000E+00 -0.16331479615E+03  0.32018357627E+03  0.27540116171E+03 0.  0.
         25    1    3    3    0    0  0.57368339490E+02  0.22837960982E+02 -0.11347020785E+03  0.17631842475E+03  0.12000000000E+03 0.  0.
         25    1    3    3    0    0 -0.57368339490E+02 -0.22837960982E+02 -0.49844588304E+02  0.14386515152E+03  0.12000000000E+03 0.  0.
<mgrwt>
<rscale>  0 0.27540116E+03</rscale>
<asrwt>0</asrwt>
<pdfrwt beam="1">  1        2 0.37192183E-01 0.27540116E+03</pdfrwt>
<pdfrwt beam="2">  1       -2 0.12066829E-01 0.27540116E+03</pdfrwt>
<totfact> 0.67279337E+03</totfact>
</mgrwt>
</event>
<event>
 5    1  0.1129390E+001  0.2746960E+03  0.7818608E-02  0.1098622E+00
          2   -1    0    0  501    0  0.00000000000E+00  0.00000000000E+00  0.32489214923E+03  0.32489214923E+03  0.00000000000E+00 0. -1.
         -2   -1    0    0    0  501 -0.00000000000E+00 -0.00000000000E+00 -0.58063811860E+02  0.58063811860E+02  0.00000000000E+00 0. -1.
         35    2    1    2    0    0  0.00000000000E+00  0.00000000000E+00  0.26682833737E+03  0.38295596109E+03  0.27469602565E+03 0.  0.
         25    1    3    3    0    0 -0.57546159142E+02  0.67729460601E+01  0.87029038364E+02  0.15915868418E+03  0.12000000000E+03 0.  0.
         25    1    3    3    0    0  0.57546159142E+02 -0.67729460601E+01  0.17979929901E+03  0.22379727691E+03  0.12000000000E+03 0.  0.
<mgrwt>
<rscale>  0 0.27469603E+03</rscale>
<asrwt>0</asrwt>
<pdfrwt beam="1">  1        2 0.49983406E-01 0.27469603E+03</pdfrwt>
<pdfrwt beam="2">  1       -2 0.89328943E-02 0.27469603E+03</pdfrwt>
<totfact> 0.79039086E+03</totfact>
</mgrwt>
</event>
<event>
 5    1  0.1129390E+001  0.2753010E+03  0.7818608E-02  0.1098283E+00
         -1   -1    0    0    0  501 -0.00000000000E+00  0.00000000000E+00  0.61626483181E+02  0.61626483181E+02  0.00000000000E+00 0.  1.
          1   -1    0    0  501    0  0.00000000000E+00 -0.00000000000E+00 -0.30745964927E+03  0.30745964927E+03  0.00000000000E+00 0.  1.
         35    2    1    2    0    0  0.00000000000E+00  0.00000000000E+00 -0.24583316609E+03  0.36908613245E+03  0.27530097642E+03 0.  0.
         25    1    3    3    0    0  0.43470506076E+02  0.40535059417E+02 -0.80206783853E+02  0.15609581710E+03  0.12000000000E+03 0.  0.
         25    1    3    3    0    0 -0.43470506076E+02 -0.40535059417E+02 -0.16562638224E+03  0.21299031535E+03  0.12000000000E+03 0.  0.
<mgrwt>
<rscale>  0 0.27530098E+03</rscale>
<asrwt>0</asrwt>
<pdfrwt beam="1">  1        1 0.47301484E-01 0.27530098E+03</pdfrwt>
<pdfrwt beam="2">  1       -1 0.94809975E-02 0.27530098E+03</pdfrwt>
<totfact> 0.55872613E+03</totfact>
</mgrwt>
</event>
<event>
 5    1  0.1129390E+001  0.2744617E+03  0.7818608E-02  0.1098753E+00
         -3   -1    0    0    0  501 -0.00000000000E+00  0.00000000000E+00  0.25002443920E+03  0.25002443920E+03  0.00000000000E+00 0.  1.
          3   -1    0    0  501    0  0.00000000000E+00 -0.00000000000E+00 -0.75321839780E+02  0.75321839780E+02  0.00000000000E+00 0.  1.
         35    2    1    2    0    0  0.00000000000E+00  0.00000000000E+00  0.17470259942E+03  0.32534627898E+03  0.27446166035E+03 0.  0.
         25    1    3    3    0    0 -0.46417522080E+02 -0.37219349430E+02  0.12276345128E+03  0.18168855577E+03  0.12000000000E+03 0.  0.
         25    1    3    3    0    0  0.46417522080E+02  0.37219349430E+02  0.51939148141E+02  0.14365772321E+03  0.12000000000E+03 0.  0.
<mgrwt>
<rscale>  0 0.27446166E+03</rscale>
<asrwt>0</asrwt>
<pdfrwt beam="1">  1        3 0.11587975E-01 0.27446166E+03</pdfrwt>
<pdfrwt beam="2">  1       -3 0.38465298E-01 0.27446166E+03</pdfrwt>
<totfact> 0.98155248E+02</totfact>
</mgrwt>
</event>
<event>
 5    1  0.1129390E+001  0.2753454E+03  0.7818608E-02  0.1098259E+00
         -2   -1    0    0    0  501 -0.00000000000E+00  0.00000000000E+00  0.17812160518E+03  0.17812160518E+03  0.00000000000E+00 0. -1.
          2   -1    0    0  501    0  0.00000000000E+00 -0.00000000000E+00 -0.10640918693E+03  0.10640918693E+03  0.00000000000E+00 0. -1.
         35    2    1    2    0    0  0.00000000000E+00  0.00000000000E+00  0.71712418249E+02  0.28453079211E+03  0.27534542075E+03 0.  0.
         25    1    3    3    0    0 -0.60622999836E+02  0.24183682374E+02  0.53567899034E+02  0.14672940540E+03  0.12000000000E+03 0.  0.
         25    1    3    3    0    0  0.60622999836E+02 -0.24183682374E+02  0.18144519215E+02  0.13780138671E+03  0.12000000000E+03 0.  0.
<mgrwt>
<rscale>  0 0.27534542E+03</rscale>
<asrwt>0</asrwt>
<pdfrwt beam="1">  1        2 0.16370644E-01 0.27534542E+03</pdfrwt>
<pdfrwt beam="2">  1       -2 0.27403324E-01 0.27534542E+03</pdfrwt>
<totfact> 0.42092070E+03</totfact>
</mgrwt>
</event>
<event>
 5    1  0.1129390E+001  0.2694911E+03  0.7818608E-02  0.1101571E+00
         -2   -1    0    0    0  501 -0.00000000000E+00  0.00000000000E+00  0.43270563994E+02  0.43270563994E+02  0.00000000000E+00 0.  1.
          2   -1    0    0  501    0  0.00000000000E+00 -0.00000000000E+00 -0.41960071801E+03  0.41960071801E+03  0.00000000000E+00 0.  1.
         35    2    1    2    0    0  0.00000000000E+00  0.00000000000E+00 -0.37633015401E+03  0.46287128200E+03  0.26949107385E+03 0.  0.
         25    1    3    3    0    0 -0.45729292210E+02 -0.91858537547E+01 -0.11987526535E+03  0.17591369281E+03  0.12000000000E+03 0.  0.
         25    1    3    3    0    0  0.45729292210E+02  0.91858537547E+01 -0.25645488867E+03  0.28695758920E+03  0.12000000000E+03 0.  0.
<mgrwt>
<rscale>  0 0.26949107E+03</rscale>
<asrwt>0</asrwt>
<pdfrwt beam="1">  1        2 0.64553957E-01 0.26949107E+03</pdfrwt>
<pdfrwt beam="2">  1       -2 0.66570098E-02 0.26949107E+03</pdfrwt>
<totfact> 0.94691302E+03</totfact>
</mgrwt>
</event>
<event>
 5    1  0.1129390E+001  0.2758884E+03  0.7818608E-02  0.1097956E+00
          1   -1    0    0  501    0  0.00000000000E+00  0.00000000000E+00  0.87885134077E+03  0.87885134077E+03  0.00000000000E+00 0. -1.
         -1   -1    0    0    0  501 -0.00000000000E+00 -0.00000000000E+00 -0.21651672862E+02  0.21651672862E+02  0.00000000000E+00 0. -1.
         35    2    1    2    0    0  0.00000000000E+00  0.00000000000E+00  0.85719966791E+03  0.90050301363E+03  0.27588839573E+03 0.  0.
         25    1    3    3    0    0  0.50654419137E+02  0.29685944711E+02  0.31640722905E+03  0.34345401452E+03  0.12000000000E+03 0.  0.
         25    1    3    3    0    0 -0.50654419137E+02 -0.29685944711E+02  0.54079243885E+03  0.55704899911E+03  0.12000000000E+03 0.  0.
<mgrwt>
<rscale>  0 0.27588840E+03</rscale>
<asrwt>0</asrwt>
<pdfrwt beam="1">  1        1 0.13520787E+00 0.27588840E+03</pdfrwt>
<pdfrwt beam="2">  1       -1 0.33310273E-02 0.27588840E+03</pdfrwt>
<totfact> 0.64036920E+03</totfact>
</mgrwt>
</event>
<event>
 5    1  0.1129390E+001  0.2757772E+03  0.7818608E-02  0.1098018E+00
         -1   -1    0    0    0  501 -0.00000000000E+00  0.00000000000E+00  0.10665636495E+03  0.10665636495E+03  0.00000000000E+00 0. -1.
          1   -1    0    0  501    0  0.00000000000E+00 -0.00000000000E+00 -0.17826660643E+03  0.17826660643E+03  0.00000000000E+00 0. -1.
         35    2    1    2    0    0  0.00000000000E+00  0.00000000000E+00 -0.71610241477E+02  0.28492297138E+03  0.27577721612E+03 0.  0.
         25    1    3    3    0    0  0.59635159902E+02  0.77095356219E+01 -0.68435412845E+02  0.15066252011E+03  0.12000000000E+03 0.  0.
         25    1    3    3    0    0 -0.59635159902E+02 -0.77095356219E+01 -0.31748286319E+01  0.13426045126E+03  0.12000000000E+03 0.  0.
<mgrwt>
<rscale>  0 0.27577722E+03</rscale>
<asrwt>0</asrwt>
<pdfrwt beam="1">  1        1 0.27425632E-01 0.27577722E+03</pdfrwt>
<pdfrwt beam="2">  1       -1 0.16408671E-01 0.27577722E+03</pdfrwt>
<totfact> 0.46954547E+03</totfact>
</mgrwt>
</event>
<event>
 5    1  0.1129390E+001  0.2812439E+03  0.7818608E-02  0.1095011E+00
         -1   -1    0    0    0  501 -0.00000000000E+00  0.00000000000E+00  0.13914621425E+03  0.13914621425E+03  0.00000000000E+00 0.  1.
          1   -1    0    0  501    0  0.00000000000E+00 -0.00000000000E+00 -0.14211335546E+03  0.14211335546E+03  0.00000000000E+00 0.  1.
         35    2    1    2    0    0  0.00000000000E+00  0.00000000000E+00 -0.29671412083E+01  0.28125956971E+03  0.28124391838E+03 0.  0.
         25    1    3    3    0    0  0.53976050025E+02  0.11665273467E+02 -0.49704951874E+02  0.14113849518E+03  0.12000000000E+03 0.  0.
         25    1    3    3    0    0 -0.53976050025E+02 -0.11665273467E+02  0.46737810666E+02  0.14012107453E+03  0.12000000000E+03 0.  0.
<mgrwt>
<rscale>  0 0.28124392E+03</rscale>
<asrwt>0</asrwt>
<pdfrwt beam="1">  1        1 0.21863593E-01 0.28124392E+03</pdfrwt>
<pdfrwt beam="2">  1       -1 0.21407110E-01 0.28124392E+03</pdfrwt>
<totfact> 0.40803143E+03</totfact>
</mgrwt>
</event>
<event>
 5    1  0.1129390E+001  0.2747200E+03  0.7818608E-02  0.1098608E+00
          2   -1    0    0  501    0  0.00000000000E+00  0.00000000000E+00  0.51917325426E+03  0.51917325426E+03  0.00000000000E+00 0. -1.
         -2   -1    0    0    0  501 -0.00000000000E+00 -0.00000000000E+00 -0.36341950214E+02  0.36341950214E+02  0.00000000000E+00 0. -1.
         35    2    1    2    0    0  0.00000000000E+00  0.00000000000E+00  0.48283130405E+03  0.55551520447E+03  0.27471999242E+03 0.  0.
         25    1    3    3    0    0 -0.72070024096E+01 -0.32087438089E+02  0.35908504836E+03  0.38003107310E+03  0.12000000000E+03 0.  0.
         25    1    3    3    0    0  0.72070024096E+01  0.32087438089E+02  0.12374625568E+03  0.17548413137E+03  0.12000000000E+03 0.  0.
<mgrwt>
<rscale>  0 0.27471999E+03</rscale>
<asrwt>0</asrwt>
<pdfrwt beam="1">  1        2 0.79872803E-01 0.27471999E+03</pdfrwt>
<pdfrwt beam="2">  1       -2 0.55910696E-02 0.27471999E+03</pdfrwt>
<totfact> 0.97862732E+03</totfact>
</mgrwt>
</event>
<event>
 5    1  0.1129390E+001  0.2750630E+03  0.7818608E-02  0.1098416E+00
          1   -1    0    0  501    0  0.00000000000E+00  0.00000000000E+00  0.13571663853E+03  0.13571663853E+03  0.00000000000E+00 0. -1.
         -1   -1    0    0    0  501 -0.00000000000E+00 -0.00000000000E+00 -0.13937063756E+03  0.13937063756E+03  0.00000000000E+00 0. -1.
         35    2    1    2    0    0  0.00000000000E+00  0.00000000000E+00 -0.36539990273E+01  0.27508727609E+03  0.27506300688E+03 0.  0.
         25    1    3    3    0    0  0.34086294981E+02  0.66637840142E+01  0.55698792898E+02  0.13677951986E+03  0.12000000000E+03 0.  0.
         25    1    3    3    0    0 -0.34086294981E+02 -0.66637840142E+01 -0.59352791925E+02  0.13830775623E+03  0.12000000000E+03 0.  0.
<mgrwt>
<rscale>  0 0.27506301E+03</rscale>
<asrwt>0</asrwt>
<pdfrwt beam="1">  1        1 0.20879483E-01 0.27506301E+03</pdfrwt>
<pdfrwt beam="2">  1       -1 0.21441637E-01 0.27506301E+03</pdfrwt>
<totfact> 0.43146101E+03</totfact>
</mgrwt>
</event>
<event>
 5    1  0.1129390E+001  0.2804419E+03  0.7818608E-02  0.1095448E+00
         -2   -1    0    0    0  501 -0.00000000000E+00  0.00000000000E+00  0.93532224191E+01  0.93532224191E+01  0.00000000000E+00 0.  1.
          2   -1    0    0  501    0  0.00000000000E+00 -0.00000000000E+00 -0.21021546542E+04  0.21021546542E+04  0.00000000000E+00 0.  1.
         35    2    1    2    0    0  0.00000000000E+00  0.00000000000E+00 -0.20928014318E+04  0.21115078766E+04  0.28044193724E+03 0.  0.
         25    1    3    3    0    0  0.32956268784E+02 -0.63922288550E+02 -0.97507340005E+03  0.98505853131E+03  0.12000000000E+03 0.  0.
         25    1    3    3    0    0 -0.32956268784E+02  0.63922288550E+02 -0.11177280317E+04  0.11264493453E+04  0.12000000000E+03 0.  0.
<mgrwt>
<rscale>  0 0.28044194E+03</rscale>
<asrwt>0</asrwt>
<pdfrwt beam="1">  1        2 0.32340846E+00 0.28044194E+03</pdfrwt>
<pdfrwt beam="2">  1       -2 0.14389571E-02 0.28044194E+03</pdfrwt>
<totfact> 0.82290499E+03</totfact>
</mgrwt>
</event>
<event>
 5    1  0.1129390E+001  0.2754231E+03  0.7818608E-02  0.1098215E+00
          2   -1    0    0  501    0  0.00000000000E+00  0.00000000000E+00  0.76068389471E+03  0.76068389471E+03  0.00000000000E+00 0. -1.
         -2   -1    0    0    0  501 -0.00000000000E+00 -0.00000000000E+00 -0.24930820750E+02  0.24930820750E+02  0.00000000000E+00 0. -1.
         35    2    1    2    0    0  0.00000000000E+00  0.00000000000E+00  0.73575307396E+03  0.78561471546E+03  0.27542312050E+03 0.  0.
         25    1    3    3    0    0  0.37590483968E+02 -0.51853711045E+02  0.30652543718E+03  0.33535010880E+03  0.12000000000E+03 0.  0.
         25    1    3    3    0    0 -0.37590483968E+02  0.51853711045E+02  0.42922763679E+03  0.45026460667E+03  0.12000000000E+03 0.  0.
<mgrwt>
<rscale>  0 0.27542312E+03</rscale>
<asrwt>0</asrwt>
<pdfrwt beam="1">  1        2 0.11702827E+00 0.27542312E+03</pdfrwt>
<pdfrwt beam="2">  1       -2 0.38355115E-02 0.27542312E+03</pdfrwt>
<totfact> 0.11037176E+04</totfact>
</mgrwt>
</event>
<event>
 5    1  0.1129390E+001  0.2750395E+03  0.7818608E-02  0.1098430E+00
          3   -1    0    0  501    0  0.00000000000E+00  0.00000000000E+00  0.19342501894E+04  0.19342501894E+04  0.00000000000E+00 0. -1.
         -3   -1    0    0    0  501 -0.00000000000E+00 -0.00000000000E+00 -0.97772696011E+01  0.97772696011E+01  0.00000000000E+00 0. -1.
         35    2    1    2    0    0  0.00000000000E+00  0.00000000000E+00  0.19244729198E+04  0.19440274590E+04  0.27503952863E+03 0.  0.
         25    1    3    3    0    0  0.44821280302E+02  0.47244875454E+02  0.84595259935E+03  0.85689954240E+03  0.12000000000E+03 0.  0.
         25    1    3    3    0    0 -0.44821280302E+02 -0.47244875454E+02  0.10785203205E+04  0.10871279166E+04  0.12000000000E+03 0.  0.
<mgrwt>
<rscale>  0 0.27503953E+03</rscale>
<asrwt>0</asrwt>
<pdfrwt beam="1">  1        3 0.29757665E+00 0.27503953E+03</pdfrwt>
<pdfrwt beam="2">  1       -3 0.15041969E-02 0.27503953E+03</pdfrwt>
<totfact> 0.17112595E+02</totfact>
</mgrwt>
</event>
<event>
 5    1  0.1129390E+001  0.2763717E+03  0.7818608E-02  0.1097687E+00
         -2   -1    0    0    0  501 -0.00000000000E+00  0.00000000000E+00  0.16701975549E+02  0.16701975549E+02  0.00000000000E+00 0. -1.
          2   -1    0    0  501    0  0.00000000000E+00 -0.00000000000E+00 -0.11432976621E+04  0.11432976621E+04  0.00000000000E+00 0. -1.
         35    2    1    2    0    0  0.00000000000E+00  0.00000000000E+00 -0.11265956866E+04  0.11599996377E+04  0.27637170331E+03 0.  0.
         25    1    3    3    0    0 -0.60819947947E+01 -0.64987235284E+02 -0.65083813754E+03  0.66501925738E+03  0.12000000000E+03 0.  0.
         25    1    3    3    0    0  0.60819947947E+01  0.64987235284E+02 -0.47575754902E+03  0.49498038028E+03  0.12000000000E+03 0.  0.
<mgrwt>
<rscale>  0 0.27637170E+03</rscale>
<asrwt>0</asrwt>
<pdfrwt beam="1">  1        2 0.17589197E+00 0.27637170E+03</pdfrwt>
<pdfrwt beam="2">  1       -2 0.25695343E-02 0.27637170E+03</pdfrwt>
<totfact> 0.11478913E+04</totfact>
</mgrwt>
</event>
<event>
 5    1  0.1129390E+001  0.2749665E+03  0.7818608E-02  0.1098470E+00
          2   -1    0    0  501    0  0.00000000000E+00  0.00000000000E+00  0.10235638618E+03  0.10235638618E+03  0.00000000000E+00 0.  1.
         -2   -1    0    0    0  501 -0.00000000000E+00 -0.00000000000E+00 -0.18466499468E+03  0.18466499468E+03  0.00000000000E+00 0.  1.
         35    2    1    2    0    0  0.00000000000E+00  0.00000000000E+00 -0.82308608501E+02  0.28702138086E+03  0.27496648166E+03 0.  0.
         25    1    3    3    0    0  0.61535574347E+02 -0.26720721929E+02 -0.40101307702E+02  0.14320872449E+03  0.12000000000E+03 0.  0.
         25    1    3    3    0    0 -0.61535574347E+02  0.26720721929E+02 -0.42207300799E+02  0.14381265637E+03  0.12000000000E+03 0.  0.
<mgrwt>
<rscale>  0 0.27496648E+03</rscale>
<asrwt>0</asrwt>
<pdfrwt beam="1">  1        2 0.15747136E-01 0.27496648E+03</pdfrwt>
<pdfrwt beam="2">  1       -2 0.28409999E-01 0.27496648E+03</pdfrwt>
<totfact> 0.41293737E+03</totfact>
</mgrwt>
</event>
<event>
 5    1  0.1129390E+001  0.2755950E+03  0.7818608E-02  0.1098119E+00
          2   -1    0    0  501    0  0.00000000000E+00  0.00000000000E+00  0.31130988147E+04  0.31130988147E+04  0.00000000000E+00 0.  1.
         -2   -1    0    0    0  501 -0.00000000000E+00 -0.00000000000E+00 -0.60994392532E+01  0.60994392532E+01  0.00000000000E+00 0.  1.
         35    2    1    2    0    0  0.00000000000E+00  0.00000000000E+00  0.31069993755E+04  0.31191982540E+04  0.27559504429E+03 0.  0.
         25    1    3    3    0    0 -0.29014349558E+01  0.53915779756E+02  0.10905890596E+04  0.10984988969E+04  0.12000000000E+03 0.  0.
         25    1    3    3    0    0  0.29014349558E+01 -0.53915779756E+02  0.20164103159E+04  0.20206993571E+04  0.12000000000E+03 0.  0.
<mgrwt>
<rscale>  0 0.27559504E+03</rscale>
<asrwt>0</asrwt>
<pdfrwt beam="1">  1        2 0.47893701E+00 0.27559504E+03</pdfrwt>
<pdfrwt beam="2">  1       -2 0.93837776E-03 0.27559504E+03</pdfrwt>
<totfact> 0.41679956E+03</totfact>
</mgrwt>
</event>
<event>
 5    1  0.1129390E+001  0.2749672E+03  0.7818608E-02  0.1098470E+00
         -1   -1    0    0    0  501 -0.00000000000E+00  0.00000000000E+00  0.81571771335E+02  0.81571771335E+02  0.00000000000E+00 0. -1.
          1   -1    0    0  501    0  0.00000000000E+00 -0.00000000000E+00 -0.23171907742E+03  0.23171907742E+03  0.00000000000E+00 0. -1.
         35    2    1    2    0    0  0.00000000000E+00  0.00000000000E+00 -0.15014730609E+03  0.31329084876E+03  0.27496716602E+03 0.  0.
         25    1    3    3    0    0  0.13508964994E+02  0.59900687343E+01 -0.50448654320E+00  0.12090751658E+03  0.12000000000E+03 0.  0.
         25    1    3    3    0    0 -0.13508964994E+02 -0.59900687343E+01 -0.14964281954E+03  0.19238333218E+03  0.12000000000E+03 0.  0.
<mgrwt>
<rscale>  0 0.27496717E+03</rscale>
<asrwt>0</asrwt>
<pdfrwt beam="1">  1        1 0.35649089E-01 0.27496717E+03</pdfrwt>
<pdfrwt beam="2">  1       -1 0.12549503E-01 0.27496717E+03</pdfrwt>
<totfact> 0.51554934E+03</totfact>
</mgrwt>
</event>
<event>
 5    1  0.1129390E+001  0.2746718E+03  0.7818608E-02  0.1098635E+00
         -1   -1    0    0    0  501 -0.00000000000E+00  0.00000000000E+00  0.28459113332E+03  0.28459113332E+03  0.00000000000E+00 0. -1.
          1   -1    0    0  501    0  0.00000000000E+00 -0.00000000000E+00 -0.66274561744E+02  0.66274561744E+02  0.00000000000E+00 0. -1.
         35    2    1    2    0    0  0.00000000000E+00  0.00000000000E+00  0.21831657158E+03  0.35086569506E+03  0.27467182336E+03 0.  0.
         25    1    3    3    0    0  0.58234027446E+02  0.22061725592E+02  0.14000771112E+03  0.19462805775E+03  0.12000000000E+03 0.  0.
         25    1    3    3    0    0 -0.58234027446E+02 -0.22061725592E+02  0.78308860453E+02  0.15623763732E+03  0.12000000000E+03 0.  0.
<mgrwt>
<rscale>  0 0.27467182E+03</rscale>
<asrwt>0</asrwt>
<pdfrwt beam="1">  1        1 0.10196087E-01 0.27467182E+03</pdfrwt>
<pdfrwt beam="2">  1       -1 0.43783251E-01 0.27467182E+03</pdfrwt>
<totfact> 0.32638543E+03</totfact>
</mgrwt>
</event>
<event>
 5    1  0.1129390E+001  0.2755569E+03  0.7818608E-02  0.1098141E+00
         -1   -1    0    0    0  501 -0.00000000000E+00  0.00000000000E+00  0.20036437664E+02  0.20036437664E+02  0.00000000000E+00 0.  1.
          1   -1    0    0  501    0  0.00000000000E+00 -0.00000000000E+00 -0.94741888455E+03  0.94741888455E+03  0.00000000000E+00 0.  1.
         35    2    1    2    0    0  0.00000000000E+00  0.00000000000E+00 -0.92738244689E+03  0.96745532222E+03  0.27555688648E+03 0.  0.
         25    1    3    3    0    0  0.36092199281E+02  0.24200869783E+02 -0.28144253042E+03  0.30902787395E+03  0.12000000000E+03 0.  0.
         25    1    3    3    0    0 -0.36092199281E+02 -0.24200869783E+02 -0.64593991647E+03  0.65842744827E+03  0.12000000000E+03 0.  0.
<mgrwt>
<rscale>  0 0.27555689E+03</rscale>
<asrwt>0</asrwt>
<pdfrwt beam="1">  1        1 0.14575671E+00 0.27555689E+03</pdfrwt>
<pdfrwt beam="2">  1       -1 0.30825298E-02 0.27555689E+03</pdfrwt>
<totfact> 0.63485077E+03</totfact>
</mgrwt>
</event>
<event>
 5    1  0.1129390E+001  0.2767947E+03  0.7818608E-02  0.1097453E+00
          2   -1    0    0  501    0  0.00000000000E+00  0.00000000000E+00  0.34140541888E+03  0.34140541888E+03  0.00000000000E+00 0. -1.
         -2   -1    0    0    0  501 -0.00000000000E+00 -0.00000000000E+00 -0.56102894450E+02  0.56102894450E+02  0.00000000000E+00 0. -1.
         35    2    1    2    0    0  0.00000000000E+00  0.00000000000E+00  0.28530252443E+03  0.39750831333E+03  0.27679474114E+03 0.  0.
         25    1    3    3    0    0 -0.67436493049E+02  0.12990625747E+02  0.13386920072E+03  0.19245103235E+03  0.12000000000E+03 0.  0.
         25    1    3    3    0    0  0.67436493049E+02 -0.12990625747E+02  0.15143332371E+03  0.20505728098E+03  0.12000000000E+03 0.  0.
<mgrwt>
<rscale>  0 0.27679474E+03</rscale>
<asrwt>0</asrwt>
<pdfrwt beam="1">  1        2 0.52523909E-01 0.27679474E+03</pdfrwt>
<pdfrwt beam="2">  1       -2 0.86312147E-02 0.27679474E+03</pdfrwt>
<totfact> 0.79111200E+03</totfact>
</mgrwt>
</event>
<event>
 5    1  0.1129390E+001  0.2742524E+03  0.7818608E-02  0.1098870E+00
         -2   -1    0    0    0  501 -0.00000000000E+00  0.00000000000E+00  0.13393140638E+03  0.13393140638E+03  0.00000000000E+00 0. -1.
          2   -1    0    0  501    0  0.00000000000E+00 -0.00000000000E+00 -0.14039719602E+03  0.14039719602E+03  0.00000000000E+00 0. -1.
         35    2    1    2    0    0  0.00000000000E+00  0.00000000000E+00 -0.64657896404E+01  0.27432860240E+03  0.27425239408E+03 0.  0.
         25    1    3    3    0    0  0.62217942483E+02  0.10506286328E+02 -0.23784637642E+02  0.13764869562E+03  0.12000000000E+03 0.  0.
         25    1    3    3    0    0 -0.62217942483E+02 -0.10506286328E+02  0.17318848001E+02  0.13667990677E+03  0.12000000000E+03 0.  0.
<mgrwt>
<rscale>  0 0.27425239E+03</rscale>
<asrwt>0</asrwt>
<pdfrwt beam="1">  1        2 0.21599569E-01 0.27425239E+03</pdfrwt>
<pdfrwt beam="2">  1       -2 0.20604832E-01 0.27425239E+03</pdfrwt>
<totfact> 0.50374399E+03</totfact>
</mgrwt>
</event>
<event>
 5    1  0.1129390E+001  0.2750283E+03  0.7818608E-02  0.1098436E+00
         -2   -1    0    0    0  501 -0.00000000000E+00  0.00000000000E+00  0.21500394785E+02  0.21500394785E+02  0.00000000000E+00 0.  1.
          2   -1    0    0  501    0  0.00000000000E+00 -0.00000000000E+00 -0.87952513165E+03  0.87952513165E+03  0.00000000000E+00 0.  1.
         35    2    1    2    0    0  0.00000000000E+00  0.00000000000E+00 -0.85802473686E+03  0.90102552643E+03  0.27502827166E+03 0.  0.
         25    1    3    3    0    0 -0.40076465210E+02  0.52696148168E+02 -0.39207341717E+03  0.41533669660E+03  0.12000000000E+03 0.  0.
         25    1    3    3    0    0  0.40076465210E+02 -0.52696148168E+02 -0.46595131970E+03  0.48568882983E+03  0.12000000000E+03 0.  0.
<mgrwt>
<rscale>  0 0.27502827E+03</rscale>
<asrwt>0</asrwt>
<pdfrwt beam="1">  1        2 0.13531157E+00 0.27502827E+03</pdfrwt>
<pdfrwt beam="2">  1       -2 0.33077528E-02 0.27502827E+03</pdfrwt>
<totfact> 0.11431024E+04</totfact>
</mgrwt>
</event>
<event>
 5    1  0.1129390E+001  0.2751283E+03  0.7818608E-02  0.1098380E+00
          1   -1    0    0  501    0  0.00000000000E+00  0.00000000000E+00  0.31049455759E+03  0.31049455759E+03  0.00000000000E+00 0. -1.
         -1   -1    0    0    0  501 -0.00000000000E+00 -0.00000000000E+00 -0.60947605510E+02  0.60947605510E+02  0.00000000000E+00 0. -1.
         35    2    1    2    0    0  0.00000000000E+00  0.00000000000E+00  0.24954695208E+03  0.37144216310E+03  0.27512833230E+03 0.  0.
         25    1    3    3    0    0 -0.60644142360E+02  0.28632075913E+02  0.13170920840E+03  0.19038073261E+03  0.12000000000E+03 0.  0.
         25    1    3    3    0    0  0.60644142360E+02 -0.28632075913E+02  0.11783774368E+03  0.18106143048E+03  0.12000000000E+03 0.  0.
<mgrwt>
<rscale>  0 0.27512833E+03</rscale>
<asrwt>0</asrwt>
<pdfrwt beam="1">  1        1 0.47768393E-01 0.27512833E+03</pdfrwt>
<pdfrwt beam="2">  1       -1 0.93765548E-02 0.27512833E+03</pdfrwt>
<totfact> 0.56134509E+03</totfact>
</mgrwt>
</event>
<event>
 5    1  0.1129390E+001  0.2752437E+03  0.7818608E-02  0.1098315E+00
         -2   -1    0    0    0  501 -0.00000000000E+00  0.00000000000E+00  0.34212055871E+02  0.34212055871E+02  0.00000000000E+00 0. -1.
          2   -1    0    0  501    0  0.00000000000E+00 -0.00000000000E+00 -0.55359926439E+03  0.55359926439E+03  0.00000000000E+00 0. -1.
         35    2    1    2    0    0  0.00000000000E+00  0.00000000000E+00 -0.51938720852E+03  0.58781132026E+03  0.27524366633E+03 0.  0.
         25    1    3    3    0    0 -0.56189841797E+02 -0.30752265844E+02 -0.21506159801E+03  0.25446903764E+03  0.12000000000E+03 0.  0.
         25    1    3    3    0    0  0.56189841797E+02  0.30752265844E+02 -0.30432561050E+03  0.33334228262E+03  0.12000000000E+03 0.  0.
<mgrwt>
<rscale>  0 0.27524367E+03</rscale>
<asrwt>0</asrwt>
<pdfrwt beam="1">  1        2 0.85169120E-01 0.27524367E+03</pdfrwt>
<pdfrwt beam="2">  1       -2 0.52633931E-02 0.27524367E+03</pdfrwt>
<totfact> 0.99787657E+03</totfact>
</mgrwt>
</event>
<event>
 5    1  0.1129390E+001  0.2752116E+03  0.7818608E-02  0.1098333E+00
         -1   -1    0    0    0  501 -0.00000000000E+00  0.00000000000E+00  0.27582702222E+03  0.27582702222E+03  0.00000000000E+00 0.  1.
          1   -1    0    0  501    0  0.00000000000E+00 -0.00000000000E+00 -0.68649377190E+02  0.68649377190E+02  0.00000000000E+00 0.  1.
         35    2    1    2    0    0  0.00000000000E+00  0.00000000000E+00  0.20717764503E+03  0.34447639941E+03  0.27521157888E+03 0.  0.
         25    1    3    3    0    0  0.89349466262E+01 -0.31340611589E+02  0.17735598007E+03  0.21660381084E+03  0.12000000000E+03 0.  0.
         25    1    3    3    0    0 -0.89349466262E+01  0.31340611589E+02  0.29821664964E+02  0.12787258857E+03  0.12000000000E+03 0.  0.
<mgrwt>
<rscale>  0 0.27521158E+03</rscale>
<asrwt>0</asrwt>
<pdfrwt beam="1">  1        1 0.10561443E-01 0.27521158E+03</pdfrwt>
<pdfrwt beam="2">  1       -1 0.42434926E-01 0.27521158E+03</pdfrwt>
<totfact> 0.32936478E+03</totfact>
</mgrwt>
</event>
<event>
 5    1  0.1129390E+001  0.2750948E+03  0.7818608E-02  0.1098399E+00
          1   -1    0    0  501    0  0.00000000000E+00  0.00000000000E+00  0.45033891455E+03  0.45033891455E+03  0.00000000000E+00 0.  1.
         -1   -1    0    0    0  501 -0.00000000000E+00 -0.00000000000E+00 -0.42011226451E+02  0.42011226451E+02  0.00000000000E+00 0.  1.
         35    2    1    2    0    0  0.00000000000E+00  0.00000000000E+00  0.40832768810E+03  0.49235014100E+03  0.27509482088E+03 0.  0.
         25    1    3    3    0    0 -0.68926438741E+01  0.44022269723E+02  0.11407320908E+03  0.17145893328E+03  0.12000000000E+03 0.  0.
         25    1    3    3    0    0  0.68926438741E+01 -0.44022269723E+02  0.29425447902E+03  0.32089120772E+03  0.12000000000E+03 0.  0.
<mgrwt>
<rscale>  0 0.27509482E+03</rscale>
<asrwt>0</asrwt>
<pdfrwt beam="1">  1        1 0.69282907E-01 0.27509482E+03</pdfrwt>
<pdfrwt beam="2">  1       -1 0.64632659E-02 0.27509482E+03</pdfrwt>
<totfact> 0.61601880E+03</totfact>
</mgrwt>
</event>
<event>
 5    1  0.1129390E+001  0.2748036E+03  0.7818608E-02  0.1098561E+00
          2   -1    0    0  501    0  0.00000000000E+00  0.00000000000E+00  0.28322618267E+03  0.28322618267E+03  0.00000000000E+00 0. -1.
         -2   -1    0    0    0  501 -0.00000000000E+00 -0.00000000000E+00 -0.66657857683E+02  0.66657857683E+02  0.00000000000E+00 0. -1.
         35    2    1    2    0    0  0.00000000000E+00  0.00000000000E+00  0.21656832498E+03  0.34988404035E+03  0.27480357040E+03 0.  0.
         25    1    3    3    0    0  0.10741234455E+02 -0.84040052737E+01  0.24859432740E+02  0.12330447201E+03  0.12000000000E+03 0.  0.
         25    1    3    3    0    0 -0.10741234455E+02  0.84040052737E+01  0.19170889224E+03  0.22657956834E+03  0.12000000000E+03 0.  0.
<mgrwt>
<rscale>  0 0.27480357E+03</rscale>
<asrwt>0</asrwt>
<pdfrwt beam="1">  1        2 0.43573258E-01 0.27480357E+03</pdfrwt>
<pdfrwt beam="2">  1       -2 0.10255055E-01 0.27480357E+03</pdfrwt>
<totfact> 0.73623536E+03</totfact>
</mgrwt>
</event>
<event>
 5    1  0.1129390E+001  0.2758404E+03  0.7818608E-02  0.1097983E+00
          2   -1    0    0  501    0  0.00000000000E+00  0.00000000000E+00  0.21902028332E+04  0.21902028332E+04  0.00000000000E+00 0. -1.
         -2   -1    0    0    0  501 -0.00000000000E+00 -0.00000000000E+00 -0.86850300006E+01  0.86850300006E+01  0.00000000000E+00 0. -1.
         35    2    1    2    0    0  0.00000000000E+00  0.00000000000E+00  0.21815178032E+04  0.21988878632E+04  0.27584036915E+03 0.  0.
         25    1    3    3    0    0 -0.20336755818E+02  0.39653273833E+01  0.57459148042E+03  0.58735396213E+03  0.12000000000E+03 0.  0.
         25    1    3    3    0    0  0.20336755818E+02 -0.39653273833E+01  0.16069263228E+04  0.16115339011E+04  0.12000000000E+03 0.  0.
<mgrwt>
<rscale>  0 0.27584037E+03</rscale>
<asrwt>0</asrwt>
<pdfrwt beam="1">  1        2 0.33695384E+00 0.27584037E+03</pdfrwt>
<pdfrwt beam="2">  1       -2 0.13361602E-02 0.27584037E+03</pdfrwt>
<totfact> 0.82350908E+03</totfact>
</mgrwt>
</event>
<event>
 5    1  0.1129390E+001  0.2740697E+03  0.7818608E-02  0.1098973E+00
         -3   -1    0    0    0  501 -0.00000000000E+00  0.00000000000E+00  0.78298852906E+02  0.78298852906E+02  0.00000000000E+00 0. -1.
          3   -1    0    0  501    0  0.00000000000E+00 -0.00000000000E+00 -0.23983168347E+03  0.23983168347E+03  0.00000000000E+00 0. -1.
         35    2    1    2    0    0  0.00000000000E+00  0.00000000000E+00 -0.16153283057E+03  0.31813053638E+03  0.27406966783E+03 0.  0.
         25    1    3    3    0    0 -0.72605223623E+01 -0.60978375220E+02 -0.10937564639E+03  0.17359178970E+03  0.12000000000E+03 0.  0.
         25    1    3    3    0    0  0.72605223623E+01  0.60978375220E+02 -0.52157184181E+02  0.14453874668E+03  0.12000000000E+03 0.  0.
<mgrwt>
<rscale>  0 0.27406967E+03</rscale>
<asrwt>0</asrwt>
<pdfrwt beam="1">  1        3 0.36897182E-01 0.27406967E+03</pdfrwt>
<pdfrwt beam="2">  1       -3 0.12045977E-01 0.27406967E+03</pdfrwt>
<totfact> 0.99622823E+02</totfact>
</mgrwt>
</event>
<event>
 5    1  0.1129390E+001  0.2763872E+03  0.7818608E-02  0.1097679E+00
          2   -1    0    0  501    0  0.00000000000E+00  0.00000000000E+00  0.17540817859E+03  0.17540817859E+03  0.00000000000E+00 0. -1.
         -2   -1    0    0    0  501 -0.00000000000E+00 -0.00000000000E+00 -0.10887446585E+03  0.10887446585E+03  0.00000000000E+00 0. -1.
         35    2    1    2    0    0  0.00000000000E+00  0.00000000000E+00  0.66533712738E+02  0.28428264443E+03  0.27638720483E+03 0.  0.
         25    1    3    3    0    0 -0.17771317459E+01 -0.64080283457E+02  0.83247883761E+01  0.13630386285E+03  0.12000000000E+03 0.  0.
         25    1    3    3    0    0  0.17771317459E+01  0.64080283457E+02  0.58208924362E+02  0.14797878159E+03  0.12000000000E+03 0.  0.
<mgrwt>
<rscale>  0 0.27638720E+03</rscale>
<asrwt>0</asrwt>
<pdfrwt beam="1">  1        2 0.26985874E-01 0.27638720E+03</pdfrwt>
<pdfrwt beam="2">  1       -2 0.16749918E-01 0.27638720E+03</pdfrwt>
<totfact> 0.55755559E+03</totfact>
</mgrwt>
</event>
<event>
 5    1  0.1129390E+001  0.2748538E+03  0.7818608E-02  0.1098533E+00
          1   -1    0    0  501    0  0.00000000000E+00  0.00000000000E+00  0.96489695176E+03  0.96489695176E+03  0.00000000000E+00 0.  1.
         -1   -1    0    0    0  501 -0.00000000000E+00 -0.00000000000E+00 -0.19573232690E+02  0.19573232690E+02  0.00000000000E+00 0.  1.
         35    2    1    2    0    0  0.00000000000E+00  0.00000000000E+00  0.94532371907E+03  0.98447018445E+03  0.27485379793E+03 0.  0.
         25    1    3    3    0    0 -0.70835559245E+01  0.31662642210E+02  0.26278412329E+03  0.29070293278E+03  0.12000000000E+03 0.  0.
         25    1    3    3    0    0  0.70835559245E+01 -0.31662642210E+02  0.68253959578E+03  0.69376725167E+03  0.12000000000E+03 0.  0.
<mgrwt>
<rscale>  0 0.27485380E+03</rscale>
<asrwt>0</asrwt>
<pdfrwt beam="1">  1        1 0.14844565E+00 0.27485380E+03</pdfrwt>
<pdfrwt beam="2">  1       -1 0.30112673E-02 0.27485380E+03</pdfrwt>
<totfact> 0.63723122E+03</totfact>
</mgrwt>
</event>
<event>
 5    1  0.1129390E+001  0.2738566E+03  0.7818608E-02  0.1099092E+00
          2   -1    0    0  501    0  0.00000000000E+00  0.00000000000E+00  0.35068726564E+03  0.35068726564E+03  0.00000000000E+00 0. -1.
         -2   -1    0    0    0  501 -0.00000000000E+00 -0.00000000000E+00 -0.53464600977E+02  0.53464600977E+02  0.00000000000E+00 0. -1.
         35    2    1    2    0    0  0.00000000000E+00  0.00000000000E+00  0.29722266466E+03  0.40415186662E+03  0.27385656629E+03 0.  0.
         25    1    3    3    0    0 -0.32630281325E+02  0.19964083294E+02  0.69329492421E+02  0.14377022780E+03  0.12000000000E+03 0.  0.
         25    1    3    3    0    0  0.32630281325E+02 -0.19964083294E+02  0.22789317224E+03  0.26038163882E+03  0.12000000000E+03 0.  0.
<mgrwt>
<rscale>  0 0.27385657E+03</rscale>
<asrwt>0</asrwt>
<pdfrwt beam="1">  1        2 0.53951886E-01 0.27385657E+03</pdfrwt>
<pdfrwt beam="2">  1       -2 0.82253235E-02 0.27385657E+03</pdfrwt>
<totfact> 0.82850085E+03</totfact>
</mgrwt>
</event>
<event>
 5    1  0.1129390E+001  0.2796491E+03  0.7818608E-02  0.1095881E+00
         -2   -1    0    0    0  501 -0.00000000000E+00  0.00000000000E+00  0.20413193112E+02  0.20413193112E+02  0.00000000000E+00 0.  1.
          2   -1    0    0  501    0  0.00000000000E+00 -0.00000000000E+00 -0.95775860604E+03  0.95775860604E+03  0.00000000000E+00 0.  1.
         35    2    1    2    0    0  0.00000000000E+00  0.00000000000E+00 -0.93734541292E+03  0.97817179915E+03  0.27964914718E+03 0.  0.
         25    1    3    3    0    0 -0.60706722437E+02  0.23382361435E+02 -0.36264270423E+03  0.38748131814E+03  0.12000000000E+03 0.  0.
         25    1    3    3    0    0  0.60706722437E+02 -0.23382361435E+02 -0.57470270870E+03  0.59069048101E+03  0.12000000000E+03 0.  0.
<mgrwt>
<rscale>  0 0.27964915E+03</rscale>
<asrwt>0</asrwt>
<pdfrwt beam="1">  1        2 0.14734744E+00 0.27964915E+03</pdfrwt>
<pdfrwt beam="2">  1       -2 0.31404920E-02 0.27964915E+03</pdfrwt>
<totfact> 0.11013308E+04</totfact>
</mgrwt>
</event>
<event>
 5    1  0.1129390E+001  0.2713888E+03  0.7818608E-02  0.1100487E+00
          2   -1    0    0  501    0  0.00000000000E+00  0.00000000000E+00  0.43098709519E+02  0.43098709519E+02  0.00000000000E+00 0. -1.
         -2   -1    0    0    0  501 -0.00000000000E+00 -0.00000000000E+00 -0.42722773055E+03  0.42722773055E+03  0.00000000000E+00 0. -1.
         35    2    1    2    0    0  0.00000000000E+00  0.00000000000E+00 -0.38412902103E+03  0.47032644007E+03  0.27138875332E+03 0.  0.
         25    1    3    3    0    0  0.54833323839E+02  0.31634288476E+02 -0.18798460143E+03  0.23183104189E+03  0.12000000000E+03 0.  0.
         25    1    3    3    0    0 -0.54833323839E+02 -0.31634288476E+02 -0.19614441961E+03  0.23849539818E+03  0.12000000000E+03 0.  0.
<mgrwt>
<rscale>  0 0.27138875E+03</rscale>
<asrwt>0</asrwt>
<pdfrwt beam="1">  1        2 0.66305707E-02 0.27138875E+03</pdfrwt>
<pdfrwt beam="2">  1       -2 0.65727343E-01 0.27138875E+03</pdfrwt>
<totfact> 0.23583682E+03</totfact>
</mgrwt>
</event>
<event>
 5    1  0.1129390E+001  0.2755089E+03  0.7818608E-02  0.1098167E+00
         -3   -1    0    0    0  501 -0.00000000000E+00  0.00000000000E+00  0.76191908412E+02  0.76191908412E+02  0.00000000000E+00 0. -1.
          3   -1    0    0  501    0  0.00000000000E+00 -0.00000000000E+00 -0.24905903799E+03  0.24905903799E+03  0.00000000000E+00 0. -1.
         35    2    1    2    0    0  0.00000000000E+00  0.00000000000E+00 -0.17286712957E+03  0.32525094640E+03  0.27550886310E+03 0.  0.
         25    1    3    3    0    0 -0.27887724051E+02 -0.33229028881E+02 -0.25154346705E+02  0.13005627502E+03  0.12000000000E+03 0.  0.
         25    1    3    3    0    0  0.27887724051E+02  0.33229028881E+02 -0.14771278287E+03  0.19519467138E+03  0.12000000000E+03 0.  0.
<mgrwt>
<rscale>  0 0.27550886E+03</rscale>
<asrwt>0</asrwt>
<pdfrwt beam="1">  1        3 0.38316774E-01 0.27550886E+03</pdfrwt>
<pdfrwt beam="2">  1       -3 0.11721832E-01 0.27550886E+03</pdfrwt>
<totfact> 0.97060571E+02</totfact>
</mgrwt>
</event>
<event>
 5    1  0.1129390E+001  0.2745097E+03  0.7818608E-02  0.1098726E+00
         -1   -1    0    0    0  501 -0.00000000000E+00  0.00000000000E+00  0.16522999811E+03  0.16522999811E+03  0.00000000000E+00 0. -1.
          1   -1    0    0  501    0  0.00000000000E+00 -0.00000000000E+00 -0.11401615466E+03  0.11401615466E+03  0.00000000000E+00 0. -1.
         35    2    1    2    0    0  0.00000000000E+00  0.00000000000E+00  0.51213843445E+02  0.27924615277E+03  0.27450966481E+03 0.  0.
         25    1    3    3    0    0  0.55102812779E+02 -0.13524105918E+02 -0.99194047761E+01  0.13310753550E+03  0.12000000000E+03 0.  0.
         25    1    3    3    0    0 -0.55102812779E+02  0.13524105918E+02  0.61133248221E+02  0.14613861726E+03  0.12000000000E+03 0.  0.
<mgrwt>
<rscale>  0 0.27450966E+03</rscale>
<asrwt>0</asrwt>
<pdfrwt beam="1">  1        1 0.17540947E-01 0.27450966E+03</pdfrwt>
<pdfrwt beam="2">  1       -1 0.25420000E-01 0.27450966E+03</pdfrwt>
<totfact> 0.40798363E+03</totfact>
</mgrwt>
</event>
<event>
 5    1  0.1129390E+001  0.2735004E+03  0.7818608E-02  0.1099293E+00
         -1   -1    0    0    0  501 -0.00000000000E+00  0.00000000000E+00  0.23781528216E+03  0.23781528216E+03  0.00000000000E+00 0. -1.
          1   -1    0    0  501    0  0.00000000000E+00 -0.00000000000E+00 -0.78635076542E+02  0.78635076542E+02  0.00000000000E+00 0. -1.
         35    2    1    2    0    0  0.00000000000E+00  0.00000000000E+00  0.15918020562E+03  0.31645035870E+03  0.27350044179E+03 0.  0.
         25    1    3    3    0    0  0.21009263616E+02 -0.38263622001E+02  0.13621559809E+03  0.18670881899E+03  0.12000000000E+03 0.  0.
         25    1    3    3    0    0 -0.21009263616E+02  0.38263622001E+02  0.22964607521E+02  0.12974153970E+03  0.12000000000E+03 0.  0.
<mgrwt>
<rscale>  0 0.27350044E+03</rscale>
<asrwt>0</asrwt>
<pdfrwt beam="1">  1        1 0.12097704E-01 0.27350044E+03</pdfrwt>
<pdfrwt beam="2">  1       -1 0.36586966E-01 0.27350044E+03</pdfrwt>
<totfact> 0.35720335E+03</totfact>
</mgrwt>
</event>
<event>
 5    1  0.1129390E+001  0.2754010E+03  0.7818608E-02  0.1098228E+00
          1   -1    0    0  501    0  0.00000000000E+00  0.00000000000E+00  0.28950559438E+04  0.28950559438E+04  0.00000000000E+00 0.  1.
         -1   -1    0    0    0  501 -0.00000000000E+00 -0.00000000000E+00 -0.65495880982E+01  0.65495880982E+01  0.00000000000E+00 0.  1.
         35    2    1    2    0    0  0.00000000000E+00  0.00000000000E+00  0.28885063557E+04  0.29016055319E+04  0.27540097279E+03 0.  0.
         25    1    3    3    0    0 -0.47181281171E+02 -0.35663695361E+02  0.17878362379E+04  0.17928347347E+04  0.12000000000E+03 0.  0.
         25    1    3    3    0    0  0.47181281171E+02  0.35663695361E+02  0.11006701178E+04  0.11087707972E+04  0.12000000000E+03 0.  0.
<mgrwt>
<rscale>  0 0.27540097E+03</rscale>
<asrwt>0</asrwt>
<pdfrwt beam="1">  1        1 0.44539220E+00 0.27540097E+03</pdfrwt>
<pdfrwt beam="2">  1       -1 0.10076312E-02 0.27540097E+03</pdfrwt>
<totfact> 0.15929769E+03</totfact>
</mgrwt>
</event>
<event>
 4    1  0.1129390E+001  0.2995857E+03  0.7818608E-02  0.1085448E+00
         -2   -1    0    0    0  501 -0.00000000000E+00  0.00000000000E+00  0.11580945421E+03  0.11580945421E+03  0.00000000000E+00 0.  1.
          2   -1    0    0  501    0  0.00000000000E+00 -0.00000000000E+00 -0.19374839370E+03  0.19374839370E+03  0.00000000000E+00 0.  1.
         25    1    1    2    0    0 -0.52308352055E+02  0.63760637866E+02 -0.26378303813E+01  0.14563152401E+03  0.12000000000E+03 0.  0.
         25    1    1    2    0    0  0.52308352055E+02 -0.63760637866E+02 -0.75301109102E+02  0.16392632390E+03  0.12000000000E+03 0.  0.
<mgrwt>
<rscale>  0 0.29958569E+03</rscale>
<asrwt>0</asrwt>
<pdfrwt beam="1">  1        2 0.29807445E-01 0.29958569E+03</pdfrwt>
<pdfrwt beam="2">  1       -2 0.17816839E-01 0.29958569E+03</pdfrwt>
<totfact> 0.45144464E+03</totfact>
</mgrwt>
</event>
<event>
 5    1  0.1129390E+001  0.2732405E+03  0.7818608E-02  0.1099439E+00
         -1   -1    0    0    0  501 -0.00000000000E+00  0.00000000000E+00  0.98688054723E+03  0.98688054723E+03  0.00000000000E+00 0.  1.
          1   -1    0    0  501    0  0.00000000000E+00 -0.00000000000E+00 -0.18913223438E+02  0.18913223438E+02  0.00000000000E+00 0.  1.
         35    2    1    2    0    0  0.00000000000E+00  0.00000000000E+00  0.96796732379E+03  0.10057937707E+04  0.27324049697E+03 0.  0.
         25    1    3    3    0    0  0.30054162997E+02 -0.40903248499E+02  0.33271521907E+03  0.35731742954E+03  0.12000000000E+03 0.  0.
         25    1    3    3    0    0 -0.30054162997E+02  0.40903248499E+02  0.63525210472E+03  0.64847634113E+03  0.12000000000E+03 0.  0.
<mgrwt>
<rscale>  0 0.27324050E+03</rscale>
<asrwt>0</asrwt>
<pdfrwt beam="1">  1        1 0.29097274E-02 0.27324050E+03</pdfrwt>
<pdfrwt beam="2">  1       -1 0.15182774E+00 0.27324050E+03</pdfrwt>
<totfact> 0.13025112E+03</totfact>
</mgrwt>
</event>
<event>
 5    1  0.1129390E+001  0.2758710E+03  0.7818608E-02  0.1097966E+00
         -2   -1    0    0    0  501 -0.00000000000E+00  0.00000000000E+00  0.11390779773E+02  0.11390779773E+02  0.00000000000E+00 0.  1.
          2   -1    0    0  501    0  0.00000000000E+00 -0.00000000000E+00 -0.16703163545E+04  0.16703163545E+04  0.00000000000E+00 0.  1.
         35    2    1    2    0    0  0.00000000000E+00  0.00000000000E+00 -0.16589255748E+04  0.16817071343E+04  0.27587102599E+03 0.  0.
         25    1    3    3    0    0  0.35725219141E+02 -0.51286082165E+02 -0.66592970716E+03  0.67953581833E+03  0.12000000000E+03 0.  0.
         25    1    3    3    0    0 -0.35725219141E+02  0.51286082165E+02 -0.99299586760E+03  0.10021713160E+04  0.12000000000E+03 0.  0.
<mgrwt>
<rscale>  0 0.27587103E+03</rscale>
<asrwt>0</asrwt>
<pdfrwt beam="1">  1        2 0.25697178E+00 0.27587103E+03</pdfrwt>
<pdfrwt beam="2">  1       -2 0.17524274E-02 0.27587103E+03</pdfrwt>
<totfact> 0.10401681E+04</totfact>
</mgrwt>
</event>
<event>
 5    1  0.1129390E+001  0.2753397E+03  0.7818608E-02  0.1098262E+00
          1   -1    0    0  501    0  0.00000000000E+00  0.00000000000E+00  0.15097977175E+04  0.15097977175E+04  0.00000000000E+00 0.  1.
         -1   -1    0    0    0  501 -0.00000000000E+00 -0.00000000000E+00 -0.12553326526E+02  0.12553326526E+02  0.00000000000E+00 0.  1.
         35    2    1    2    0    0  0.00000000000E+00  0.00000000000E+00  0.14972443910E+04  0.15223510441E+04  0.27533967195E+03 0.  0.
         25    1    3    3    0    0  0.26294572795E+02  0.38057534821E+02  0.10202304516E+04  0.10283044077E+04  0.12000000000E+03 0.  0.
         25    1    3    3    0    0 -0.26294572795E+02 -0.38057534821E+02  0.47701393945E+03  0.49404663641E+03  0.12000000000E+03 0.  0.
<mgrwt>
<rscale>  0 0.27533967E+03</rscale>
<asrwt>0</asrwt>
<pdfrwt beam="1">  1        1 0.23227643E+00 0.27533967E+03</pdfrwt>
<pdfrwt beam="2">  1       -1 0.19312822E-02 0.27533967E+03</pdfrwt>
<totfact> 0.50881697E+03</totfact>
</mgrwt>
</event>
<event>
 5    1  0.1129390E+001  0.2754345E+03  0.7818608E-02  0.1098209E+00
          3   -1    0    0  501    0  0.00000000000E+00  0.00000000000E+00  0.12520786690E+02  0.12520786690E+02  0.00000000000E+00 0.  1.
         -3   -1    0    0    0  501 -0.00000000000E+00 -0.00000000000E+00 -0.15147637754E+04  0.15147637754E+04  0.00000000000E+00 0.  1.
         35    2    1    2    0    0  0.00000000000E+00  0.00000000000E+00 -0.15022429887E+04  0.15272845621E+04  0.27543445040E+03 0.  0.
         25    1    3    3    0    0 -0.73136169266E+01  0.10391610379E+02 -0.11191258390E+04  0.11256127745E+04  0.12000000000E+03 0.  0.
         25    1    3    3    0    0  0.73136169266E+01 -0.10391610379E+02 -0.38311714973E+03  0.40167178763E+03  0.12000000000E+03 0.  0.
<mgrwt>
<rscale>  0 0.27543445E+03</rscale>
<asrwt>0</asrwt>
<pdfrwt beam="1">  1        3 0.19262759E-02 0.27543445E+03</pdfrwt>
<pdfrwt beam="2">  1       -3 0.23304046E+00 0.27543445E+03</pdfrwt>
<totfact> 0.26068904E+02</totfact>
</mgrwt>
</event>
<event>
 5    1  0.1129390E+001  0.2783071E+03  0.7818608E-02  0.1096617E+00
         -2   -1    0    0    0  501 -0.00000000000E+00  0.00000000000E+00  0.51735734580E+01  0.51735734580E+01  0.00000000000E+00 0.  1.
          2   -1    0    0  501    0  0.00000000000E+00 -0.00000000000E+00 -0.37428127852E+04  0.37428127852E+04  0.00000000000E+00 0.  1.
         35    2    1    2    0    0  0.00000000000E+00  0.00000000000E+00 -0.37376392118E+04  0.37479863587E+04  0.27830714604E+03 0.  0.
         25    1    3    3    0    0  0.17481625957E+02 -0.64892536075E+02 -0.21535675719E+04  0.21579550355E+04  0.12000000000E+03 0.  0.
         25    1    3    3    0    0 -0.17481625957E+02  0.64892536075E+02 -0.15840716399E+04  0.15900313232E+04  0.12000000000E+03 0.  0.
<mgrwt>
<rscale>  0 0.27830715E+03</rscale>
<asrwt>0</asrwt>
<pdfrwt beam="1">  1        2 0.57581550E+00 0.27830715E+03</pdfrwt>
<pdfrwt beam="2">  1       -2 0.79593694E-03 0.27830715E+03</pdfrwt>
<totfact> 0.20525051E+03</totfact>
</mgrwt>
</event>
<event>
 5    1  0.1129390E+001  0.2753672E+03  0.7818608E-02  0.1098247E+00
          2   -1    0    0  501    0  0.00000000000E+00  0.00000000000E+00  0.11070003874E+04  0.11070003874E+04  0.00000000000E+00 0.  1.
         -2   -1    0    0    0  501 -0.00000000000E+00 -0.00000000000E+00 -0.17124444756E+02  0.17124444756E+02  0.00000000000E+00 0.  1.
         35    2    1    2    0    0  0.00000000000E+00  0.00000000000E+00  0.10898759426E+04  0.11241248321E+04  0.27536715112E+03 0.  0.
         25    1    3    3    0    0 -0.11119591439E+02  0.51151672545E+02  0.37094351184E+03  0.39336907338E+03  0.12000000000E+03 0.  0.
         25    1    3    3    0    0  0.11119591439E+02 -0.51151672545E+02  0.71893243079E+03  0.73075575876E+03  0.12000000000E+03 0.  0.
<mgrwt>
<rscale>  0 0.27536715E+03</rscale>
<asrwt>0</asrwt>
<pdfrwt beam="1">  1        2 0.17030770E+00 0.27536715E+03</pdfrwt>
<pdfrwt beam="2">  1       -2 0.26345308E-02 0.27536715E+03</pdfrwt>
<totfact> 0.11612123E+04</totfact>
</mgrwt>
</event>
<event>
 5    1  0.1129390E+001  0.2709455E+03  0.7818608E-02  0.1100740E+00
         -1   -1    0    0    0  501 -0.00000000000E+00  0.00000000000E+00  0.39745824986E+03  0.39745824986E+03  0.00000000000E+00 0.  1.
          1   -1    0    0  501    0  0.00000000000E+00 -0.00000000000E+00 -0.46175564969E+02  0.46175564969E+02  0.00000000000E+00 0.  1.
         35    2    1    2    0    0  0.00000000000E+00  0.00000000000E+00  0.35128268489E+03  0.44363381483E+03  0.27094545015E+03 0.  0.
         25    1    3    3    0    0 -0.19206619697E+01  0.14857202128E+02  0.75662984449E+02  0.14265101687E+03  0.12000000000E+03 0.  0.
         25    1    3    3    0    0  0.19206619697E+01 -0.14857202128E+02  0.27561970044E+03  0.30098279796E+03  0.12000000000E+03 0.  0.
<mgrwt>
<rscale>  0 0.27094545E+03</rscale>
<asrwt>0</asrwt>
<pdfrwt beam="1">  1        1 0.71039333E-02 0.27094545E+03</pdfrwt>
<pdfrwt beam="2">  1       -1 0.61147421E-01 0.27094545E+03</pdfrwt>
<totfact> 0.28567313E+03</totfact>
</mgrwt>
</event>
<event>
 5    1  0.1129390E+001  0.2764185E+03  0.7818608E-02  0.1097661E+00
          2   -1    0    0  501    0  0.00000000000E+00  0.00000000000E+00  0.43930664541E+02  0.43930664541E+02  0.00000000000E+00 0. -1.
         -2   -1    0    0    0  501 -0.00000000000E+00 -0.00000000000E+00 -0.43481678435E+03  0.43481678435E+03  0.00000000000E+00 0. -1.
         35    2    1    2    0    0  0.00000000000E+00  0.00000000000E+00 -0.39088611981E+03  0.47874744889E+03  0.27641845300E+03 0.  0.
         25    1    3    3    0    0  0.10738124222E+02  0.65065239620E+02 -0.16290247916E+03  0.21280509965E+03  0.12000000000E+03 0.  0.
         25    1    3    3    0    0 -0.10738124222E+02 -0.65065239620E+02 -0.22798364065E+03  0.26594234925E+03  0.12000000000E+03 0.  0.
<mgrwt>
<rscale>  0 0.27641845E+03</rscale>
<asrwt>0</asrwt>
<pdfrwt beam="1">  1        2 0.67585637E-02 0.27641845E+03</pdfrwt>
<pdfrwt beam="2">  1       -2 0.66894890E-01 0.27641845E+03</pdfrwt>
<totfact> 0.22178527E+03</totfact>
</mgrwt>
</event>
<event>
 5    1  0.1129390E+001  0.2746674E+03  0.7818608E-02  0.1098638E+00
          1   -1    0    0  501    0  0.00000000000E+00  0.00000000000E+00  0.28041905142E+03  0.28041905142E+03  0.00000000000E+00 0. -1.
         -1   -1    0    0    0  501 -0.00000000000E+00 -0.00000000000E+00 -0.67258452955E+02  0.67258452955E+02  0.00000000000E+00 0. -1.
         35    2    1    2    0    0  0.00000000000E+00  0.00000000000E+00  0.21316059846E+03  0.34767750437E+03  0.27466744676E+03 0.  0.
         25    1    3    3    0    0 -0.64556343261E+02 -0.17117589144E+02  0.10640923209E+03  0.17373387116E+03  0.12000000000E+03 0.  0.
         25    1    3    3    0    0  0.64556343261E+02  0.17117589144E+02  0.10675136637E+03  0.17394363321E+03  0.12000000000E+03 0.  0.
<mgrwt>
<rscale>  0 0.27466745E+03</rscale>
<asrwt>0</asrwt>
<pdfrwt beam="1">  1        1 0.43141392E-01 0.27466745E+03</pdfrwt>
<pdfrwt beam="2">  1       -1 0.10347454E-01 0.27466745E+03</pdfrwt>
<totfact> 0.54796486E+03</totfact>
</mgrwt>
</event>
<event>
 5    1  0.1129390E+001  0.2748738E+03  0.7818608E-02  0.1098522E+00
         -2   -1    0    0    0  501 -0.00000000000E+00  0.00000000000E+00  0.29209695940E+02  0.29209695940E+02  0.00000000000E+00 0.  1.
          2   -1    0    0  501    0  0.00000000000E+00 -0.00000000000E+00 -0.64666527014E+03  0.64666527014E+03  0.00000000000E+00 0.  1.
         35    2    1    2    0    0  0.00000000000E+00  0.00000000000E+00 -0.61745557420E+03  0.67587496608E+03  0.27487375950E+03 0.  0.
         25    1    3    3    0    0  0.41772068468E+01  0.15009220183E+02 -0.14850223535E+03  0.19156105985E+03  0.12000000000E+03 0.  0.
         25    1    3    3    0    0 -0.41772068468E+01 -0.15009220183E+02 -0.46895333885E+03  0.48431390623E+03  0.12000000000E+03 0.  0.
<mgrwt>
<rscale>  0 0.27487376E+03</rscale>
<asrwt>0</asrwt>
<pdfrwt beam="1">  1        2 0.99486967E-01 0.27487376E+03</pdfrwt>
<pdfrwt beam="2">  1       -2 0.44937993E-02 0.27487376E+03</pdfrwt>
<totfact> 0.10589505E+04</totfact>
</mgrwt>
</event>
<event>
 5    1  0.1129390E+001  0.2706487E+03  0.7818608E-02  0.1100909E+00
          1   -1    0    0  501    0  0.00000000000E+00  0.00000000000E+00  0.15907051685E+02  0.15907051685E+02  0.00000000000E+00 0. -1.
         -1   -1    0    0    0  501 -0.00000000000E+00 -0.00000000000E+00 -0.11512303320E+04  0.11512303320E+04  0.00000000000E+00 0. -1.
         35    2    1    2    0    0  0.00000000000E+00  0.00000000000E+00 -0.11353232803E+04  0.11671373836E+04  0.27064870509E+03 0.  0.
         25    1    3    3    0    0  0.42369582955E+02 -0.45524599828E+02 -0.59659299720E+03  0.61171143119E+03  0.12000000000E+03 0.  0.
         25    1    3    3    0    0 -0.42369582955E+02  0.45524599828E+02 -0.53873028307E+03  0.55542595245E+03  0.12000000000E+03 0.  0.
<mgrwt>
<rscale>  0 0.27064871E+03</rscale>
<asrwt>0</asrwt>
<pdfrwt beam="1">  1        1 0.24472389E-02 0.27064871E+03</pdfrwt>
<pdfrwt beam="2">  1       -1 0.17711235E+00 0.27064871E+03</pdfrwt>
<totfact> 0.10885083E+03</totfact>
</mgrwt>
</event>
<event>
 5    1  0.1129390E+001  0.2752941E+03  0.7818608E-02  0.1098287E+00
         -1   -1    0    0    0  501 -0.00000000000E+00  0.00000000000E+00  0.41410425402E+02  0.41410425402E+02  0.00000000000E+00 0. -1.
          1   -1    0    0  501    0  0.00000000000E+00 -0.00000000000E+00 -0.45753487780E+03  0.45753487780E+03  0.00000000000E+00 0. -1.
         35    2    1    2    0    0  0.00000000000E+00  0.00000000000E+00 -0.41612445240E+03  0.49894530321E+03  0.27529412581E+03 0.  0.
         25    1    3    3    0    0 -0.18706340808E+02 -0.64366228800E+02 -0.19477153598E+03  0.23838810755E+03  0.12000000000E+03 0.  0.
         25    1    3    3    0    0  0.18706340808E+02  0.64366228800E+02 -0.22135291642E+03  0.26055719565E+03  0.12000000000E+03 0.  0.
<mgrwt>
<rscale>  0 0.27529413E+03</rscale>
<asrwt>0</asrwt>
<pdfrwt beam="1">  1        1 0.70389986E-01 0.27529413E+03</pdfrwt>
<pdfrwt beam="2">  1       -1 0.63708342E-02 0.27529413E+03</pdfrwt>
<totfact> 0.61670591E+03</totfact>
</mgrwt>
</event>
<event>
 5    1  0.1129390E+001  0.2750164E+03  0.7818608E-02  0.1098442E+00
         -2   -1    0    0    0  501 -0.00000000000E+00  0.00000000000E+00  0.12859418246E+04  0.12859418246E+04  0.00000000000E+00 0.  1.
          2   -1    0    0  501    0  0.00000000000E+00 -0.00000000000E+00 -0.14704010395E+02  0.14704010395E+02  0.00000000000E+00 0.  1.
         35    2    1    2    0    0  0.00000000000E+00  0.00000000000E+00  0.12712378142E+04  0.13006458350E+04  0.27501637737E+03 0.  0.
         25    1    3    3    0    0  0.20268373295E+02 -0.60846537384E+02  0.72965952485E+03  0.74223724662E+03  0.12000000000E+03 0.  0.
         25    1    3    3    0    0 -0.20268373295E+02  0.60846537384E+02  0.54157828932E+03  0.55840858834E+03  0.12000000000E+03 0.  0.
<mgrwt>
<rscale>  0 0.27501638E+03</rscale>
<asrwt>0</asrwt>
<pdfrwt beam="1">  1        2 0.22621564E-02 0.27501638E+03</pdfrwt>
<pdfrwt beam="2">  1       -2 0.19783712E+00 0.27501638E+03</pdfrwt>
<totfact> 0.68748432E+02</totfact>
</mgrwt>
</event>
<event>
 5    1  0.1129390E+001  0.2750147E+03  0.7818608E-02  0.1098443E+00
         -1   -1    0    0    0  501 -0.00000000000E+00  0.00000000000E+00  0.79671591172E+03  0.79671591172E+03  0.00000000000E+00 0. -1.
          1   -1    0    0  501    0  0.00000000000E+00 -0.00000000000E+00 -0.23732767013E+02  0.23732767013E+02  0.00000000000E+00 0. -1.
         35    2    1    2    0    0  0.00000000000E+00  0.00000000000E+00  0.77298314471E+03  0.82044867873E+03  0.27501471312E+03 0.  0.
         25    1    3    3    0    0 -0.53861089247E+02  0.39323920290E+02  0.40976992861E+03  0.43215596957E+03  0.12000000000E+03 0.  0.
         25    1    3    3    0    0  0.53861089247E+02 -0.39323920290E+02  0.36321321610E+03  0.38829270917E+03  0.12000000000E+03 0.  0.
<mgrwt>
<rscale>  0 0.27501471E+03</rscale>
<asrwt>0</asrwt>
<pdfrwt beam="1">  1        1 0.36511955E-02 0.27501471E+03</pdfrwt>
<pdfrwt beam="2">  1       -1 0.12257166E+00 0.27501471E+03</pdfrwt>
<totfact> 0.16234079E+03</totfact>
</mgrwt>
</event>
<event>
 5    1  0.1129390E+001  0.2751091E+03  0.7818608E-02  0.1098391E+00
          2   -1    0    0  501    0  0.00000000000E+00  0.00000000000E+00  0.45101247507E+03  0.45101247507E+03  0.00000000000E+00 0. -1.
         -2   -1    0    0    0  501 -0.00000000000E+00 -0.00000000000E+00 -0.41952833205E+02  0.41952833205E+02  0.00000000000E+00 0. -1.
         35    2    1    2    0    0  0.00000000000E+00  0.00000000000E+00  0.40905964186E+03  0.49296530827E+03  0.27510907757E+03 0.  0.
         25    1    3    3    0    0  0.16706132873E+02  0.16384947291E+02  0.31748558971E+03  0.34021267032E+03  0.12000000000E+03 0.  0.
         25    1    3    3    0    0 -0.16706132873E+02 -0.16384947291E+02  0.91574052149E+02  0.15275263795E+03  0.12000000000E+03 0.  0.
<mgrwt>
<rscale>  0 0.27510908E+03</rscale>
<asrwt>0</asrwt>
<pdfrwt beam="1">  1        2 0.69386531E-01 0.27510908E+03</pdfrwt>
<pdfrwt beam="2">  1       -2 0.64542823E-02 0.27510908E+03</pdfrwt>
<totfact> 0.91834459E+03</totfact>
</mgrwt>
</event>
<event>
 5    1  0.1129390E+001  0.2736239E+03  0.7818608E-02  0.1099223E+00
          1   -1    0    0  501    0  0.00000000000E+00  0.00000000000E+00  0.24601374321E+03  0.24601374321E+03  0.00000000000E+00 0. -1.
         -1   -1    0    0    0  501 -0.00000000000E+00 -0.00000000000E+00 -0.76083168562E+02  0.76083168562E+02  0.00000000000E+00 0. -1.
         35    2    1    2    0    0  0.00000000000E+00  0.00000000000E+00  0.16993057464E+03  0.32209691177E+03  0.27362386660E+03 0.  0.
         25    1    3    3    0    0 -0.37397671156E+02 -0.34731683777E+02  0.36250110169E+02  0.13534750147E+03  0.12000000000E+03 0.  0.
         25    1    3    3    0    0  0.37397671156E+02  0.34731683777E+02  0.13368046448E+03  0.18674941030E+03  0.12000000000E+03 0.  0.
<mgrwt>
<rscale>  0 0.27362387E+03</rscale>
<asrwt>0</asrwt>
<pdfrwt beam="1">  1        1 0.37848268E-01 0.27362387E+03</pdfrwt>
<pdfrwt beam="2">  1       -1 0.11705103E-01 0.27362387E+03</pdfrwt>
<totfact> 0.53313284E+03</totfact>
</mgrwt>
</event>
<event>
 5    1  0.1129390E+001  0.2749524E+03  0.7818608E-02  0.1098478E+00
         -1   -1    0    0    0  501 -0.00000000000E+00  0.00000000000E+00  0.61096735178E+03  0.61096735178E+03  0.00000000000E+00 0.  1.
          1   -1    0    0  501    0  0.00000000000E+00 -0.00000000000E+00 -0.30934074523E+02  0.30934074523E+02  0.00000000000E+00 0.  1.
         35    2    1    2    0    0  0.00000000000E+00  0.00000000000E+00  0.58003327726E+03  0.64190142630E+03  0.27495242927E+03 0.  0.
         25    1    3    3    0    0  0.30053829500E+02 -0.59970613466E+02  0.29013204787E+03  0.32105499894E+03  0.12000000000E+03 0.  0.
         25    1    3    3    0    0 -0.30053829500E+02  0.59970613466E+02  0.28990122939E+03  0.32084642736E+03  0.12000000000E+03 0.  0.
<mgrwt>
<rscale>  0 0.27495243E+03</rscale>
<asrwt>0</asrwt>
<pdfrwt beam="1">  1        1 0.47590888E-02 0.27495243E+03</pdfrwt>
<pdfrwt beam="2">  1       -1 0.93994968E-01 0.27495243E+03</pdfrwt>
<totfact> 0.20587878E+03</totfact>
</mgrwt>
</event>
<event>
 5    1  0.1129390E+001  0.2750024E+03  0.7818608E-02  0.1098450E+00
          2   -1    0    0  501    0  0.00000000000E+00  0.00000000000E+00  0.19440519785E+04  0.19440519785E+04  0.00000000000E+00 0. -1.
         -2   -1    0    0    0  501 -0.00000000000E+00 -0.00000000000E+00 -0.97253459958E+01  0.97253459958E+01  0.00000000000E+00 0. -1.
         35    2    1    2    0    0  0.00000000000E+00  0.00000000000E+00  0.19343266325E+04  0.19537773245E+04  0.27500238635E+03 0.  0.
         25    1    3    3    0    0 -0.31476776407E+02  0.84517130700E+01  0.55020482590E+03  0.56408117266E+03  0.12000000000E+03 0.  0.
         25    1    3    3    0    0  0.31476776407E+02 -0.84517130700E+01  0.13841218066E+04  0.13896961518E+04  0.12000000000E+03 0.  0.
<mgrwt>
<rscale>  0 0.27500239E+03</rscale>
<asrwt>0</asrwt>
<pdfrwt beam="1">  1        2 0.29908461E+00 0.27500239E+03</pdfrwt>
<pdfrwt beam="2">  1       -2 0.14962086E-02 0.27500239E+03</pdfrwt>
<totfact> 0.94146893E+03</totfact>
</mgrwt>
</event>
<event>
 5    1  0.1129390E+001  0.2741117E+03  0.7818608E-02  0.1098949E+00
          2   -1    0    0  501    0  0.00000000000E+00  0.00000000000E+00  0.53848434496E+03  0.53848434496E+03  0.00000000000E+00 0. -1.
         -2   -1    0    0    0  501 -0.00000000000E+00 -0.00000000000E+00 -0.34883659327E+02  0.34883659327E+02  0.00000000000E+00 0. -1.
         35    2    1    2    0    0  0.00000000000E+00  0.00000000000E+00  0.50360068564E+03  0.57336800429E+03  0.27411168850E+03 0.  0.
         25    1    3    3    0    0 -0.19660786111E+02 -0.61001458734E+02  0.21701340046E+03  0.25612992886E+03  0.12000000000E+03 0.  0.
         25    1    3    3    0    0  0.19660786111E+02  0.61001458734E+02  0.28658728518E+03  0.31723807544E+03  0.12000000000E+03 0.  0.
<mgrwt>
<rscale>  0 0.27411169E+03</rscale>
<asrwt>0</asrwt>
<pdfrwt beam="1">  1        2 0.82843740E-01 0.27411169E+03</pdfrwt>
<pdfrwt beam="2">  1       -2 0.53667172E-02 0.27411169E+03</pdfrwt>
<totfact> 0.99955505E+03</totfact>
</mgrwt>
</event>
<event>
 5    1  0.1129390E+001  0.2751695E+03  0.7818608E-02  0.1098357E+00
         -2   -1    0    0    0  501 -0.00000000000E+00  0.00000000000E+00  0.15335773466E+02  0.15335773466E+02  0.00000000000E+00 0.  1.
          2   -1    0    0  501    0  0.00000000000E+00 -0.00000000000E+00 -0.12343407419E+04  0.12343407419E+04  0.00000000000E+00 0.  1.
         35    2    1    2    0    0  0.00000000000E+00  0.00000000000E+00 -0.12190049684E+04  0.12496765154E+04  0.27516954772E+03 0.  0.
         25    1    3    3    0    0  0.16880100856E+02  0.45508959668E+02 -0.82123313509E+03  0.83137227846E+03  0.12000000000E+03 0.  0.
         25    1    3    3    0    0 -0.16880100856E+02 -0.45508959668E+02 -0.39777183333E+03  0.41830423689E+03  0.12000000000E+03 0.  0.
<mgrwt>
<rscale>  0 0.27516955E+03</rscale>
<asrwt>0</asrwt>
<pdfrwt beam="1">  1        2 0.18989860E+00 0.27516955E+03</pdfrwt>
<pdfrwt beam="2">  1       -2 0.23593495E-02 0.27516955E+03</pdfrwt>
<totfact> 0.11554437E+04</totfact>
</mgrwt>
</event>
<event>
 5    1  0.1129390E+001  0.2748889E+03  0.7818608E-02  0.1098514E+00
         -2   -1    0    0    0  501 -0.00000000000E+00  0.00000000000E+00  0.10752164381E+02  0.10752164381E+02  0.00000000000E+00 0. -1.
          2   -1    0    0  501    0  0.00000000000E+00 -0.00000000000E+00 -0.17569465432E+04  0.17569465432E+04  0.00000000000E+00 0. -1.
         35    2    1    2    0    0  0.00000000000E+00  0.00000000000E+00 -0.17461943788E+04  0.17676987076E+04  0.27488890878E+03 0.  0.
         25    1    3    3    0    0  0.50440745561E+01 -0.26462154934E+02 -0.47850341788E+03  0.49405587666E+03  0.12000000000E+03 0.  0.
         25    1    3    3    0    0 -0.50440745561E+01  0.26462154934E+02 -0.12676909609E+04  0.12736428309E+04  0.12000000000E+03 0.  0.
<mgrwt>
<rscale>  0 0.27488891E+03</rscale>
<asrwt>0</asrwt>
<pdfrwt beam="1">  1        2 0.27029930E+00 0.27488891E+03</pdfrwt>
<pdfrwt beam="2">  1       -2 0.16541801E-02 0.27488891E+03</pdfrwt>
<totfact> 0.10191006E+04</totfact>
</mgrwt>
</event>
<event>
 5    1  0.1129390E+001  0.2738513E+03  0.7818608E-02  0.1099095E+00
         -4   -1    0    0    0  501 -0.00000000000E+00  0.00000000000E+00  0.25587864089E+03  0.25587864089E+03  0.00000000000E+00 0.  1.
          4   -1    0    0  501    0  0.00000000000E+00 -0.00000000000E+00 -0.73271599261E+02  0.73271599261E+02  0.00000000000E+00 0.  1.
         35    2    1    2    0    0  0.00000000000E+00  0.00000000000E+00  0.18260704163E+03  0.32915024015E+03  0.27385132634E+03 0.  0.
         25    1    3    3    0    0  0.20082747991E+02 -0.39942092489E+01  0.15960919442E+02  0.12277630644E+03  0.12000000000E+03 0.  0.
         25    1    3    3    0    0 -0.20082747991E+02  0.39942092489E+01  0.16664612219E+03  0.20637393371E+03  0.12000000000E+03 0.  0.
<mgrwt>
<rscale>  0 0.27385133E+03</rscale>
<asrwt>0</asrwt>
<pdfrwt beam="1">  1        4 0.11272554E-01 0.27385133E+03</pdfrwt>
<pdfrwt beam="2">  1       -4 0.39365945E-01 0.27385133E+03</pdfrwt>
<totfact> 0.72784638E+02</totfact>
</mgrwt>
</event>
<event>
 5    1  0.1129390E+001  0.2755154E+03  0.7818608E-02  0.1098164E+00
          2   -1    0    0  501    0  0.00000000000E+00  0.00000000000E+00  0.17823460183E+04  0.17823460183E+04  0.00000000000E+00 0. -1.
         -2   -1    0    0    0  501 -0.00000000000E+00 -0.00000000000E+00 -0.10647307497E+02  0.10647307497E+02  0.00000000000E+00 0. -1.
         35    2    1    2    0    0  0.00000000000E+00  0.00000000000E+00  0.17716987108E+04  0.17929933258E+04  0.27551541607E+03 0.  0.
         25    1    3    3    0    0 -0.14963572242E+02  0.60687073432E+02  0.10543438679E+04  0.10629900381E+04  0.12000000000E+03 0.  0.
         25    1    3    3    0    0  0.14963572242E+02 -0.60687073432E+02  0.71735484296E+03  0.73000328772E+03  0.12000000000E+03 0.  0.
<mgrwt>
<rscale>  0 0.27551542E+03</rscale>
<asrwt>0</asrwt>
<pdfrwt beam="1">  1        2 0.27420684E+00 0.27551542E+03</pdfrwt>
<pdfrwt beam="2">  1       -2 0.16380487E-02 0.27551542E+03</pdfrwt>
<totfact> 0.10025915E+04</totfact>
</mgrwt>
</event>
<event>
 5    1  0.1129390E+001  0.2712773E+03  0.7818608E-02  0.1100551E+00
          2   -1    0    0  501    0  0.00000000000E+00  0.00000000000E+00  0.10466266933E+04  0.10466266933E+04  0.00000000000E+00 0.  1.
         -2   -1    0    0    0  501 -0.00000000000E+00 -0.00000000000E+00 -0.17578224755E+02  0.17578224755E+02  0.00000000000E+00 0.  1.
         35    2    1    2    0    0  0.00000000000E+00  0.00000000000E+00  0.10290484685E+04  0.10642049180E+04  0.27127726959E+03 0.  0.
         25    1    3    3    0    0  0.33577972180E+02 -0.53229274657E+02  0.49066083027E+03  0.50902739244E+03  0.12000000000E+03 0.  0.
         25    1    3    3    0    0 -0.33577972180E+02  0.53229274657E+02  0.53838763825E+03  0.55517752559E+03  0.12000000000E+03 0.  0.
<mgrwt>
<rscale>  0 0.27127727E+03</rscale>
<asrwt>0</asrwt>
<pdfrwt beam="1">  1        2 0.16101944E+00 0.27127727E+03</pdfrwt>
<pdfrwt beam="2">  1       -2 0.27043431E-02 0.27127727E+03</pdfrwt>
<totfact> 0.12124106E+04</totfact>
</mgrwt>
</event>
<event>
 5    1  0.1129390E+001  0.2760475E+03  0.7818608E-02  0.1097868E+00
         -2   -1    0    0    0  501 -0.00000000000E+00  0.00000000000E+00  0.32737013438E+03  0.32737013438E+03  0.00000000000E+00 0.  1.
          2   -1    0    0  501    0  0.00000000000E+00 -0.00000000000E+00 -0.58192697371E+02  0.58192697371E+02  0.00000000000E+00 0.  1.
         35    2    1    2    0    0  0.00000000000E+00  0.00000000000E+00  0.26917743701E+03  0.38556283175E+03  0.27604746808E+03 0.  0.
         25    1    3    3    0    0  0.55161721110E+02  0.15643573526E+02  0.18615449924E+03  0.22878163050E+03  0.12000000000E+03 0.  0.
         25    1    3    3    0    0 -0.55161721110E+02 -0.15643573526E+02  0.83022937768E+02  0.15678120125E+03  0.12000000000E+03 0.  0.
<mgrwt>
<rscale>  0 0.27604747E+03</rscale>
<asrwt>0</asrwt>
<pdfrwt beam="1">  1        2 0.89527229E-02 0.27604747E+03</pdfrwt>
<pdfrwt beam="2">  1       -2 0.50364635E-01 0.27604747E+03</pdfrwt>
<totfact> 0.27794034E+03</totfact>
</mgrwt>
</event>
<event>
 5    1  0.1129390E+001  0.2747144E+03  0.7818608E-02  0.1098611E+00
         -2   -1    0    0    0  501 -0.00000000000E+00  0.00000000000E+00  0.10473780218E+02  0.10473780218E+02  0.00000000000E+00 0. -1.
          2   -1    0    0  501    0  0.00000000000E+00 -0.00000000000E+00 -0.18013549744E+04  0.18013549744E+04  0.00000000000E+00 0. -1.
         35    2    1    2    0    0  0.00000000000E+00  0.00000000000E+00 -0.17908811942E+04  0.18118287546E+04  0.27471436873E+03 0.  0.
         25    1    3    3    0    0 -0.99167178234E+01  0.65796078305E+02 -0.93690773250E+03  0.94690208809E+03  0.12000000000E+03 0.  0.
         25    1    3    3    0    0  0.99167178234E+01 -0.65796078305E+02 -0.85397346168E+03  0.86492666652E+03  0.12000000000E+03 0.  0.
<mgrwt>
<rscale>  0 0.27471437E+03</rscale>
<asrwt>0</asrwt>
<pdfrwt beam="1">  1        2 0.27713170E+00 0.27471437E+03</pdfrwt>
<pdfrwt beam="2">  1       -2 0.16113499E-02 0.27471437E+03</pdfrwt>
<totfact> 0.10036393E+04</totfact>
</mgrwt>
</event>
<event>
 5    1  0.1129390E+001  0.2757758E+03  0.7818608E-02  0.1098019E+00
          2   -1    0    0  501    0  0.00000000000E+00  0.00000000000E+00  0.11599706850E+03  0.11599706850E+03  0.00000000000E+00 0.  1.
         -2   -1    0    0    0  501 -0.00000000000E+00 -0.00000000000E+00 -0.16390992144E+03  0.16390992144E+03  0.00000000000E+00 0.  1.
         35    2    1    2    0    0  0.00000000000E+00  0.00000000000E+00 -0.47912852934E+02  0.27990698994E+03  0.27577578128E+03 0.  0.
         25    1    3    3    0    0 -0.11337964649E+02 -0.63491213688E+02 -0.45568280280E+02  0.14365288659E+03  0.12000000000E+03 0.  0.
         25    1    3    3    0    0  0.11337964649E+02  0.63491213688E+02 -0.23445726544E+01  0.13625410335E+03  0.12000000000E+03 0.  0.
<mgrwt>
<rscale>  0 0.27577578E+03</rscale>
<asrwt>0</asrwt>
<pdfrwt beam="1">  1        2 0.17845703E-01 0.27577578E+03</pdfrwt>
<pdfrwt beam="2">  1       -2 0.25216911E-01 0.27577578E+03</pdfrwt>
<totfact> 0.44125901E+03</totfact>
</mgrwt>
</event>
<event>
 5    1  0.1129390E+001  0.2749766E+03  0.7818608E-02  0.1098465E+00
         -2   -1    0    0    0  501 -0.00000000000E+00  0.00000000000E+00  0.57461863886E+01  0.57461863886E+01  0.00000000000E+00 0.  1.
          2   -1    0    0  501    0  0.00000000000E+00 -0.00000000000E+00 -0.32896646966E+04  0.32896646966E+04  0.00000000000E+00 0.  1.
         35    2    1    2    0    0  0.00000000000E+00  0.00000000000E+00 -0.32839185103E+04  0.32954108830E+04  0.27497655538E+03 0.  0.
         25    1    3    3    0    0  0.24165861806E+02 -0.62449786611E+02 -0.15896358968E+04  0.15955645550E+04  0.12000000000E+03 0.  0.
         25    1    3    3    0    0 -0.24165861806E+02  0.62449786611E+02 -0.16942826135E+04  0.16998463281E+04  0.12000000000E+03 0.  0.
<mgrwt>
<rscale>  0 0.27497656E+03</rscale>
<asrwt>0</asrwt>
<pdfrwt beam="1">  1        2 0.50610284E+00 0.27497656E+03</pdfrwt>
<pdfrwt beam="2">  1       -2 0.88402766E-03 0.27497656E+03</pdfrwt>
<totfact> 0.35356555E+03</totfact>
</mgrwt>
</event>
<event>
 5    1  0.1129390E+001  0.2752049E+03  0.7818608E-02  0.1098337E+00
         -2   -1    0    0    0  501 -0.00000000000E+00  0.00000000000E+00  0.25496761332E+02  0.25496761332E+02  0.00000000000E+00 0.  1.
          2   -1    0    0  501    0  0.00000000000E+00 -0.00000000000E+00 -0.74262141656E+03  0.74262141656E+03  0.00000000000E+00 0.  1.
         35    2    1    2    0    0  0.00000000000E+00  0.00000000000E+00 -0.71712465523E+03  0.76811817790E+03  0.27520494921E+03 0.  0.
         25    1    3    3    0    0  0.85189212660E+01 -0.54613660610E+02 -0.25121585985E+03  0.28383909559E+03  0.12000000000E+03 0.  0.
         25    1    3    3    0    0 -0.85189212660E+01  0.54613660610E+02 -0.46590879538E+03  0.48427908231E+03  0.12000000000E+03 0.  0.
<mgrwt>
<rscale>  0 0.27520495E+03</rscale>
<asrwt>0</asrwt>
<pdfrwt beam="1">  1        2 0.11424944E+00 0.27520495E+03</pdfrwt>
<pdfrwt beam="2">  1       -2 0.39225789E-02 0.27520495E+03</pdfrwt>
<totfact> 0.10994495E+04</totfact>
</mgrwt>
</event>
<event>
 5    1  0.1129390E+001  0.2755491E+03  0.7818608E-02  0.1098145E+00
          1   -1    0    0  501    0  0.00000000000E+00  0.00000000000E+00  0.53445034546E+03  0.53445034546E+03  0.00000000000E+00 0. -1.
         -1   -1    0    0    0  501 -0.00000000000E+00 -0.00000000000E+00 -0.35516538111E+02  0.35516538111E+02  0.00000000000E+00 0. -1.
         35    2    1    2    0    0  0.00000000000E+00  0.00000000000E+00  0.49893380735E+03  0.56996688357E+03  0.27554909590E+03 0.  0.
         25    1    3    3    0    0  0.41956234781E+02  0.50368287648E+02  0.21457543401E+03  0.25444037989E+03  0.12000000000E+03 0.  0.
         25    1    3    3    0    0 -0.41956234781E+02 -0.50368287648E+02  0.28435837334E+03  0.31552650368E+03  0.12000000000E+03 0.  0.
<mgrwt>
<rscale>  0 0.27554910E+03</rscale>
<asrwt>0</asrwt>
<pdfrwt beam="1">  1        1 0.82223124E-01 0.27554910E+03</pdfrwt>
<pdfrwt beam="2">  1       -1 0.54640832E-02 0.27554910E+03</pdfrwt>
<totfact> 0.63255031E+03</totfact>
</mgrwt>
</event>
<event>
 5    1  0.1129390E+001  0.2868973E+03  0.7818608E-02  0.1091980E+00
         -1   -1    0    0    0  501 -0.00000000000E+00  0.00000000000E+00  0.58116332040E+02  0.58116332040E+02  0.00000000000E+00 0.  1.
          1   -1    0    0  501    0  0.00000000000E+00 -0.00000000000E+00 -0.35407464984E+03  0.35407464984E+03  0.00000000000E+00 0.  1.
         35    2    1    2    0    0  0.00000000000E+00  0.00000000000E+00 -0.29595831780E+03  0.41219098188E+03  0.28689733297E+03 0.  0.
         25    1    3    3    0    0  0.18543905917E+02 -0.41534784295E+02 -0.24006946009E+03  0.27221748735E+03  0.12000000000E+03 0.  0.
         25    1    3    3    0    0 -0.18543905917E+02  0.41534784295E+02 -0.55888857707E+02  0.13997349452E+03  0.12000000000E+03 0.  0.
<mgrwt>
<rscale>  0 0.28689733E+03</rscale>
<asrwt>0</asrwt>
<pdfrwt beam="1">  1        1 0.54473022E-01 0.28689733E+03</pdfrwt>
<pdfrwt beam="2">  1       -1 0.89409743E-02 0.28689733E+03</pdfrwt>
<totfact> 0.51218239E+03</totfact>
</mgrwt>
</event>
<event>
 5    1  0.1129390E+001  0.2750072E+03  0.7818608E-02  0.1098448E+00
         -2   -1    0    0    0  501 -0.00000000000E+00  0.00000000000E+00  0.14918436804E+02  0.14918436804E+02  0.00000000000E+00 0. -1.
          2   -1    0    0  501    0  0.00000000000E+00 -0.00000000000E+00 -0.12673739347E+04  0.12673739347E+04  0.00000000000E+00 0. -1.
         35    2    1    2    0    0  0.00000000000E+00  0.00000000000E+00 -0.12524554979E+04  0.12822923715E+04  0.27500718501E+03 0.  0.
         25    1    3    3    0    0 -0.12286594775E+02  0.58575997336E+02 -0.48440548355E+03  0.50262389554E+03  0.12000000000E+03 0.  0.
         25    1    3    3    0    0  0.12286594775E+02 -0.58575997336E+02 -0.76805001437E+03  0.77966847599E+03  0.12000000000E+03 0.  0.
<mgrwt>
<rscale>  0 0.27500719E+03</rscale>
<asrwt>0</asrwt>
<pdfrwt beam="1">  1        2 0.19498071E+00 0.27500719E+03</pdfrwt>
<pdfrwt beam="2">  1       -2 0.22951429E-02 0.27500719E+03</pdfrwt>
<totfact> 0.11532605E+04</totfact>
</mgrwt>
</event>
<event>
 5    1  0.1129390E+001  0.2748780E+03  0.7818608E-02  0.1098520E+00
          1   -1    0    0  501    0  0.00000000000E+00  0.00000000000E+00  0.15040941470E+03  0.15040941470E+03  0.00000000000E+00 0. -1.
         -1   -1    0    0    0  501 -0.00000000000E+00 -0.00000000000E+00 -0.12558711063E+03  0.12558711063E+03  0.00000000000E+00 0. -1.
         35    2    1    2    0    0  0.00000000000E+00  0.00000000000E+00  0.24822304071E+02  0.27599652533E+03  0.27487803698E+03 0.  0.
         25    1    3    3    0    0 -0.21037207252E+02 -0.98738529803E+01 -0.50689028982E+02  0.13232322064E+03  0.12000000000E+03 0.  0.
         25    1    3    3    0    0  0.21037207252E+02  0.98738529803E+01  0.75511333053E+02  0.14367330469E+03  0.12000000000E+03 0.  0.
<mgrwt>
<rscale>  0 0.27487804E+03</rscale>
<asrwt>0</asrwt>
<pdfrwt beam="1">  1        1 0.23139910E-01 0.27487804E+03</pdfrwt>
<pdfrwt beam="2">  1       -1 0.19321094E-01 0.27487804E+03</pdfrwt>
<totfact> 0.44809879E+03</totfact>
</mgrwt>
</event>
<event>
 5    1  0.1129390E+001  0.2749117E+03  0.7818608E-02  0.1098501E+00
          2   -1    0    0  501    0  0.00000000000E+00  0.00000000000E+00  0.16020797902E+03  0.16020797902E+03  0.00000000000E+00 0. -1.
         -2   -1    0    0    0  501 -0.00000000000E+00 -0.00000000000E+00 -0.11793489138E+03  0.11793489138E+03  0.00000000000E+00 0. -1.
         35    2    1    2    0    0  0.00000000000E+00  0.00000000000E+00  0.42273087642E+02  0.27814287040E+03  0.27491169931E+03 0.  0.
         25    1    3    3    0    0 -0.47898162586E+02 -0.44950755156E+02  0.34684457053E+02  0.14113049256E+03  0.12000000000E+03 0.  0.
         25    1    3    3    0    0  0.47898162586E+02  0.44950755156E+02  0.75886305891E+01  0.13701237784E+03  0.12000000000E+03 0.  0.
<mgrwt>
<rscale>  0 0.27491170E+03</rscale>
<asrwt>0</asrwt>
<pdfrwt beam="1">  1        2 0.24647382E-01 0.27491170E+03</pdfrwt>
<pdfrwt beam="2">  1       -2 0.18143829E-01 0.27491170E+03</pdfrwt>
<totfact> 0.53915868E+03</totfact>
</mgrwt>
</event>
<event>
 5    1  0.1129390E+001  0.2756378E+03  0.7818608E-02  0.1098096E+00
          1   -1    0    0  501    0  0.00000000000E+00  0.00000000000E+00  0.19992420041E+02  0.19992420041E+02  0.00000000000E+00 0. -1.
         -1   -1    0    0    0  501 -0.00000000000E+00 -0.00000000000E+00 -0.95006235765E+03  0.95006235765E+03  0.00000000000E+00 0. -1.
         35    2    1    2    0    0  0.00000000000E+00  0.00000000000E+00 -0.93006993760E+03  0.97005477769E+03  0.27563777476E+03 0.  0.
         25    1    3    3    0    0  0.58775119187E+02  0.23942084566E+02 -0.54878476246E+03  0.56532508662E+03  0.12000000000E+03 0.  0.
         25    1    3    3    0    0 -0.58775119187E+02 -0.23942084566E+02 -0.38128517514E+03  0.40472969107E+03  0.12000000000E+03 0.  0.
<mgrwt>
<rscale>  0 0.27563777E+03</rscale>
<asrwt>0</asrwt>
<pdfrwt beam="1">  1        1 0.30757571E-02 0.27563777E+03</pdfrwt>
<pdfrwt beam="2">  1       -1 0.14616343E+00 0.27563777E+03</pdfrwt>
<totfact> 0.13309244E+03</totfact>
</mgrwt>
</event>
<event>
 5    1  0.1129390E+001  0.2747128E+03  0.7818608E-02  0.1098612E+00
         -1   -1    0    0    0  501 -0.00000000000E+00  0.00000000000E+00  0.23411252408E+02  0.23411252408E+02  0.00000000000E+00 0. -1.
          1   -1    0    0  501    0  0.00000000000E+00 -0.00000000000E+00 -0.80588507221E+03  0.80588507221E+03  0.00000000000E+00 0. -1.
         35    2    1    2    0    0  0.00000000000E+00  0.00000000000E+00 -0.78247381981E+03  0.82929632462E+03  0.27471278701E+03 0.  0.
         25    1    3    3    0    0  0.27694235796E+02  0.39827118731E+02 -0.53002211298E+03  0.54559748014E+03  0.12000000000E+03 0.  0.
         25    1    3    3    0    0 -0.27694235796E+02 -0.39827118731E+02 -0.25245170682E+03  0.28369884448E+03  0.12000000000E+03 0.  0.
<mgrwt>
<rscale>  0 0.27471279E+03</rscale>
<asrwt>0</asrwt>
<pdfrwt beam="1">  1        1 0.12398229E+00 0.27471279E+03</pdfrwt>
<pdfrwt beam="2">  1       -1 0.36017321E-02 0.27471279E+03</pdfrwt>
<totfact> 0.65380835E+03</totfact>
</mgrwt>
</event>
<event>
 5    1  0.1129390E+001  0.2749631E+03  0.7818608E-02  0.1098472E+00
          1   -1    0    0  501    0  0.00000000000E+00  0.00000000000E+00  0.71608757496E+03  0.71608757496E+03  0.00000000000E+00 0. -1.
         -1   -1    0    0    0  501 -0.00000000000E+00 -0.00000000000E+00 -0.26395069429E+02  0.26395069429E+02  0.00000000000E+00 0. -1.
         35    2    1    2    0    0  0.00000000000E+00  0.00000000000E+00  0.68969250553E+03  0.74248264439E+03  0.27496313395E+03 0.  0.
         25    1    3    3    0    0  0.60939809032E+02 -0.27889071771E+02  0.33642729011E+03  0.36342094351E+03  0.12000000000E+03 0.  0.
         25    1    3    3    0    0 -0.60939809032E+02  0.27889071771E+02  0.35326521541E+03  0.37906170088E+03  0.12000000000E+03 0.  0.
<mgrwt>
<rscale>  0 0.27496313E+03</rscale>
<asrwt>0</asrwt>
<pdfrwt beam="1">  1        1 0.11016730E+00 0.27496313E+03</pdfrwt>
<pdfrwt beam="2">  1       -1 0.40607805E-02 0.27496313E+03</pdfrwt>
<totfact> 0.65371889E+03</totfact>
</mgrwt>
</event>
<event>
 5    1  0.1129390E+001  0.2730987E+03  0.7818608E-02  0.1099519E+00
         -2   -1    0    0    0  501 -0.00000000000E+00  0.00000000000E+00  0.58707965226E+01  0.58707965226E+01  0.00000000000E+00 0. -1.
          2   -1    0    0  501    0  0.00000000000E+00 -0.00000000000E+00 -0.31760135942E+04  0.31760135942E+04  0.00000000000E+00 0. -1.
         35    2    1    2    0    0  0.00000000000E+00  0.00000000000E+00 -0.31701427977E+04  0.31818843907E+04  0.27309873354E+03 0.  0.
         25    1    3    3    0    0 -0.39966222139E+02 -0.30435839745E+02 -0.11015756369E+04  0.11092305996E+04  0.12000000000E+03 0.  0.
         25    1    3    3    0    0  0.39966222139E+02  0.30435839745E+02 -0.20685671608E+04  0.20726537912E+04  0.12000000000E+03 0.  0.
<mgrwt>
<rscale>  0 0.27309873E+03</rscale>
<asrwt>0</asrwt>
<pdfrwt beam="1">  1        2 0.48861748E+00 0.27309873E+03</pdfrwt>
<pdfrwt beam="2">  1       -2 0.90319946E-03 0.27309873E+03</pdfrwt>
<totfact> 0.40337893E+03</totfact>
</mgrwt>
</event>
<event>
 5    1  0.1129390E+001  0.2754524E+03  0.7818608E-02  0.1098199E+00
         -2   -1    0    0    0  501 -0.00000000000E+00  0.00000000000E+00  0.86743694102E+01  0.86743694102E+01  0.00000000000E+00 0. -1.
          2   -1    0    0  501    0  0.00000000000E+00 -0.00000000000E+00 -0.21867296433E+04  0.21867296433E+04  0.00000000000E+00 0. -1.
         35    2    1    2    0    0  0.00000000000E+00  0.00000000000E+00 -0.21780552739E+04  0.21954040127E+04  0.27545236050E+03 0.  0.
         25    1    3    3    0    0  0.65717822639E+01 -0.63025820370E+02 -0.12764638236E+04  0.12836570162E+04  0.12000000000E+03 0.  0.
         25    1    3    3    0    0 -0.65717822639E+01  0.63025820370E+02 -0.90159145027E+03  0.91174699646E+03  0.12000000000E+03 0.  0.
<mgrwt>
<rscale>  0 0.27545236E+03</rscale>
<asrwt>0</asrwt>
<pdfrwt beam="1">  1        2 0.33641962E+00 0.27545236E+03</pdfrwt>
<pdfrwt beam="2">  1       -2 0.13345196E-02 0.27545236E+03</pdfrwt>
<totfact> 0.82849654E+03</totfact>
</mgrwt>
</event>
<event>
 5    1  0.1129390E+001  0.2723439E+03  0.7818608E-02  0.1099946E+00
          1   -1    0    0  501    0  0.00000000000E+00  0.00000000000E+00  0.49183847924E+03  0.49183847924E+03  0.00000000000E+00 0.  1.
         -1   -1    0    0    0  501 -0.00000000000E+00 -0.00000000000E+00 -0.37700994045E+02  0.37700994045E+02  0.00000000000E+00 0.  1.
         35    2    1    2    0    0  0.00000000000E+00  0.00000000000E+00  0.45413748519E+03  0.52953947328E+03  0.27234389714E+03 0.  0.
         25    1    3    3    0    0 -0.17250184237E+02  0.59042663920E+02  0.19021805758E+03  0.23316628068E+03  0.12000000000E+03 0.  0.
         25    1    3    3    0    0  0.17250184237E+02 -0.59042663920E+02  0.26391942761E+03  0.29637319260E+03  0.12000000000E+03 0.  0.
<mgrwt>
<rscale>  0 0.27234390E+03</rscale>
<asrwt>0</asrwt>
<pdfrwt beam="1">  1        1 0.75667454E-01 0.27234390E+03</pdfrwt>
<pdfrwt beam="2">  1       -1 0.58001533E-02 0.27234390E+03</pdfrwt>
<totfact> 0.64585490E+03</totfact>
</mgrwt>
</event>
<event>
 5    1  0.1129390E+001  0.2752146E+03  0.7818608E-02  0.1098332E+00
         -1   -1    0    0    0  501 -0.00000000000E+00  0.00000000000E+00  0.29055047103E+03  0.29055047103E+03  0.00000000000E+00 0.  1.
          1   -1    0    0  501    0  0.00000000000E+00 -0.00000000000E+00 -0.65172039079E+02  0.65172039079E+02  0.00000000000E+00 0.  1.
         35    2    1    2    0    0  0.00000000000E+00  0.00000000000E+00  0.22537843195E+03  0.35572251011E+03  0.27521458284E+03 0.  0.
         25    1    3    3    0    0  0.65038563056E+01 -0.67002291825E+02  0.11532527441E+03  0.17953140721E+03  0.12000000000E+03 0.  0.
         25    1    3    3    0    0 -0.65038563056E+01  0.67002291825E+02  0.11005315754E+03  0.17619110290E+03  0.12000000000E+03 0.  0.
<mgrwt>
<rscale>  0 0.27521458E+03</rscale>
<asrwt>0</asrwt>
<pdfrwt beam="1">  1        1 0.10026468E-01 0.27521458E+03</pdfrwt>
<pdfrwt beam="2">  1       -1 0.44700072E-01 0.27521458E+03</pdfrwt>
<totfact> 0.32157245E+03</totfact>
</mgrwt>
</event>
<event>
 5    1  0.1129390E+001  0.2754197E+03  0.7818608E-02  0.1098217E+00
         -1   -1    0    0    0  501 -0.00000000000E+00  0.00000000000E+00  0.50212590481E+01  0.50212590481E+01  0.00000000000E+00 0.  1.
          1   -1    0    0  501    0  0.00000000000E+00 -0.00000000000E+00 -0.37767436929E+04  0.37767436929E+04  0.00000000000E+00 0.  1.
         35    2    1    2    0    0  0.00000000000E+00  0.00000000000E+00 -0.37717224339E+04  0.37817649520E+04  0.27541974105E+03 0.  0.
         25    1    3    3    0    0  0.31734151678E+02  0.30731239692E+02 -0.25876900200E+04  0.25908475650E+04  0.12000000000E+03 0.  0.
         25    1    3    3    0    0 -0.31734151678E+02 -0.30731239692E+02 -0.11840324139E+04  0.11909173870E+04  0.12000000000E+03 0.  0.
<mgrwt>
<rscale>  0 0.27541974E+03</rscale>
<asrwt>0</asrwt>
<pdfrwt beam="1">  1        1 0.58103697E+00 0.27541974E+03</pdfrwt>
<pdfrwt beam="2">  1       -1 0.77250208E-03 0.27541974E+03</pdfrwt>
<totfact> 0.52232963E+02</totfact>
</mgrwt>
</event>
<event>
 5    1  0.1129390E+001  0.2751985E+03  0.7818608E-02  0.1098341E+00
         -1   -1    0    0    0  501 -0.00000000000E+00  0.00000000000E+00  0.90128290755E+01  0.90128290755E+01  0.00000000000E+00 0. -1.
          1   -1    0    0  501    0  0.00000000000E+00 -0.00000000000E+00 -0.21007338211E+04  0.21007338211E+04  0.00000000000E+00 0. -1.
         35    2    1    2    0    0  0.00000000000E+00  0.00000000000E+00 -0.20917209920E+04  0.21097466502E+04  0.27519850917E+03 0.  0.
         25    1    3    3    0    0  0.27382559738E+02  0.40907888596E+02 -0.69368769830E+03  0.70570948888E+03  0.12000000000E+03 0.  0.
         25    1    3    3    0    0 -0.27382559738E+02 -0.40907888596E+02 -0.13980332937E+04  0.14040371613E+04  0.12000000000E+03 0.  0.
<mgrwt>
<rscale>  0 0.27519851E+03</rscale>
<asrwt>0</asrwt>
<pdfrwt beam="1">  1        1 0.32318993E+00 0.27519851E+03</pdfrwt>
<pdfrwt beam="2">  1       -1 0.13865886E-02 0.27519851E+03</pdfrwt>
<totfact> 0.33955749E+03</totfact>
</mgrwt>
</event>
<event>
 5    1  0.1129390E+001  0.2741921E+03  0.7818608E-02  0.1098904E+00
         -3   -1    0    0    0  501 -0.00000000000E+00  0.00000000000E+00  0.13379923786E+02  0.13379923786E+02  0.00000000000E+00 0. -1.
          3   -1    0    0  501    0  0.00000000000E+00 -0.00000000000E+00 -0.14047408711E+04  0.14047408711E+04  0.00000000000E+00 0. -1.
         35    2    1    2    0    0  0.00000000000E+00  0.00000000000E+00 -0.13913609473E+04  0.14181207949E+04  0.27419209175E+03 0.  0.
         25    1    3    3    0    0  0.48567398637E+02  0.14767456613E+02 -0.91623180135E+03  0.92544993586E+03  0.12000000000E+03 0.  0.
         25    1    3    3    0    0 -0.48567398637E+02 -0.14767456613E+02 -0.47512914594E+03  0.49267085900E+03  0.12000000000E+03 0.  0.
<mgrwt>
<rscale>  0 0.27419209E+03</rscale>
<asrwt>0</asrwt>
<pdfrwt beam="1">  1        3 0.21611382E+00 0.27419209E+03</pdfrwt>
<pdfrwt beam="2">  1       -3 0.20584514E-02 0.27419209E+03</pdfrwt>
<totfact> 0.29699628E+02</totfact>
</mgrwt>
</event>
<event>
 5    1  0.1129390E+001  0.2750899E+03  0.7818608E-02  0.1098401E+00
          1   -1    0    0  501    0  0.00000000000E+00  0.00000000000E+00  0.88051248267E+02  0.88051248267E+02  0.00000000000E+00 0.  1.
         -1   -1    0    0    0  501 -0.00000000000E+00 -0.00000000000E+00 -0.21485914286E+03  0.21485914286E+03  0.00000000000E+00 0.  1.
         35    2    1    2    0    0  0.00000000000E+00  0.00000000000E+00 -0.12680789459E+03  0.30291039112E+03  0.27508991788E+03 0.  0.
         25    1    3    3    0    0 -0.27696702809E+02 -0.10371237157E+02 -0.12987391286E+03  0.17928163082E+03  0.12000000000E+03 0.  0.
         25    1    3    3    0    0  0.27696702809E+02  0.10371237157E+02  0.30660182717E+01  0.12362876031E+03  0.12000000000E+03 0.  0.
<mgrwt>
<rscale>  0 0.27508992E+03</rscale>
<asrwt>0</asrwt>
<pdfrwt beam="1">  1        1 0.13546346E-01 0.27508992E+03</pdfrwt>
<pdfrwt beam="2">  1       -1 0.33055253E-01 0.27508992E+03</pdfrwt>
<totfact> 0.36681814E+03</totfact>
</mgrwt>
</event>
<event>
 5    1  0.1129390E+001  0.2744390E+03  0.7818608E-02  0.1098766E+00
          1   -1    0    0  501    0  0.00000000000E+00  0.00000000000E+00  0.53093615418E+03  0.53093615418E+03  0.00000000000E+00 0.  1.
         -1   -1    0    0    0  501 -0.00000000000E+00 -0.00000000000E+00 -0.35464128204E+02  0.35464128204E+02  0.00000000000E+00 0.  1.
         35    2    1    2    0    0  0.00000000000E+00  0.00000000000E+00  0.49547202597E+03  0.56640028238E+03  0.27443897566E+03 0.  0.
         25    1    3    3    0    0  0.34345611018E+02  0.38459242713E+02  0.33457603665E+03  0.35916550314E+03  0.12000000000E+03 0.  0.
         25    1    3    3    0    0 -0.34345611018E+02 -0.38459242713E+02  0.16089598932E+03  0.20723477924E+03  0.12000000000E+03 0.  0.
<mgrwt>
<rscale>  0 0.27443898E+03</rscale>
<asrwt>0</asrwt>
<pdfrwt beam="1">  1        1 0.81682479E-01 0.27443898E+03</pdfrwt>
<pdfrwt beam="2">  1       -1 0.54560201E-02 0.27443898E+03</pdfrwt>
<totfact> 0.63953599E+03</totfact>
</mgrwt>
</event>
<event>
 5    1  0.1129390E+001  0.2780221E+03  0.7818608E-02  0.1096774E+00
          1   -1    0    0  501    0  0.00000000000E+00  0.00000000000E+00  0.20957245581E+03  0.20957245581E+03  0.00000000000E+00 0. -1.
         -1   -1    0    0    0  501 -0.00000000000E+00 -0.00000000000E+00 -0.92207110863E+02  0.92207110863E+02  0.00000000000E+00 0. -1.
         35    2    1    2    0    0  0.00000000000E+00  0.00000000000E+00  0.11736534494E+03  0.30177956667E+03  0.27802209025E+03 0.  0.
         25    1    3    3    0    0 -0.27923376610E+01  0.40596963031E+02  0.12073558763E+03  0.17502283473E+03  0.12000000000E+03 0.  0.
         25    1    3    3    0    0  0.27923376610E+01 -0.40596963031E+02 -0.33702426819E+01  0.12675673194E+03  0.12000000000E+03 0.  0.
<mgrwt>
<rscale>  0 0.27802209E+03</rscale>
<asrwt>0</asrwt>
<pdfrwt beam="1">  1        1 0.32241916E-01 0.27802209E+03</pdfrwt>
<pdfrwt beam="2">  1       -1 0.14185709E-01 0.27802209E+03</pdfrwt>
<totfact> 0.48254643E+03</totfact>
</mgrwt>
</event>
<event>
 5    1  0.1129390E+001  0.2756331E+03  0.7818608E-02  0.1098098E+00
          2   -1    0    0  501    0  0.00000000000E+00  0.00000000000E+00  0.15278588500E+04  0.15278588500E+04  0.00000000000E+00 0.  1.
         -2   -1    0    0    0  501 -0.00000000000E+00 -0.00000000000E+00 -0.12431387188E+02  0.12431387188E+02  0.00000000000E+00 0.  1.
         35    2    1    2    0    0  0.00000000000E+00  0.00000000000E+00  0.15154274628E+04  0.15402902372E+04  0.27563312524E+03 0.  0.
         25    1    3    3    0    0 -0.54644004231E+02  0.36937607050E+02  0.67059334599E+03  0.68443099703E+03  0.12000000000E+03 0.  0.
         25    1    3    3    0    0  0.54644004231E+02 -0.36937607050E+02  0.84483411679E+03  0.85585924012E+03  0.12000000000E+03 0.  0.
<mgrwt>
<rscale>  0 0.27563313E+03</rscale>
<asrwt>0</asrwt>
<pdfrwt beam="1">  1        2 0.23505506E+00 0.27563313E+03</pdfrwt>
<pdfrwt beam="2">  1       -2 0.19125223E-02 0.27563313E+03</pdfrwt>
<totfact> 0.10886270E+04</totfact>
</mgrwt>
</event>
<event>
 5    1  0.1129390E+001  0.2753007E+03  0.7818608E-02  0.1098284E+00
          2   -1    0    0  501    0  0.00000000000E+00  0.00000000000E+00  0.92351175363E+02  0.92351175363E+02  0.00000000000E+00 0.  1.
         -2   -1    0    0    0  501 -0.00000000000E+00 -0.00000000000E+00 -0.20516918735E+03  0.20516918735E+03  0.00000000000E+00 0.  1.
         35    2    1    2    0    0  0.00000000000E+00  0.00000000000E+00 -0.11281801199E+03  0.29752036272E+03  0.27530067635E+03 0.  0.
         25    1    3    3    0    0  0.84530326320E+01  0.64395851727E+02 -0.76021331778E+02  0.15619706260E+03  0.12000000000E+03 0.  0.
         25    1    3    3    0    0 -0.84530326320E+01 -0.64395851727E+02 -0.36796680212E+02  0.14132330011E+03  0.12000000000E+03 0.  0.
<mgrwt>
<rscale>  0 0.27530068E+03</rscale>
<asrwt>0</asrwt>
<pdfrwt beam="1">  1        2 0.14207873E-01 0.27530068E+03</pdfrwt>
<pdfrwt beam="2">  1       -2 0.31564490E-01 0.27530068E+03</pdfrwt>
<totfact> 0.38534252E+03</totfact>
</mgrwt>
</event>
<event>
 5    1  0.1129390E+001  0.2760944E+03  0.7818608E-02  0.1097841E+00
         -1   -1    0    0    0  501 -0.00000000000E+00  0.00000000000E+00  0.37276218099E+03  0.37276218099E+03  0.00000000000E+00 0. -1.
          1   -1    0    0  501    0  0.00000000000E+00 -0.00000000000E+00 -0.51123841215E+02  0.51123841215E+02  0.00000000000E+00 0. -1.
         35    2    1    2    0    0  0.00000000000E+00  0.00000000000E+00  0.32163833978E+03  0.42388602220E+03  0.27609443712E+03 0.  0.
         25    1    3    3    0    0  0.19315448082E+02  0.64939995207E+02  0.17336215589E+03  0.22146044027E+03  0.12000000000E+03 0.  0.
         25    1    3    3    0    0 -0.19315448082E+02 -0.64939995207E+02  0.14827618389E+03  0.20242558193E+03  0.12000000000E+03 0.  0.
<mgrwt>
<rscale>  0 0.27609444E+03</rscale>
<asrwt>0</asrwt>
<pdfrwt beam="1">  1        1 0.78652066E-02 0.27609444E+03</pdfrwt>
<pdfrwt beam="2">  1       -1 0.57348026E-01 0.27609444E+03</pdfrwt>
<totfact> 0.28134040E+03</totfact>
</mgrwt>
</event>
<event>
 5    1  0.1129390E+001  0.2750248E+03  0.7818608E-02  0.1098438E+00
          1   -1    0    0  501    0  0.00000000000E+00  0.00000000000E+00  0.21006248936E+04  0.21006248936E+04  0.00000000000E+00 0. -1.
         -1   -1    0    0    0  501 -0.00000000000E+00 -0.00000000000E+00 -0.90019230492E+01  0.90019230492E+01  0.00000000000E+00 0. -1.
         35    2    1    2    0    0  0.00000000000E+00  0.00000000000E+00  0.20916229705E+04  0.21096268166E+04  0.27502482541E+03 0.  0.
         25    1    3    3    0    0  0.59842766139E+02 -0.29872466920E+02  0.10919266842E+04  0.11005350538E+04  0.12000000000E+03 0.  0.
         25    1    3    3    0    0 -0.59842766139E+02  0.29872466920E+02  0.99969628634E+03  0.10090917628E+04  0.12000000000E+03 0.  0.
<mgrwt>
<rscale>  0 0.27502483E+03</rscale>
<asrwt>0</asrwt>
<pdfrwt beam="1">  1        1 0.32317267E+00 0.27502483E+03</pdfrwt>
<pdfrwt beam="2">  1       -1 0.13849129E-02 0.27502483E+03</pdfrwt>
<totfact> 0.34021362E+03</totfact>
</mgrwt>
</event>
<event>
 5    1  0.1129390E+001  0.2755049E+03  0.7818608E-02  0.1098170E+00
         -1   -1    0    0    0  501 -0.00000000000E+00  0.00000000000E+00  0.23753797148E+04  0.23753797148E+04  0.00000000000E+00 0. -1.
          1   -1    0    0  501    0  0.00000000000E+00 -0.00000000000E+00 -0.79885073252E+01  0.79885073252E+01  0.00000000000E+00 0. -1.
         35    2    1    2    0    0  0.00000000000E+00  0.00000000000E+00  0.23673912075E+04  0.23833682222E+04  0.27550490560E+03 0.  0.
         25    1    3    3    0    0  0.43272518343E+02  0.50581872940E+02  0.10796321148E+04  0.10883182164E+04  0.12000000000E+03 0.  0.
         25    1    3    3    0    0 -0.43272518343E+02 -0.50581872940E+02  0.12877590927E+04  0.12950500058E+04  0.12000000000E+03 0.  0.
<mgrwt>
<rscale>  0 0.27550491E+03</rscale>
<asrwt>0</asrwt>
<pdfrwt beam="1">  1        1 0.12290030E-02 0.27550491E+03</pdfrwt>
<pdfrwt beam="2">  1       -1 0.36544247E+00 0.27550491E+03</pdfrwt>
<totfact> 0.17916799E+02</totfact>
</mgrwt>
</event>
<event>
 5    1  0.1129390E+001  0.2745301E+03  0.7818608E-02  0.1098715E+00
         -2   -1    0    0    0  501 -0.00000000000E+00  0.00000000000E+00  0.74450809465E+01  0.74450809465E+01  0.00000000000E+00 0.  1.
          2   -1    0    0  501    0  0.00000000000E+00 -0.00000000000E+00 -0.25307582024E+04  0.25307582024E+04  0.00000000000E+00 0.  1.
         35    2    1    2    0    0  0.00000000000E+00  0.00000000000E+00 -0.25233131214E+04  0.25382032833E+04  0.27453014168E+03 0.  0.
         25    1    3    3    0    0  0.42327201026E+02 -0.96926667022E+01 -0.17291014107E+04  0.17338042647E+04  0.12000000000E+03 0.  0.
         25    1    3    3    0    0 -0.42327201026E+02  0.96926667022E+01 -0.79421171073E+03  0.80439901864E+03  0.12000000000E+03 0.  0.
<mgrwt>
<rscale>  0 0.27453014E+03</rscale>
<asrwt>0</asrwt>
<pdfrwt beam="1">  1        2 0.38934755E+00 0.27453014E+03</pdfrwt>
<pdfrwt beam="2">  1       -2 0.11453967E-02 0.27453014E+03</pdfrwt>
<totfact> 0.67499159E+03</totfact>
</mgrwt>
</event>
<event>
 5    1  0.1129390E+001  0.2747868E+03  0.7818608E-02  0.1098571E+00
         -2   -1    0    0    0  501 -0.00000000000E+00  0.00000000000E+00  0.71143392816E+01  0.71143392816E+01  0.00000000000E+00 0.  1.
          2   -1    0    0  501    0  0.00000000000E+00 -0.00000000000E+00 -0.26533662697E+04  0.26533662697E+04  0.00000000000E+00 0.  1.
         35    2    1    2    0    0  0.00000000000E+00  0.00000000000E+00 -0.26462519304E+04  0.26604806089E+04  0.27478681104E+03 0.  0.
         25    1    3    3    0    0  0.16094191024E+02 -0.60803360137E+01 -0.69708618565E+03  0.70754868645E+03  0.12000000000E+03 0.  0.
         25    1    3    3    0    0 -0.16094191024E+02  0.60803360137E+01 -0.19491657447E+04  0.19529319225E+04  0.12000000000E+03 0.  0.
<mgrwt>
<rscale>  0 0.27478681E+03</rscale>
<asrwt>0</asrwt>
<pdfrwt beam="1">  1        2 0.40821046E+00 0.27478681E+03</pdfrwt>
<pdfrwt beam="2">  1       -2 0.10945130E-02 0.27478681E+03</pdfrwt>
<totfact> 0.61660658E+03</totfact>
</mgrwt>
</event>
<event>
 5    1  0.1129390E+001  0.2725737E+03  0.7818608E-02  0.1099816E+00
          2   -1    0    0  501    0  0.00000000000E+00  0.00000000000E+00  0.19705292487E+04  0.19705292487E+04  0.00000000000E+00 0. -1.
         -2   -1    0    0    0  501 -0.00000000000E+00 -0.00000000000E+00 -0.94259461245E+01  0.94259461245E+01  0.00000000000E+00 0. -1.
         35    2    1    2    0    0  0.00000000000E+00  0.00000000000E+00  0.19611033026E+04  0.19799551948E+04  0.27257367837E+03 0.  0.
         25    1    3    3    0    0 -0.42159179951E+02 -0.34620574065E+02  0.72911883688E+03  0.74093876865E+03  0.12000000000E+03 0.  0.
         25    1    3    3    0    0  0.42159179951E+02  0.34620574065E+02  0.12319844657E+04  0.12390164262E+04  0.12000000000E+03 0.  0.
<mgrwt>
<rscale>  0 0.27257368E+03</rscale>
<asrwt>0</asrwt>
<pdfrwt beam="1">  1        2 0.30315802E+00 0.27257368E+03</pdfrwt>
<pdfrwt beam="2">  1       -2 0.14501471E-02 0.27257368E+03</pdfrwt>
<totfact> 0.95435534E+03</totfact>
</mgrwt>
</event>
<event>
 5    1  0.1129390E+001  0.2747815E+03  0.7818608E-02  0.1098574E+00
          2   -1    0    0  501    0  0.00000000000E+00  0.00000000000E+00  0.47515290989E+03  0.47515290989E+03  0.00000000000E+00 0.  1.
         -2   -1    0    0    0  501 -0.00000000000E+00 -0.00000000000E+00 -0.39726628485E+02  0.39726628485E+02  0.00000000000E+00 0.  1.
         35    2    1    2    0    0  0.00000000000E+00  0.00000000000E+00  0.43542628141E+03  0.51487953838E+03  0.27478153595E+03 0.  0.
         25    1    3    3    0    0 -0.56507459976E+02  0.31194792353E+02  0.18472107902E+03  0.22953885322E+03  0.12000000000E+03 0.  0.
         25    1    3    3    0    0  0.56507459976E+02 -0.31194792353E+02  0.25070520238E+03  0.28534068516E+03  0.12000000000E+03 0.  0.
<mgrwt>
<rscale>  0 0.27478154E+03</rscale>
<asrwt>0</asrwt>
<pdfrwt beam="1">  1        2 0.73100444E-01 0.27478154E+03</pdfrwt>
<pdfrwt beam="2">  1       -2 0.61117893E-02 0.27478154E+03</pdfrwt>
<totfact> 0.94272170E+03</totfact>
</mgrwt>
</event>
<event>
 5    1  0.1129390E+001  0.2751931E+03  0.7818608E-02  0.1098344E+00
          2   -1    0    0  501    0  0.00000000000E+00  0.00000000000E+00  0.12769812749E+04  0.12769812749E+04  0.00000000000E+00 0.  1.
         -2   -1    0    0    0  501 -0.00000000000E+00 -0.00000000000E+00 -0.14826224531E+02  0.14826224531E+02  0.00000000000E+00 0.  1.
         35    2    1    2    0    0  0.00000000000E+00  0.00000000000E+00  0.12621550504E+04  0.12918074995E+04  0.27519310386E+03 0.  0.
         25    1    3    3    0    0  0.87477675384E+00  0.55866387421E+02  0.80740607142E+03  0.81818480959E+03  0.12000000000E+03 0.  0.
         25    1    3    3    0    0 -0.87477675384E+00 -0.55866387421E+02  0.45474897899E+03  0.47362268988E+03  0.12000000000E+03 0.  0.
<mgrwt>
<rscale>  0 0.27519310E+03</rscale>
<asrwt>0</asrwt>
<pdfrwt beam="1">  1        2 0.19645857E+00 0.27519310E+03</pdfrwt>
<pdfrwt beam="2">  1       -2 0.22809586E-02 0.27519310E+03</pdfrwt>
<totfact> 0.11496224E+04</totfact>
</mgrwt>
</event>
<event>
 5    1  0.1129390E+001  0.2743219E+03  0.7818608E-02  0.1098831E+00
         -1   -1    0    0    0  501 -0.00000000000E+00  0.00000000000E+00  0.22869272314E+03  0.22869272314E+03  0.00000000000E+00 0. -1.
          1   -1    0    0  501    0  0.00000000000E+00 -0.00000000000E+00 -0.82263800120E+02  0.82263800120E+02  0.00000000000E+00 0. -1.
         35    2    1    2    0    0  0.00000000000E+00  0.00000000000E+00  0.14642892301E+03  0.31095652326E+03  0.27432194564E+03 0.  0.
         25    1    3    3    0    0 -0.38068959607E+02 -0.51480203472E+02  0.93290562442E+02  0.16493206503E+03  0.12000000000E+03 0.  0.
         25    1    3    3    0    0  0.38068959607E+02  0.51480203472E+02  0.53138360572E+02  0.14602445822E+03  0.12000000000E+03 0.  0.
<mgrwt>
<rscale>  0 0.27432195E+03</rscale>
<asrwt>0</asrwt>
<pdfrwt beam="1">  1        1 0.12655969E-01 0.27432195E+03</pdfrwt>
<pdfrwt beam="2">  1       -1 0.35183496E-01 0.27432195E+03</pdfrwt>
<totfact> 0.36022089E+03</totfact>
</mgrwt>
</event>
<event>
 5    1  0.1129390E+001  0.2736708E+03  0.7818608E-02  0.1099197E+00
          2   -1    0    0  501    0  0.00000000000E+00  0.00000000000E+00  0.65363030761E+03  0.65363030761E+03  0.00000000000E+00 0. -1.
         -2   -1    0    0    0  501 -0.00000000000E+00 -0.00000000000E+00 -0.28646058551E+02  0.28646058551E+02  0.00000000000E+00 0. -1.
         35    2    1    2    0    0  0.00000000000E+00  0.00000000000E+00  0.62498424906E+03  0.68227636616E+03  0.27367083924E+03 0.  0.
         25    1    3    3    0    0 -0.35681291475E+02  0.25448137730E+02  0.43470698925E+03  0.45309042009E+03  0.12000000000E+03 0.  0.
         25    1    3    3    0    0  0.35681291475E+02 -0.25448137730E+02  0.19027725981E+03  0.22918594607E+03  0.12000000000E+03 0.  0.
<mgrwt>
<rscale>  0 0.27367084E+03</rscale>
<asrwt>0</asrwt>
<pdfrwt beam="1">  1        2 0.10055850E+00 0.27367084E+03</pdfrwt>
<pdfrwt beam="2">  1       -2 0.44070864E-02 0.27367084E+03</pdfrwt>
<totfact> 0.10766449E+04</totfact>
</mgrwt>
</event>
<event>
 5    1  0.1129390E+001  0.2752269E+03  0.7818608E-02  0.1098325E+00
          1   -1    0    0  501    0  0.00000000000E+00  0.00000000000E+00  0.18241237621E+03  0.18241237621E+03  0.00000000000E+00 0.  1.
         -1   -1    0    0    0  501 -0.00000000000E+00 -0.00000000000E+00 -0.10381674737E+03  0.10381674737E+03  0.00000000000E+00 0.  1.
         35    2    1    2    0    0  0.00000000000E+00  0.00000000000E+00  0.78595628836E+02  0.28622912357E+03  0.27522688515E+03 0.  0.
         25    1    3    3    0    0  0.32743702440E+02 -0.55198748632E+02  0.18025105961E+02  0.13727329072E+03  0.12000000000E+03 0.  0.
         25    1    3    3    0    0 -0.32743702440E+02  0.55198748632E+02  0.60570522876E+02  0.14895583285E+03  0.12000000000E+03 0.  0.
<mgrwt>
<rscale>  0 0.27522689E+03</rscale>
<asrwt>0</asrwt>
<pdfrwt beam="1">  1        1 0.28063442E-01 0.27522689E+03</pdfrwt>
<pdfrwt beam="2">  1       -1 0.15971807E-01 0.27522689E+03</pdfrwt>
<totfact> 0.47612129E+03</totfact>
</mgrwt>
</event>
<event>
 5    1  0.1129390E+001  0.2755591E+03  0.7818608E-02  0.1098139E+00
         -2   -1    0    0    0  501 -0.00000000000E+00  0.00000000000E+00  0.14883550511E+02  0.14883550511E+02  0.00000000000E+00 0. -1.
          2   -1    0    0  501    0  0.00000000000E+00 -0.00000000000E+00 -0.12754490048E+04  0.12754490048E+04  0.00000000000E+00 0. -1.
         35    2    1    2    0    0  0.00000000000E+00  0.00000000000E+00 -0.12605654543E+04  0.12903325554E+04  0.27555913840E+03 0.  0.
         25    1    3    3    0    0  0.38082017797E+02  0.55529595390E+02 -0.59735982191E+03  0.61300288162E+03  0.12000000000E+03 0.  0.
         25    1    3    3    0    0 -0.38082017797E+02 -0.55529595390E+02 -0.66320563243E+03  0.67732967374E+03  0.12000000000E+03 0.  0.
<mgrwt>
<rscale>  0 0.27555914E+03</rscale>
<asrwt>0</asrwt>
<pdfrwt beam="1">  1        2 0.19622285E+00 0.27555914E+03</pdfrwt>
<pdfrwt beam="2">  1       -2 0.22897779E-02 0.27555914E+03</pdfrwt>
<totfact> 0.11453788E+04</totfact>
</mgrwt>
</event>
<event>
 5    1  0.1129390E+001  0.2751650E+03  0.7818608E-02  0.1098359E+00
          1   -1    0    0  501    0  0.00000000000E+00  0.00000000000E+00  0.56417203319E+03  0.56417203319E+03  0.00000000000E+00 0.  1.
         -1   -1    0    0    0  501 -0.00000000000E+00 -0.00000000000E+00 -0.33551733437E+02  0.33551733437E+02  0.00000000000E+00 0.  1.
         35    2    1    2    0    0  0.00000000000E+00  0.00000000000E+00  0.53062029975E+03  0.59772376663E+03  0.27516503899E+03 0.  0.
         25    1    3    3    0    0 -0.61352928646E+02  0.14862728212E+02  0.31596880727E+03  0.34383334583E+03  0.12000000000E+03 0.  0.
         25    1    3    3    0    0  0.61352928646E+02 -0.14862728212E+02  0.21465149249E+03  0.25389042079E+03  0.12000000000E+03 0.  0.
<mgrwt>
<rscale>  0 0.27516504E+03</rscale>
<asrwt>0</asrwt>
<pdfrwt beam="1">  1        1 0.86795691E-01 0.27516504E+03</pdfrwt>
<pdfrwt beam="2">  1       -1 0.51618055E-02 0.27516504E+03</pdfrwt>
<totfact> 0.64015986E+03</totfact>
</mgrwt>
</event>
<event>
 5    1  0.1129390E+001  0.2728752E+03  0.7818608E-02  0.1099645E+00
         -2   -1    0    0    0  501 -0.00000000000E+00  0.00000000000E+00  0.22897141742E+02  0.22897141742E+02  0.00000000000E+00 0.  1.
          2   -1    0    0  501    0  0.00000000000E+00 -0.00000000000E+00 -0.81299309784E+03  0.81299309784E+03  0.00000000000E+00 0.  1.
         35    2    1    2    0    0  0.00000000000E+00  0.00000000000E+00 -0.79009595610E+03  0.83589023958E+03  0.27287519636E+03 0.  0.
         25    1    3    3    0    0 -0.50668777224E+02 -0.43522404130E+00 -0.51939195785E+03  0.53547690920E+03  0.12000000000E+03 0.  0.
         25    1    3    3    0    0  0.50668777224E+02  0.43522404130E+00 -0.27070399825E+03  0.30041333039E+03  0.12000000000E+03 0.  0.
<mgrwt>
<rscale>  0 0.27287520E+03</rscale>
<asrwt>0</asrwt>
<pdfrwt beam="1">  1        2 0.12507585E+00 0.27287520E+03</pdfrwt>
<pdfrwt beam="2">  1       -2 0.35226376E-02 0.27287520E+03</pdfrwt>
<totfact> 0.11523677E+04</totfact>
</mgrwt>
</event>
<event>
 5    1  0.1129390E+001  0.2736935E+03  0.7818608E-02  0.1099184E+00
         -1   -1    0    0    0  501 -0.00000000000E+00  0.00000000000E+00  0.84989316932E+01  0.84989316932E+01  0.00000000000E+00 0.  1.
          1   -1    0    0  501    0  0.00000000000E+00 -0.00000000000E+00 -0.22034579724E+04  0.22034579724E+04  0.00000000000E+00 0.  1.
         35    2    1    2    0    0  0.00000000000E+00  0.00000000000E+00 -0.21949590408E+04  0.22119569041E+04  0.27369354246E+03 0.  0.
         25    1    3    3    0    0  0.49677735019E+02 -0.16513542272E+02 -0.77557485513E+03  0.78654747495E+03  0.12000000000E+03 0.  0.
         25    1    3    3    0    0 -0.49677735019E+02  0.16513542272E+02 -0.14193841856E+04  0.14254094292E+04  0.12000000000E+03 0.  0.
<mgrwt>
<rscale>  0 0.27369354E+03</rscale>
<asrwt>0</asrwt>
<pdfrwt beam="1">  1        1 0.33899377E+00 0.27369354E+03</pdfrwt>
<pdfrwt beam="2">  1       -1 0.13075271E-02 0.27369354E+03</pdfrwt>
<totfact> 0.31697184E+03</totfact>
</mgrwt>
</event>
<event>
 5    1  0.1129390E+001  0.2751896E+03  0.7818608E-02  0.1098346E+00
         -1   -1    0    0    0  501 -0.00000000000E+00  0.00000000000E+00  0.96670673888E+01  0.96670673888E+01  0.00000000000E+00 0.  1.
          1   -1    0    0  501    0  0.00000000000E+00 -0.00000000000E+00 -0.19584357140E+04  0.19584357140E+04  0.00000000000E+00 0.  1.
         35    2    1    2    0    0  0.00000000000E+00  0.00000000000E+00 -0.19487686466E+04  0.19681027814E+04  0.27518960753E+03 0.  0.
         25    1    3    3    0    0 -0.56712765596E+02 -0.31847336974E+02 -0.85015282138E+03  0.86104030705E+03  0.12000000000E+03 0.  0.
         25    1    3    3    0    0  0.56712765596E+02  0.31847336974E+02 -0.10986158252E+04  0.11070624743E+04  0.12000000000E+03 0.  0.
<mgrwt>
<rscale>  0 0.27518961E+03</rscale>
<asrwt>0</asrwt>
<pdfrwt beam="1">  1        1 0.30129768E+00 0.27518961E+03</pdfrwt>
<pdfrwt beam="2">  1       -1 0.14872417E-02 0.27518961E+03</pdfrwt>
<totfact> 0.37940303E+03</totfact>
</mgrwt>
</event>
<event>
 5    1  0.1129390E+001  0.2748753E+03  0.7818608E-02  0.1098521E+00
          2   -1    0    0  501    0  0.00000000000E+00  0.00000000000E+00  0.41817537154E+03  0.41817537154E+03  0.00000000000E+00 0. -1.
         -2   -1    0    0    0  501 -0.00000000000E+00 -0.00000000000E+00 -0.45170289449E+02  0.45170289449E+02  0.00000000000E+00 0. -1.
         35    2    1    2    0    0  0.00000000000E+00  0.00000000000E+00  0.37300508209E+03  0.46334566098E+03  0.27487526315E+03 0.  0.
         25    1    3    3    0    0  0.64237850774E+01  0.54243868748E+02  0.12109900854E+03  0.17902131767E+03  0.12000000000E+03 0.  0.
         25    1    3    3    0    0 -0.64237850774E+01 -0.54243868748E+02  0.25190607354E+03  0.28432434331E+03  0.12000000000E+03 0.  0.
<mgrwt>
<rscale>  0 0.27487526E+03</rscale>
<asrwt>0</asrwt>
<pdfrwt beam="1">  1        2 0.64334670E-01 0.27487526E+03</pdfrwt>
<pdfrwt beam="2">  1       -2 0.69492756E-02 0.27487526E+03</pdfrwt>
<totfact> 0.89006720E+03</totfact>
</mgrwt>
</event>
<event>
 5    1  0.1129390E+001  0.2740165E+03  0.7818608E-02  0.1099003E+00
          2   -1    0    0  501    0  0.00000000000E+00  0.00000000000E+00  0.95943421402E+01  0.95943421402E+01  0.00000000000E+00 0.  1.
         -2   -1    0    0    0  501 -0.00000000000E+00 -0.00000000000E+00 -0.19564926171E+04  0.19564926171E+04  0.00000000000E+00 0.  1.
         35    2    1    2    0    0  0.00000000000E+00  0.00000000000E+00 -0.19468982749E+04  0.19660869592E+04  0.27401649266E+03 0.  0.
         25    1    3    3    0    0  0.47426113431E+02 -0.36497862297E+02 -0.11751093180E+04  0.11827354901E+04  0.12000000000E+03 0.  0.
         25    1    3    3    0    0 -0.47426113431E+02  0.36497862297E+02 -0.77178895693E+03  0.78335146915E+03  0.12000000000E+03 0.  0.
<mgrwt>
<rscale>  0 0.27401649E+03</rscale>
<asrwt>0</asrwt>
<pdfrwt beam="1">  1        2 0.14760511E-02 0.27401649E+03</pdfrwt>
<pdfrwt beam="2">  1       -2 0.30099918E+00 0.27401649E+03</pdfrwt>
<totfact> 0.30184603E+02</totfact>
</mgrwt>
</event>
<event>
 5    1  0.1129390E+001  0.2745275E+03  0.7818608E-02  0.1098716E+00
          1   -1    0    0  501    0  0.00000000000E+00  0.00000000000E+00  0.25956872394E+03  0.25956872394E+03  0.00000000000E+00 0. -1.
         -1   -1    0    0    0  501 -0.00000000000E+00 -0.00000000000E+00 -0.72587095429E+02  0.72587095429E+02  0.00000000000E+00 0. -1.
         35    2    1    2    0    0  0.00000000000E+00  0.00000000000E+00  0.18698162851E+03  0.33215581937E+03  0.27452751946E+03 0.  0.
         25    1    3    3    0    0 -0.53211744182E+02  0.40000177768E+02  0.89696260464E+02  0.16394182835E+03  0.12000000000E+03 0.  0.
         25    1    3    3    0    0  0.53211744182E+02 -0.40000177768E+02  0.97285368050E+02  0.16821399103E+03  0.12000000000E+03 0.  0.
<mgrwt>
<rscale>  0 0.27452752E+03</rscale>
<asrwt>0</asrwt>
<pdfrwt beam="1">  1        1 0.39933649E-01 0.27452752E+03</pdfrwt>
<pdfrwt beam="2">  1       -1 0.11167246E-01 0.27452752E+03</pdfrwt>
<totfact> 0.53636645E+03</totfact>
</mgrwt>
</event>
<event>
 5    1  0.1129390E+001  0.2749501E+03  0.7818608E-02  0.1098479E+00
         -3   -1    0    0    0  501 -0.00000000000E+00  0.00000000000E+00  0.70505498862E+03  0.70505498862E+03  0.00000000000E+00 0.  1.
          3   -1    0    0  501    0  0.00000000000E+00 -0.00000000000E+00 -0.26805561785E+02  0.26805561785E+02  0.00000000000E+00 0.  1.
         35    2    1    2    0    0  0.00000000000E+00  0.00000000000E+00  0.67824942684E+03  0.73186055041E+03  0.27495014137E+03 0.  0.
         25    1    3    3    0    0 -0.70436548342E+01  0.43710485783E+02  0.20499631367E+03  0.24162720926E+03  0.12000000000E+03 0.  0.
         25    1    3    3    0    0  0.70436548342E+01 -0.43710485783E+02  0.47325311317E+03  0.49023334114E+03  0.12000000000E+03 0.  0.
<mgrwt>
<rscale>  0 0.27495014E+03</rscale>
<asrwt>0</asrwt>
<pdfrwt beam="1">  1        3 0.41239331E-02 0.27495014E+03</pdfrwt>
<pdfrwt beam="2">  1       -3 0.10846998E+00 0.27495014E+03</pdfrwt>
<totfact> 0.58856638E+02</totfact>
</mgrwt>
</event>
<event>
 5    1  0.1129390E+001  0.2751535E+03  0.7818608E-02  0.1098366E+00
         -4   -1    0    0    0  501 -0.00000000000E+00  0.00000000000E+00  0.17360877584E+02  0.17360877584E+02  0.00000000000E+00 0. -1.
          4   -1    0    0  501    0  0.00000000000E+00 -0.00000000000E+00 -0.10902305107E+04  0.10902305107E+04  0.00000000000E+00 0. -1.
         35    2    1    2    0    0  0.00000000000E+00  0.00000000000E+00 -0.10728696331E+04  0.11075913882E+04  0.27515347306E+03 0.  0.
         25    1    3    3    0    0  0.29952926525E+02 -0.48197477820E+02 -0.68197164046E+03  0.69477010087E+03  0.12000000000E+03 0.  0.
         25    1    3    3    0    0 -0.29952926525E+02  0.48197477820E+02 -0.39089799262E+03  0.41282128737E+03  0.12000000000E+03 0.  0.
<mgrwt>
<rscale>  0 0.27515347E+03</rscale>
<asrwt>0</asrwt>
<pdfrwt beam="1">  1        4 0.16772777E+00 0.27515347E+03</pdfrwt>
<pdfrwt beam="2">  1       -4 0.26709043E-02 0.27515347E+03</pdfrwt>
<totfact> 0.28537783E+02</totfact>
</mgrwt>
</event>
<event>
 5    1  0.1129390E+001  0.2753992E+03  0.7818608E-02  0.1098229E+00
          2   -1    0    0  501    0  0.00000000000E+00  0.00000000000E+00  0.58178082330E+03  0.58178082330E+03  0.00000000000E+00 0. -1.
         -2   -1    0    0    0  501 -0.00000000000E+00 -0.00000000000E+00 -0.32591613907E+02  0.32591613907E+02  0.00000000000E+00 0. -1.
         35    2    1    2    0    0  0.00000000000E+00  0.00000000000E+00  0.54918920939E+03  0.61437243721E+03  0.27539917191E+03 0.  0.
         25    1    3    3    0    0 -0.53994016177E+02  0.39224562922E+02  0.25149100812E+03  0.28653385016E+03  0.12000000000E+03 0.  0.
         25    1    3    3    0    0  0.53994016177E+02 -0.39224562922E+02  0.29769820127E+03  0.32783858705E+03  0.12000000000E+03 0.  0.
<mgrwt>
<rscale>  0 0.27539917E+03</rscale>
<asrwt>0</asrwt>
<pdfrwt beam="1">  1        2 0.89504734E-01 0.27539917E+03</pdfrwt>
<pdfrwt beam="2">  1       -2 0.50140949E-02 0.27539917E+03</pdfrwt>
<totfact> 0.10149202E+04</totfact>
</mgrwt>
</event>
<event>
 5    1  0.1129390E+001  0.2748126E+03  0.7818608E-02  0.1098556E+00
         -2   -1    0    0    0  501 -0.00000000000E+00  0.00000000000E+00  0.68545066388E+01  0.68545066388E+01  0.00000000000E+00 0. -1.
          2   -1    0    0  501    0  0.00000000000E+00 -0.00000000000E+00 -0.27544639375E+04  0.27544639375E+04  0.00000000000E+00 0. -1.
         35    2    1    2    0    0  0.00000000000E+00  0.00000000000E+00 -0.27476094308E+04  0.27613184441E+04  0.27481260048E+03 0.  0.
         25    1    3    3    0    0  0.29298606386E+02 -0.22699926645E+02 -0.81374253812E+03  0.82337756427E+03  0.12000000000E+03 0.  0.
         25    1    3    3    0    0 -0.29298606386E+02  0.22699926645E+02 -0.19338668927E+04  0.19379408798E+04  0.12000000000E+03 0.  0.
<mgrwt>
<rscale>  0 0.27481260E+03</rscale>
<asrwt>0</asrwt>
<pdfrwt beam="1">  1        2 0.42376346E+00 0.27481260E+03</pdfrwt>
<pdfrwt beam="2">  1       -2 0.10545400E-02 0.27481260E+03</pdfrwt>
<totfact> 0.57085448E+03</totfact>
</mgrwt>
</event>
<event>
 5    1  0.1129390E+001  0.2753331E+03  0.7818608E-02  0.1098266E+00
         -1   -1    0    0    0  501 -0.00000000000E+00  0.00000000000E+00  0.21221559383E+04  0.21221559383E+04  0.00000000000E+00 0.  1.
          1   -1    0    0  501    0  0.00000000000E+00 -0.00000000000E+00 -0.89305795055E+01  0.89305795055E+01  0.00000000000E+00 0.  1.
         35    2    1    2    0    0  0.00000000000E+00  0.00000000000E+00  0.21132253588E+04  0.21310865178E+04  0.27533312427E+03 0.  0.
         25    1    3    3    0    0 -0.15523136338E+02  0.40437083192E+02  0.65622364618E+03  0.66850998441E+03  0.12000000000E+03 0.  0.
         25    1    3    3    0    0  0.15523136338E+02 -0.40437083192E+02  0.14570017126E+04  0.14625765334E+04  0.12000000000E+03 0.  0.
<mgrwt>
<rscale>  0 0.27533312E+03</rscale>
<asrwt>0</asrwt>
<pdfrwt beam="1">  1        1 0.13739370E-02 0.27533312E+03</pdfrwt>
<pdfrwt beam="2">  1       -1 0.32648513E+00 0.27533312E+03</pdfrwt>
<totfact> 0.27144403E+02</totfact>
</mgrwt>
</event>
<event>
 5    1  0.1129390E+001  0.2778421E+03  0.7818608E-02  0.1096873E+00
         -1   -1    0    0    0  501 -0.00000000000E+00  0.00000000000E+00  0.19956669254E+02  0.19956669254E+02  0.00000000000E+00 0. -1.
          1   -1    0    0  501    0  0.00000000000E+00 -0.00000000000E+00 -0.96704778552E+03  0.96704778552E+03  0.00000000000E+00 0. -1.
         35    2    1    2    0    0  0.00000000000E+00  0.00000000000E+00 -0.94709111626E+03  0.98700445477E+03  0.27784206167E+03 0.  0.
         25    1    3    3    0    0  0.38110363394E+02  0.40660879683E+02 -0.32310908304E+03  0.34914923239E+03  0.12000000000E+03 0.  0.
         25    1    3    3    0    0 -0.38110363394E+02 -0.40660879683E+02 -0.62398203322E+03  0.63785522238E+03  0.12000000000E+03 0.  0.
<mgrwt>
<rscale>  0 0.27784206E+03</rscale>
<asrwt>0</asrwt>
<pdfrwt beam="1">  1        1 0.14877658E+00 0.27784206E+03</pdfrwt>
<pdfrwt beam="2">  1       -1 0.30702568E-02 0.27784206E+03</pdfrwt>
<totfact> 0.61705449E+03</totfact>
</mgrwt>
</event>
<event>
 5    1  0.1129390E+001  0.2749965E+03  0.7818608E-02  0.1098454E+00
         -3   -1    0    0    0  501 -0.00000000000E+00  0.00000000000E+00  0.25483026269E+03  0.25483026269E+03  0.00000000000E+00 0. -1.
          3   -1    0    0  501    0  0.00000000000E+00 -0.00000000000E+00 -0.74189661297E+02  0.74189661297E+02  0.00000000000E+00 0. -1.
         35    2    1    2    0    0  0.00000000000E+00  0.00000000000E+00  0.18064060139E+03  0.32901992399E+03  0.27499651545E+03 0.  0.
         25    1    3    3    0    0 -0.42049155939E+02 -0.41843767129E+02  0.52736902372E+02  0.14387568674E+03  0.12000000000E+03 0.  0.
         25    1    3    3    0    0  0.42049155939E+02  0.41843767129E+02  0.12790369902E+03  0.18514423725E+03  0.12000000000E+03 0.  0.
<mgrwt>
<rscale>  0 0.27499652E+03</rscale>
<asrwt>0</asrwt>
<pdfrwt beam="1">  1        3 0.11413794E-01 0.27499652E+03</pdfrwt>
<pdfrwt beam="2">  1       -3 0.39204655E-01 0.27499652E+03</pdfrwt>
<totfact> 0.97069627E+02</totfact>
</mgrwt>
</event>
<event>
 5    1  0.1129390E+001  0.2706958E+03  0.7818608E-02  0.1100882E+00
         -1   -1    0    0    0  501 -0.00000000000E+00  0.00000000000E+00  0.21382459789E+03  0.21382459789E+03  0.00000000000E+00 0. -1.
          1   -1    0    0  501    0  0.00000000000E+00 -0.00000000000E+00 -0.85673298434E+02  0.85673298434E+02  0.00000000000E+00 0. -1.
         35    2    1    2    0    0  0.00000000000E+00  0.00000000000E+00  0.12815129946E+03  0.29949789633E+03  0.27069583364E+03 0.  0.
         25    1    3    3    0    0 -0.14127059559E+02  0.49716013040E+02  0.24992893235E+02  0.13302593911E+03  0.12000000000E+03 0.  0.
         25    1    3    3    0    0  0.14127059559E+02 -0.49716013040E+02  0.10315840623E+03  0.16647195722E+03  0.12000000000E+03 0.  0.
<mgrwt>
<rscale>  0 0.27069583E+03</rscale>
<asrwt>0</asrwt>
<pdfrwt beam="1">  1        1 0.13180508E-01 0.27069583E+03</pdfrwt>
<pdfrwt beam="2">  1       -1 0.32896092E-01 0.27069583E+03</pdfrwt>
<totfact> 0.38332420E+03</totfact>
</mgrwt>
</event>
<event>
 5    1  0.1129390E+001  0.2750270E+03  0.7818608E-02  0.1098437E+00
          3   -1    0    0  501    0  0.00000000000E+00  0.00000000000E+00  0.18695771835E+03  0.18695771835E+03  0.00000000000E+00 0.  1.
         -3   -1    0    0    0  501 -0.00000000000E+00 -0.00000000000E+00 -0.10114563576E+03  0.10114563576E+03  0.00000000000E+00 0.  1.
         35    2    1    2    0    0  0.00000000000E+00  0.00000000000E+00  0.85812082597E+02  0.28810335411E+03  0.27502696073E+03 0.  0.
         25    1    3    3    0    0  0.38870611829E+02  0.40817151757E+02  0.81152124862E+02  0.15544333923E+03  0.12000000000E+03 0.  0.
         25    1    3    3    0    0 -0.38870611829E+02 -0.40817151757E+02  0.46599577352E+01  0.13266001488E+03  0.12000000000E+03 0.  0.
<mgrwt>
<rscale>  0 0.27502696E+03</rscale>
<asrwt>0</asrwt>
<pdfrwt beam="1">  1        3 0.28762726E-01 0.27502696E+03</pdfrwt>
<pdfrwt beam="2">  1       -3 0.15560867E-01 0.27502696E+03</pdfrwt>
<totfact> 0.10288561E+03</totfact>
</mgrwt>
</event>
<event>
 5    1  0.1129390E+001  0.2738677E+03  0.7818608E-02  0.1099086E+00
          1   -1    0    0  501    0  0.00000000000E+00  0.00000000000E+00  0.32020363648E+03  0.32020363648E+03  0.00000000000E+00 0.  1.
         -1   -1    0    0    0  501 -0.00000000000E+00 -0.00000000000E+00 -0.58559211597E+02  0.58559211597E+02  0.00000000000E+00 0.  1.
         35    2    1    2    0    0  0.00000000000E+00  0.00000000000E+00  0.26164442488E+03  0.37876284808E+03  0.27386765054E+03 0.  0.
         25    1    3    3    0    0  0.14265414314E+02  0.59221809847E+02  0.16581404848E+03  0.21355332701E+03  0.12000000000E+03 0.  0.
         25    1    3    3    0    0 -0.14265414314E+02 -0.59221809847E+02  0.95830376407E+02  0.16520952106E+03  0.12000000000E+03 0.  0.
<mgrwt>
<rscale>  0 0.27386765E+03</rscale>
<asrwt>0</asrwt>
<pdfrwt beam="1">  1        1 0.49262097E-01 0.27386765E+03</pdfrwt>
<pdfrwt beam="2">  1       -1 0.90091096E-02 0.27386765E+03</pdfrwt>
<totfact> 0.57414447E+03</totfact>
</mgrwt>
</event>
<event>
 5    1  0.1129390E+001  0.2801356E+03  0.7818608E-02  0.1095615E+00
          3   -1    0    0  501    0  0.00000000000E+00  0.00000000000E+00  0.34055668359E+03  0.34055668359E+03  0.00000000000E+00 0.  1.
         -3   -1    0    0    0  501 -0.00000000000E+00 -0.00000000000E+00 -0.57608583210E+02  0.57608583210E+02  0.00000000000E+00 0.  1.
         35    2    1    2    0    0  0.00000000000E+00  0.00000000000E+00  0.28294810038E+03  0.39816526680E+03  0.28013559606E+03 0.  0.
         25    1    3    3    0    0  0.40792732167E+02 -0.59380104076E+02  0.13382730707E+03  0.19364862993E+03  0.12000000000E+03 0.  0.
         25    1    3    3    0    0 -0.40792732167E+02  0.59380104076E+02  0.14912079331E+03  0.20451663687E+03  0.12000000000E+03 0.  0.
<mgrwt>
<rscale>  0 0.28013560E+03</rscale>
<asrwt>0</asrwt>
<pdfrwt beam="1">  1        3 0.52393335E-01 0.28013560E+03</pdfrwt>
<pdfrwt beam="2">  1       -3 0.88628591E-02 0.28013560E+03</pdfrwt>
<totfact> 0.83488393E+02</totfact>
</mgrwt>
</event>
<event>
 5    1  0.1129390E+001  0.2745247E+03  0.7818608E-02  0.1098718E+00
         -1   -1    0    0    0  501 -0.00000000000E+00  0.00000000000E+00  0.11065179872E+02  0.11065179872E+02  0.00000000000E+00 0.  1.
          1   -1    0    0  501    0  0.00000000000E+00 -0.00000000000E+00 -0.17027242472E+04  0.17027242472E+04  0.00000000000E+00 0.  1.
         35    2    1    2    0    0  0.00000000000E+00  0.00000000000E+00 -0.16916590673E+04  0.17137894271E+04  0.27452468062E+03 0.  0.
         25    1    3    3    0    0 -0.51830713341E+02  0.15003690782E+02 -0.60168952942E+03  0.61590731722E+03  0.12000000000E+03 0.  0.
         25    1    3    3    0    0  0.51830713341E+02 -0.15003690782E+02 -0.10899695379E+04  0.10978821099E+04  0.12000000000E+03 0.  0.
<mgrwt>
<rscale>  0 0.27452468E+03</rscale>
<asrwt>0</asrwt>
<pdfrwt beam="1">  1        1 0.26195740E+00 0.27452468E+03</pdfrwt>
<pdfrwt beam="2">  1       -1 0.17023365E-02 0.27452468E+03</pdfrwt>
<totfact> 0.45693383E+03</totfact>
</mgrwt>
</event>
<event>
 5    1  0.1129390E+001  0.2768729E+03  0.7818608E-02  0.1097409E+00
         -1   -1    0    0    0  501 -0.00000000000E+00  0.00000000000E+00  0.23631519224E+03  0.23631519224E+03  0.00000000000E+00 0.  1.
          1   -1    0    0  501    0  0.00000000000E+00 -0.00000000000E+00 -0.81097847227E+02  0.81097847227E+02  0.00000000000E+00 0.  1.
         35    2    1    2    0    0  0.00000000000E+00  0.00000000000E+00  0.15521734501E+03  0.31741303947E+03  0.27687291928E+03 0.  0.
         25    1    3    3    0    0  0.41744951471E+02  0.25876682461E+02  0.22005347355E+02  0.13151607879E+03  0.12000000000E+03 0.  0.
         25    1    3    3    0    0 -0.41744951471E+02 -0.25876682461E+02  0.13321199766E+03  0.18589696067E+03  0.12000000000E+03 0.  0.
<mgrwt>
<rscale>  0 0.27687292E+03</rscale>
<asrwt>0</asrwt>
<pdfrwt beam="1">  1        1 0.12476592E-01 0.27687292E+03</pdfrwt>
<pdfrwt beam="2">  1       -1 0.36356183E-01 0.27687292E+03</pdfrwt>
<totfact> 0.34680093E+03</totfact>
</mgrwt>
</event>
<event>
 5    1  0.1129390E+001  0.2739321E+03  0.7818608E-02  0.1099050E+00
          2   -1    0    0  501    0  0.00000000000E+00  0.00000000000E+00  0.81688103141E+02  0.81688103141E+02  0.00000000000E+00 0.  1.
         -2   -1    0    0    0  501 -0.00000000000E+00 -0.00000000000E+00 -0.22965026685E+03  0.22965026685E+03  0.00000000000E+00 0.  1.
         35    2    1    2    0    0  0.00000000000E+00  0.00000000000E+00 -0.14796216371E+03  0.31133836999E+03  0.27393206957E+03 0.  0.
         25    1    3    3    0    0  0.63674911387E+02  0.62456113965E+00 -0.93823955411E+02  0.16509942164E+03  0.12000000000E+03 0.  0.
         25    1    3    3    0    0 -0.63674911387E+02 -0.62456113965E+00 -0.54138208296E+02  0.14623894835E+03  0.12000000000E+03 0.  0.
<mgrwt>
<rscale>  0 0.27393207E+03</rscale>
<asrwt>0</asrwt>
<pdfrwt beam="1">  1        2 0.12567401E-01 0.27393207E+03</pdfrwt>
<pdfrwt beam="2">  1       -2 0.35330810E-01 0.27393207E+03</pdfrwt>
<totfact> 0.36248638E+03</totfact>
</mgrwt>
</event>
<event>
 5    1  0.1129390E+001  0.2750828E+03  0.7818608E-02  0.1098405E+00
          1   -1    0    0  501    0  0.00000000000E+00  0.00000000000E+00  0.95596999388E+03  0.95596999388E+03  0.00000000000E+00 0.  1.
         -1   -1    0    0    0  501 -0.00000000000E+00 -0.00000000000E+00 -0.19788951105E+02  0.19788951105E+02  0.00000000000E+00 0.  1.
         35    2    1    2    0    0  0.00000000000E+00  0.00000000000E+00  0.93618104277E+03  0.97575894499E+03  0.27508284910E+03 0.  0.
         25    1    3    3    0    0 -0.33481275678E+02  0.50860081600E+02  0.36714323273E+03  0.39102672167E+03  0.12000000000E+03 0.  0.
         25    1    3    3    0    0  0.33481275678E+02 -0.50860081600E+02  0.56903781005E+03  0.58473222332E+03  0.12000000000E+03 0.  0.
<mgrwt>
<rscale>  0 0.27508285E+03</rscale>
<asrwt>0</asrwt>
<pdfrwt beam="1">  1        1 0.14707227E+00 0.27508285E+03</pdfrwt>
<pdfrwt beam="2">  1       -1 0.30444548E-02 0.27508285E+03</pdfrwt>
<totfact> 0.63691472E+03</totfact>
</mgrwt>
</event>
<event>
 5    1  0.1129390E+001  0.2749078E+03  0.7818608E-02  0.1098503E+00
         -2   -1    0    0    0  501 -0.00000000000E+00  0.00000000000E+00  0.13640817069E+03  0.13640817069E+03  0.00000000000E+00 0.  1.
          2   -1    0    0  501    0  0.00000000000E+00 -0.00000000000E+00 -0.13850765233E+03  0.13850765233E+03  0.00000000000E+00 0.  1.
         35    2    1    2    0    0  0.00000000000E+00  0.00000000000E+00 -0.20994816354E+01  0.27491582302E+03  0.27490780623E+03 0.  0.
         25    1    3    3    0    0 -0.16501398561E+02 -0.52960497237E+02  0.36587311053E+02  0.13717048426E+03  0.12000000000E+03 0.  0.
         25    1    3    3    0    0  0.16501398561E+02  0.52960497237E+02 -0.38686792688E+02  0.13774533876E+03  0.12000000000E+03 0.  0.
<mgrwt>
<rscale>  0 0.27490781E+03</rscale>
<asrwt>0</asrwt>
<pdfrwt beam="1">  1        2 0.21308870E-01 0.27490781E+03</pdfrwt>
<pdfrwt beam="2">  1       -2 0.20985872E-01 0.27490781E+03</pdfrwt>
<totfact> 0.49573286E+03</totfact>
</mgrwt>
</event>
<event>
 5    1  0.1129390E+001  0.2748056E+03  0.7818608E-02  0.1098560E+00
         -2   -1    0    0    0  501 -0.00000000000E+00  0.00000000000E+00  0.42392711826E+02  0.42392711826E+02  0.00000000000E+00 0.  1.
          2   -1    0    0  501    0  0.00000000000E+00 -0.00000000000E+00 -0.44534839040E+03  0.44534839040E+03  0.00000000000E+00 0.  1.
         35    2    1    2    0    0  0.00000000000E+00  0.00000000000E+00 -0.40295567858E+03  0.48774110223E+03  0.27480557473E+03 0.  0.
         25    1    3    3    0    0  0.49373037954E+02 -0.23662127190E+02 -0.13315308519E+03  0.18742288344E+03  0.12000000000E+03 0.  0.
         25    1    3    3    0    0 -0.49373037954E+02  0.23662127190E+02 -0.26980259339E+03  0.30031821879E+03  0.12000000000E+03 0.  0.
<mgrwt>
<rscale>  0 0.27480557E+03</rscale>
<asrwt>0</asrwt>
<pdfrwt beam="1">  1        2 0.68515140E-01 0.27480557E+03</pdfrwt>
<pdfrwt beam="2">  1       -2 0.65219553E-02 0.27480557E+03</pdfrwt>
<totfact> 0.91631570E+03</totfact>
</mgrwt>
</event>
<event>
 5    1  0.1129390E+001  0.2748692E+03  0.7818608E-02  0.1098525E+00
          2   -1    0    0  501    0  0.00000000000E+00  0.00000000000E+00  0.14538178334E+04  0.14538178334E+04  0.00000000000E+00 0.  1.
         -2   -1    0    0    0  501 -0.00000000000E+00 -0.00000000000E+00 -0.12992182566E+02  0.12992182566E+02  0.00000000000E+00 0.  1.
         35    2    1    2    0    0  0.00000000000E+00  0.00000000000E+00  0.14408256509E+04  0.14668100160E+04  0.27486918132E+03 0.  0.
         25    1    3    3    0    0 -0.29076192587E+02 -0.20687417782E+01  0.10423066984E+04  0.10495965692E+04  0.12000000000E+03 0.  0.
         25    1    3    3    0    0  0.29076192587E+02  0.20687417782E+01  0.39851895249E+03  0.41721344676E+03  0.12000000000E+03 0.  0.
<mgrwt>
<rscale>  0 0.27486918E+03</rscale>
<asrwt>0</asrwt>
<pdfrwt beam="1">  1        2 0.22366415E+00 0.27486918E+03</pdfrwt>
<pdfrwt beam="2">  1       -2 0.19987985E-02 0.27486918E+03</pdfrwt>
<totfact> 0.11177889E+04</totfact>
</mgrwt>
</event>
<event>
 5    1  0.1129390E+001  0.2752539E+03  0.7818608E-02  0.1098310E+00
          3   -1    0    0  501    0  0.00000000000E+00  0.00000000000E+00  0.30158827722E+03  0.30158827722E+03  0.00000000000E+00 0.  1.
         -3   -1    0    0    0  501 -0.00000000000E+00 -0.00000000000E+00 -0.62804747160E+02  0.62804747160E+02  0.00000000000E+00 0.  1.
         35    2    1    2    0    0  0.00000000000E+00  0.00000000000E+00  0.23878353006E+03  0.36439302438E+03  0.27525388642E+03 0.  0.
         25    1    3    3    0    0 -0.66327776856E+02 -0.11428463093E+02  0.11496297069E+03  0.17929436238E+03  0.12000000000E+03 0.  0.
         25    1    3    3    0    0  0.66327776856E+02  0.11428463093E+02  0.12382055936E+03  0.18509866199E+03  0.12000000000E+03 0.  0.
<mgrwt>
<rscale>  0 0.27525389E+03</rscale>
<asrwt>0</asrwt>
<pdfrwt beam="1">  1        3 0.46398196E-01 0.27525389E+03</pdfrwt>
<pdfrwt beam="2">  1       -3 0.96622689E-02 0.27525389E+03</pdfrwt>
<totfact> 0.92196316E+02</totfact>
</mgrwt>
</event>
<event>
 5    1  0.1129390E+001  0.2706305E+03  0.7818608E-02  0.1100919E+00
          1   -1    0    0  501    0  0.00000000000E+00  0.00000000000E+00  0.48586946359E+02  0.48586946359E+02  0.00000000000E+00 0.  1.
         -1   -1    0    0    0  501 -0.00000000000E+00 -0.00000000000E+00 -0.37685451561E+03  0.37685451561E+03  0.00000000000E+00 0.  1.
         35    2    1    2    0    0  0.00000000000E+00  0.00000000000E+00 -0.32826756926E+03  0.42544146197E+03  0.27063045014E+03 0.  0.
         25    1    3    3    0    0 -0.12267317848E+01 -0.46658691193E+02 -0.98715983098E+02  0.16224482628E+03  0.12000000000E+03 0.  0.
         25    1    3    3    0    0  0.12267317848E+01  0.46658691193E+02 -0.22955158616E+03  0.26319663570E+03  0.12000000000E+03 0.  0.
<mgrwt>
<rscale>  0 0.27063045E+03</rscale>
<asrwt>0</asrwt>
<pdfrwt beam="1">  1        1 0.74749150E-02 0.27063045E+03</pdfrwt>
<pdfrwt beam="2">  1       -1 0.57977616E-01 0.27063045E+03</pdfrwt>
<totfact> 0.29517175E+03</totfact>
</mgrwt>
</event>
<event>
 5    1  0.1129390E+001  0.2746053E+03  0.7818608E-02  0.1098672E+00
          2   -1    0    0  501    0  0.00000000000E+00  0.00000000000E+00  0.22318445777E+04  0.22318445777E+04  0.00000000000E+00 0.  1.
         -2   -1    0    0    0  501 -0.00000000000E+00 -0.00000000000E+00 -0.84468340410E+01  0.84468340410E+01  0.00000000000E+00 0.  1.
         35    2    1    2    0    0  0.00000000000E+00  0.00000000000E+00  0.22233977437E+04  0.22402914118E+04  0.27460532226E+03 0.  0.
         25    1    3    3    0    0 -0.15116320654E+02  0.11015018491E+02  0.58917842546E+03  0.60156550001E+03  0.12000000000E+03 0.  0.
         25    1    3    3    0    0  0.15116320654E+02 -0.11015018491E+02  0.16342193182E+04  0.16387259117E+04  0.12000000000E+03 0.  0.
<mgrwt>
<rscale>  0 0.27460532E+03</rscale>
<asrwt>0</asrwt>
<pdfrwt beam="1">  1        2 0.34336023E+00 0.27460532E+03</pdfrwt>
<pdfrwt beam="2">  1       -2 0.12995147E-02 0.27460532E+03</pdfrwt>
<totfact> 0.81492226E+03</totfact>
</mgrwt>
</event>
<event>
 5    1  0.1129390E+001  0.2736410E+03  0.7818608E-02  0.1099214E+00
         -2   -1    0    0    0  501 -0.00000000000E+00  0.00000000000E+00  0.60965752708E+02  0.60965752708E+02  0.00000000000E+00 0.  1.
          2   -1    0    0  501    0  0.00000000000E+00 -0.00000000000E+00 -0.30705509802E+03  0.30705509802E+03  0.00000000000E+00 0.  1.
         35    2    1    2    0    0  0.00000000000E+00  0.00000000000E+00 -0.24608934531E+03  0.36802085073E+03  0.27364097042E+03 0.  0.
         25    1    3    3    0    0 -0.41496249262E+01 -0.42702640873E+02 -0.56081006371E+02  0.13923294941E+03  0.12000000000E+03 0.  0.
         25    1    3    3    0    0  0.41496249262E+01  0.42702640873E+02 -0.19000833894E+03  0.22878790132E+03  0.12000000000E+03 0.  0.
<mgrwt>
<rscale>  0 0.27364097E+03</rscale>
<asrwt>0</asrwt>
<pdfrwt beam="1">  1        2 0.47239246E-01 0.27364097E+03</pdfrwt>
<pdfrwt beam="2">  1       -2 0.93793465E-02 0.27364097E+03</pdfrwt>
<totfact> 0.77756122E+03</totfact>
</mgrwt>
</event>
<event>
 5    1  0.1129390E+001  0.2765910E+03  0.7818608E-02  0.1097566E+00
          2   -1    0    0  501    0  0.00000000000E+00  0.00000000000E+00  0.22029396095E+04  0.22029396095E+04  0.00000000000E+00 0. -1.
         -2   -1    0    0    0  501 -0.00000000000E+00 -0.00000000000E+00 -0.86818723091E+01  0.86818723091E+01  0.00000000000E+00 0. -1.
         35    2    1    2    0    0  0.00000000000E+00  0.00000000000E+00  0.21942577372E+04  0.22116214819E+04  0.27659096438E+03 0.  0.
         25    1    3    3    0    0 -0.63135781847E+02  0.16001667563E+02  0.12729427335E+04  0.12802442670E+04  0.12000000000E+03 0.  0.
         25    1    3    3    0    0  0.63135781847E+02 -0.16001667563E+02  0.92131500371E+03  0.93137721487E+03  0.12000000000E+03 0.  0.
<mgrwt>
<rscale>  0 0.27659096E+03</rscale>
<asrwt>0</asrwt>
<pdfrwt beam="1">  1        2 0.33891334E+00 0.27659096E+03</pdfrwt>
<pdfrwt beam="2">  1       -2 0.13356744E-02 0.27659096E+03</pdfrwt>
<totfact> 0.81120018E+03</totfact>
</mgrwt>
</event>
<event>
 5    1  0.1129390E+001  0.2744240E+03  0.7818608E-02  0.1098774E+00
          2   -1    0    0  501    0  0.00000000000E+00  0.00000000000E+00  0.13861642399E+02  0.13861642399E+02  0.00000000000E+00 0.  1.
         -2   -1    0    0    0  501 -0.00000000000E+00 -0.00000000000E+00 -0.13582180893E+04  0.13582180893E+04  0.00000000000E+00 0.  1.
         35    2    1    2    0    0  0.00000000000E+00  0.00000000000E+00 -0.13443564469E+04  0.13720797317E+04  0.27442400371E+03 0.  0.
         25    1    3    3    0    0 -0.15523530015E+02  0.41900691897E+01 -0.99499210191E+03  0.10023311925E+04  0.12000000000E+03 0.  0.
         25    1    3    3    0    0  0.15523530015E+02 -0.41900691897E+01 -0.34936434502E+03  0.36974853919E+03  0.12000000000E+03 0.  0.
<mgrwt>
<rscale>  0 0.27442400E+03</rscale>
<asrwt>0</asrwt>
<pdfrwt beam="1">  1        2 0.21325606E-02 0.27442400E+03</pdfrwt>
<pdfrwt beam="2">  1       -2 0.20895661E+00 0.27442400E+03</pdfrwt>
<totfact> 0.63494692E+02</totfact>
</mgrwt>
</event>
<event>
 5    1  0.1129390E+001  0.2738999E+03  0.7818608E-02  0.1099068E+00
         -2   -1    0    0    0  501 -0.00000000000E+00  0.00000000000E+00  0.23951895024E+03  0.23951895024E+03  0.00000000000E+00 0. -1.
          2   -1    0    0  501    0  0.00000000000E+00 -0.00000000000E+00 -0.78303958984E+02  0.78303958984E+02  0.00000000000E+00 0. -1.
         35    2    1    2    0    0  0.00000000000E+00  0.00000000000E+00  0.16121499125E+03  0.31782290922E+03  0.27389985071E+03 0.  0.
         25    1    3    3    0    0  0.42319604092E+02  0.34930180461E+02  0.12315047273E+03  0.18049128880E+03  0.12000000000E+03 0.  0.
         25    1    3    3    0    0 -0.42319604092E+02 -0.34930180461E+02  0.38064518520E+02  0.13733162042E+03  0.12000000000E+03 0.  0.
<mgrwt>
<rscale>  0 0.27389985E+03</rscale>
<asrwt>0</asrwt>
<pdfrwt beam="1">  1        2 0.12046763E-01 0.27389985E+03</pdfrwt>
<pdfrwt beam="2">  1       -2 0.36849069E-01 0.27389985E+03</pdfrwt>
<totfact> 0.35265130E+03</totfact>
</mgrwt>
</event>
<event>
 5    1  0.1129390E+001  0.2758685E+03  0.7818608E-02  0.1097967E+00
          2   -1    0    0  501    0  0.00000000000E+00  0.00000000000E+00  0.13594817595E+04  0.13594817595E+04  0.00000000000E+00 0.  1.
         -2   -1    0    0    0  501 -0.00000000000E+00 -0.00000000000E+00 -0.13994937815E+02  0.13994937815E+02  0.00000000000E+00 0.  1.
         35    2    1    2    0    0  0.00000000000E+00  0.00000000000E+00  0.13454868217E+04  0.13734766974E+04  0.27586853887E+03 0.  0.
         25    1    3    3    0    0 -0.33100531115E+02 -0.13319171777E+02  0.38445707521E+03  0.40432695702E+03  0.12000000000E+03 0.  0.
         25    1    3    3    0    0  0.33100531115E+02  0.13319171777E+02  0.96102974651E+03  0.96914974033E+03  0.12000000000E+03 0.  0.
<mgrwt>
<rscale>  0 0.27586854E+03</rscale>
<asrwt>0</asrwt>
<pdfrwt beam="1">  1        2 0.20915094E+00 0.27586854E+03</pdfrwt>
<pdfrwt beam="2">  1       -2 0.21530684E-02 0.27586854E+03</pdfrwt>
<totfact> 0.11272733E+04</totfact>
</mgrwt>
</event>
<event>
 5    1  0.1129390E+001  0.2748117E+03  0.7818608E-02  0.1098557E+00
         -2   -1    0    0    0  501 -0.00000000000E+00  0.00000000000E+00  0.13304798773E+02  0.13304798773E+02  0.00000000000E+00 0.  1.
          2   -1    0    0  501    0  0.00000000000E+00 -0.00000000000E+00 -0.14190647239E+04  0.14190647239E+04  0.00000000000E+00 0.  1.
         35    2    1    2    0    0  0.00000000000E+00  0.00000000000E+00 -0.14057599252E+04  0.14323695227E+04  0.27481172171E+03 0.  0.
         25    1    3    3    0    0 -0.12012691149E+02 -0.16195951844E+02 -0.37020709771E+03  0.38969206921E+03  0.12000000000E+03 0.  0.
         25    1    3    3    0    0  0.12012691149E+02  0.16195951844E+02 -0.10355528274E+04  0.10426774535E+04  0.12000000000E+03 0.  0.
<mgrwt>
<rscale>  0 0.27481172E+03</rscale>
<asrwt>0</asrwt>
<pdfrwt beam="1">  1        2 0.21831777E+00 0.27481172E+03</pdfrwt>
<pdfrwt beam="2">  1       -2 0.20468910E-02 0.27481172E+03</pdfrwt>
<totfact> 0.11270010E+04</totfact>
</mgrwt>
</event>
<event>
 5    1  0.1129390E+001  0.2762086E+03  0.7818608E-02  0.1097778E+00
         -2   -1    0    0    0  501 -0.00000000000E+00  0.00000000000E+00  0.11240982579E+03  0.11240982579E+03  0.00000000000E+00 0. -1.
          2   -1    0    0  501    0  0.00000000000E+00 -0.00000000000E+00 -0.16967199966E+03  0.16967199966E+03  0.00000000000E+00 0. -1.
         35    2    1    2    0    0  0.00000000000E+00  0.00000000000E+00 -0.57262173863E+02  0.28208182545E+03  0.27620861626E+03 0.  0.
         25    1    3    3    0    0  0.36508927802E+02  0.56971430042E+02 -0.38540727478E+02  0.14305255442E+03  0.12000000000E+03 0.  0.
         25    1    3    3    0    0 -0.36508927802E+02 -0.56971430042E+02 -0.18721446385E+02  0.13902927104E+03  0.12000000000E+03 0.  0.
<mgrwt>
<rscale>  0 0.27620862E+03</rscale>
<asrwt>0</asrwt>
<pdfrwt beam="1">  1        2 0.26103384E-01 0.27620862E+03</pdfrwt>
<pdfrwt beam="2">  1       -2 0.17293819E-01 0.27620862E+03</pdfrwt>
<totfact> 0.54835486E+03</totfact>
</mgrwt>
</event>
<event>
 5    1  0.1129390E+001  0.2752878E+03  0.7818608E-02  0.1098291E+00
          2   -1    0    0  501    0  0.00000000000E+00  0.00000000000E+00  0.91693634948E+03  0.91693634948E+03  0.00000000000E+00 0. -1.
         -2   -1    0    0    0  501 -0.00000000000E+00 -0.00000000000E+00 -0.20662108055E+02  0.20662108055E+02  0.00000000000E+00 0. -1.
         35    2    1    2    0    0  0.00000000000E+00  0.00000000000E+00  0.89627424142E+03  0.93759845753E+03  0.27528776168E+03 0.  0.
         25    1    3    3    0    0  0.55734995395E+02 -0.63131610938E+01  0.57555510753E+03  0.59060132706E+03  0.12000000000E+03 0.  0.
         25    1    3    3    0    0 -0.55734995395E+02  0.63131610938E+01  0.32071913389E+03  0.34699713047E+03  0.12000000000E+03 0.  0.
<mgrwt>
<rscale>  0 0.27528776E+03</rscale>
<asrwt>0</asrwt>
<pdfrwt beam="1">  1        2 0.14106710E+00 0.27528776E+03</pdfrwt>
<pdfrwt beam="2">  1       -2 0.31787866E-02 0.27528776E+03</pdfrwt>
<totfact> 0.11472995E+04</totfact>
</mgrwt>
</event>
