<event>
 5    1  0.1122238E+001  0.2747841E+03  0.7818608E-02  0.1098572E+00
          1   -1    0    0  501    0  0.00000000000E+00  0.00000000000E+00  0.92055817737E+03  0.92055817737E+03  0.00000000000E+00 0. -1.
         -1   -1    0    0    0  501 -0.00000000000E+00 -0.00000000000E+00 -0.20505581641E+02  0.20505581641E+02  0.00000000000E+00 0. -1.
         35    2    1    2    0    0  0.00000000000E+00  0.00000000000E+00  0.90005259573E+03  0.94106375901E+03  0.27478413973E+03 0.  0.
         25    1    3    3    0    0 -0.41210346167E+02 -0.36629628079E+02  0.32022200476E+03  0.34638440296E+03  0.12000000000E+03 0.  0.
         25    1    3    3    0    0  0.41210346167E+02  0.36629628079E+02  0.57983059097E+03  0.59467935604E+03  0.12000000000E+03 0.  0.
<mgrwt>
<rscale>  0 0.27478414E+03</rscale>
<asrwt>0</asrwt>
<pdfrwt beam="1">  1        1 0.14162430E+00 0.27478414E+03</pdfrwt>
<pdfrwt beam="2">  1       -1 0.31547056E-02 0.27478414E+03</pdfrwt>
<totfact> 0.64347598E+03</totfact>
</mgrwt>
</event>
<event>
 5    1  0.1122238E+001  0.2736307E+03  0.7818608E-02  0.1099219E+00
          1   -1    0    0  501    0  0.00000000000E+00  0.00000000000E+00  0.83848082690E+03  0.83848082690E+03  0.00000000000E+00 0. -1.
         -1   -1    0    0    0  501 -0.00000000000E+00 -0.00000000000E+00 -0.22324230972E+02  0.22324230972E+02  0.00000000000E+00 0. -1.
         35    2    1    2    0    0  0.00000000000E+00  0.00000000000E+00  0.81615659593E+03  0.86080505787E+03  0.27363069744E+03 0.  0.
         25    1    3    3    0    0  0.32197166503E+02 -0.40034916340E+02  0.27917508704E+03  0.30818530348E+03  0.12000000000E+03 0.  0.
         25    1    3    3    0    0 -0.32197166503E+02  0.40034916340E+02  0.53698150889E+03  0.55261975439E+03  0.12000000000E+03 0.  0.
<mgrwt>
<rscale>  0 0.27363070E+03</rscale>
<asrwt>0</asrwt>
<pdfrwt beam="1">  1        1 0.12899703E+00 0.27363070E+03</pdfrwt>
<pdfrwt beam="2">  1       -1 0.34344977E-02 0.27363070E+03</pdfrwt>
<totfact> 0.65941732E+03</totfact>
</mgrwt>
</event>
<event>
 5    1  0.1122238E+001  0.2769817E+03  0.7818608E-02  0.1097349E+00
         -2   -1    0    0    0  501 -0.00000000000E+00  0.00000000000E+00  0.17619224439E+03  0.17619224439E+03  0.00000000000E+00 0. -1.
          2   -1    0    0  501    0  0.00000000000E+00 -0.00000000000E+00 -0.10885674634E+03  0.10885674634E+03  0.00000000000E+00 0. -1.
         35    2    1    2    0    0  0.00000000000E+00  0.00000000000E+00  0.67335498056E+02  0.28504899073E+03  0.27698169221E+03 0.  0.
         25    1    3    3    0    0  0.31575858486E+01 -0.31964362198E+02 -0.29336465998E+02  0.12764136883E+03  0.12000000000E+03 0.  0.
         25    1    3    3    0    0 -0.31575858486E+01  0.31964362198E+02  0.96671964054E+02  0.15740762190E+03  0.12000000000E+03 0.  0.
<mgrwt>
<rscale>  0 0.27698169E+03</rscale>
<asrwt>0</asrwt>
<pdfrwt beam="1">  1        2 0.16747192E-01 0.27698169E+03</pdfrwt>
<pdfrwt beam="2">  1       -2 0.27106499E-01 0.27698169E+03</pdfrwt>
<totfact> 0.41799563E+03</totfact>
</mgrwt>
</event>
<event>
 5    1  0.1122238E+001  0.2769786E+03  0.7818608E-02  0.1097351E+00
         -1   -1    0    0    0  501 -0.00000000000E+00  0.00000000000E+00  0.37410962179E+02  0.37410962179E+02  0.00000000000E+00 0.  1.
          1   -1    0    0  501    0  0.00000000000E+00 -0.00000000000E+00 -0.51266489370E+03  0.51266489370E+03  0.00000000000E+00 0.  1.
         35    2    1    2    0    0  0.00000000000E+00  0.00000000000E+00 -0.47525393152E+03  0.55007585587E+03  0.27697860530E+03 0.  0.
         25    1    3    3    0    0  0.38773050009E+02  0.49527276638E+02 -0.18065349316E+03  0.22581404989E+03  0.12000000000E+03 0.  0.
         25    1    3    3    0    0 -0.38773050009E+02 -0.49527276638E+02 -0.29460043836E+03  0.32426180598E+03  0.12000000000E+03 0.  0.
<mgrwt>
<rscale>  0 0.27697861E+03</rscale>
<asrwt>0</asrwt>
<pdfrwt beam="1">  1        1 0.78871520E-01 0.27697861E+03</pdfrwt>
<pdfrwt beam="2">  1       -1 0.57555328E-02 0.27697861E+03</pdfrwt>
<totfact> 0.61867149E+03</totfact>
</mgrwt>
</event>
<event>
 5    1  0.1122238E+001  0.2738985E+03  0.7818608E-02  0.1099069E+00
         -2   -1    0    0    0  501 -0.00000000000E+00  0.00000000000E+00  0.15636301043E+02  0.15636301043E+02  0.00000000000E+00 0.  1.
          2   -1    0    0  501    0  0.00000000000E+00 -0.00000000000E+00 -0.11994591178E+04  0.11994591178E+04  0.00000000000E+00 0.  1.
         35    2    1    2    0    0  0.00000000000E+00  0.00000000000E+00 -0.11838228167E+04  0.12150954188E+04  0.27389854950E+03 0.  0.
         25    1    3    3    0    0 -0.30183167833E+02 -0.55703087080E+02 -0.50996033586E+03  0.52770579084E+03  0.12000000000E+03 0.  0.
         25    1    3    3    0    0  0.30183167833E+02  0.55703087080E+02 -0.67386248085E+03  0.68738962796E+03  0.12000000000E+03 0.  0.
<mgrwt>
<rscale>  0 0.27389855E+03</rscale>
<asrwt>0</asrwt>
<pdfrwt beam="1">  1        2 0.18453219E+00 0.27389855E+03</pdfrwt>
<pdfrwt beam="2">  1       -2 0.24055846E-02 0.27389855E+03</pdfrwt>
<totfact> 0.11748009E+04</totfact>
</mgrwt>
</event>
<event>
 5    1  0.1122238E+001  0.2747474E+03  0.7818608E-02  0.1098593E+00
          2   -1    0    0  501    0  0.00000000000E+00  0.00000000000E+00  0.10454327359E+04  0.10454327359E+04  0.00000000000E+00 0. -1.
         -2   -1    0    0    0  501 -0.00000000000E+00 -0.00000000000E+00 -0.18051414705E+02  0.18051414705E+02  0.00000000000E+00 0. -1.
         35    2    1    2    0    0  0.00000000000E+00  0.00000000000E+00  0.10273813212E+04  0.10634841506E+04  0.27474744667E+03 0.  0.
         25    1    3    3    0    0  0.18993398610E+02  0.40257408089E+02  0.70684680200E+03  0.71834101205E+03  0.12000000000E+03 0.  0.
         25    1    3    3    0    0 -0.18993398610E+02 -0.40257408089E+02  0.32053451921E+03  0.34514313857E+03  0.12000000000E+03 0.  0.
<mgrwt>
<rscale>  0 0.27474745E+03</rscale>
<asrwt>0</asrwt>
<pdfrwt beam="1">  1        2 0.16083576E+00 0.27474745E+03</pdfrwt>
<pdfrwt beam="2">  1       -2 0.27771415E-02 0.27474745E+03</pdfrwt>
<totfact> 0.11679485E+04</totfact>
</mgrwt>
</event>
<event>
 5    1  0.1122238E+001  0.2750840E+03  0.7818608E-02  0.1098405E+00
          2   -1    0    0  501    0  0.00000000000E+00  0.00000000000E+00  0.54521862313E+03  0.54521862313E+03  0.00000000000E+00 0.  1.
         -2   -1    0    0    0  501 -0.00000000000E+00 -0.00000000000E+00 -0.34697656679E+02  0.34697656679E+02  0.00000000000E+00 0.  1.
         35    2    1    2    0    0  0.00000000000E+00  0.00000000000E+00  0.51052096645E+03  0.57991627981E+03  0.27508404970E+03 0.  0.
         25    1    3    3    0    0  0.32588256981E+02 -0.53569860663E+02  0.30629686465E+03  0.33488728515E+03  0.12000000000E+03 0.  0.
         25    1    3    3    0    0 -0.32588256981E+02  0.53569860663E+02  0.20422410180E+03  0.24502899465E+03  0.12000000000E+03 0.  0.
<mgrwt>
<rscale>  0 0.27508405E+03</rscale>
<asrwt>0</asrwt>
<pdfrwt beam="1">  1        2 0.83879782E-01 0.27508405E+03</pdfrwt>
<pdfrwt beam="2">  1       -2 0.53381014E-02 0.27508405E+03</pdfrwt>
<totfact> 0.99375528E+03</totfact>
</mgrwt>
</event>
<event>
 4    1  0.1122238E+001  0.3016432E+03  0.7818608E-02  0.1084422E+00
         -2   -1    0    0    0  501 -0.00000000000E+00  0.00000000000E+00  0.43131271981E+02  0.43131271981E+02  0.00000000000E+00 0. -1.
          2   -1    0    0  501    0  0.00000000000E+00 -0.00000000000E+00 -0.52739339356E+03  0.52739339356E+03  0.00000000000E+00 0. -1.
         25    1    1    2    0    0  0.38293753147E+02 -0.82887474436E+02 -0.23603064822E+03  0.28008429418E+03  0.12000000000E+03 0.  0.
         25    1    1    2    0    0 -0.38293753147E+02  0.82887474436E+02 -0.24823147336E+03  0.29044037135E+03  0.12000000000E+03 0.  0.
<mgrwt>
<rscale>  0 0.30164315E+03</rscale>
<asrwt>0</asrwt>
<pdfrwt beam="1">  1        2 0.81137442E-01 0.30164315E+03</pdfrwt>
<pdfrwt beam="2">  1       -2 0.66355806E-02 0.30164315E+03</pdfrwt>
<totfact> 0.74115354E+03</totfact>
</mgrwt>
</event>
<event>
 5    1  0.1122238E+001  0.2752556E+03  0.7818608E-02  0.1098309E+00
          2   -1    0    0  501    0  0.00000000000E+00  0.00000000000E+00  0.15008299492E+04  0.15008299492E+04  0.00000000000E+00 0. -1.
         -2   -1    0    0    0  501 -0.00000000000E+00 -0.00000000000E+00 -0.12620621250E+02  0.12620621250E+02  0.00000000000E+00 0. -1.
         35    2    1    2    0    0  0.00000000000E+00  0.00000000000E+00  0.14882093280E+04  0.15134505705E+04  0.27525556379E+03 0.  0.
         25    1    3    3    0    0  0.17643514445E+02 -0.57577433402E+02  0.91041960628E+03  0.92026643639E+03  0.12000000000E+03 0.  0.
         25    1    3    3    0    0 -0.17643514445E+02  0.57577433402E+02  0.57778972171E+03  0.59318413410E+03  0.12000000000E+03 0.  0.
<mgrwt>
<rscale>  0 0.27525556E+03</rscale>
<asrwt>0</asrwt>
<pdfrwt beam="1">  1        2 0.23089677E+00 0.27525556E+03</pdfrwt>
<pdfrwt beam="2">  1       -2 0.19416352E-02 0.27525556E+03</pdfrwt>
<totfact> 0.11006940E+04</totfact>
</mgrwt>
</event>
<event>
 5    1  0.1122238E+001  0.2848338E+03  0.7818608E-02  0.1093078E+00
         -2   -1    0    0    0  501 -0.00000000000E+00  0.00000000000E+00  0.49253676492E+02  0.49253676492E+02  0.00000000000E+00 0. -1.
          2   -1    0    0  501    0  0.00000000000E+00 -0.00000000000E+00 -0.41179814374E+03  0.41179814374E+03  0.00000000000E+00 0. -1.
         35    2    1    2    0    0  0.00000000000E+00  0.00000000000E+00 -0.36254446725E+03  0.46105182023E+03  0.28483379400E+03 0.  0.
         25    1    3    3    0    0  0.29118869243E+02  0.62399378678E+02 -0.23594833454E+03  0.27352003140E+03  0.12000000000E+03 0.  0.
         25    1    3    3    0    0 -0.29118869243E+02 -0.62399378678E+02 -0.12659613271E+03  0.18753178883E+03  0.12000000000E+03 0.  0.
<mgrwt>
<rscale>  0 0.28483379E+03</rscale>
<asrwt>0</asrwt>
<pdfrwt beam="1">  1        2 0.63353559E-01 0.28483379E+03</pdfrwt>
<pdfrwt beam="2">  1       -2 0.75774888E-02 0.28483379E+03</pdfrwt>
<totfact> 0.79233409E+03</totfact>
</mgrwt>
</event>
<event>
 5    1  0.1122238E+001  0.2748525E+03  0.7818608E-02  0.1098534E+00
         -2   -1    0    0    0  501 -0.00000000000E+00  0.00000000000E+00  0.26642673015E+02  0.26642673015E+02  0.00000000000E+00 0.  1.
          2   -1    0    0  501    0  0.00000000000E+00 -0.00000000000E+00 -0.70886168758E+03  0.70886168758E+03  0.00000000000E+00 0.  1.
         35    2    1    2    0    0  0.00000000000E+00  0.00000000000E+00 -0.68221901457E+03  0.73550436060E+03  0.27485247064E+03 0.  0.
         25    1    3    3    0    0  0.59794749069E+01 -0.21364582475E+02 -0.17199643976E+03  0.21089090733E+03  0.12000000000E+03 0.  0.
         25    1    3    3    0    0 -0.59794749069E+01  0.21364582475E+02 -0.51022257481E+03  0.52461345327E+03  0.12000000000E+03 0.  0.
<mgrwt>
<rscale>  0 0.27485247E+03</rscale>
<asrwt>0</asrwt>
<pdfrwt beam="1">  1        2 0.10905565E+00 0.27485247E+03</pdfrwt>
<pdfrwt beam="2">  1       -2 0.40988726E-02 0.27485247E+03</pdfrwt>
<totfact> 0.10895485E+04</totfact>
</mgrwt>
</event>
<event>
 5    1  0.1122238E+001  0.2752294E+03  0.7818608E-02  0.1098323E+00
          1   -1    0    0  501    0  0.00000000000E+00  0.00000000000E+00  0.47941875306E+03  0.47941875306E+03  0.00000000000E+00 0. -1.
         -1   -1    0    0    0  501 -0.00000000000E+00 -0.00000000000E+00 -0.39501601964E+02  0.39501601964E+02  0.00000000000E+00 0. -1.
         35    2    1    2    0    0  0.00000000000E+00  0.00000000000E+00  0.43991715109E+03  0.51892035502E+03  0.27522942254E+03 0.  0.
         25    1    3    3    0    0  0.41763069933E+02 -0.52143406735E+02  0.20366096504E+03  0.24564380220E+03  0.12000000000E+03 0.  0.
         25    1    3    3    0    0 -0.41763069933E+02  0.52143406735E+02  0.23625618605E+03  0.27327655283E+03  0.12000000000E+03 0.  0.
<mgrwt>
<rscale>  0 0.27522942E+03</rscale>
<asrwt>0</asrwt>
<pdfrwt beam="1">  1        1 0.73756727E-01 0.27522942E+03</pdfrwt>
<pdfrwt beam="2">  1       -1 0.60771699E-02 0.27522942E+03</pdfrwt>
<totfact> 0.62288105E+03</totfact>
</mgrwt>
</event>
<event>
 5    1  0.1122238E+001  0.2744534E+03  0.7818608E-02  0.1098758E+00
         -1   -1    0    0    0  501 -0.00000000000E+00  0.00000000000E+00  0.94673415826E+01  0.94673415826E+01  0.00000000000E+00 0. -1.
          1   -1    0    0  501    0  0.00000000000E+00 -0.00000000000E+00 -0.19890655305E+04  0.19890655305E+04  0.00000000000E+00 0. -1.
         35    2    1    2    0    0  0.00000000000E+00  0.00000000000E+00 -0.19795981889E+04  0.19985328721E+04  0.27445336804E+03 0.  0.
         25    1    3    3    0    0 -0.11711303695E+01  0.14464574523E+02 -0.14628720797E+04  0.14678573899E+04  0.12000000000E+03 0.  0.
         25    1    3    3    0    0  0.11711303695E+01 -0.14464574523E+02 -0.51672610920E+03  0.53067548219E+03  0.12000000000E+03 0.  0.
<mgrwt>
<rscale>  0 0.27445337E+03</rscale>
<asrwt>0</asrwt>
<pdfrwt beam="1">  1        1 0.30601003E+00 0.27445337E+03</pdfrwt>
<pdfrwt beam="2">  1       -1 0.14565144E-02 0.27445337E+03</pdfrwt>
<totfact> 0.37360653E+03</totfact>
</mgrwt>
</event>
<event>
 5    1  0.1122238E+001  0.2745068E+03  0.7818608E-02  0.1098728E+00
          1   -1    0    0  501    0  0.00000000000E+00  0.00000000000E+00  0.45080502056E+02  0.45080502056E+02  0.00000000000E+00 0. -1.
         -1   -1    0    0    0  501 -0.00000000000E+00 -0.00000000000E+00 -0.41788555744E+03  0.41788555744E+03  0.00000000000E+00 0. -1.
         35    2    1    2    0    0  0.00000000000E+00  0.00000000000E+00 -0.37280505539E+03  0.46296605950E+03  0.27450676299E+03 0.  0.
         25    1    3    3    0    0 -0.50554884681E+02 -0.36002751288E+02 -0.22724657126E+03  0.26437284016E+03  0.12000000000E+03 0.  0.
         25    1    3    3    0    0  0.50554884681E+02  0.36002751288E+02 -0.14555848412E+03  0.19859321934E+03  0.12000000000E+03 0.  0.
<mgrwt>
<rscale>  0 0.27450676E+03</rscale>
<asrwt>0</asrwt>
<pdfrwt beam="1">  1        1 0.69354617E-02 0.27450676E+03</pdfrwt>
<pdfrwt beam="2">  1       -1 0.64290087E-01 0.27450676E+03</pdfrwt>
<totfact> 0.26788712E+03</totfact>
</mgrwt>
</event>
<event>
 5    1  0.1122238E+001  0.2744143E+03  0.7818608E-02  0.1098779E+00
         -2   -1    0    0    0  501 -0.00000000000E+00  0.00000000000E+00  0.10023843406E+03  0.10023843406E+03  0.00000000000E+00 0. -1.
          2   -1    0    0  501    0  0.00000000000E+00 -0.00000000000E+00 -0.18781018834E+03  0.18781018834E+03  0.00000000000E+00 0. -1.
         35    2    1    2    0    0  0.00000000000E+00  0.00000000000E+00 -0.87571754278E+02  0.28804862240E+03  0.27441427937E+03 0.  0.
         25    1    3    3    0    0 -0.12909649875E+02 -0.65251880851E+02 -0.44997418306E+02  0.14439264063E+03  0.12000000000E+03 0.  0.
         25    1    3    3    0    0  0.12909649875E+02  0.65251880851E+02 -0.42574335972E+02  0.14365598177E+03  0.12000000000E+03 0.  0.
<mgrwt>
<rscale>  0 0.27441428E+03</rscale>
<asrwt>0</asrwt>
<pdfrwt beam="1">  1        2 0.28893875E-01 0.27441428E+03</pdfrwt>
<pdfrwt beam="2">  1       -2 0.15421298E-01 0.27441428E+03</pdfrwt>
<totfact> 0.59314343E+03</totfact>
</mgrwt>
</event>
<event>
 5    1  0.1122238E+001  0.2741184E+03  0.7818608E-02  0.1098945E+00
          3   -1    0    0  501    0  0.00000000000E+00  0.00000000000E+00  0.81377624767E+03  0.81377624767E+03  0.00000000000E+00 0.  1.
         -3   -1    0    0    0  501 -0.00000000000E+00 -0.00000000000E+00 -0.23084017568E+02  0.23084017568E+02  0.00000000000E+00 0.  1.
         35    2    1    2    0    0  0.00000000000E+00  0.00000000000E+00  0.79069223010E+03  0.83686026524E+03  0.27411840652E+03 0.  0.
         25    1    3    3    0    0 -0.42511247736E+01  0.65616118305E+02  0.41932231957E+03  0.44108361422E+03  0.12000000000E+03 0.  0.
         25    1    3    3    0    0  0.42511247736E+01 -0.65616118305E+02  0.37136991053E+03  0.39577665101E+03  0.12000000000E+03 0.  0.
<mgrwt>
<rscale>  0 0.27411841E+03</rscale>
<asrwt>0</asrwt>
<pdfrwt beam="1">  1        3 0.12519632E+00 0.27411841E+03</pdfrwt>
<pdfrwt beam="2">  1       -3 0.35513879E-02 0.27411841E+03</pdfrwt>
<totfact> 0.53145711E+02</totfact>
</mgrwt>
</event>
<event>
 5    1  0.1122238E+001  0.2751338E+03  0.7818608E-02  0.1098377E+00
          1   -1    0    0  501    0  0.00000000000E+00  0.00000000000E+00  0.25254067237E+03  0.25254067237E+03  0.00000000000E+00 0. -1.
         -1   -1    0    0    0  501 -0.00000000000E+00 -0.00000000000E+00 -0.74937034150E+02  0.74937034150E+02  0.00000000000E+00 0. -1.
         35    2    1    2    0    0  0.00000000000E+00  0.00000000000E+00  0.17760363821E+03  0.32747770652E+03  0.27513377829E+03 0.  0.
         25    1    3    3    0    0 -0.14844071951E+02 -0.15065728045E+02  0.12799723859E+02  0.12252002108E+03  0.12000000000E+03 0.  0.
         25    1    3    3    0    0  0.14844071951E+02  0.15065728045E+02  0.16480391436E+03  0.20495768544E+03  0.12000000000E+03 0.  0.
<mgrwt>
<rscale>  0 0.27513378E+03</rscale>
<asrwt>0</asrwt>
<pdfrwt beam="1">  1        1 0.38852411E-01 0.27513378E+03</pdfrwt>
<pdfrwt beam="2">  1       -1 0.11528775E-01 0.27513378E+03</pdfrwt>
<totfact> 0.52833851E+03</totfact>
</mgrwt>
</event>
<event>
 5    1  0.1122238E+001  0.2754625E+03  0.7818608E-02  0.1098193E+00
         -2   -1    0    0    0  501 -0.00000000000E+00  0.00000000000E+00  0.84214861565E+02  0.84214861565E+02  0.00000000000E+00 0.  1.
          2   -1    0    0  501    0  0.00000000000E+00 -0.00000000000E+00 -0.22525589766E+03  0.22525589766E+03  0.00000000000E+00 0.  1.
         35    2    1    2    0    0  0.00000000000E+00  0.00000000000E+00 -0.14104103610E+03  0.30947075922E+03  0.27546247830E+03 0.  0.
         25    1    3    3    0    0  0.20431285332E+01 -0.35241698981E+02 -0.13529006454E+03  0.18425404550E+03  0.12000000000E+03 0.  0.
         25    1    3    3    0    0 -0.20431285332E+01  0.35241698981E+02 -0.57509715553E+01  0.12521671372E+03  0.12000000000E+03 0.  0.
<mgrwt>
<rscale>  0 0.27546248E+03</rscale>
<asrwt>0</asrwt>
<pdfrwt beam="1">  1        2 0.34654753E-01 0.27546248E+03</pdfrwt>
<pdfrwt beam="2">  1       -2 0.12956133E-01 0.27546248E+03</pdfrwt>
<totfact> 0.64729477E+03</totfact>
</mgrwt>
</event>
<event>
 5    1  0.1122238E+001  0.2775003E+03  0.7818608E-02  0.1097062E+00
          2   -1    0    0  501    0  0.00000000000E+00  0.00000000000E+00  0.12667536683E+04  0.12667536683E+04  0.00000000000E+00 0.  1.
         -2   -1    0    0    0  501 -0.00000000000E+00 -0.00000000000E+00 -0.15197587568E+02  0.15197587568E+02  0.00000000000E+00 0.  1.
         35    2    1    2    0    0  0.00000000000E+00  0.00000000000E+00  0.12515560807E+04  0.12819512559E+04  0.27750026884E+03 0.  0.
         25    1    3    3    0    0  0.32353261823E+01 -0.55851694470E+02  0.43409245598E+03  0.45383492533E+03  0.12000000000E+03 0.  0.
         25    1    3    3    0    0 -0.32353261823E+01  0.55851694470E+02  0.81746362475E+03  0.82811633053E+03  0.12000000000E+03 0.  0.
<mgrwt>
<rscale>  0 0.27750027E+03</rscale>
<asrwt>0</asrwt>
<pdfrwt beam="1">  1        2 0.19488510E+00 0.27750027E+03</pdfrwt>
<pdfrwt beam="2">  1       -2 0.23380914E-02 0.27750027E+03</pdfrwt>
<totfact> 0.11232669E+04</totfact>
</mgrwt>
</event>
<event>
 5    1  0.1122238E+001  0.2738677E+03  0.7818608E-02  0.1099086E+00
          2   -1    0    0  501    0  0.00000000000E+00  0.00000000000E+00  0.54587408177E+03  0.54587408177E+03  0.00000000000E+00 0. -1.
         -2   -1    0    0    0  501 -0.00000000000E+00 -0.00000000000E+00 -0.34350183038E+02  0.34350183038E+02  0.00000000000E+00 0. -1.
         35    2    1    2    0    0  0.00000000000E+00  0.00000000000E+00  0.51152389873E+03  0.58022426481E+03  0.27386766603E+03 0.  0.
         25    1    3    3    0    0  0.18770262304E+02 -0.62949976582E+02  0.26844763062E+03  0.30129578936E+03  0.12000000000E+03 0.  0.
         25    1    3    3    0    0 -0.18770262304E+02  0.62949976582E+02  0.24307626811E+03  0.27892847545E+03  0.12000000000E+03 0.  0.
<mgrwt>
<rscale>  0 0.27386767E+03</rscale>
<asrwt>0</asrwt>
<pdfrwt beam="1">  1        2 0.83980622E-01 0.27386767E+03</pdfrwt>
<pdfrwt beam="2">  1       -2 0.52846439E-02 0.27386767E+03</pdfrwt>
<totfact> 0.10075685E+04</totfact>
</mgrwt>
</event>
<event>
 5    1  0.1122238E+001  0.2765520E+03  0.7818608E-02  0.1097587E+00
         -2   -1    0    0    0  501 -0.00000000000E+00  0.00000000000E+00  0.26855252066E+02  0.26855252066E+02  0.00000000000E+00 0. -1.
          2   -1    0    0  501    0  0.00000000000E+00 -0.00000000000E+00 -0.71197465440E+03  0.71197465440E+03  0.00000000000E+00 0. -1.
         35    2    1    2    0    0  0.00000000000E+00  0.00000000000E+00 -0.68511940233E+03  0.73882990646E+03  0.27655204796E+03 0.  0.
         25    1    3    3    0    0 -0.43534581363E+02  0.40328254738E+01 -0.48414657666E+03  0.50070892856E+03  0.12000000000E+03 0.  0.
         25    1    3    3    0    0  0.43534581363E+02 -0.40328254738E+01 -0.20097282568E+03  0.23812097790E+03  0.12000000000E+03 0.  0.
<mgrwt>
<rscale>  0 0.27655205E+03</rscale>
<asrwt>0</asrwt>
<pdfrwt beam="1">  1        2 0.10953458E+00 0.27655205E+03</pdfrwt>
<pdfrwt beam="2">  1       -2 0.41315765E-02 0.27655205E+03</pdfrwt>
<totfact> 0.10710873E+04</totfact>
</mgrwt>
</event>
<event>
 5    1  0.1122238E+001  0.2750788E+03  0.7818608E-02  0.1098408E+00
         -2   -1    0    0    0  501 -0.00000000000E+00  0.00000000000E+00  0.46526866462E+02  0.46526866462E+02  0.00000000000E+00 0.  1.
          2   -1    0    0  501    0  0.00000000000E+00 -0.00000000000E+00 -0.40658406072E+03  0.40658406072E+03  0.00000000000E+00 0.  1.
         35    2    1    2    0    0  0.00000000000E+00  0.00000000000E+00 -0.36005719425E+03  0.45311092718E+03  0.27507876907E+03 0.  0.
         25    1    3    3    0    0 -0.11152146648E+02  0.60504184939E+02 -0.22459317644E+03  0.26196797833E+03  0.12000000000E+03 0.  0.
         25    1    3    3    0    0  0.11152146648E+02 -0.60504184939E+02 -0.13546401782E+03  0.19114294885E+03  0.12000000000E+03 0.  0.
<mgrwt>
<rscale>  0 0.27507877E+03</rscale>
<asrwt>0</asrwt>
<pdfrwt beam="1">  1        2 0.62551395E-01 0.27507877E+03</pdfrwt>
<pdfrwt beam="2">  1       -2 0.71579793E-02 0.27507877E+03</pdfrwt>
<totfact> 0.87666360E+03</totfact>
</mgrwt>
</event>
<event>
 5    1  0.1122238E+001  0.2765990E+03  0.7818608E-02  0.1097561E+00
          2   -1    0    0  501    0  0.00000000000E+00  0.00000000000E+00  0.11213239211E+04  0.11213239211E+04  0.00000000000E+00 0. -1.
         -2   -1    0    0    0  501 -0.00000000000E+00 -0.00000000000E+00 -0.17057293084E+02  0.17057293084E+02  0.00000000000E+00 0. -1.
         35    2    1    2    0    0  0.00000000000E+00  0.00000000000E+00  0.11042666281E+04  0.11383812142E+04  0.27659899324E+03 0.  0.
         25    1    3    3    0    0 -0.51046100955E+02 -0.32765088938E+02  0.68533605590E+03  0.69840157860E+03  0.12000000000E+03 0.  0.
         25    1    3    3    0    0  0.51046100955E+02  0.32765088938E+02  0.41893057215E+03  0.43997963562E+03  0.12000000000E+03 0.  0.
<mgrwt>
<rscale>  0 0.27659899E+03</rscale>
<asrwt>0</asrwt>
<pdfrwt beam="1">  1        2 0.17251131E+00 0.27659899E+03</pdfrwt>
<pdfrwt beam="2">  1       -2 0.26241998E-02 0.27659899E+03</pdfrwt>
<totfact> 0.11458450E+04</totfact>
</mgrwt>
</event>
<event>
 5    1  0.1122238E+001  0.2757849E+03  0.7818608E-02  0.1098014E+00
          2   -1    0    0  501    0  0.00000000000E+00  0.00000000000E+00  0.28476854178E+04  0.28476854178E+04  0.00000000000E+00 0.  1.
         -2   -1    0    0    0  501 -0.00000000000E+00 -0.00000000000E+00 -0.66771157343E+01  0.66771157343E+01  0.00000000000E+00 0.  1.
         35    2    1    2    0    0  0.00000000000E+00  0.00000000000E+00  0.28410083021E+04  0.28543625336E+04  0.27578488073E+03 0.  0.
         25    1    3    3    0    0  0.42100006503E+02 -0.51150241222E+02  0.15759491776E+04  0.15818990385E+04  0.12000000000E+03 0.  0.
         25    1    3    3    0    0 -0.42100006503E+02  0.51150241222E+02  0.12650591245E+04  0.12724634950E+04  0.12000000000E+03 0.  0.
<mgrwt>
<rscale>  0 0.27578488E+03</rscale>
<asrwt>0</asrwt>
<pdfrwt beam="1">  1        2 0.43810448E+00 0.27578488E+03</pdfrwt>
<pdfrwt beam="2">  1       -2 0.10272508E-02 0.27578488E+03</pdfrwt>
<totfact> 0.52444417E+03</totfact>
</mgrwt>
</event>
<event>
 5    1  0.1122238E+001  0.2731802E+03  0.7818608E-02  0.1099473E+00
         -2   -1    0    0    0  501 -0.00000000000E+00  0.00000000000E+00  0.50876807990E+02  0.50876807990E+02  0.00000000000E+00 0.  1.
          2   -1    0    0  501    0  0.00000000000E+00 -0.00000000000E+00 -0.36670651327E+03  0.36670651327E+03  0.00000000000E+00 0.  1.
         35    2    1    2    0    0  0.00000000000E+00  0.00000000000E+00 -0.31582970528E+03  0.41758332126E+03  0.27318021059E+03 0.  0.
         25    1    3    3    0    0 -0.46707428101E+02 -0.44008631817E+02 -0.13992449796E+03  0.19518506255E+03  0.12000000000E+03 0.  0.
         25    1    3    3    0    0  0.46707428101E+02  0.44008631817E+02 -0.17590520732E+03  0.22239825871E+03  0.12000000000E+03 0.  0.
<mgrwt>
<rscale>  0 0.27318021E+03</rscale>
<asrwt>0</asrwt>
<pdfrwt beam="1">  1        2 0.56416385E-01 0.27318021E+03</pdfrwt>
<pdfrwt beam="2">  1       -2 0.78272014E-02 0.27318021E+03</pdfrwt>
<totfact> 0.85301150E+03</totfact>
</mgrwt>
</event>
<event>
 5    1  0.1122238E+001  0.2755791E+03  0.7818608E-02  0.1098128E+00
          2   -1    0    0  501    0  0.00000000000E+00  0.00000000000E+00  0.90811595238E+03  0.90811595238E+03  0.00000000000E+00 0. -1.
         -2   -1    0    0    0  501 -0.00000000000E+00 -0.00000000000E+00 -0.20906974049E+02  0.20906974049E+02  0.00000000000E+00 0. -1.
         35    2    1    2    0    0  0.00000000000E+00  0.00000000000E+00  0.88720897833E+03  0.92902292643E+03  0.27557907504E+03 0.  0.
         25    1    3    3    0    0  0.14918406309E+02  0.43133795118E+02  0.27494932431E+03  0.30344721792E+03  0.12000000000E+03 0.  0.
         25    1    3    3    0    0 -0.14918406309E+02 -0.43133795118E+02  0.61225965402E+03  0.62557570851E+03  0.12000000000E+03 0.  0.
<mgrwt>
<rscale>  0 0.27557908E+03</rscale>
<asrwt>0</asrwt>
<pdfrwt beam="1">  1        2 0.13971012E+00 0.27557908E+03</pdfrwt>
<pdfrwt beam="2">  1       -2 0.32164582E-02 0.27557908E+03</pdfrwt>
<totfact> 0.11421332E+04</totfact>
</mgrwt>
</event>
<event>
 5    1  0.1122238E+001  0.2733539E+03  0.7818608E-02  0.1099375E+00
         -2   -1    0    0    0  501 -0.00000000000E+00  0.00000000000E+00  0.12062438026E+03  0.12062438026E+03  0.00000000000E+00 0. -1.
          2   -1    0    0  501    0  0.00000000000E+00 -0.00000000000E+00 -0.15486577897E+03  0.15486577897E+03  0.00000000000E+00 0. -1.
         35    2    1    2    0    0  0.00000000000E+00  0.00000000000E+00 -0.34241398706E+02  0.27549015923E+03  0.27335389964E+03 0.  0.
         25    1    3    3    0    0  0.14328604068E+01  0.65391150477E+02 -0.18724665362E+02  0.13794444078E+03  0.12000000000E+03 0.  0.
         25    1    3    3    0    0 -0.14328604068E+01 -0.65391150477E+02 -0.15516733345E+02  0.13754571845E+03  0.12000000000E+03 0.  0.
<mgrwt>
<rscale>  0 0.27335390E+03</rscale>
<asrwt>0</asrwt>
<pdfrwt beam="1">  1        2 0.23825504E-01 0.27335390E+03</pdfrwt>
<pdfrwt beam="2">  1       -2 0.18557597E-01 0.27335390E+03</pdfrwt>
<totfact> 0.53898972E+03</totfact>
</mgrwt>
</event>
<event>
 5    1  0.1122238E+001  0.2747821E+03  0.7818608E-02  0.1098573E+00
          4   -1    0    0  501    0  0.00000000000E+00  0.00000000000E+00  0.39131345690E+03  0.39131345690E+03  0.00000000000E+00 0.  1.
         -4   -1    0    0    0  501 -0.00000000000E+00 -0.00000000000E+00 -0.48238318484E+02  0.48238318484E+02  0.00000000000E+00 0.  1.
         35    2    1    2    0    0  0.00000000000E+00  0.00000000000E+00  0.34307513842E+03  0.43955177539E+03  0.27478211849E+03 0.  0.
         25    1    3    3    0    0 -0.53556444298E+02  0.37055520488E+02  0.14702086971E+03  0.20064032610E+03  0.12000000000E+03 0.  0.
         25    1    3    3    0    0  0.53556444298E+02 -0.37055520488E+02  0.19605426871E+03  0.23891144929E+03  0.12000000000E+03 0.  0.
<mgrwt>
<rscale>  0 0.27478212E+03</rscale>
<asrwt>0</asrwt>
<pdfrwt beam="1">  1        4 0.60202068E-01 0.27478212E+03</pdfrwt>
<pdfrwt beam="2">  1       -4 0.74212800E-02 0.27478212E+03</pdfrwt>
<totfact> 0.61749985E+02</totfact>
</mgrwt>
</event>
<event>
 5    1  0.1122238E+001  0.2744654E+03  0.7818608E-02  0.1098751E+00
          1   -1    0    0  501    0  0.00000000000E+00  0.00000000000E+00  0.68238313669E+03  0.68238313669E+03  0.00000000000E+00 0. -1.
         -1   -1    0    0    0  501 -0.00000000000E+00 -0.00000000000E+00 -0.27598590568E+02  0.27598590568E+02  0.00000000000E+00 0. -1.
         35    2    1    2    0    0  0.00000000000E+00  0.00000000000E+00  0.65478454613E+03  0.70998172726E+03  0.27446539162E+03 0.  0.
         25    1    3    3    0    0 -0.50057629454E+02 -0.36844342349E+02  0.38912593885E+03  0.41192507585E+03  0.12000000000E+03 0.  0.
         25    1    3    3    0    0  0.50057629454E+02  0.36844342349E+02  0.26565860728E+03  0.29805665141E+03  0.12000000000E+03 0.  0.
<mgrwt>
<rscale>  0 0.27446539E+03</rscale>
<asrwt>0</asrwt>
<pdfrwt beam="1">  1        1 0.10498201E+00 0.27446539E+03</pdfrwt>
<pdfrwt beam="2">  1       -1 0.42459375E-02 0.27446539E+03</pdfrwt>
<totfact> 0.65627570E+03</totfact>
</mgrwt>
</event>
<event>
 4    1  0.1122238E+001  0.3098262E+03  0.7818608E-02  0.1080429E+00
          2   -1    0    0  501    0  0.00000000000E+00  0.00000000000E+00  0.46417547749E+02  0.46417547749E+02  0.00000000000E+00 0.  1.
         -2   -1    0    0    0  501 -0.00000000000E+00 -0.00000000000E+00 -0.51700412640E+03  0.51700412640E+03  0.00000000000E+00 0.  1.
         25    1    1    2    0    0  0.31050484247E+02  0.36565906875E+02 -0.39063340590E+03  0.41145553334E+03  0.12000000000E+03 0.  0.
         25    1    1    2    0    0 -0.31050484247E+02 -0.36565906875E+02 -0.79953172754E+02  0.15196614080E+03  0.12000000000E+03 0.  0.
<mgrwt>
<rscale>  0 0.30982617E+03</rscale>
<asrwt>0</asrwt>
<pdfrwt beam="1">  1        2 0.71411609E-02 0.30982617E+03</pdfrwt>
<pdfrwt beam="2">  1       -2 0.79539100E-01 0.30982617E+03</pdfrwt>
<totfact> 0.14239221E+03</totfact>
</mgrwt>
</event>
<event>
 5    1  0.1122238E+001  0.2761221E+03  0.7818608E-02  0.1097826E+00
         -1   -1    0    0    0  501 -0.00000000000E+00  0.00000000000E+00  0.17571274270E+03  0.17571274270E+03  0.00000000000E+00 0.  1.
          1   -1    0    0  501    0  0.00000000000E+00 -0.00000000000E+00 -0.10847736223E+03  0.10847736223E+03  0.00000000000E+00 0.  1.
         35    2    1    2    0    0  0.00000000000E+00  0.00000000000E+00  0.67235380473E+02  0.28419010494E+03  0.27612210950E+03 0.  0.
         25    1    3    3    0    0  0.64207894504E+02  0.12616656701E+02  0.53655002269E+02  0.14683559858E+03  0.12000000000E+03 0.  0.
         25    1    3    3    0    0 -0.64207894504E+02 -0.12616656701E+02  0.13580378204E+02  0.13735450635E+03  0.12000000000E+03 0.  0.
<mgrwt>
<rscale>  0 0.27612211E+03</rscale>
<asrwt>0</asrwt>
<pdfrwt beam="1">  1        1 0.16688825E-01 0.27612211E+03</pdfrwt>
<pdfrwt beam="2">  1       -1 0.27032730E-01 0.27612211E+03</pdfrwt>
<totfact> 0.39281537E+03</totfact>
</mgrwt>
</event>
<event>
 5    1  0.1122238E+001  0.2750555E+03  0.7818608E-02  0.1098421E+00
          3   -1    0    0  501    0  0.00000000000E+00  0.00000000000E+00  0.75448017785E+02  0.75448017785E+02  0.00000000000E+00 0.  1.
         -3   -1    0    0    0  501 -0.00000000000E+00 -0.00000000000E+00 -0.25068753439E+03  0.25068753439E+03  0.00000000000E+00 0.  1.
         35    2    1    2    0    0  0.00000000000E+00  0.00000000000E+00 -0.17523951661E+03  0.32613555218E+03  0.27505546752E+03 0.  0.
         25    1    3    3    0    0  0.35809446079E+02  0.35779281180E+02 -0.35241449065E+02  0.13492380488E+03  0.12000000000E+03 0.  0.
         25    1    3    3    0    0 -0.35809446079E+02 -0.35779281180E+02 -0.13999806754E+03  0.19121174730E+03  0.12000000000E+03 0.  0.
<mgrwt>
<rscale>  0 0.27505547E+03</rscale>
<asrwt>0</asrwt>
<pdfrwt beam="1">  1        3 0.11607387E-01 0.27505547E+03</pdfrwt>
<pdfrwt beam="2">  1       -3 0.38567313E-01 0.27505547E+03</pdfrwt>
<totfact> 0.97400336E+02</totfact>
</mgrwt>
</event>
<event>
 5    1  0.1122238E+001  0.2760015E+03  0.7818608E-02  0.1097893E+00
          2   -1    0    0  501    0  0.00000000000E+00  0.00000000000E+00  0.11401326206E+04  0.11401326206E+04  0.00000000000E+00 0.  1.
         -2   -1    0    0    0  501 -0.00000000000E+00 -0.00000000000E+00 -0.16703496927E+02  0.16703496927E+02  0.00000000000E+00 0.  1.
         35    2    1    2    0    0  0.00000000000E+00  0.00000000000E+00  0.11234291236E+04  0.11568361175E+04  0.27600146176E+03 0.  0.
         25    1    3    3    0    0 -0.43878129236E+02  0.16336165801E+02  0.35416379738E+03  0.37686092383E+03  0.12000000000E+03 0.  0.
         25    1    3    3    0    0  0.43878129236E+02 -0.16336165801E+02  0.76926532627E+03  0.77997519367E+03  0.12000000000E+03 0.  0.
<mgrwt>
<rscale>  0 0.27600146E+03</rscale>
<asrwt>0</asrwt>
<pdfrwt beam="1">  1        2 0.17540496E+00 0.27600146E+03</pdfrwt>
<pdfrwt beam="2">  1       -2 0.25697697E-02 0.27600146E+03</pdfrwt>
<totfact> 0.11525444E+04</totfact>
</mgrwt>
</event>
<event>
 5    1  0.1122238E+001  0.2759931E+03  0.7818608E-02  0.1097898E+00
         -4   -1    0    0    0  501 -0.00000000000E+00  0.00000000000E+00  0.12590292119E+04  0.12590292119E+04  0.00000000000E+00 0.  1.
          4   -1    0    0  501    0  0.00000000000E+00 -0.00000000000E+00 -0.15125187511E+02  0.15125187511E+02  0.00000000000E+00 0.  1.
         35    2    1    2    0    0  0.00000000000E+00  0.00000000000E+00  0.12439040243E+04  0.12741543994E+04  0.27599313696E+03 0.  0.
         25    1    3    3    0    0 -0.19456155094E+02 -0.63576080831E+02  0.55307418850E+03  0.56983464093E+03  0.12000000000E+03 0.  0.
         25    1    3    3    0    0  0.19456155094E+02  0.63576080831E+02  0.69082983585E+03  0.70431975843E+03  0.12000000000E+03 0.  0.
<mgrwt>
<rscale>  0 0.27599314E+03</rscale>
<asrwt>0</asrwt>
<pdfrwt beam="1">  1        4 0.23269529E-02 0.27599314E+03</pdfrwt>
<pdfrwt beam="2">  1       -4 0.19369672E+00 0.27599314E+03</pdfrwt>
<totfact> 0.23734575E+02</totfact>
</mgrwt>
</event>
<event>
 5    1  0.1122238E+001  0.2751947E+03  0.7818608E-02  0.1098343E+00
          2   -1    0    0  501    0  0.00000000000E+00  0.00000000000E+00  0.20179590922E+04  0.20179590922E+04  0.00000000000E+00 0.  1.
         -2   -1    0    0    0  501 -0.00000000000E+00 -0.00000000000E+00 -0.93822668366E+01  0.93822668366E+01  0.00000000000E+00 0.  1.
         35    2    1    2    0    0  0.00000000000E+00  0.00000000000E+00  0.20085768254E+04  0.20273413590E+04  0.27519469957E+03 0.  0.
         25    1    3    3    0    0 -0.44121490021E+02 -0.45748965376E+02  0.11679201127E+04  0.11757878479E+04  0.12000000000E+03 0.  0.
         25    1    3    3    0    0  0.44121490021E+02  0.45748965376E+02  0.84065671269E+03  0.85155351112E+03  0.12000000000E+03 0.  0.
<mgrwt>
<rscale>  0 0.27519470E+03</rscale>
<asrwt>0</asrwt>
<pdfrwt beam="1">  1        2 0.31045490E+00 0.27519470E+03</pdfrwt>
<pdfrwt beam="2">  1       -2 0.14434273E-02 0.27519470E+03</pdfrwt>
<totfact> 0.90730557E+03</totfact>
</mgrwt>
</event>
<event>
 5    1  0.1122238E+001  0.2766045E+03  0.7818608E-02  0.1097558E+00
          1   -1    0    0  501    0  0.00000000000E+00  0.00000000000E+00  0.23769107698E+02  0.23769107698E+02  0.00000000000E+00 0.  1.
         -1   -1    0    0    0  501 -0.00000000000E+00 -0.00000000000E+00 -0.80472125721E+03  0.80472125721E+03  0.00000000000E+00 0.  1.
         35    2    1    2    0    0  0.00000000000E+00  0.00000000000E+00 -0.78095214951E+03  0.82849036491E+03  0.27660445571E+03 0.  0.
         25    1    3    3    0    0 -0.37021459374E+02  0.40567662179E+02 -0.51437754593E+03  0.53103727122E+03  0.12000000000E+03 0.  0.
         25    1    3    3    0    0  0.37021459374E+02 -0.40567662179E+02 -0.26657460358E+03  0.29745309368E+03  0.12000000000E+03 0.  0.
<mgrwt>
<rscale>  0 0.27660446E+03</rscale>
<asrwt>0</asrwt>
<pdfrwt beam="1">  1        1 0.36567853E-02 0.27660446E+03</pdfrwt>
<pdfrwt beam="2">  1       -1 0.12380329E+00 0.27660446E+03</pdfrwt>
<totfact> 0.15815218E+03</totfact>
</mgrwt>
</event>
<event>
 5    1  0.1122238E+001  0.2744643E+03  0.7818608E-02  0.1098751E+00
         -1   -1    0    0    0  501 -0.00000000000E+00  0.00000000000E+00  0.56116866771E+02  0.56116866771E+02  0.00000000000E+00 0.  1.
          1   -1    0    0  501    0  0.00000000000E+00 -0.00000000000E+00 -0.33559728565E+03  0.33559728565E+03  0.00000000000E+00 0.  1.
         35    2    1    2    0    0  0.00000000000E+00  0.00000000000E+00 -0.27948041888E+03  0.39171415242E+03  0.27446433770E+03 0.  0.
         25    1    3    3    0    0 -0.24469677016E+02 -0.58621623812E+02 -0.11128892979E+03  0.17555764229E+03  0.12000000000E+03 0.  0.
         25    1    3    3    0    0  0.24469677016E+02  0.58621623812E+02 -0.16819148908E+03  0.21615651013E+03  0.12000000000E+03 0.  0.
<mgrwt>
<rscale>  0 0.27446434E+03</rscale>
<asrwt>0</asrwt>
<pdfrwt beam="1">  1        1 0.51630352E-01 0.27446434E+03</pdfrwt>
<pdfrwt beam="2">  1       -1 0.86333641E-02 0.27446434E+03</pdfrwt>
<totfact> 0.57769664E+03</totfact>
</mgrwt>
</event>
<event>
 5    1  0.1122238E+001  0.2852921E+03  0.7818608E-02  0.1092833E+00
          2   -1    0    0  501    0  0.00000000000E+00  0.00000000000E+00  0.27696389580E+04  0.27696389580E+04  0.00000000000E+00 0. -1.
         -2   -1    0    0    0  501 -0.00000000000E+00 -0.00000000000E+00 -0.73467663762E+01  0.73467663762E+01  0.00000000000E+00 0. -1.
         35    2    1    2    0    0  0.00000000000E+00  0.00000000000E+00  0.27622921916E+04  0.27769857244E+04  0.28529206348E+03 0.  0.
         25    1    3    3    0    0 -0.42085275519E+02 -0.63110570323E+02  0.12456478092E+04  0.12537115215E+04  0.12000000000E+03 0.  0.
         25    1    3    3    0    0  0.42085275519E+02  0.63110570323E+02  0.15166443824E+04  0.15232742029E+04  0.12000000000E+03 0.  0.
<mgrwt>
<rscale>  0 0.28529206E+03</rscale>
<asrwt>0</asrwt>
<pdfrwt beam="1">  1        2 0.42609747E+00 0.28529206E+03</pdfrwt>
<pdfrwt beam="2">  1       -2 0.11302740E-02 0.28529206E+03</pdfrwt>
<totfact> 0.50562412E+03</totfact>
</mgrwt>
</event>
<event>
 5    1  0.1122238E+001  0.2756471E+03  0.7818608E-02  0.1098090E+00
          3   -1    0    0  501    0  0.00000000000E+00  0.00000000000E+00  0.39514408531E+02  0.39514408531E+02  0.00000000000E+00 0. -1.
         -3   -1    0    0    0  501 -0.00000000000E+00 -0.00000000000E+00 -0.48071900398E+03  0.48071900398E+03  0.00000000000E+00 0. -1.
         35    2    1    2    0    0  0.00000000000E+00  0.00000000000E+00 -0.44120459545E+03  0.52023341251E+03  0.27564707226E+03 0.  0.
         25    1    3    3    0    0  0.25166492414E+02 -0.48638255326E+02 -0.14519707633E+03  0.19616631514E+03  0.12000000000E+03 0.  0.
         25    1    3    3    0    0 -0.25166492414E+02  0.48638255326E+02 -0.29600751913E+03  0.32406709737E+03  0.12000000000E+03 0.  0.
<mgrwt>
<rscale>  0 0.27564707E+03</rscale>
<asrwt>0</asrwt>
<pdfrwt beam="1">  1        3 0.60791399E-02 0.27564707E+03</pdfrwt>
<pdfrwt beam="2">  1       -3 0.73956769E-01 0.27564707E+03</pdfrwt>
<totfact> 0.74886971E+02</totfact>
</mgrwt>
</event>
<event>
 5    1  0.1122238E+001  0.2746824E+03  0.7818608E-02  0.1098629E+00
         -2   -1    0    0    0  501 -0.00000000000E+00  0.00000000000E+00  0.10605954175E+03  0.10605954175E+03  0.00000000000E+00 0. -1.
          2   -1    0    0  501    0  0.00000000000E+00 -0.00000000000E+00 -0.17784914334E+03  0.17784914334E+03  0.00000000000E+00 0. -1.
         35    2    1    2    0    0  0.00000000000E+00  0.00000000000E+00 -0.71789601588E+02  0.28390868509E+03  0.27468235213E+03 0.  0.
         25    1    3    3    0    0  0.34753943743E+02  0.26524242589E+02  0.16311441802E+02  0.12875338902E+03  0.12000000000E+03 0.  0.
         25    1    3    3    0    0 -0.34753943743E+02 -0.26524242589E+02 -0.88101043390E+02  0.15515529607E+03  0.12000000000E+03 0.  0.
<mgrwt>
<rscale>  0 0.27468235E+03</rscale>
<asrwt>0</asrwt>
<pdfrwt beam="1">  1        2 0.27361406E-01 0.27468235E+03</pdfrwt>
<pdfrwt beam="2">  1       -2 0.16316853E-01 0.27468235E+03</pdfrwt>
<totfact> 0.57351310E+03</totfact>
</mgrwt>
</event>
<event>
 5    1  0.1122238E+001  0.2724486E+03  0.7818608E-02  0.1099886E+00
          2   -1    0    0  501    0  0.00000000000E+00  0.00000000000E+00  0.47891076228E+03  0.47891076228E+03  0.00000000000E+00 0.  1.
         -2   -1    0    0    0  501 -0.00000000000E+00 -0.00000000000E+00 -0.38748475436E+02  0.38748475436E+02  0.00000000000E+00 0.  1.
         35    2    1    2    0    0  0.00000000000E+00  0.00000000000E+00  0.44016228685E+03  0.51765923772E+03  0.27244861467E+03 0.  0.
         25    1    3    3    0    0 -0.22907117112E+01  0.53669044407E+02  0.15233123638E+03  0.20122231304E+03  0.12000000000E+03 0.  0.
         25    1    3    3    0    0  0.22907117112E+01 -0.53669044407E+02  0.28783105047E+03  0.31643692468E+03  0.12000000000E+03 0.  0.
<mgrwt>
<rscale>  0 0.27244861E+03</rscale>
<asrwt>0</asrwt>
<pdfrwt beam="1">  1        2 0.73678575E-01 0.27244861E+03</pdfrwt>
<pdfrwt beam="2">  1       -2 0.59613042E-02 0.27244861E+03</pdfrwt>
<totfact> 0.97063224E+03</totfact>
</mgrwt>
</event>
<event>
 5    1  0.1122238E+001  0.2748737E+03  0.7818608E-02  0.1098522E+00
          2   -1    0    0  501    0  0.00000000000E+00  0.00000000000E+00  0.45691769504E+02  0.45691769504E+02  0.00000000000E+00 0.  1.
         -2   -1    0    0    0  501 -0.00000000000E+00 -0.00000000000E+00 -0.41339811645E+03  0.41339811645E+03  0.00000000000E+00 0.  1.
         35    2    1    2    0    0  0.00000000000E+00  0.00000000000E+00 -0.36770634695E+03  0.45908988596E+03  0.27487372701E+03 0.  0.
         25    1    3    3    0    0 -0.26704463603E+02 -0.13701704635E+02 -0.83808883401E+02  0.14941483870E+03  0.12000000000E+03 0.  0.
         25    1    3    3    0    0  0.26704463603E+02  0.13701704635E+02 -0.28389746355E+03  0.30967504726E+03  0.12000000000E+03 0.  0.
<mgrwt>
<rscale>  0 0.27487373E+03</rscale>
<asrwt>0</asrwt>
<pdfrwt beam="1">  1        2 0.70295032E-02 0.27487373E+03</pdfrwt>
<pdfrwt beam="2">  1       -2 0.63599709E-01 0.27487373E+03</pdfrwt>
<totfact> 0.23448775E+03</totfact>
</mgrwt>
</event>
<event>
 5    1  0.1122238E+001  0.2748342E+03  0.7818608E-02  0.1098544E+00
          2   -1    0    0  501    0  0.00000000000E+00  0.00000000000E+00  0.82753018177E+03  0.82753018177E+03  0.00000000000E+00 0. -1.
         -2   -1    0    0    0  501 -0.00000000000E+00 -0.00000000000E+00 -0.22819054654E+02  0.22819054654E+02  0.00000000000E+00 0. -1.
         35    2    1    2    0    0  0.00000000000E+00  0.00000000000E+00  0.80471112712E+03  0.85034923643E+03  0.27483417870E+03 0.  0.
         25    1    3    3    0    0 -0.27056924913E+02 -0.47999755599E+02  0.28464341752E+03  0.31378006448E+03  0.12000000000E+03 0.  0.
         25    1    3    3    0    0  0.27056924913E+02  0.47999755599E+02  0.52006770959E+03  0.53656917195E+03  0.12000000000E+03 0.  0.
<mgrwt>
<rscale>  0 0.27483418E+03</rscale>
<asrwt>0</asrwt>
<pdfrwt beam="1">  1        2 0.12731231E+00 0.27483418E+03</pdfrwt>
<pdfrwt beam="2">  1       -2 0.35106244E-02 0.27483418E+03</pdfrwt>
<totfact> 0.11324663E+04</totfact>
</mgrwt>
</event>
<event>
 5    1  0.1122238E+001  0.2753379E+03  0.7818608E-02  0.1098263E+00
         -2   -1    0    0    0  501 -0.00000000000E+00  0.00000000000E+00  0.93456277269E+03  0.93456277269E+03  0.00000000000E+00 0.  1.
          2   -1    0    0  501    0  0.00000000000E+00 -0.00000000000E+00 -0.20279799177E+02  0.20279799177E+02  0.00000000000E+00 0.  1.
         35    2    1    2    0    0  0.00000000000E+00  0.00000000000E+00  0.91428297351E+03  0.95484257187E+03  0.27533794035E+03 0.  0.
         25    1    3    3    0    0 -0.60018247481E+02 -0.55636011690E+01  0.56230512144E+03  0.57811780225E+03  0.12000000000E+03 0.  0.
         25    1    3    3    0    0  0.60018247481E+02  0.55636011690E+01  0.35197785207E+03  0.37672476961E+03  0.12000000000E+03 0.  0.
<mgrwt>
<rscale>  0 0.27533794E+03</rscale>
<asrwt>0</asrwt>
<pdfrwt beam="1">  1        2 0.31199698E-02 0.27533794E+03</pdfrwt>
<pdfrwt beam="2">  1       -2 0.14377885E+00 0.27533794E+03</pdfrwt>
<totfact> 0.10504169E+03</totfact>
</mgrwt>
</event>
<event>
 5    1  0.1122238E+001  0.2750674E+03  0.7818608E-02  0.1098414E+00
          2   -1    0    0  501    0  0.00000000000E+00  0.00000000000E+00  0.17683583155E+04  0.17683583155E+04  0.00000000000E+00 0.  1.
         -2   -1    0    0    0  501 -0.00000000000E+00 -0.00000000000E+00 -0.10696656646E+02  0.10696656646E+02  0.00000000000E+00 0.  1.
         35    2    1    2    0    0  0.00000000000E+00  0.00000000000E+00  0.17576616589E+04  0.17790549722E+04  0.27506742249E+03 0.  0.
         25    1    3    3    0    0 -0.18882354661E+02  0.22420528824E+02  0.48774595450E+03  0.50314544573E+03  0.12000000000E+03 0.  0.
         25    1    3    3    0    0  0.18882354661E+02 -0.22420528824E+02  0.12699157044E+04  0.12759095265E+04  0.12000000000E+03 0.  0.
<mgrwt>
<rscale>  0 0.27506742E+03</rscale>
<asrwt>0</asrwt>
<pdfrwt beam="1">  1        2 0.27205489E+00 0.27506742E+03</pdfrwt>
<pdfrwt beam="2">  1       -2 0.16456409E-02 0.27506742E+03</pdfrwt>
<totfact> 0.10127890E+04</totfact>
</mgrwt>
</event>
<event>
 5    1  0.1122238E+001  0.2747602E+03  0.7818608E-02  0.1098586E+00
          1   -1    0    0  501    0  0.00000000000E+00  0.00000000000E+00  0.19540235728E+04  0.19540235728E+04  0.00000000000E+00 0. -1.
         -1   -1    0    0    0  501 -0.00000000000E+00 -0.00000000000E+00 -0.96586797213E+01  0.96586797213E+01  0.00000000000E+00 0. -1.
         35    2    1    2    0    0  0.00000000000E+00  0.00000000000E+00  0.19443648931E+04  0.19636822525E+04  0.27476017075E+03 0.  0.
         25    1    3    3    0    0 -0.49816744274E+02  0.73073222799E+01  0.12868230853E+04  0.12933865461E+04  0.12000000000E+03 0.  0.
         25    1    3    3    0    0  0.49816744274E+02 -0.73073222799E+01  0.65754180784E+03  0.67029570640E+03  0.12000000000E+03 0.  0.
<mgrwt>
<rscale>  0 0.27476017E+03</rscale>
<asrwt>0</asrwt>
<pdfrwt beam="1">  1        1 0.30061870E+00 0.27476017E+03</pdfrwt>
<pdfrwt beam="2">  1       -1 0.14859523E-02 0.27476017E+03</pdfrwt>
<totfact> 0.38239818E+03</totfact>
</mgrwt>
</event>
<event>
 5    1  0.1122238E+001  0.2758137E+03  0.7818608E-02  0.1097998E+00
          1   -1    0    0  501    0  0.00000000000E+00  0.00000000000E+00  0.15478999620E+03  0.15478999620E+03  0.00000000000E+00 0. -1.
         -1   -1    0    0    0  501 -0.00000000000E+00 -0.00000000000E+00 -0.12286517247E+03  0.12286517247E+03  0.00000000000E+00 0. -1.
         35    2    1    2    0    0  0.00000000000E+00  0.00000000000E+00  0.31924823728E+02  0.27765516867E+03  0.27581370220E+03 0.  0.
         25    1    3    3    0    0 -0.23127523691E+02 -0.63816890317E+02  0.12650807552E+02  0.13844681569E+03  0.12000000000E+03 0.  0.
         25    1    3    3    0    0  0.23127523691E+02  0.63816890317E+02  0.19274016176E+02  0.13920835299E+03  0.12000000000E+03 0.  0.
<mgrwt>
<rscale>  0 0.27581370E+03</rscale>
<asrwt>0</asrwt>
<pdfrwt beam="1">  1        1 0.23813846E-01 0.27581370E+03</pdfrwt>
<pdfrwt beam="2">  1       -1 0.18902334E-01 0.27581370E+03</pdfrwt>
<totfact> 0.44761609E+03</totfact>
</mgrwt>
</event>
<event>
 5    1  0.1122238E+001  0.2739988E+03  0.7818608E-02  0.1099013E+00
         -2   -1    0    0    0  501 -0.00000000000E+00  0.00000000000E+00  0.49692024226E+01  0.49692024226E+01  0.00000000000E+00 0. -1.
          2   -1    0    0  501    0  0.00000000000E+00 -0.00000000000E+00 -0.37770326813E+04  0.37770326813E+04  0.00000000000E+00 0. -1.
         35    2    1    2    0    0  0.00000000000E+00  0.00000000000E+00 -0.37720634789E+04  0.37820018837E+04  0.27399883175E+03 0.  0.
         25    1    3    3    0    0 -0.13336898319E+02  0.57596560773E+02 -0.14780599270E+04  0.14841012043E+04  0.12000000000E+03 0.  0.
         25    1    3    3    0    0  0.13336898319E+02 -0.57596560773E+02 -0.22940035519E+04  0.22979006795E+04  0.12000000000E+03 0.  0.
<mgrwt>
<rscale>  0 0.27399883E+03</rscale>
<asrwt>0</asrwt>
<pdfrwt beam="1">  1        2 0.58108334E+00 0.27399883E+03</pdfrwt>
<pdfrwt beam="2">  1       -2 0.76449085E-03 0.27399883E+03</pdfrwt>
<totfact> 0.20587790E+03</totfact>
</mgrwt>
</event>
<event>
 5    1  0.1122238E+001  0.2749771E+03  0.7818608E-02  0.1098464E+00
          3   -1    0    0  501    0  0.00000000000E+00  0.00000000000E+00  0.11058664247E+03  0.11058664247E+03  0.00000000000E+00 0. -1.
         -3   -1    0    0    0  501 -0.00000000000E+00 -0.00000000000E+00 -0.17093482052E+03  0.17093482052E+03  0.00000000000E+00 0. -1.
         35    2    1    2    0    0  0.00000000000E+00  0.00000000000E+00 -0.60348178050E+02  0.28152146298E+03  0.27497714728E+03 0.  0.
         25    1    3    3    0    0 -0.63054673510E+02  0.22426202984E+02 -0.35218985016E+02  0.14184217757E+03  0.12000000000E+03 0.  0.
         25    1    3    3    0    0  0.63054673510E+02 -0.22426202984E+02 -0.25129193033E+02  0.13967928542E+03  0.12000000000E+03 0.  0.
<mgrwt>
<rscale>  0 0.27497715E+03</rscale>
<asrwt>0</asrwt>
<pdfrwt beam="1">  1        3 0.17013330E-01 0.27497715E+03</pdfrwt>
<pdfrwt beam="2">  1       -3 0.26297665E-01 0.27497715E+03</pdfrwt>
<totfact> 0.10392071E+03</totfact>
</mgrwt>
</event>
<event>
 5    1  0.1122238E+001  0.2730982E+03  0.7818608E-02  0.1099519E+00
         -1   -1    0    0    0  501 -0.00000000000E+00  0.00000000000E+00  0.17031339247E+02  0.17031339247E+02  0.00000000000E+00 0.  1.
          1   -1    0    0  501    0  0.00000000000E+00 -0.00000000000E+00 -0.10947854253E+04  0.10947854253E+04  0.00000000000E+00 0.  1.
         35    2    1    2    0    0  0.00000000000E+00  0.00000000000E+00 -0.10777540861E+04  0.11118167646E+04  0.27309823860E+03 0.  0.
         25    1    3    3    0    0 -0.35395347614E+02 -0.22556606378E+02 -0.33597201343E+03  0.35921974463E+03  0.12000000000E+03 0.  0.
         25    1    3    3    0    0  0.35395347614E+02  0.22556606378E+02 -0.74178207263E+03  0.75259701993E+03  0.12000000000E+03 0.  0.
<mgrwt>
<rscale>  0 0.27309824E+03</rscale>
<asrwt>0</asrwt>
<pdfrwt beam="1">  1        1 0.16842850E+00 0.27309824E+03</pdfrwt>
<pdfrwt beam="2">  1       -1 0.26202065E-02 0.27309824E+03</pdfrwt>
<totfact> 0.62677591E+03</totfact>
</mgrwt>
</event>
<event>
 5    1  0.1122238E+001  0.2749188E+03  0.7818608E-02  0.1098497E+00
         -2   -1    0    0    0  501 -0.00000000000E+00  0.00000000000E+00  0.66473449546E+02  0.66473449546E+02  0.00000000000E+00 0.  1.
          2   -1    0    0  501    0  0.00000000000E+00 -0.00000000000E+00 -0.28425013159E+03  0.28425013159E+03  0.00000000000E+00 0.  1.
         35    2    1    2    0    0  0.00000000000E+00  0.00000000000E+00 -0.21777668204E+03  0.35072358113E+03  0.27491880096E+03 0.  0.
         25    1    3    3    0    0  0.18907590782E+02  0.31106320131E+02 -0.18071559144E+03  0.21996187199E+03  0.12000000000E+03 0.  0.
         25    1    3    3    0    0 -0.18907590782E+02 -0.31106320131E+02 -0.37061090607E+02  0.13076170914E+03  0.12000000000E+03 0.  0.
<mgrwt>
<rscale>  0 0.27491880E+03</rscale>
<asrwt>0</asrwt>
<pdfrwt beam="1">  1        2 0.43730791E-01 0.27491880E+03</pdfrwt>
<pdfrwt beam="2">  1       -2 0.10226684E-01 0.27491880E+03</pdfrwt>
<totfact> 0.73663768E+03</totfact>
</mgrwt>
</event>
<event>
 5    1  0.1122238E+001  0.2750343E+03  0.7818608E-02  0.1098432E+00
          1   -1    0    0  501    0  0.00000000000E+00  0.00000000000E+00  0.19541301766E+03  0.19541301766E+03  0.00000000000E+00 0.  1.
         -1   -1    0    0    0  501 -0.00000000000E+00 -0.00000000000E+00 -0.96774312363E+02  0.96774312363E+02  0.00000000000E+00 0.  1.
         35    2    1    2    0    0  0.00000000000E+00  0.00000000000E+00  0.98638705298E+02  0.29218733002E+03  0.27503425540E+03 0.  0.
         25    1    3    3    0    0  0.10036569852E+02  0.43732356107E+02  0.10241335752E+03  0.16401752194E+03  0.12000000000E+03 0.  0.
         25    1    3    3    0    0 -0.10036569852E+02 -0.43732356107E+02 -0.37746522204E+01  0.12816980808E+03  0.12000000000E+03 0.  0.
<mgrwt>
<rscale>  0 0.27503426E+03</rscale>
<asrwt>0</asrwt>
<pdfrwt beam="1">  1        1 0.30063541E-01 0.27503426E+03</pdfrwt>
<pdfrwt beam="2">  1       -1 0.14888356E-01 0.27503426E+03</pdfrwt>
<totfact> 0.48802611E+03</totfact>
</mgrwt>
</event>
<event>
 5    1  0.1122238E+001  0.2742265E+03  0.7818608E-02  0.1098885E+00
         -2   -1    0    0    0  501 -0.00000000000E+00  0.00000000000E+00  0.58715629635E+02  0.58715629635E+02  0.00000000000E+00 0. -1.
          2   -1    0    0  501    0  0.00000000000E+00 -0.00000000000E+00 -0.32018815835E+03  0.32018815835E+03  0.00000000000E+00 0. -1.
         35    2    1    2    0    0  0.00000000000E+00  0.00000000000E+00 -0.26147252871E+03  0.37890378798E+03  0.27422654371E+03 0.  0.
         25    1    3    3    0    0 -0.51924202485E+01 -0.37971355238E+02 -0.20554407495E+03  0.24107499205E+03  0.12000000000E+03 0.  0.
         25    1    3    3    0    0  0.51924202485E+01  0.37971355238E+02 -0.55928453762E+02  0.13782879593E+03  0.12000000000E+03 0.  0.
<mgrwt>
<rscale>  0 0.27422654E+03</rscale>
<asrwt>0</asrwt>
<pdfrwt beam="1">  1        2 0.49259717E-01 0.27422654E+03</pdfrwt>
<pdfrwt beam="2">  1       -2 0.90331737E-02 0.27422654E+03</pdfrwt>
<totfact> 0.78884247E+03</totfact>
</mgrwt>
</event>
<event>
 5    1  0.1122238E+001  0.2745710E+03  0.7818608E-02  0.1098692E+00
         -2   -1    0    0    0  501 -0.00000000000E+00  0.00000000000E+00  0.15228777786E+02  0.15228777786E+02  0.00000000000E+00 0. -1.
          2   -1    0    0  501    0  0.00000000000E+00 -0.00000000000E+00 -0.12376116578E+04  0.12376116578E+04  0.00000000000E+00 0. -1.
         35    2    1    2    0    0  0.00000000000E+00  0.00000000000E+00 -0.12223828800E+04  0.12528404356E+04  0.27457103214E+03 0.  0.
         25    1    3    3    0    0  0.19122819879E+02  0.52842159088E+02 -0.44734981285E+03  0.46656171197E+03  0.12000000000E+03 0.  0.
         25    1    3    3    0    0 -0.19122819879E+02 -0.52842159088E+02 -0.77503306719E+03  0.78627872364E+03  0.12000000000E+03 0.  0.
<mgrwt>
<rscale>  0 0.27457103E+03</rscale>
<asrwt>0</asrwt>
<pdfrwt beam="1">  1        2 0.19040180E+00 0.27457103E+03</pdfrwt>
<pdfrwt beam="2">  1       -2 0.23428888E-02 0.27457103E+03</pdfrwt>
<totfact> 0.11624529E+04</totfact>
</mgrwt>
</event>
<event>
 5    1  0.1122238E+001  0.2790196E+03  0.7818608E-02  0.1096226E+00
         -2   -1    0    0    0  501 -0.00000000000E+00  0.00000000000E+00  0.14990338524E+02  0.14990338524E+02  0.00000000000E+00 0.  1.
          2   -1    0    0  501    0  0.00000000000E+00 -0.00000000000E+00 -0.12983683695E+04  0.12983683695E+04  0.00000000000E+00 0.  1.
         35    2    1    2    0    0  0.00000000000E+00  0.00000000000E+00 -0.12833780310E+04  0.13133587081E+04  0.27901957916E+03 0.  0.
         25    1    3    3    0    0 -0.45566781828E+02  0.23415540360E+02 -0.40925601327E+03  0.42955221282E+03  0.12000000000E+03 0.  0.
         25    1    3    3    0    0  0.45566781828E+02 -0.23415540360E+02 -0.87412201775E+03  0.88380649526E+03  0.12000000000E+03 0.  0.
<mgrwt>
<rscale>  0 0.27901958E+03</rscale>
<asrwt>0</asrwt>
<pdfrwt beam="1">  1        2 0.19974892E+00 0.27901958E+03</pdfrwt>
<pdfrwt beam="2">  1       -2 0.23062066E-02 0.27901958E+03</pdfrwt>
<totfact> 0.11009405E+04</totfact>
</mgrwt>
</event>
<event>
 5    1  0.1122238E+001  0.2754801E+03  0.7818608E-02  0.1098184E+00
         -1   -1    0    0    0  501 -0.00000000000E+00  0.00000000000E+00  0.27770205777E+03  0.27770205777E+03  0.00000000000E+00 0. -1.
          1   -1    0    0  501    0  0.00000000000E+00 -0.00000000000E+00 -0.68318957442E+02  0.68318957442E+02  0.00000000000E+00 0. -1.
         35    2    1    2    0    0  0.00000000000E+00  0.00000000000E+00  0.20938310033E+03  0.34602101521E+03  0.27548005421E+03 0.  0.
         25    1    3    3    0    0 -0.39605944444E+02 -0.43072520725E+02  0.62125153729E+02  0.14725286959E+03  0.12000000000E+03 0.  0.
         25    1    3    3    0    0  0.39605944444E+02  0.43072520725E+02  0.14725794660E+03  0.19876814562E+03  0.12000000000E+03 0.  0.
<mgrwt>
<rscale>  0 0.27548005E+03</rscale>
<asrwt>0</asrwt>
<pdfrwt beam="1">  1        1 0.10510609E-01 0.27548005E+03</pdfrwt>
<pdfrwt beam="2">  1       -1 0.42723393E-01 0.27548005E+03</pdfrwt>
<totfact> 0.32750396E+03</totfact>
</mgrwt>
</event>
<event>
 5    1  0.1122238E+001  0.2755352E+03  0.7818608E-02  0.1098153E+00
         -3   -1    0    0    0  501 -0.00000000000E+00  0.00000000000E+00  0.45429587325E+03  0.45429587325E+03  0.00000000000E+00 0. -1.
          3   -1    0    0  501    0  0.00000000000E+00 -0.00000000000E+00 -0.41778753974E+02  0.41778753974E+02  0.00000000000E+00 0. -1.
         35    2    1    2    0    0  0.00000000000E+00  0.00000000000E+00  0.41251711928E+03  0.49607462722E+03  0.27553522838E+03 0.  0.
         25    1    3    3    0    0  0.41971257784E+02 -0.53020984509E+02  0.21105731644E+03  0.25202778041E+03  0.12000000000E+03 0.  0.
         25    1    3    3    0    0 -0.41971257784E+02  0.53020984509E+02  0.20145980284E+03  0.24404684681E+03  0.12000000000E+03 0.  0.
<mgrwt>
<rscale>  0 0.27553523E+03</rscale>
<asrwt>0</asrwt>
<pdfrwt beam="1">  1        3 0.64275009E-02 0.27553523E+03</pdfrwt>
<pdfrwt beam="2">  1       -3 0.69891669E-01 0.27553523E+03</pdfrwt>
<totfact> 0.77278823E+02</totfact>
</mgrwt>
</event>
<event>
 5    1  0.1122238E+001  0.2743330E+03  0.7818608E-02  0.1098825E+00
         -2   -1    0    0    0  501 -0.00000000000E+00  0.00000000000E+00  0.10286033698E+02  0.10286033698E+02  0.00000000000E+00 0.  1.
          2   -1    0    0  501    0  0.00000000000E+00 -0.00000000000E+00 -0.18291455659E+04  0.18291455659E+04  0.00000000000E+00 0.  1.
         35    2    1    2    0    0  0.00000000000E+00  0.00000000000E+00 -0.18188595322E+04  0.18394315996E+04  0.27433303068E+03 0.  0.
         25    1    3    3    0    0 -0.59471159313E+02 -0.12889406634E+01 -0.71095723050E+03  0.72346296641E+03  0.12000000000E+03 0.  0.
         25    1    3    3    0    0  0.59471159313E+02  0.12889406634E+01 -0.11079023017E+04  0.11159686332E+04  0.12000000000E+03 0.  0.
<mgrwt>
<rscale>  0 0.27433303E+03</rscale>
<asrwt>0</asrwt>
<pdfrwt beam="1">  1        2 0.28140716E+00 0.27433303E+03</pdfrwt>
<pdfrwt beam="2">  1       -2 0.15824659E-02 0.27433303E+03</pdfrwt>
<totfact> 0.99651739E+03</totfact>
</mgrwt>
</event>
<event>
 5    1  0.1122238E+001  0.2747545E+03  0.7818608E-02  0.1098589E+00
          2   -1    0    0  501    0  0.00000000000E+00  0.00000000000E+00  0.32141817980E+02  0.32141817980E+02  0.00000000000E+00 0.  1.
         -2   -1    0    0    0  501 -0.00000000000E+00 -0.00000000000E+00 -0.58716353532E+03  0.58716353532E+03  0.00000000000E+00 0.  1.
         35    2    1    2    0    0  0.00000000000E+00  0.00000000000E+00 -0.55502171734E+03  0.61930535330E+03  0.27475446112E+03 0.  0.
         25    1    3    3    0    0  0.43745380952E+02  0.42965380411E+02 -0.33769060983E+03  0.36358579488E+03  0.12000000000E+03 0.  0.
         25    1    3    3    0    0 -0.43745380952E+02 -0.42965380411E+02 -0.21733110751E+03  0.25571955842E+03  0.12000000000E+03 0.  0.
<mgrwt>
<rscale>  0 0.27475446E+03</rscale>
<asrwt>0</asrwt>
<pdfrwt beam="1">  1        2 0.49448956E-02 0.27475446E+03</pdfrwt>
<pdfrwt beam="2">  1       -2 0.90332842E-01 0.27475446E+03</pdfrwt>
<totfact> 0.17272682E+03</totfact>
</mgrwt>
</event>
<event>
 5    1  0.1122238E+001  0.2759952E+03  0.7818608E-02  0.1097897E+00
         -1   -1    0    0    0  501 -0.00000000000E+00  0.00000000000E+00  0.57336078800E+03  0.57336078800E+03  0.00000000000E+00 0. -1.
          1   -1    0    0  501    0  0.00000000000E+00 -0.00000000000E+00 -0.33213526837E+02  0.33213526837E+02  0.00000000000E+00 0. -1.
         35    2    1    2    0    0  0.00000000000E+00  0.00000000000E+00  0.54014726117E+03  0.60657431484E+03  0.27599517329E+03 0.  0.
         25    1    3    3    0    0  0.41296134110E+02 -0.89782469571E+01  0.38755380353E+03  0.40790186349E+03  0.12000000000E+03 0.  0.
         25    1    3    3    0    0 -0.41296134110E+02  0.89782469571E+01  0.15259345763E+03  0.19867245135E+03  0.12000000000E+03 0.  0.
<mgrwt>
<rscale>  0 0.27599517E+03</rscale>
<asrwt>0</asrwt>
<pdfrwt beam="1">  1        1 0.51097738E-02 0.27599517E+03</pdfrwt>
<pdfrwt beam="2">  1       -1 0.88209345E-01 0.27599517E+03</pdfrwt>
<totfact> 0.21397220E+03</totfact>
</mgrwt>
</event>
<event>
 5    1  0.1122238E+001  0.2750731E+03  0.7818608E-02  0.1098411E+00
          1   -1    0    0  501    0  0.00000000000E+00  0.00000000000E+00  0.25038578064E+04  0.25038578064E+04  0.00000000000E+00 0.  1.
         -1   -1    0    0    0  501 -0.00000000000E+00 -0.00000000000E+00 -0.75548633231E+01  0.75548633231E+01  0.00000000000E+00 0.  1.
         35    2    1    2    0    0  0.00000000000E+00  0.00000000000E+00  0.24963029430E+04  0.25114126697E+04  0.27507310670E+03 0.  0.
         25    1    3    3    0    0 -0.65727742419E+02  0.92171071590E+01  0.11518691844E+04  0.11600033229E+04  0.12000000000E+03 0.  0.
         25    1    3    3    0    0  0.65727742419E+02 -0.92171071590E+01  0.13444337586E+04  0.13514093468E+04  0.12000000000E+03 0.  0.
<mgrwt>
<rscale>  0 0.27507311E+03</rscale>
<asrwt>0</asrwt>
<pdfrwt beam="1">  1        1 0.38520823E+00 0.27507311E+03</pdfrwt>
<pdfrwt beam="2">  1       -1 0.11622887E-02 0.27507311E+03</pdfrwt>
<totfact> 0.23842891E+03</totfact>
</mgrwt>
</event>
<event>
 5    1  0.1122238E+001  0.2798915E+03  0.7818608E-02  0.1095748E+00
         -2   -1    0    0    0  501 -0.00000000000E+00  0.00000000000E+00  0.39227844391E+02  0.39227844391E+02  0.00000000000E+00 0. -1.
          2   -1    0    0  501    0  0.00000000000E+00 -0.00000000000E+00 -0.49925805980E+03  0.49925805980E+03  0.00000000000E+00 0. -1.
         35    2    1    2    0    0  0.00000000000E+00  0.00000000000E+00 -0.46003021541E+03  0.53848590419E+03  0.27989153242E+03 0.  0.
         25    1    3    3    0    0  0.66509857496E+02  0.23647715021E+02 -0.25736183206E+03  0.29260534542E+03  0.12000000000E+03 0.  0.
         25    1    3    3    0    0 -0.66509857496E+02 -0.23647715021E+02 -0.20266838335E+03  0.24588055877E+03  0.12000000000E+03 0.  0.
<mgrwt>
<rscale>  0 0.27989153E+03</rscale>
<asrwt>0</asrwt>
<pdfrwt beam="1">  1        2 0.76808933E-01 0.27989153E+03</pdfrwt>
<pdfrwt beam="2">  1       -2 0.60350529E-02 0.27989153E+03</pdfrwt>
<totfact> 0.91025779E+03</totfact>
</mgrwt>
</event>
<event>
 5    1  0.1122238E+001  0.2726435E+03  0.7818608E-02  0.1099776E+00
         -2   -1    0    0    0  501 -0.00000000000E+00  0.00000000000E+00  0.65298575191E+01  0.65298575191E+01  0.00000000000E+00 0.  1.
          2   -1    0    0  501    0  0.00000000000E+00 -0.00000000000E+00 -0.28459465736E+04  0.28459465736E+04  0.00000000000E+00 0.  1.
         35    2    1    2    0    0  0.00000000000E+00  0.00000000000E+00 -0.28394167161E+04  0.28524764311E+04  0.27264354482E+03 0.  0.
         25    1    3    3    0    0  0.33548569933E+02 -0.25300562715E+02 -0.90524428888E+03  0.91412955732E+03  0.12000000000E+03 0.  0.
         25    1    3    3    0    0 -0.33548569933E+02  0.25300562715E+02 -0.19341724272E+04  0.19383468738E+04  0.12000000000E+03 0.  0.
<mgrwt>
<rscale>  0 0.27264354E+03</rscale>
<asrwt>0</asrwt>
<pdfrwt beam="1">  1        2 0.43783751E+00 0.27264354E+03</pdfrwt>
<pdfrwt beam="2">  1       -2 0.10045944E-02 0.27264354E+03</pdfrwt>
<totfact> 0.54306667E+03</totfact>
</mgrwt>
</event>
<event>
 5    1  0.1122238E+001  0.2727521E+03  0.7818608E-02  0.1099715E+00
          2   -1    0    0  501    0  0.00000000000E+00  0.00000000000E+00  0.38172873873E+02  0.38172873873E+02  0.00000000000E+00 0.  1.
         -2   -1    0    0    0  501 -0.00000000000E+00 -0.00000000000E+00 -0.48721588478E+03  0.48721588478E+03  0.00000000000E+00 0.  1.
         35    2    1    2    0    0  0.00000000000E+00  0.00000000000E+00 -0.44904301091E+03  0.52538875866E+03  0.27275212570E+03 0.  0.
         25    1    3    3    0    0  0.43085955845E+02  0.35159322312E+02 -0.28857772870E+03  0.31744240901E+03  0.12000000000E+03 0.  0.
         25    1    3    3    0    0 -0.43085955845E+02 -0.35159322312E+02 -0.16046528221E+03  0.20794634965E+03  0.12000000000E+03 0.  0.
<mgrwt>
<rscale>  0 0.27275213E+03</rscale>
<asrwt>0</asrwt>
<pdfrwt beam="1">  1        2 0.58727505E-02 0.27275213E+03</pdfrwt>
<pdfrwt beam="2">  1       -2 0.74956281E-01 0.27275213E+03</pdfrwt>
<totfact> 0.20840719E+03</totfact>
</mgrwt>
</event>
<event>
 5    1  0.1122238E+001  0.2743144E+03  0.7818608E-02  0.1098835E+00
         -2   -1    0    0    0  501 -0.00000000000E+00  0.00000000000E+00  0.11821316923E+02  0.11821316923E+02  0.00000000000E+00 0. -1.
          2   -1    0    0  501    0  0.00000000000E+00 -0.00000000000E+00 -0.15913711056E+04  0.15913711056E+04  0.00000000000E+00 0. -1.
         35    2    1    2    0    0  0.00000000000E+00  0.00000000000E+00 -0.15795497887E+04  0.16031924225E+04  0.27431443405E+03 0.  0.
         25    1    3    3    0    0 -0.59150879264E+02 -0.61383585809E+01 -0.96271229614E+03  0.97198326688E+03  0.12000000000E+03 0.  0.
         25    1    3    3    0    0  0.59150879264E+02  0.61383585809E+01 -0.61683749254E+03  0.63120915564E+03  0.12000000000E+03 0.  0.
<mgrwt>
<rscale>  0 0.27431443E+03</rscale>
<asrwt>0</asrwt>
<pdfrwt beam="1">  1        2 0.24482615E+00 0.27431443E+03</pdfrwt>
<pdfrwt beam="2">  1       -2 0.18186655E-02 0.27431443E+03</pdfrwt>
<totfact> 0.10843213E+04</totfact>
</mgrwt>
</event>
<event>
 5    1  0.1122238E+001  0.2757219E+03  0.7818608E-02  0.1098049E+00
         -2   -1    0    0    0  501 -0.00000000000E+00  0.00000000000E+00  0.35210317153E+03  0.35210317153E+03  0.00000000000E+00 0. -1.
          2   -1    0    0  501    0  0.00000000000E+00 -0.00000000000E+00 -0.53977483814E+02  0.53977483814E+02  0.00000000000E+00 0. -1.
         35    2    1    2    0    0  0.00000000000E+00  0.00000000000E+00  0.29812568772E+03  0.40608065534E+03  0.27572191238E+03 0.  0.
         25    1    3    3    0    0  0.37241997934E+02 -0.56709971950E+02  0.15146304682E+03  0.20480244598E+03  0.12000000000E+03 0.  0.
         25    1    3    3    0    0 -0.37241997934E+02  0.56709971950E+02  0.14666264089E+03  0.20127820936E+03  0.12000000000E+03 0.  0.
<mgrwt>
<rscale>  0 0.27572191E+03</rscale>
<asrwt>0</asrwt>
<pdfrwt beam="1">  1        2 0.83042285E-02 0.27572191E+03</pdfrwt>
<pdfrwt beam="2">  1       -2 0.54169717E-01 0.27572191E+03</pdfrwt>
<totfact> 0.26391896E+03</totfact>
</mgrwt>
</event>
<event>
 5    1  0.1122238E+001  0.2871302E+03  0.7818608E-02  0.1091857E+00
          2   -1    0    0  501    0  0.00000000000E+00  0.00000000000E+00  0.21112207176E+04  0.21112207176E+04  0.00000000000E+00 0. -1.
         -2   -1    0    0    0  501 -0.00000000000E+00 -0.00000000000E+00 -0.97625657987E+01  0.97625657987E+01  0.00000000000E+00 0. -1.
         35    2    1    2    0    0  0.00000000000E+00  0.00000000000E+00  0.21014581518E+04  0.21209832834E+04  0.28713015286E+03 0.  0.
         25    1    3    3    0    0 -0.29782089247E+02 -0.71694881363E+02  0.11508751514E+04  0.11597158026E+04  0.12000000000E+03 0.  0.
         25    1    3    3    0    0  0.29782089247E+02  0.71694881363E+02  0.95058300044E+03  0.96126748076E+03  0.12000000000E+03 0.  0.
<mgrwt>
<rscale>  0 0.28713015E+03</rscale>
<asrwt>0</asrwt>
<pdfrwt beam="1">  1        2 0.32480282E+00 0.28713015E+03</pdfrwt>
<pdfrwt beam="2">  1       -2 0.15019349E-02 0.28713015E+03</pdfrwt>
<totfact> 0.76449519E+03</totfact>
</mgrwt>
</event>
<event>
 5    1  0.1122238E+001  0.2753437E+03  0.7818608E-02  0.1098260E+00
          2   -1    0    0  501    0  0.00000000000E+00  0.00000000000E+00  0.67060363760E+03  0.67060363760E+03  0.00000000000E+00 0. -1.
         -2   -1    0    0    0  501 -0.00000000000E+00 -0.00000000000E+00 -0.28263402038E+02  0.28263402038E+02  0.00000000000E+00 0. -1.
         35    2    1    2    0    0  0.00000000000E+00  0.00000000000E+00  0.64234023556E+03  0.69886703964E+03  0.27534371406E+03 0.  0.
         25    1    3    3    0    0  0.44237333826E+02  0.32733156884E+02  0.42029304050E+03  0.44053903477E+03  0.12000000000E+03 0.  0.
         25    1    3    3    0    0 -0.44237333826E+02 -0.32733156884E+02  0.22204719506E+03  0.25832800486E+03  0.12000000000E+03 0.  0.
<mgrwt>
<rscale>  0 0.27534371E+03</rscale>
<asrwt>0</asrwt>
<pdfrwt beam="1">  1        2 0.10316978E+00 0.27534371E+03</pdfrwt>
<pdfrwt beam="2">  1       -2 0.43482162E-02 0.27534371E+03</pdfrwt>
<totfact> 0.10658828E+04</totfact>
</mgrwt>
</event>
<event>
 5    1  0.1122238E+001  0.2728512E+03  0.7818608E-02  0.1099659E+00
          3   -1    0    0  501    0  0.00000000000E+00  0.00000000000E+00  0.16294808646E+03  0.16294808646E+03  0.00000000000E+00 0. -1.
         -3   -1    0    0    0  501 -0.00000000000E+00 -0.00000000000E+00 -0.11422009368E+03  0.11422009368E+03  0.00000000000E+00 0. -1.
         35    2    1    2    0    0  0.00000000000E+00  0.00000000000E+00  0.48727992776E+02  0.27716818014E+03  0.27285121000E+03 0.  0.
         25    1    3    3    0    0 -0.86636857843E+01 -0.48189452975E+02  0.67636842763E+02  0.14619174166E+03  0.12000000000E+03 0.  0.
         25    1    3    3    0    0  0.86636857843E+01  0.48189452975E+02 -0.18908849987E+02  0.13097643848E+03  0.12000000000E+03 0.  0.
<mgrwt>
<rscale>  0 0.27285121E+03</rscale>
<asrwt>0</asrwt>
<pdfrwt beam="1">  1        3 0.25068937E-01 0.27285121E+03</pdfrwt>
<pdfrwt beam="2">  1       -3 0.17572322E-01 0.27285121E+03</pdfrwt>
<totfact> 0.10710951E+03</totfact>
</mgrwt>
</event>
<event>
 5    1  0.1122238E+001  0.2774746E+03  0.7818608E-02  0.1097076E+00
          2   -1    0    0  501    0  0.00000000000E+00  0.00000000000E+00  0.17989818604E+04  0.17989818604E+04  0.00000000000E+00 0. -1.
         -2   -1    0    0    0  501 -0.00000000000E+00 -0.00000000000E+00 -0.10699409809E+02  0.10699409809E+02  0.00000000000E+00 0. -1.
         35    2    1    2    0    0  0.00000000000E+00  0.00000000000E+00  0.17882824505E+04  0.18096812702E+04  0.27747464146E+03 0.  0.
         25    1    3    3    0    0  0.34197326456E+02 -0.54538004020E+02  0.72107007143E+03  0.73381598438E+03  0.12000000000E+03 0.  0.
         25    1    3    3    0    0 -0.34197326456E+02  0.54538004020E+02  0.10672123791E+04  0.10758652858E+04  0.12000000000E+03 0.  0.
<mgrwt>
<rscale>  0 0.27747464E+03</rscale>
<asrwt>0</asrwt>
<pdfrwt beam="1">  1        2 0.27676620E+00 0.27747464E+03</pdfrwt>
<pdfrwt beam="2">  1       -2 0.16460645E-02 0.27747464E+03</pdfrwt>
<totfact> 0.97571298E+03</totfact>
</mgrwt>
</event>
<event>
 5    1  0.1122238E+001  0.2757598E+03  0.7818608E-02  0.1098028E+00
         -2   -1    0    0    0  501 -0.00000000000E+00  0.00000000000E+00  0.68016927138E+02  0.68016927138E+02  0.00000000000E+00 0.  1.
          2   -1    0    0  501    0  0.00000000000E+00 -0.00000000000E+00 -0.27950196298E+03  0.27950196298E+03  0.00000000000E+00 0.  1.
         35    2    1    2    0    0  0.00000000000E+00  0.00000000000E+00 -0.21148503584E+03  0.34751889012E+03  0.27575978424E+03 0.  0.
         25    1    3    3    0    0 -0.10717296807E+02 -0.62877766831E+02 -0.76392823864E+02  0.15589848476E+03  0.12000000000E+03 0.  0.
         25    1    3    3    0    0  0.10717296807E+02  0.62877766831E+02 -0.13509221197E+03  0.19162040536E+03  0.12000000000E+03 0.  0.
<mgrwt>
<rscale>  0 0.27575978E+03</rscale>
<asrwt>0</asrwt>
<pdfrwt beam="1">  1        2 0.43000301E-01 0.27575978E+03</pdfrwt>
<pdfrwt beam="2">  1       -2 0.10464143E-01 0.27575978E+03</pdfrwt>
<totfact> 0.72324378E+03</totfact>
</mgrwt>
</event>
<event>
 5    1  0.1122238E+001  0.2747139E+03  0.7818608E-02  0.1098612E+00
          2   -1    0    0  501    0  0.00000000000E+00  0.00000000000E+00  0.16622123707E+04  0.16622123707E+04  0.00000000000E+00 0.  1.
         -2   -1    0    0    0  501 -0.00000000000E+00 -0.00000000000E+00 -0.11350496348E+02  0.11350496348E+02  0.00000000000E+00 0.  1.
         35    2    1    2    0    0  0.00000000000E+00  0.00000000000E+00  0.16508618744E+04  0.16735628671E+04  0.27471392716E+03 0.  0.
         25    1    3    3    0    0  0.53994471455E+02 -0.25413794141E+02  0.64209537279E+03  0.65593271884E+03  0.12000000000E+03 0.  0.
         25    1    3    3    0    0 -0.53994471455E+02  0.25413794141E+02  0.10087665016E+04  0.10176301482E+04  0.12000000000E+03 0.  0.
<mgrwt>
<rscale>  0 0.27471393E+03</rscale>
<asrwt>0</asrwt>
<pdfrwt beam="1">  1        2 0.25572479E+00 0.27471393E+03</pdfrwt>
<pdfrwt beam="2">  1       -2 0.17462315E-02 0.27471393E+03</pdfrwt>
<totfact> 0.10558571E+04</totfact>
</mgrwt>
</event>
<event>
 5    1  0.1122238E+001  0.2752891E+03  0.7818608E-02  0.1098290E+00
          2   -1    0    0  501    0  0.00000000000E+00  0.00000000000E+00  0.16039551744E+04  0.16039551744E+04  0.00000000000E+00 0. -1.
         -2   -1    0    0    0  501 -0.00000000000E+00 -0.00000000000E+00 -0.11812063491E+02  0.11812063491E+02  0.00000000000E+00 0. -1.
         35    2    1    2    0    0  0.00000000000E+00  0.00000000000E+00  0.15921431109E+04  0.16157672379E+04  0.27528908701E+03 0.  0.
         25    1    3    3    0    0  0.23597333962E+02  0.63084640754E+02  0.81417569706E+03  0.82572305996E+03  0.12000000000E+03 0.  0.
         25    1    3    3    0    0 -0.23597333962E+02 -0.63084640754E+02  0.77796741388E+03  0.79004417796E+03  0.12000000000E+03 0.  0.
<mgrwt>
<rscale>  0 0.27528909E+03</rscale>
<asrwt>0</asrwt>
<pdfrwt beam="1">  1        2 0.24676216E+00 0.27528909E+03</pdfrwt>
<pdfrwt beam="2">  1       -2 0.18172418E-02 0.27528909E+03</pdfrwt>
<totfact> 0.10690940E+04</totfact>
</mgrwt>
</event>
<event>
 5    1  0.1122238E+001  0.2748379E+03  0.7818608E-02  0.1098542E+00
          2   -1    0    0  501    0  0.00000000000E+00  0.00000000000E+00  0.20000375377E+04  0.20000375377E+04  0.00000000000E+00 0. -1.
         -2   -1    0    0    0  501 -0.00000000000E+00 -0.00000000000E+00 -0.94418058810E+01  0.94418058810E+01  0.00000000000E+00 0. -1.
         35    2    1    2    0    0  0.00000000000E+00  0.00000000000E+00  0.19905957319E+04  0.20094793436E+04  0.27483788812E+03 0.  0.
         25    1    3    3    0    0  0.41891491209E+02  0.28855021742E+02  0.13137018027E+04  0.13201514821E+04  0.12000000000E+03 0.  0.
         25    1    3    3    0    0 -0.41891491209E+02 -0.28855021742E+02  0.67689392919E+03  0.68932786153E+03  0.12000000000E+03 0.  0.
<mgrwt>
<rscale>  0 0.27483789E+03</rscale>
<asrwt>0</asrwt>
<pdfrwt beam="1">  1        2 0.30769775E+00 0.27483789E+03</pdfrwt>
<pdfrwt beam="2">  1       -2 0.14525871E-02 0.27483789E+03</pdfrwt>
<totfact> 0.91867997E+03</totfact>
</mgrwt>
</event>
<event>
 5    1  0.1122238E+001  0.2762731E+03  0.7818608E-02  0.1097742E+00
          1   -1    0    0  501    0  0.00000000000E+00  0.00000000000E+00  0.11119527849E+02  0.11119527849E+02  0.00000000000E+00 0.  1.
         -1   -1    0    0    0  501 -0.00000000000E+00 -0.00000000000E+00 -0.17160540377E+04  0.17160540377E+04  0.00000000000E+00 0.  1.
         35    2    1    2    0    0  0.00000000000E+00  0.00000000000E+00 -0.17049345099E+04  0.17271735656E+04  0.27627313052E+03 0.  0.
         25    1    3    3    0    0 -0.35534140697E+02  0.81360312598E+01 -0.12144632625E+04  0.12209217363E+04  0.12000000000E+03 0.  0.
         25    1    3    3    0    0  0.35534140697E+02 -0.81360312598E+01 -0.49047124737E+03  0.50625182929E+03  0.12000000000E+03 0.  0.
<mgrwt>
<rscale>  0 0.27627313E+03</rscale>
<asrwt>0</asrwt>
<pdfrwt beam="1">  1        1 0.17106974E-02 0.27627313E+03</pdfrwt>
<pdfrwt beam="2">  1       -1 0.26400819E+00 0.27627313E+03</pdfrwt>
<totfact> 0.48922781E+02</totfact>
</mgrwt>
</event>
<event>
 5    1  0.1122238E+001  0.2759551E+03  0.7818608E-02  0.1097919E+00
         -2   -1    0    0    0  501 -0.00000000000E+00  0.00000000000E+00  0.16504800393E+02  0.16504800393E+02  0.00000000000E+00 0.  1.
          2   -1    0    0  501    0  0.00000000000E+00 -0.00000000000E+00 -0.11534703864E+04  0.11534703864E+04  0.00000000000E+00 0.  1.
         35    2    1    2    0    0  0.00000000000E+00  0.00000000000E+00 -0.11369655860E+04  0.11699751868E+04  0.27595505784E+03 0.  0.
         25    1    3    3    0    0  0.17228839863E+02 -0.31329487221E+02 -0.32274553224E+03  0.34618354708E+03  0.12000000000E+03 0.  0.
         25    1    3    3    0    0 -0.17228839863E+02  0.31329487221E+02 -0.81422005379E+03  0.82379163973E+03  0.12000000000E+03 0.  0.
<mgrwt>
<rscale>  0 0.27595506E+03</rscale>
<asrwt>0</asrwt>
<pdfrwt beam="1">  1        2 0.17745698E+00 0.27595506E+03</pdfrwt>
<pdfrwt beam="2">  1       -2 0.25392000E-02 0.27595506E+03</pdfrwt>
<totfact> 0.11525111E+04</totfact>
</mgrwt>
</event>
<event>
 5    1  0.1122238E+001  0.2758936E+03  0.7818608E-02  0.1097953E+00
          2   -1    0    0  501    0  0.00000000000E+00  0.00000000000E+00  0.20289973900E+04  0.20289973900E+04  0.00000000000E+00 0. -1.
         -2   -1    0    0    0  501 -0.00000000000E+00 -0.00000000000E+00 -0.93786819311E+01  0.93786819311E+01  0.00000000000E+00 0. -1.
         35    2    1    2    0    0  0.00000000000E+00  0.00000000000E+00  0.20196187081E+04  0.20383760720E+04  0.27589361109E+03 0.  0.
         25    1    3    3    0    0  0.64164769186E+02 -0.92104321021E+01  0.85707193572E+03  0.86785612440E+03  0.12000000000E+03 0.  0.
         25    1    3    3    0    0 -0.64164769186E+02  0.92104321021E+01  0.11625467724E+04  0.11705199476E+04  0.12000000000E+03 0.  0.
<mgrwt>
<rscale>  0 0.27589361E+03</rscale>
<asrwt>0</asrwt>
<pdfrwt beam="1">  1        2 0.31215310E+00 0.27589361E+03</pdfrwt>
<pdfrwt beam="2">  1       -2 0.14428758E-02 0.27589361E+03</pdfrwt>
<totfact> 0.89576153E+03</totfact>
</mgrwt>
</event>
<event>
 5    1  0.1122238E+001  0.2752659E+03  0.7818608E-02  0.1098303E+00
         -2   -1    0    0    0  501 -0.00000000000E+00  0.00000000000E+00  0.19856650394E+02  0.19856650394E+02  0.00000000000E+00 0.  1.
          2   -1    0    0  501    0  0.00000000000E+00 -0.00000000000E+00 -0.95397903034E+03  0.95397903034E+03  0.00000000000E+00 0.  1.
         35    2    1    2    0    0  0.00000000000E+00  0.00000000000E+00 -0.93412237995E+03  0.97383568073E+03  0.27526589392E+03 0.  0.
         25    1    3    3    0    0 -0.29312100817E+02 -0.18547810691E+02 -0.26261407077E+03  0.29080813383E+03  0.12000000000E+03 0.  0.
         25    1    3    3    0    0  0.29312100817E+02  0.18547810691E+02 -0.67150830917E+03  0.68302754690E+03  0.12000000000E+03 0.  0.
<mgrwt>
<rscale>  0 0.27526589E+03</rscale>
<asrwt>0</asrwt>
<pdfrwt beam="1">  1        2 0.14676597E+00 0.27526589E+03</pdfrwt>
<pdfrwt beam="2">  1       -2 0.30548700E-02 0.27526589E+03</pdfrwt>
<totfact> 0.11533430E+04</totfact>
</mgrwt>
</event>
<event>
 5    1  0.1122238E+001  0.2746253E+03  0.7818608E-02  0.1098661E+00
          1   -1    0    0  501    0  0.00000000000E+00  0.00000000000E+00  0.10100421397E+04  0.10100421397E+04  0.00000000000E+00 0. -1.
         -1   -1    0    0    0  501 -0.00000000000E+00 -0.00000000000E+00 -0.18667303375E+02  0.18667303375E+02  0.00000000000E+00 0. -1.
         35    2    1    2    0    0  0.00000000000E+00  0.00000000000E+00  0.99137483628E+03  0.10287094430E+04  0.27462529412E+03 0.  0.
         25    1    3    3    0    0 -0.49711937007E+02 -0.23365691240E+02  0.35366373347E+03  0.37748545479E+03  0.12000000000E+03 0.  0.
         25    1    3    3    0    0  0.49711937007E+02  0.23365691240E+02  0.63771110282E+03  0.65122398824E+03  0.12000000000E+03 0.  0.
<mgrwt>
<rscale>  0 0.27462529E+03</rscale>
<asrwt>0</asrwt>
<pdfrwt beam="1">  1        1 0.15539106E+00 0.27462529E+03</pdfrwt>
<pdfrwt beam="2">  1       -1 0.28718936E-02 0.27462529E+03</pdfrwt>
<totfact> 0.63191863E+03</totfact>
</mgrwt>
</event>
<event>
 5    1  0.1122238E+001  0.2750759E+03  0.7818608E-02  0.1098409E+00
          1   -1    0    0  501    0  0.00000000000E+00  0.00000000000E+00  0.23980558421E+03  0.23980558421E+03  0.00000000000E+00 0.  1.
         -1   -1    0    0    0  501 -0.00000000000E+00 -0.00000000000E+00 -0.78883456201E+02  0.78883456201E+02  0.00000000000E+00 0.  1.
         35    2    1    2    0    0  0.00000000000E+00  0.00000000000E+00  0.16092212801E+03  0.31868904041E+03  0.27507594078E+03 0.  0.
         25    1    3    3    0    0 -0.39830008995E+02  0.41040743288E+02  0.12135508232E+03  0.17999396721E+03  0.12000000000E+03 0.  0.
         25    1    3    3    0    0  0.39830008995E+02 -0.41040743288E+02  0.39567045686E+02  0.13869507320E+03  0.12000000000E+03 0.  0.
<mgrwt>
<rscale>  0 0.27507594E+03</rscale>
<asrwt>0</asrwt>
<pdfrwt beam="1">  1        1 0.36893166E-01 0.27507594E+03</pdfrwt>
<pdfrwt beam="2">  1       -1 0.12135916E-01 0.27507594E+03</pdfrwt>
<totfact> 0.52040207E+03</totfact>
</mgrwt>
</event>
<event>
 5    1  0.1122238E+001  0.2751931E+03  0.7818608E-02  0.1098344E+00
          1   -1    0    0  501    0  0.00000000000E+00  0.00000000000E+00  0.63145278461E+03  0.63145278461E+03  0.00000000000E+00 0.  1.
         -1   -1    0    0    0  501 -0.00000000000E+00 -0.00000000000E+00 -0.29982928824E+02  0.29982928824E+02  0.00000000000E+00 0.  1.
         35    2    1    2    0    0  0.00000000000E+00  0.00000000000E+00  0.60146985579E+03  0.66143571343E+03  0.27519305149E+03 0.  0.
         25    1    3    3    0    0 -0.30062591500E+02  0.60175674144E+02  0.29396535121E+03  0.32456201083E+03  0.12000000000E+03 0.  0.
         25    1    3    3    0    0  0.30062591500E+02 -0.60175674144E+02  0.30750450458E+03  0.33687370260E+03  0.12000000000E+03 0.  0.
<mgrwt>
<rscale>  0 0.27519305E+03</rscale>
<asrwt>0</asrwt>
<pdfrwt beam="1">  1        1 0.97146572E-01 0.27519305E+03</pdfrwt>
<pdfrwt beam="2">  1       -1 0.46127588E-02 0.27519305E+03</pdfrwt>
<totfact> 0.64792838E+03</totfact>
</mgrwt>
</event>
<event>
 5    1  0.1122238E+001  0.2754906E+03  0.7818608E-02  0.1098178E+00
          2   -1    0    0  501    0  0.00000000000E+00  0.00000000000E+00  0.12039446275E+03  0.12039446275E+03  0.00000000000E+00 0.  1.
         -2   -1    0    0    0  501 -0.00000000000E+00 -0.00000000000E+00 -0.15759670949E+03  0.15759670949E+03  0.00000000000E+00 0.  1.
         35    2    1    2    0    0  0.00000000000E+00  0.00000000000E+00 -0.37202246744E+02  0.27799117224E+03  0.27549062540E+03 0.  0.
         25    1    3    3    0    0 -0.40785484684E+02  0.41046357919E+02  0.16723939892E+02  0.13426819960E+03  0.12000000000E+03 0.  0.
         25    1    3    3    0    0  0.40785484684E+02 -0.41046357919E+02 -0.53926186636E+02  0.14372297264E+03  0.12000000000E+03 0.  0.
<mgrwt>
<rscale>  0 0.27549063E+03</rscale>
<asrwt>0</asrwt>
<pdfrwt beam="1">  1        2 0.18522225E-01 0.27549063E+03</pdfrwt>
<pdfrwt beam="2">  1       -2 0.24245647E-01 0.27549063E+03</pdfrwt>
<totfact> 0.45290246E+03</totfact>
</mgrwt>
</event>
<event>
 5    1  0.1122238E+001  0.2745149E+03  0.7818608E-02  0.1098723E+00
         -2   -1    0    0    0  501 -0.00000000000E+00  0.00000000000E+00  0.48428705125E+02  0.48428705125E+02  0.00000000000E+00 0. -1.
          2   -1    0    0  501    0  0.00000000000E+00 -0.00000000000E+00 -0.38901746237E+03  0.38901746237E+03  0.00000000000E+00 0. -1.
         35    2    1    2    0    0  0.00000000000E+00  0.00000000000E+00 -0.34058875724E+03  0.43744616749E+03  0.27451493200E+03 0.  0.
         25    1    3    3    0    0  0.54867066526E+02  0.24594077469E+02 -0.21604679403E+03  0.25434520017E+03  0.12000000000E+03 0.  0.
         25    1    3    3    0    0 -0.54867066526E+02 -0.24594077469E+02 -0.12454196321E+03  0.18310096733E+03  0.12000000000E+03 0.  0.
<mgrwt>
<rscale>  0 0.27451493E+03</rscale>
<asrwt>0</asrwt>
<pdfrwt beam="1">  1        2 0.59848839E-01 0.27451493E+03</pdfrwt>
<pdfrwt beam="2">  1       -2 0.74505701E-02 0.27451493E+03</pdfrwt>
<totfact> 0.86421414E+03</totfact>
</mgrwt>
</event>
<event>
 5    1  0.1122238E+001  0.2799192E+03  0.7818608E-02  0.1095733E+00
          1   -1    0    0  501    0  0.00000000000E+00  0.00000000000E+00  0.62727605700E+03  0.62727605700E+03  0.00000000000E+00 0. -1.
         -1   -1    0    0    0  501 -0.00000000000E+00 -0.00000000000E+00 -0.31228175935E+02  0.31228175935E+02  0.00000000000E+00 0. -1.
         35    2    1    2    0    0  0.00000000000E+00  0.00000000000E+00  0.59604788106E+03  0.65850423293E+03  0.27991918168E+03 0.  0.
         25    1    3    3    0    0  0.29480704634E+02 -0.44837129037E+02  0.18497738293E+03  0.22692754853E+03  0.12000000000E+03 0.  0.
         25    1    3    3    0    0 -0.29480704634E+02  0.44837129037E+02  0.41107049813E+03  0.43157668440E+03  0.12000000000E+03 0.  0.
<mgrwt>
<rscale>  0 0.27991918E+03</rscale>
<asrwt>0</asrwt>
<pdfrwt beam="1">  1        1 0.96503999E-01 0.27991918E+03</pdfrwt>
<pdfrwt beam="2">  1       -1 0.48043352E-02 0.27991918E+03</pdfrwt>
<totfact> 0.61569440E+03</totfact>
</mgrwt>
</event>
<event>
 5    1  0.1122238E+001  0.2742546E+03  0.7818608E-02  0.1098869E+00
         -2   -1    0    0    0  501 -0.00000000000E+00  0.00000000000E+00  0.66185960976E+02  0.66185960976E+02  0.00000000000E+00 0. -1.
          2   -1    0    0  501    0  0.00000000000E+00 -0.00000000000E+00 -0.28410698650E+03  0.28410698650E+03  0.00000000000E+00 0. -1.
         35    2    1    2    0    0  0.00000000000E+00  0.00000000000E+00 -0.21792102553E+03  0.35029294748E+03  0.27425458189E+03 0.  0.
         25    1    3    3    0    0 -0.59517072240E+02 -0.16179908077E+02 -0.14024210980E+03  0.19460709307E+03  0.12000000000E+03 0.  0.
         25    1    3    3    0    0  0.59517072240E+02  0.16179908077E+02 -0.77678915731E+02  0.15568585441E+03  0.12000000000E+03 0.  0.
<mgrwt>
<rscale>  0 0.27425458E+03</rscale>
<asrwt>0</asrwt>
<pdfrwt beam="1">  1        2 0.43708767E-01 0.27425458E+03</pdfrwt>
<pdfrwt beam="2">  1       -2 0.10182456E-01 0.27425458E+03</pdfrwt>
<totfact> 0.74207141E+03</totfact>
</mgrwt>
</event>
<event>
 5    1  0.1122238E+001  0.2764093E+03  0.7818608E-02  0.1097666E+00
         -3   -1    0    0    0  501 -0.00000000000E+00  0.00000000000E+00  0.17652796255E+03  0.17652796255E+03  0.00000000000E+00 0.  1.
          3   -1    0    0  501    0  0.00000000000E+00 -0.00000000000E+00 -0.10820112991E+03  0.10820112991E+03  0.00000000000E+00 0.  1.
         35    2    1    2    0    0  0.00000000000E+00  0.00000000000E+00  0.68326832643E+02  0.28472909246E+03  0.27640929802E+03 0.  0.
         25    1    3    3    0    0  0.19018710553E+02  0.37434937533E+02 -0.21666070027E+02  0.12896706746E+03  0.12000000000E+03 0.  0.
         25    1    3    3    0    0 -0.19018710553E+02 -0.37434937533E+02  0.89992902670E+02  0.15576202499E+03  0.12000000000E+03 0.  0.
<mgrwt>
<rscale>  0 0.27640930E+03</rscale>
<asrwt>0</asrwt>
<pdfrwt beam="1">  1        3 0.16646328E-01 0.27640930E+03</pdfrwt>
<pdfrwt beam="2">  1       -3 0.27158148E-01 0.27640930E+03</pdfrwt>
<totfact> 0.10180211E+03</totfact>
</mgrwt>
</event>
<event>
 5    1  0.1122238E+001  0.2758036E+03  0.7818608E-02  0.1098003E+00
         -2   -1    0    0    0  501 -0.00000000000E+00  0.00000000000E+00  0.49162308026E+03  0.49162308026E+03  0.00000000000E+00 0.  1.
          2   -1    0    0  501    0  0.00000000000E+00 -0.00000000000E+00 -0.38681880096E+02  0.38681880096E+02  0.00000000000E+00 0.  1.
         35    2    1    2    0    0  0.00000000000E+00  0.00000000000E+00  0.45294120017E+03  0.53030496036E+03  0.27580358985E+03 0.  0.
         25    1    3    3    0    0  0.47453144647E+02  0.29431218251E+02  0.15202943000E+03  0.20157119122E+03  0.12000000000E+03 0.  0.
         25    1    3    3    0    0 -0.47453144647E+02 -0.29431218251E+02  0.30091177017E+03  0.32873376914E+03  0.12000000000E+03 0.  0.
<mgrwt>
<rscale>  0 0.27580359E+03</rscale>
<asrwt>0</asrwt>
<pdfrwt beam="1">  1        2 0.59510588E-02 0.27580359E+03</pdfrwt>
<pdfrwt beam="2">  1       -2 0.75634315E-01 0.27580359E+03</pdfrwt>
<totfact> 0.20092218E+03</totfact>
</mgrwt>
</event>
<event>
 5    1  0.1122238E+001  0.2746302E+03  0.7818608E-02  0.1098658E+00
         -1   -1    0    0    0  501 -0.00000000000E+00  0.00000000000E+00  0.28405663811E+02  0.28405663811E+02  0.00000000000E+00 0. -1.
          1   -1    0    0  501    0  0.00000000000E+00 -0.00000000000E+00 -0.66379142946E+03  0.66379142946E+03  0.00000000000E+00 0. -1.
         35    2    1    2    0    0  0.00000000000E+00  0.00000000000E+00 -0.63538576565E+03  0.69219709327E+03  0.27463019634E+03 0.  0.
         25    1    3    3    0    0  0.50706703042E+02 -0.43407181449E+02 -0.31841924600E+03  0.34676529434E+03  0.12000000000E+03 0.  0.
         25    1    3    3    0    0 -0.50706703042E+02  0.43407181449E+02 -0.31696651965E+03  0.34543179893E+03  0.12000000000E+03 0.  0.
<mgrwt>
<rscale>  0 0.27463020E+03</rscale>
<asrwt>0</asrwt>
<pdfrwt beam="1">  1        1 0.10212177E+00 0.27463020E+03</pdfrwt>
<pdfrwt beam="2">  1       -1 0.43701015E-02 0.27463020E+03</pdfrwt>
<totfact> 0.65419277E+03</totfact>
</mgrwt>
</event>
<event>
 4    1  0.1122238E+001  0.2471150E+03  0.7818608E-02  0.1115142E+00
         -2   -1    0    0    0  501 -0.00000000000E+00  0.00000000000E+00  0.10715783474E+02  0.10715783474E+02  0.00000000000E+00 0.  1.
          2   -1    0    0  501    0  0.00000000000E+00 -0.00000000000E+00 -0.14246698613E+04  0.14246698613E+04  0.00000000000E+00 0.  1.
         25    1    1    2    0    0  0.87384117500E+01 -0.12286196900E+02 -0.56012883686E+03  0.57303719282E+03  0.12000000000E+03 0.  0.
         25    1    1    2    0    0 -0.87384117500E+01  0.12286196900E+02 -0.85382524099E+03  0.86234845198E+03  0.12000000000E+03 0.  0.
<mgrwt>
<rscale>  0 0.24711498E+03</rscale>
<asrwt>0</asrwt>
<pdfrwt beam="1">  1        2 0.21918004E+00 0.24711498E+03</pdfrwt>
<pdfrwt beam="2">  1       -2 0.16485816E-02 0.24711498E+03</pdfrwt>
<totfact> 0.15326806E+04</totfact>
</mgrwt>
</event>
<event>
 4    1  0.1122238E+001  0.3123992E+03  0.7818608E-02  0.1079202E+00
          3   -1    0    0  501    0  0.00000000000E+00  0.00000000000E+00  0.28521861286E+02  0.28521861286E+02  0.00000000000E+00 0.  1.
         -3   -1    0    0    0  501 -0.00000000000E+00 -0.00000000000E+00 -0.85542486184E+03  0.85542486184E+03  0.00000000000E+00 0.  1.
         25    1    1    2    0    0  0.47336194870E+02 -0.88035765706E+02 -0.40580761699E+03  0.43482276089E+03  0.12000000000E+03 0.  0.
         25    1    1    2    0    0 -0.47336194870E+02  0.88035765706E+02 -0.42109538356E+03  0.44912396223E+03  0.12000000000E+03 0.  0.
<mgrwt>
<rscale>  0 0.31239916E+03</rscale>
<asrwt>0</asrwt>
<pdfrwt beam="1">  1        3 0.43879789E-02 0.31239916E+03</pdfrwt>
<pdfrwt beam="2">  1       -3 0.13160382E+00 0.31239916E+03</pdfrwt>
<totfact> 0.33964430E+02</totfact>
</mgrwt>
</event>
<event>
 5    1  0.1122238E+001  0.2749694E+03  0.7818608E-02  0.1098469E+00
          1   -1    0    0  501    0  0.00000000000E+00  0.00000000000E+00  0.44520808107E+03  0.44520808107E+03  0.00000000000E+00 0.  1.
         -1   -1    0    0    0  501 -0.00000000000E+00 -0.00000000000E+00 -0.42456635460E+02  0.42456635460E+02  0.00000000000E+00 0.  1.
         35    2    1    2    0    0  0.00000000000E+00  0.00000000000E+00  0.40275144561E+03  0.48766471653E+03  0.27496935976E+03 0.  0.
         25    1    3    3    0    0  0.49935611886E+02  0.20856534399E+02  0.27172622626E+03  0.30193327475E+03  0.12000000000E+03 0.  0.
         25    1    3    3    0    0 -0.49935611886E+02 -0.20856534399E+02  0.13102521935E+03  0.18573144178E+03  0.12000000000E+03 0.  0.
<mgrwt>
<rscale>  0 0.27496936E+03</rscale>
<asrwt>0</asrwt>
<pdfrwt beam="1">  1        1 0.68493548E-01 0.27496936E+03</pdfrwt>
<pdfrwt beam="2">  1       -1 0.65317904E-02 0.27496936E+03</pdfrwt>
<totfact> 0.61537339E+03</totfact>
</mgrwt>
</event>
<event>
 5    1  0.1122238E+001  0.2749215E+03  0.7818608E-02  0.1098495E+00
         -1   -1    0    0    0  501 -0.00000000000E+00  0.00000000000E+00  0.18934543374E+02  0.18934543374E+02  0.00000000000E+00 0.  1.
          1   -1    0    0  501    0  0.00000000000E+00 -0.00000000000E+00 -0.99793577853E+03  0.99793577853E+03  0.00000000000E+00 0.  1.
         35    2    1    2    0    0  0.00000000000E+00  0.00000000000E+00 -0.97900123516E+03  0.10168703219E+04  0.27492150358E+03 0.  0.
         25    1    3    3    0    0 -0.15703003775E+02 -0.53002205865E+02 -0.34915985444E+03  0.37332080321E+03  0.12000000000E+03 0.  0.
         25    1    3    3    0    0  0.15703003775E+02  0.53002205865E+02 -0.62984138072E+03  0.64354951870E+03  0.12000000000E+03 0.  0.
<mgrwt>
<rscale>  0 0.27492150E+03</rscale>
<asrwt>0</asrwt>
<pdfrwt beam="1">  1        1 0.15352865E+00 0.27492150E+03</pdfrwt>
<pdfrwt beam="2">  1       -1 0.29130054E-02 0.27492150E+03</pdfrwt>
<totfact> 0.63185641E+03</totfact>
</mgrwt>
</event>
<event>
 5    1  0.1122238E+001  0.2745076E+03  0.7818608E-02  0.1098727E+00
         -2   -1    0    0    0  501 -0.00000000000E+00  0.00000000000E+00  0.12735963362E+02  0.12735963362E+02  0.00000000000E+00 0. -1.
          2   -1    0    0  501    0  0.00000000000E+00 -0.00000000000E+00 -0.14791660709E+04  0.14791660709E+04  0.00000000000E+00 0. -1.
         35    2    1    2    0    0  0.00000000000E+00  0.00000000000E+00 -0.14664301075E+04  0.14919020342E+04  0.27450759468E+03 0.  0.
         25    1    3    3    0    0 -0.24935483974E+02 -0.58139326457E+02 -0.84678157121E+03  0.85757856141E+03  0.12000000000E+03 0.  0.
         25    1    3    3    0    0  0.24935483974E+02  0.58139326457E+02 -0.61964853628E+03  0.63432347281E+03  0.12000000000E+03 0.  0.
<mgrwt>
<rscale>  0 0.27450759E+03</rscale>
<asrwt>0</asrwt>
<pdfrwt beam="1">  1        2 0.22756387E+00 0.27450759E+03</pdfrwt>
<pdfrwt beam="2">  1       -2 0.19593802E-02 0.27450759E+03</pdfrwt>
<totfact> 0.11154311E+04</totfact>
</mgrwt>
</event>
<event>
 5    1  0.1122238E+001  0.2742234E+03  0.7818608E-02  0.1098886E+00
          1   -1    0    0  501    0  0.00000000000E+00  0.00000000000E+00  0.18609771278E+04  0.18609771278E+04  0.00000000000E+00 0. -1.
         -1   -1    0    0    0  501 -0.00000000000E+00 -0.00000000000E+00 -0.10102016649E+02  0.10102016649E+02  0.00000000000E+00 0. -1.
         35    2    1    2    0    0  0.00000000000E+00  0.00000000000E+00  0.18508751112E+04  0.18710791445E+04  0.27422342663E+03 0.  0.
         25    1    3    3    0    0  0.57628104721E+02 -0.19655119718E+02  0.11049665879E+04  0.11131300385E+04  0.12000000000E+03 0.  0.
         25    1    3    3    0    0 -0.57628104721E+02  0.19655119718E+02  0.74590852326E+03  0.75794910598E+03  0.12000000000E+03 0.  0.
<mgrwt>
<rscale>  0 0.27422343E+03</rscale>
<asrwt>0</asrwt>
<pdfrwt beam="1">  1        1 0.28630390E+00 0.27422343E+03</pdfrwt>
<pdfrwt beam="2">  1       -1 0.15541579E-02 0.27422343E+03</pdfrwt>
<totfact> 0.41165948E+03</totfact>
</mgrwt>
</event>
<event>
 5    1  0.1122238E+001  0.2747115E+03  0.7818608E-02  0.1098613E+00
         -1   -1    0    0    0  501 -0.00000000000E+00  0.00000000000E+00  0.18992300586E+04  0.18992300586E+04  0.00000000000E+00 0. -1.
          1   -1    0    0  501    0  0.00000000000E+00 -0.00000000000E+00 -0.99338130530E+01  0.99338130530E+01  0.00000000000E+00 0. -1.
         35    2    1    2    0    0  0.00000000000E+00  0.00000000000E+00  0.18892962455E+04  0.19091638716E+04  0.27471145842E+03 0.  0.
         25    1    3    3    0    0 -0.59691896084E+02 -0.28770919255E+02  0.10051177913E+04  0.10144223295E+04  0.12000000000E+03 0.  0.
         25    1    3    3    0    0  0.59691896084E+02  0.28770919255E+02  0.88417845426E+03  0.89474154214E+03  0.12000000000E+03 0.  0.
<mgrwt>
<rscale>  0 0.27471146E+03</rscale>
<asrwt>0</asrwt>
<pdfrwt beam="1">  1        1 0.15282804E-02 0.27471146E+03</pdfrwt>
<pdfrwt beam="2">  1       -1 0.29218895E+00 0.27471146E+03</pdfrwt>
<totfact> 0.38287907E+02</totfact>
</mgrwt>
</event>
<event>
 5    1  0.1122238E+001  0.2746484E+03  0.7818608E-02  0.1098648E+00
          1   -1    0    0  501    0  0.00000000000E+00  0.00000000000E+00  0.12899844850E+04  0.12899844850E+04  0.00000000000E+00 0.  1.
         -1   -1    0    0    0  501 -0.00000000000E+00 -0.00000000000E+00 -0.14618731835E+02  0.14618731835E+02  0.00000000000E+00 0.  1.
         35    2    1    2    0    0  0.00000000000E+00  0.00000000000E+00  0.12753657531E+04  0.13046032168E+04  0.27464840984E+03 0.  0.
         25    1    3    3    0    0  0.77874159736E+01  0.11842834863E+02  0.32775884283E+03  0.34932328241E+03  0.12000000000E+03 0.  0.
         25    1    3    3    0    0 -0.77874159736E+01 -0.11842834863E+02  0.94760691031E+03  0.95527993439E+03  0.12000000000E+03 0.  0.
<mgrwt>
<rscale>  0 0.27464841E+03</rscale>
<asrwt>0</asrwt>
<pdfrwt beam="1">  1        1 0.19845906E+00 0.27464841E+03</pdfrwt>
<pdfrwt beam="2">  1       -1 0.22490367E-02 0.27464841E+03</pdfrwt>
<totfact> 0.57218858E+03</totfact>
</mgrwt>
</event>
<event>
 5    1  0.1122238E+001  0.2776261E+03  0.7818608E-02  0.1096993E+00
         -2   -1    0    0    0  501 -0.00000000000E+00  0.00000000000E+00  0.10848281128E+04  0.10848281128E+04  0.00000000000E+00 0.  1.
          2   -1    0    0  501    0  0.00000000000E+00 -0.00000000000E+00 -0.17762318111E+02  0.17762318111E+02  0.00000000000E+00 0.  1.
         35    2    1    2    0    0  0.00000000000E+00  0.00000000000E+00  0.10670657947E+04  0.11025904309E+04  0.27762609413E+03 0.  0.
         25    1    3    3    0    0  0.49946701697E+02  0.39775764413E+02  0.64532023729E+03  0.65948085120E+03  0.12000000000E+03 0.  0.
         25    1    3    3    0    0 -0.49946701697E+02 -0.39775764413E+02  0.42174555741E+03  0.44310957972E+03  0.12000000000E+03 0.  0.
<mgrwt>
<rscale>  0 0.27762609E+03</rscale>
<asrwt>0</asrwt>
<pdfrwt beam="1">  1        2 0.27326652E-02 0.27762609E+03</pdfrwt>
<pdfrwt beam="2">  1       -2 0.16689658E+00 0.27762609E+03</pdfrwt>
<totfact> 0.85209544E+02</totfact>
</mgrwt>
</event>
<event>
 5    1  0.1122238E+001  0.2746330E+03  0.7818608E-02  0.1098657E+00
         -2   -1    0    0    0  501 -0.00000000000E+00  0.00000000000E+00  0.15808630941E+02  0.15808630941E+02  0.00000000000E+00 0.  1.
          2   -1    0    0  501    0  0.00000000000E+00 -0.00000000000E+00 -0.11927547793E+04  0.11927547793E+04  0.00000000000E+00 0.  1.
         35    2    1    2    0    0  0.00000000000E+00  0.00000000000E+00 -0.11769461484E+04  0.12085634102E+04  0.27463299226E+03 0.  0.
         25    1    3    3    0    0  0.66309663612E+02 -0.70959837190E+01 -0.57564638181E+03  0.59179057222E+03  0.12000000000E+03 0.  0.
         25    1    3    3    0    0 -0.66309663612E+02  0.70959837190E+01 -0.60129976655E+03  0.61677283803E+03  0.12000000000E+03 0.  0.
<mgrwt>
<rscale>  0 0.27463299E+03</rscale>
<asrwt>0</asrwt>
<pdfrwt beam="1">  1        2 0.18350075E+00 0.27463299E+03</pdfrwt>
<pdfrwt beam="2">  1       -2 0.24320969E-02 0.27463299E+03</pdfrwt>
<totfact> 0.11661993E+04</totfact>
</mgrwt>
</event>
<event>
 5    1  0.1122238E+001  0.2781059E+03  0.7818608E-02  0.1096728E+00
          2   -1    0    0  501    0  0.00000000000E+00  0.00000000000E+00  0.22925421258E+03  0.22925421258E+03  0.00000000000E+00 0.  1.
         -2   -1    0    0    0  501 -0.00000000000E+00 -0.00000000000E+00 -0.84341856945E+02  0.84341856945E+02  0.00000000000E+00 0.  1.
         35    2    1    2    0    0  0.00000000000E+00  0.00000000000E+00  0.14491235564E+03  0.31359606953E+03  0.27810592228E+03 0.  0.
         25    1    3    3    0    0 -0.13895685991E+01  0.69880512378E+02  0.80470100519E+02  0.16050125853E+03  0.12000000000E+03 0.  0.
         25    1    3    3    0    0  0.13895685991E+01 -0.69880512378E+02  0.64442255120E+02  0.15309481100E+03  0.12000000000E+03 0.  0.
<mgrwt>
<rscale>  0 0.27810592E+03</rscale>
<asrwt>0</asrwt>
<pdfrwt beam="1">  1        2 0.35269879E-01 0.27810592E+03</pdfrwt>
<pdfrwt beam="2">  1       -2 0.12975670E-01 0.27810592E+03</pdfrwt>
<totfact> 0.63370874E+03</totfact>
</mgrwt>
</event>
<event>
 5    1  0.1122238E+001  0.2761449E+03  0.7818608E-02  0.1097813E+00
         -2   -1    0    0    0  501 -0.00000000000E+00  0.00000000000E+00  0.16403060970E+02  0.16403060970E+02  0.00000000000E+00 0.  1.
          2   -1    0    0  501    0  0.00000000000E+00 -0.00000000000E+00 -0.11622225680E+04  0.11622225680E+04  0.00000000000E+00 0.  1.
         35    2    1    2    0    0  0.00000000000E+00  0.00000000000E+00 -0.11458195070E+04  0.11786256289E+04  0.27614494487E+03 0.  0.
         25    1    3    3    0    0 -0.26483761420E+02  0.43426064916E+02 -0.37840259540E+03  0.40021961089E+03  0.12000000000E+03 0.  0.
         25    1    3    3    0    0  0.26483761420E+02 -0.43426064916E+02 -0.76741691160E+03  0.77840601806E+03  0.12000000000E+03 0.  0.
<mgrwt>
<rscale>  0 0.27614494E+03</rscale>
<asrwt>0</asrwt>
<pdfrwt beam="1">  1        2 0.17880349E+00 0.27614494E+03</pdfrwt>
<pdfrwt beam="2">  1       -2 0.25235476E-02 0.27614494E+03</pdfrwt>
<totfact> 0.11497152E+04</totfact>
</mgrwt>
</event>
<event>
 5    1  0.1122238E+001  0.2749614E+03  0.7818608E-02  0.1098473E+00
          2   -1    0    0  501    0  0.00000000000E+00  0.00000000000E+00  0.90394950580E+03  0.90394950580E+03  0.00000000000E+00 0. -1.
         -2   -1    0    0    0  501 -0.00000000000E+00 -0.00000000000E+00 -0.20909290116E+02  0.20909290116E+02  0.00000000000E+00 0. -1.
         35    2    1    2    0    0  0.00000000000E+00  0.00000000000E+00  0.88304021569E+03  0.92485879592E+03  0.27496139705E+03 0.  0.
         25    1    3    3    0    0  0.25011291884E+02 -0.49838586262E+01  0.23279991706E+03  0.26314673654E+03  0.12000000000E+03 0.  0.
         25    1    3    3    0    0 -0.25011291884E+02  0.49838586262E+01  0.65024029863E+03  0.66171205938E+03  0.12000000000E+03 0.  0.
<mgrwt>
<rscale>  0 0.27496140E+03</rscale>
<asrwt>0</asrwt>
<pdfrwt beam="1">  1        2 0.13906912E+00 0.27496140E+03</pdfrwt>
<pdfrwt beam="2">  1       -2 0.32168146E-02 0.27496140E+03</pdfrwt>
<totfact> 0.11489331E+04</totfact>
</mgrwt>
</event>
<event>
 5    1  0.1122238E+001  0.2746284E+03  0.7818608E-02  0.1098659E+00
          2   -1    0    0  501    0  0.00000000000E+00  0.00000000000E+00  0.96118846435E+02  0.96118846435E+02  0.00000000000E+00 0.  1.
         -2   -1    0    0    0  501 -0.00000000000E+00 -0.00000000000E+00 -0.19616541200E+03  0.19616541200E+03  0.00000000000E+00 0.  1.
         35    2    1    2    0    0  0.00000000000E+00  0.00000000000E+00 -0.10004656557E+03  0.29228425844E+03  0.27462842615E+03 0.  0.
         25    1    3    3    0    0  0.39390350505E+02  0.53661119690E+02 -0.55245643082E+02  0.14792970141E+03  0.12000000000E+03 0.  0.
         25    1    3    3    0    0 -0.39390350505E+02 -0.53661119690E+02 -0.44800922483E+02  0.14435455703E+03  0.12000000000E+03 0.  0.
<mgrwt>
<rscale>  0 0.27462843E+03</rscale>
<asrwt>0</asrwt>
<pdfrwt beam="1">  1        2 0.14787515E-01 0.27462843E+03</pdfrwt>
<pdfrwt beam="2">  1       -2 0.30179294E-01 0.27462843E+03</pdfrwt>
<totfact> 0.39875385E+03</totfact>
</mgrwt>
</event>
<event>
 5    1  0.1122238E+001  0.2745875E+03  0.7818608E-02  0.1098682E+00
         -1   -1    0    0    0  501 -0.00000000000E+00  0.00000000000E+00  0.18334215839E+02  0.18334215839E+02  0.00000000000E+00 0.  1.
          1   -1    0    0  501    0  0.00000000000E+00 -0.00000000000E+00 -0.10281091016E+04  0.10281091016E+04  0.00000000000E+00 0.  1.
         35    2    1    2    0    0  0.00000000000E+00  0.00000000000E+00 -0.10097748858E+04  0.10464433174E+04  0.27458750281E+03 0.  0.
         25    1    3    3    0    0  0.54324239736E+02 -0.31247125678E+02 -0.59196346853E+03  0.60724645241E+03  0.12000000000E+03 0.  0.
         25    1    3    3    0    0 -0.54324239736E+02  0.31247125678E+02 -0.41781141723E+03  0.43919686503E+03  0.12000000000E+03 0.  0.
<mgrwt>
<rscale>  0 0.27458750E+03</rscale>
<asrwt>0</asrwt>
<pdfrwt beam="1">  1        1 0.15817069E+00 0.27458750E+03</pdfrwt>
<pdfrwt beam="2">  1       -1 0.28206476E-02 0.27458750E+03</pdfrwt>
<totfact> 0.62916142E+03</totfact>
</mgrwt>
</event>
<event>
 5    1  0.1122238E+001  0.2753139E+03  0.7818608E-02  0.1098276E+00
          2   -1    0    0  501    0  0.00000000000E+00  0.00000000000E+00  0.69812816326E+03  0.69812816326E+03  0.00000000000E+00 0.  1.
         -2   -1    0    0    0  501 -0.00000000000E+00 -0.00000000000E+00 -0.27143214157E+02  0.27143214157E+02  0.00000000000E+00 0.  1.
         35    2    1    2    0    0  0.00000000000E+00  0.00000000000E+00  0.67098494910E+03  0.72527137742E+03  0.27531394621E+03 0.  0.
         25    1    3    3    0    0  0.60058375364E+02 -0.30351234077E+02  0.32335264472E+03  0.35140452289E+03  0.12000000000E+03 0.  0.
         25    1    3    3    0    0 -0.60058375364E+02  0.30351234077E+02  0.34763230438E+03  0.37386685452E+03  0.12000000000E+03 0.  0.
<mgrwt>
<rscale>  0 0.27531395E+03</rscale>
<asrwt>0</asrwt>
<pdfrwt beam="1">  1        2 0.10740432E+00 0.27531395E+03</pdfrwt>
<pdfrwt beam="2">  1       -2 0.41758796E-02 0.27531395E+03</pdfrwt>
<totfact> 0.10793224E+04</totfact>
</mgrwt>
</event>
<event>
 5    1  0.1122238E+001  0.2758514E+03  0.7818608E-02  0.1097977E+00
          1   -1    0    0  501    0  0.00000000000E+00  0.00000000000E+00  0.10177054984E+03  0.10177054984E+03  0.00000000000E+00 0. -1.
         -1   -1    0    0    0  501 -0.00000000000E+00 -0.00000000000E+00 -0.18692534187E+03  0.18692534187E+03  0.00000000000E+00 0. -1.
         35    2    1    2    0    0  0.00000000000E+00  0.00000000000E+00 -0.85154792025E+02  0.28869589171E+03  0.27585137173E+03 0.  0.
         25    1    3    3    0    0 -0.65233375333E+02  0.25913920613E+01 -0.22682060446E+02  0.13847954519E+03  0.12000000000E+03 0.  0.
         25    1    3    3    0    0  0.65233375333E+02 -0.25913920613E+01 -0.62472731579E+02  0.15021634652E+03  0.12000000000E+03 0.  0.
<mgrwt>
<rscale>  0 0.27585137E+03</rscale>
<asrwt>0</asrwt>
<pdfrwt beam="1">  1        1 0.15657008E-01 0.27585137E+03</pdfrwt>
<pdfrwt beam="2">  1       -1 0.28757745E-01 0.27585137E+03</pdfrwt>
<totfact> 0.38467720E+03</totfact>
</mgrwt>
</event>
<event>
 5    1  0.1122238E+001  0.2712096E+03  0.7818608E-02  0.1100589E+00
         -2   -1    0    0    0  501 -0.00000000000E+00  0.00000000000E+00  0.72791051346E+01  0.72791051346E+01  0.00000000000E+00 0. -1.
          2   -1    0    0  501    0  0.00000000000E+00 -0.00000000000E+00 -0.25262262016E+04  0.25262262016E+04  0.00000000000E+00 0. -1.
         35    2    1    2    0    0  0.00000000000E+00  0.00000000000E+00 -0.25189470965E+04  0.25335053067E+04  0.27120963195E+03 0.  0.
         25    1    3    3    0    0 -0.16569138164E+00 -0.61787638424E+02 -0.13816032457E+04  0.13881805604E+04  0.12000000000E+03 0.  0.
         25    1    3    3    0    0  0.16569138164E+00  0.61787638424E+02 -0.11373438507E+04  0.11453247463E+04  0.12000000000E+03 0.  0.
<mgrwt>
<rscale>  0 0.27120963E+03</rscale>
<asrwt>0</asrwt>
<pdfrwt beam="1">  1        2 0.38864980E+00 0.27120963E+03</pdfrwt>
<pdfrwt beam="2">  1       -2 0.11198634E-02 0.27120963E+03</pdfrwt>
<totfact> 0.70156686E+03</totfact>
</mgrwt>
</event>
<event>
 5    1  0.1122238E+001  0.2875593E+03  0.7818608E-02  0.1091630E+00
         -1   -1    0    0    0  501 -0.00000000000E+00  0.00000000000E+00  0.94586787022E+02  0.94586787022E+02  0.00000000000E+00 0.  1.
          1   -1    0    0  501    0  0.00000000000E+00 -0.00000000000E+00 -0.21855687218E+03  0.21855687218E+03  0.00000000000E+00 0.  1.
         35    2    1    2    0    0  0.00000000000E+00  0.00000000000E+00 -0.12397008516E+03  0.31314365920E+03  0.28755933176E+03 0.  0.
         25    1    3    3    0    0 -0.38497650897E+02 -0.53028865356E+01  0.13164996256E+02  0.12682076666E+03  0.12000000000E+03 0.  0.
         25    1    3    3    0    0  0.38497650897E+02  0.53028865356E+01 -0.13713508141E+03  0.18632289254E+03  0.12000000000E+03 0.  0.
<mgrwt>
<rscale>  0 0.28755933E+03</rscale>
<asrwt>0</asrwt>
<pdfrwt beam="1">  1        1 0.33624135E-01 0.28755933E+03</pdfrwt>
<pdfrwt beam="2">  1       -1 0.14551813E-01 0.28755933E+03</pdfrwt>
<totfact> 0.44003099E+03</totfact>
</mgrwt>
</event>
<event>
 5    1  0.1122238E+001  0.2752219E+03  0.7818608E-02  0.1098328E+00
          1   -1    0    0  501    0  0.00000000000E+00  0.00000000000E+00  0.15120616137E+03  0.15120616137E+03  0.00000000000E+00 0. -1.
         -1   -1    0    0    0  501 -0.00000000000E+00 -0.00000000000E+00 -0.12523810816E+03  0.12523810816E+03  0.00000000000E+00 0. -1.
         35    2    1    2    0    0  0.00000000000E+00  0.00000000000E+00  0.25968053217E+02  0.27644426953E+03  0.27522190023E+03 0.  0.
         25    1    3    3    0    0  0.53485855137E+00  0.52827002855E+02 -0.28984262130E+02  0.13427980397E+03  0.12000000000E+03 0.  0.
         25    1    3    3    0    0 -0.53485855137E+00 -0.52827002855E+02  0.54952315347E+02  0.14216446555E+03  0.12000000000E+03 0.  0.
<mgrwt>
<rscale>  0 0.27522190E+03</rscale>
<asrwt>0</asrwt>
<pdfrwt beam="1">  1        1 0.23262486E-01 0.27522190E+03</pdfrwt>
<pdfrwt beam="2">  1       -1 0.19267401E-01 0.27522190E+03</pdfrwt>
<totfact> 0.44711300E+03</totfact>
</mgrwt>
</event>
<event>
 5    1  0.1122238E+001  0.2755581E+03  0.7818608E-02  0.1098140E+00
          4   -1    0    0  501    0  0.00000000000E+00  0.00000000000E+00  0.87053855705E+03  0.87053855705E+03  0.00000000000E+00 0.  1.
         -4   -1    0    0    0  501 -0.00000000000E+00 -0.00000000000E+00 -0.21806116165E+02  0.21806116165E+02  0.00000000000E+00 0.  1.
         35    2    1    2    0    0  0.00000000000E+00  0.00000000000E+00  0.84873244089E+03  0.89234467322E+03  0.27555808753E+03 0.  0.
         25    1    3    3    0    0  0.46855139545E+02  0.12327662980E+02  0.57748385791E+03  0.59180654062E+03  0.12000000000E+03 0.  0.
         25    1    3    3    0    0 -0.46855139545E+02 -0.12327662980E+02  0.27124858298E+03  0.30053813259E+03  0.12000000000E+03 0.  0.
<mgrwt>
<rscale>  0 0.27555809E+03</rscale>
<asrwt>0</asrwt>
<pdfrwt beam="1">  1        4 0.13392898E+00 0.27555809E+03</pdfrwt>
<pdfrwt beam="2">  1       -4 0.33547878E-02 0.27555809E+03</pdfrwt>
<totfact> 0.35718841E+02</totfact>
</mgrwt>
</event>
<event>
 5    1  0.1122238E+001  0.2847070E+03  0.7818608E-02  0.1093145E+00
          4   -1    0    0  501    0  0.00000000000E+00  0.00000000000E+00  0.12844232683E+03  0.12844232683E+03  0.00000000000E+00 0. -1.
         -4   -1    0    0    0  501 -0.00000000000E+00 -0.00000000000E+00 -0.15777135732E+03  0.15777135732E+03  0.00000000000E+00 0. -1.
         35    2    1    2    0    0  0.00000000000E+00  0.00000000000E+00 -0.29329030481E+02  0.28621368415E+03  0.28470700899E+03 0.  0.
         25    1    3    3    0    0  0.54207352046E+02  0.43969014884E+02 -0.46340131880E+02  0.14635272156E+03  0.12000000000E+03 0.  0.
         25    1    3    3    0    0 -0.54207352046E+02 -0.43969014884E+02  0.17011101399E+02  0.13986096259E+03  0.12000000000E+03 0.  0.
<mgrwt>
<rscale>  0 0.28470701E+03</rscale>
<asrwt>0</asrwt>
<pdfrwt beam="1">  1        4 0.19760358E-01 0.28470701E+03</pdfrwt>
<pdfrwt beam="2">  1       -4 0.24272517E-01 0.28470701E+03</pdfrwt>
<totfact> 0.68745715E+02</totfact>
</mgrwt>
</event>
<event>
 5    1  0.1122238E+001  0.2751545E+03  0.7818608E-02  0.1098365E+00
          1   -1    0    0  501    0  0.00000000000E+00  0.00000000000E+00  0.51868086997E+03  0.51868086997E+03  0.00000000000E+00 0. -1.
         -1   -1    0    0    0  501 -0.00000000000E+00 -0.00000000000E+00 -0.36491620096E+02  0.36491620096E+02  0.00000000000E+00 0. -1.
         35    2    1    2    0    0  0.00000000000E+00  0.00000000000E+00  0.48218924988E+03  0.55517249007E+03  0.27515454027E+03 0.  0.
         25    1    3    3    0    0  0.56263125717E+02  0.33420650174E+02  0.20951133157E+03  0.25015490647E+03  0.12000000000E+03 0.  0.
         25    1    3    3    0    0 -0.56263125717E+02 -0.33420650174E+02  0.27267791830E+03  0.30501758360E+03  0.12000000000E+03 0.  0.
<mgrwt>
<rscale>  0 0.27515454E+03</rscale>
<asrwt>0</asrwt>
<pdfrwt beam="1">  1        1 0.79797052E-01 0.27515454E+03</pdfrwt>
<pdfrwt beam="2">  1       -1 0.56140958E-02 0.27515454E+03</pdfrwt>
<totfact> 0.63221236E+03</totfact>
</mgrwt>
</event>
<event>
 5    1  0.1122238E+001  0.2773848E+03  0.7818608E-02  0.1097126E+00
          2   -1    0    0  501    0  0.00000000000E+00  0.00000000000E+00  0.80968466152E+03  0.80968466152E+03  0.00000000000E+00 0.  1.
         -2   -1    0    0    0  501 -0.00000000000E+00 -0.00000000000E+00 -0.23756878895E+02  0.23756878895E+02  0.00000000000E+00 0.  1.
         35    2    1    2    0    0  0.00000000000E+00  0.00000000000E+00  0.78592778263E+03  0.83344154042E+03  0.27738479012E+03 0.  0.
         25    1    3    3    0    0  0.30665754014E+02 -0.61164005109E+02  0.35565834892E+03  0.38154198347E+03  0.12000000000E+03 0.  0.
         25    1    3    3    0    0 -0.30665754014E+02  0.61164005109E+02  0.43026943371E+03  0.45189955695E+03  0.12000000000E+03 0.  0.
<mgrwt>
<rscale>  0 0.27738479E+03</rscale>
<asrwt>0</asrwt>
<pdfrwt beam="1">  1        2 0.12456685E+00 0.27738479E+03</pdfrwt>
<pdfrwt beam="2">  1       -2 0.36549051E-02 0.27738479E+03</pdfrwt>
<totfact> 0.10968052E+04</totfact>
</mgrwt>
</event>
<event>
 5    1  0.1122238E+001  0.2664733E+03  0.7818608E-02  0.1103315E+00
         -2   -1    0    0    0  501 -0.00000000000E+00  0.00000000000E+00  0.28422731730E+02  0.28422731730E+02  0.00000000000E+00 0.  1.
          2   -1    0    0  501    0  0.00000000000E+00 -0.00000000000E+00 -0.62457064815E+03  0.62457064815E+03  0.00000000000E+00 0.  1.
         35    2    1    2    0    0  0.00000000000E+00  0.00000000000E+00 -0.59614791642E+03  0.65299337988E+03  0.26647329306E+03 0.  0.
         25    1    3    3    0    0 -0.34072267141E+02 -0.43103670329E+02 -0.25334586963E+03  0.28566234516E+03  0.12000000000E+03 0.  0.
         25    1    3    3    0    0  0.34072267141E+02  0.43103670329E+02 -0.34280204679E+03  0.36733103472E+03  0.12000000000E+03 0.  0.
<mgrwt>
<rscale>  0 0.26647329E+03</rscale>
<asrwt>0</asrwt>
<pdfrwt beam="1">  1        2 0.96087791E-01 0.26647329E+03</pdfrwt>
<pdfrwt beam="2">  1       -2 0.43727280E-02 0.26647329E+03</pdfrwt>
<totfact> 0.11483291E+04</totfact>
</mgrwt>
</event>
<event>
 5    1  0.1122238E+001  0.2752441E+03  0.7818608E-02  0.1098315E+00
          2   -1    0    0  501    0  0.00000000000E+00  0.00000000000E+00  0.20760243762E+03  0.20760243762E+03  0.00000000000E+00 0.  1.
         -2   -1    0    0    0  501 -0.00000000000E+00 -0.00000000000E+00 -0.91231268213E+02  0.91231268213E+02  0.00000000000E+00 0.  1.
         35    2    1    2    0    0  0.00000000000E+00  0.00000000000E+00  0.11637116941E+03  0.29883370583E+03  0.27524413649E+03 0.  0.
         25    1    3    3    0    0  0.59121560614E+02 -0.16042793241E+01  0.23140691769E+02  0.13576974721E+03  0.12000000000E+03 0.  0.
         25    1    3    3    0    0 -0.59121560614E+02  0.16042793241E+01  0.93230477637E+02  0.16306395862E+03  0.12000000000E+03 0.  0.
<mgrwt>
<rscale>  0 0.27524414E+03</rscale>
<asrwt>0</asrwt>
<pdfrwt beam="1">  1        2 0.31938836E-01 0.27524414E+03</pdfrwt>
<pdfrwt beam="2">  1       -2 0.14035580E-01 0.27524414E+03</pdfrwt>
<totfact> 0.62074474E+03</totfact>
</mgrwt>
</event>
<event>
 5    1  0.1122238E+001  0.2742427E+03  0.7818608E-02  0.1098876E+00
         -2   -1    0    0    0  501 -0.00000000000E+00  0.00000000000E+00  0.18385667459E+03  0.18385667459E+03  0.00000000000E+00 0. -1.
          2   -1    0    0  501    0  0.00000000000E+00 -0.00000000000E+00 -0.10226588773E+03  0.10226588773E+03  0.00000000000E+00 0. -1.
         35    2    1    2    0    0  0.00000000000E+00  0.00000000000E+00  0.81590786861E+02  0.28612256232E+03  0.27424271033E+03 0.  0.
         25    1    3    3    0    0  0.29075983820E+02  0.48433464833E+02  0.77103076244E+02  0.15341478976E+03  0.12000000000E+03 0.  0.
         25    1    3    3    0    0 -0.29075983820E+02 -0.48433464833E+02  0.44877106168E+01  0.13270777256E+03  0.12000000000E+03 0.  0.
<mgrwt>
<rscale>  0 0.27424271E+03</rscale>
<asrwt>0</asrwt>
<pdfrwt beam="1">  1        2 0.15733214E-01 0.27424271E+03</pdfrwt>
<pdfrwt beam="2">  1       -2 0.28285642E-01 0.27424271E+03</pdfrwt>
<totfact> 0.41660833E+03</totfact>
</mgrwt>
</event>
<event>
 5    1  0.1122238E+001  0.2755985E+03  0.7818608E-02  0.1098118E+00
          2   -1    0    0  501    0  0.00000000000E+00  0.00000000000E+00  0.20030323008E+03  0.20030323008E+03  0.00000000000E+00 0.  1.
         -2   -1    0    0    0  501 -0.00000000000E+00 -0.00000000000E+00 -0.94799451310E+02  0.94799451310E+02  0.00000000000E+00 0.  1.
         35    2    1    2    0    0  0.00000000000E+00  0.00000000000E+00  0.10550377877E+03  0.29510268139E+03  0.27559852182E+03 0.  0.
         25    1    3    3    0    0  0.32811069014E+02 -0.16506274434E+02 -0.81937777988E+01  0.12576232083E+03  0.12000000000E+03 0.  0.
         25    1    3    3    0    0 -0.32811069014E+02  0.16506274434E+02  0.11369755657E+03  0.16934036056E+03  0.12000000000E+03 0.  0.
<mgrwt>
<rscale>  0 0.27559852E+03</rscale>
<asrwt>0</asrwt>
<pdfrwt beam="1">  1        2 0.30815881E-01 0.27559852E+03</pdfrwt>
<pdfrwt beam="2">  1       -2 0.14584531E-01 0.27559852E+03</pdfrwt>
<totfact> 0.60610092E+03</totfact>
</mgrwt>
</event>
<event>
 5    1  0.1122238E+001  0.2745882E+03  0.7818608E-02  0.1098682E+00
          1   -1    0    0  501    0  0.00000000000E+00  0.00000000000E+00  0.47567981128E+03  0.47567981128E+03  0.00000000000E+00 0.  1.
         -1   -1    0    0    0  501 -0.00000000000E+00 -0.00000000000E+00 -0.39626814568E+02  0.39626814568E+02  0.00000000000E+00 0.  1.
         35    2    1    2    0    0  0.00000000000E+00  0.00000000000E+00  0.43605299671E+03  0.51530662584E+03  0.27458824210E+03 0.  0.
         25    1    3    3    0    0 -0.15359908611E+02  0.15587959053E+02  0.99771133998E+02  0.15758550200E+03  0.12000000000E+03 0.  0.
         25    1    3    3    0    0  0.15359908611E+02 -0.15587959053E+02  0.33628186271E+03  0.35772112385E+03  0.12000000000E+03 0.  0.
<mgrwt>
<rscale>  0 0.27458824E+03</rscale>
<asrwt>0</asrwt>
<pdfrwt beam="1">  1        1 0.73181506E-01 0.27458824E+03</pdfrwt>
<pdfrwt beam="2">  1       -1 0.60964333E-02 0.27458824E+03</pdfrwt>
<totfact> 0.62629307E+03</totfact>
</mgrwt>
</event>
<event>
 5    1  0.1122238E+001  0.2753943E+03  0.7818608E-02  0.1098231E+00
         -2   -1    0    0    0  501 -0.00000000000E+00  0.00000000000E+00  0.25233800491E+02  0.25233800491E+02  0.00000000000E+00 0.  1.
          2   -1    0    0  501    0  0.00000000000E+00 -0.00000000000E+00 -0.75139312061E+03  0.75139312061E+03  0.00000000000E+00 0.  1.
         35    2    1    2    0    0  0.00000000000E+00  0.00000000000E+00 -0.72615932012E+03  0.77662692110E+03  0.27539429258E+03 0.  0.
         25    1    3    3    0    0 -0.38825869295E+02  0.46547836347E+02 -0.44703751432E+03  0.46681547575E+03  0.12000000000E+03 0.  0.
         25    1    3    3    0    0  0.38825869295E+02 -0.46547836347E+02 -0.27912180580E+03  0.30981144535E+03  0.12000000000E+03 0.  0.
<mgrwt>
<rscale>  0 0.27539429E+03</rscale>
<asrwt>0</asrwt>
<pdfrwt beam="1">  1        2 0.11559895E+00 0.27539429E+03</pdfrwt>
<pdfrwt beam="2">  1       -2 0.38821229E-02 0.27539429E+03</pdfrwt>
<totfact> 0.11005901E+04</totfact>
</mgrwt>
</event>
<event>
 5    1  0.1122238E+001  0.2729032E+03  0.7818608E-02  0.1099629E+00
         -2   -1    0    0    0  501 -0.00000000000E+00  0.00000000000E+00  0.66404625460E+03  0.66404625460E+03  0.00000000000E+00 0. -1.
          2   -1    0    0  501    0  0.00000000000E+00 -0.00000000000E+00 -0.28038772219E+02  0.28038772219E+02  0.00000000000E+00 0. -1.
         35    2    1    2    0    0  0.00000000000E+00  0.00000000000E+00  0.63600748238E+03  0.69208502682E+03  0.27290321856E+03 0.  0.
         25    1    3    3    0    0 -0.32525247945E+02  0.47797072601E+02  0.24291946554E+03  0.27704208821E+03  0.12000000000E+03 0.  0.
         25    1    3    3    0    0  0.32525247945E+02 -0.47797072601E+02  0.39308801684E+03  0.41504293861E+03  0.12000000000E+03 0.  0.
<mgrwt>
<rscale>  0 0.27290322E+03</rscale>
<asrwt>0</asrwt>
<pdfrwt beam="1">  1        2 0.43136577E-02 0.27290322E+03</pdfrwt>
<pdfrwt beam="2">  1       -2 0.10216095E+00 0.27290322E+03</pdfrwt>
<totfact> 0.15603230E+03</totfact>
</mgrwt>
</event>
<event>
 5    1  0.1122238E+001  0.2777114E+03  0.7818608E-02  0.1096946E+00
         -1   -1    0    0    0  501 -0.00000000000E+00  0.00000000000E+00  0.88693287973E+01  0.88693287973E+01  0.00000000000E+00 0. -1.
          1   -1    0    0  501    0  0.00000000000E+00 -0.00000000000E+00 -0.21738852889E+04  0.21738852889E+04  0.00000000000E+00 0. -1.
         35    2    1    2    0    0  0.00000000000E+00  0.00000000000E+00 -0.21650159601E+04  0.21827546177E+04  0.27771138539E+03 0.  0.
         25    1    3    3    0    0 -0.60228902011E+02  0.27040590397E+02 -0.12621157766E+04  0.12695254813E+04  0.12000000000E+03 0.  0.
         25    1    3    3    0    0  0.60228902011E+02 -0.27040590397E+02 -0.90290018344E+03  0.91322913632E+03  0.12000000000E+03 0.  0.
<mgrwt>
<rscale>  0 0.27771139E+03</rscale>
<asrwt>0</asrwt>
<pdfrwt beam="1">  1        1 0.33444396E+00 0.27771139E+03</pdfrwt>
<pdfrwt beam="2">  1       -1 0.13645118E-02 0.27771139E+03</pdfrwt>
<totfact> 0.31142176E+03</totfact>
</mgrwt>
</event>
<event>
 5    1  0.1122238E+001  0.2751941E+03  0.7818608E-02  0.1098343E+00
          1   -1    0    0  501    0  0.00000000000E+00  0.00000000000E+00  0.79988435589E+02  0.79988435589E+02  0.00000000000E+00 0.  1.
         -1   -1    0    0    0  501 -0.00000000000E+00 -0.00000000000E+00 -0.23669600845E+03  0.23669600845E+03  0.00000000000E+00 0.  1.
         35    2    1    2    0    0  0.00000000000E+00  0.00000000000E+00 -0.15670757286E+03  0.31668444404E+03  0.27519406553E+03 0.  0.
         25    1    3    3    0    0 -0.15549501847E+02  0.64348336642E+02 -0.64238787126E+02  0.15135758061E+03  0.12000000000E+03 0.  0.
         25    1    3    3    0    0  0.15549501847E+02 -0.64348336642E+02 -0.92468785733E+02  0.16532686343E+03  0.12000000000E+03 0.  0.
<mgrwt>
<rscale>  0 0.27519407E+03</rscale>
<asrwt>0</asrwt>
<pdfrwt beam="1">  1        1 0.12305913E-01 0.27519407E+03</pdfrwt>
<pdfrwt beam="2">  1       -1 0.36414770E-01 0.27519407E+03</pdfrwt>
<totfact> 0.35214933E+03</totfact>
</mgrwt>
</event>
<event>
 5    1  0.1122238E+001  0.2750029E+03  0.7818608E-02  0.1098450E+00
          2   -1    0    0  501    0  0.00000000000E+00  0.00000000000E+00  0.15092438335E+04  0.15092438335E+04  0.00000000000E+00 0. -1.
         -2   -1    0    0    0  501 -0.00000000000E+00 -0.00000000000E+00 -0.12527235462E+02  0.12527235462E+02  0.00000000000E+00 0. -1.
         35    2    1    2    0    0  0.00000000000E+00  0.00000000000E+00  0.14967165981E+04  0.15217710690E+04  0.27500292997E+03 0.  0.
         25    1    3    3    0    0 -0.30104452090E+02 -0.54661786871E+02  0.61141138582E+03  0.62619331815E+03  0.12000000000E+03 0.  0.
         25    1    3    3    0    0  0.30104452090E+02  0.54661786871E+02  0.88530521226E+03  0.89557775086E+03  0.12000000000E+03 0.  0.
<mgrwt>
<rscale>  0 0.27500293E+03</rscale>
<asrwt>0</asrwt>
<pdfrwt beam="1">  1        2 0.23219122E+00 0.27500293E+03</pdfrwt>
<pdfrwt beam="2">  1       -2 0.19272682E-02 0.27500293E+03</pdfrwt>
<totfact> 0.11012831E+04</totfact>
</mgrwt>
</event>
<event>
 5    1  0.1122238E+001  0.2744470E+03  0.7818608E-02  0.1098761E+00
          2   -1    0    0  501    0  0.00000000000E+00  0.00000000000E+00  0.54184115052E+02  0.54184115052E+02  0.00000000000E+00 0.  1.
         -2   -1    0    0    0  501 -0.00000000000E+00 -0.00000000000E+00 -0.34752407116E+03  0.34752407116E+03  0.00000000000E+00 0.  1.
         35    2    1    2    0    0  0.00000000000E+00  0.00000000000E+00 -0.29333995611E+03  0.40170818621E+03  0.27444696577E+03 0.  0.
         25    1    3    3    0    0  0.15219872910E+02 -0.60720698833E+02 -0.11356197476E+03  0.17667758746E+03  0.12000000000E+03 0.  0.
         25    1    3    3    0    0 -0.15219872910E+02  0.60720698833E+02 -0.17977798135E+03  0.22503059875E+03  0.12000000000E+03 0.  0.
<mgrwt>
<rscale>  0 0.27444697E+03</rscale>
<asrwt>0</asrwt>
<pdfrwt beam="1">  1        2 0.83360176E-02 0.27444697E+03</pdfrwt>
<pdfrwt beam="2">  1       -2 0.53465243E-01 0.27444697E+03</pdfrwt>
<totfact> 0.26966486E+03</totfact>
</mgrwt>
</event>
<event>
 5    1  0.1122238E+001  0.2761519E+03  0.7818608E-02  0.1097809E+00
         -2   -1    0    0    0  501 -0.00000000000E+00  0.00000000000E+00  0.15285886743E+03  0.15285886743E+03  0.00000000000E+00 0.  1.
          2   -1    0    0  501    0  0.00000000000E+00 -0.00000000000E+00 -0.12472266998E+03  0.12472266998E+03  0.00000000000E+00 0.  1.
         35    2    1    2    0    0  0.00000000000E+00  0.00000000000E+00  0.28136197447E+02  0.27758153741E+03  0.27615188630E+03 0.  0.
         25    1    3    3    0    0 -0.19816696621E+02 -0.18068093895E+02 -0.49072772489E+02  0.13239068880E+03  0.12000000000E+03 0.  0.
         25    1    3    3    0    0  0.19816696621E+02  0.18068093895E+02  0.77208969937E+02  0.14519084861E+03  0.12000000000E+03 0.  0.
<mgrwt>
<rscale>  0 0.27615189E+03</rscale>
<asrwt>0</asrwt>
<pdfrwt beam="1">  1        2 0.19188103E-01 0.27615189E+03</pdfrwt>
<pdfrwt beam="2">  1       -2 0.23516749E-01 0.27615189E+03</pdfrwt>
<totfact> 0.45875957E+03</totfact>
</mgrwt>
</event>
<event>
 5    1  0.1122238E+001  0.2743125E+03  0.7818608E-02  0.1098837E+00
         -2   -1    0    0    0  501 -0.00000000000E+00  0.00000000000E+00  0.40175885437E+02  0.40175885437E+02  0.00000000000E+00 0.  1.
          2   -1    0    0  501    0  0.00000000000E+00 -0.00000000000E+00 -0.46823696891E+03  0.46823696891E+03  0.00000000000E+00 0.  1.
         35    2    1    2    0    0  0.00000000000E+00  0.00000000000E+00 -0.42806108347E+03  0.50841285434E+03  0.27431248474E+03 0.  0.
         25    1    3    3    0    0 -0.65182512788E+02 -0.12465001400E+02 -0.21917306735E+03  0.25853620575E+03  0.12000000000E+03 0.  0.
         25    1    3    3    0    0  0.65182512788E+02  0.12465001400E+02 -0.20888801612E+03  0.24987664859E+03  0.12000000000E+03 0.  0.
<mgrwt>
<rscale>  0 0.27431248E+03</rscale>
<asrwt>0</asrwt>
<pdfrwt beam="1">  1        2 0.72036463E-01 0.27431248E+03</pdfrwt>
<pdfrwt beam="2">  1       -2 0.61809049E-02 0.27431248E+03</pdfrwt>
<totfact> 0.94169265E+03</totfact>
</mgrwt>
</event>
<event>
 5    1  0.1122238E+001  0.2746738E+03  0.7818608E-02  0.1098634E+00
          2   -1    0    0  501    0  0.00000000000E+00  0.00000000000E+00  0.13447138913E+04  0.13447138913E+04  0.00000000000E+00 0.  1.
         -2   -1    0    0    0  501 -0.00000000000E+00 -0.00000000000E+00 -0.14026348561E+02  0.14026348561E+02  0.00000000000E+00 0.  1.
         35    2    1    2    0    0  0.00000000000E+00  0.00000000000E+00  0.13306875427E+04  0.13587402399E+04  0.27467381203E+03 0.  0.
         25    1    3    3    0    0  0.13420602017E+02 -0.28296394246E+02  0.37350167134E+03  0.39355342329E+03  0.12000000000E+03 0.  0.
         25    1    3    3    0    0 -0.13420602017E+02  0.28296394246E+02  0.95718587140E+03  0.96518681657E+03  0.12000000000E+03 0.  0.
<mgrwt>
<rscale>  0 0.27467381E+03</rscale>
<asrwt>0</asrwt>
<pdfrwt beam="1">  1        2 0.20687896E+00 0.27467381E+03</pdfrwt>
<pdfrwt beam="2">  1       -2 0.21579008E-02 0.27467381E+03</pdfrwt>
<totfact> 0.11445612E+04</totfact>
</mgrwt>
</event>
<event>
 5    1  0.1122238E+001  0.2754277E+03  0.7818608E-02  0.1098213E+00
         -1   -1    0    0    0  501 -0.00000000000E+00  0.00000000000E+00  0.22388961535E+02  0.22388961535E+02  0.00000000000E+00 0. -1.
          1   -1    0    0  501    0  0.00000000000E+00 -0.00000000000E+00 -0.84707381420E+03  0.84707381420E+03  0.00000000000E+00 0. -1.
         35    2    1    2    0    0  0.00000000000E+00  0.00000000000E+00 -0.82468485267E+03  0.86946277574E+03  0.27542768956E+03 0.  0.
         25    1    3    3    0    0 -0.41132945710E+02  0.37797953565E+02 -0.29236433576E+03  0.32093225039E+03  0.12000000000E+03 0.  0.
         25    1    3    3    0    0  0.41132945710E+02 -0.37797953565E+02 -0.53232051691E+03  0.54853052535E+03  0.12000000000E+03 0.  0.
<mgrwt>
<rscale>  0 0.27542769E+03</rscale>
<asrwt>0</asrwt>
<pdfrwt beam="1">  1        1 0.13031905E+00 0.27542769E+03</pdfrwt>
<pdfrwt beam="2">  1       -1 0.34444556E-02 0.27542769E+03</pdfrwt>
<totfact> 0.64623002E+03</totfact>
</mgrwt>
</event>
<event>
 5    1  0.1122238E+001  0.2748597E+03  0.7818608E-02  0.1098530E+00
          2   -1    0    0  501    0  0.00000000000E+00  0.00000000000E+00  0.24790913763E+04  0.24790913763E+04  0.00000000000E+00 0. -1.
         -2   -1    0    0    0  501 -0.00000000000E+00 -0.00000000000E+00 -0.76185040052E+01  0.76185040052E+01  0.00000000000E+00 0. -1.
         35    2    1    2    0    0  0.00000000000E+00  0.00000000000E+00  0.24714728723E+04  0.24867098803E+04  0.27485972844E+03 0.  0.
         25    1    3    3    0    0 -0.46574951694E+02 -0.43385433925E+02  0.10469455831E+04  0.10557208797E+04  0.12000000000E+03 0.  0.
         25    1    3    3    0    0  0.46574951694E+02  0.43385433925E+02  0.14245272893E+04  0.14309890006E+04  0.12000000000E+03 0.  0.
<mgrwt>
<rscale>  0 0.27485973E+03</rscale>
<asrwt>0</asrwt>
<pdfrwt beam="1">  1        2 0.38139803E+00 0.27485973E+03</pdfrwt>
<pdfrwt beam="2">  1       -2 0.11720795E-02 0.27485973E+03</pdfrwt>
<totfact> 0.69673733E+03</totfact>
</mgrwt>
</event>
<event>
 5    1  0.1122238E+001  0.2754950E+03  0.7818608E-02  0.1098175E+00
         -2   -1    0    0    0  501 -0.00000000000E+00  0.00000000000E+00  0.93107720439E+01  0.93107720439E+01  0.00000000000E+00 0.  1.
          2   -1    0    0  501    0  0.00000000000E+00 -0.00000000000E+00 -0.20378954224E+04  0.20378954224E+04  0.00000000000E+00 0.  1.
         35    2    1    2    0    0  0.00000000000E+00  0.00000000000E+00 -0.20285846504E+04  0.20472061945E+04  0.27549504335E+03 0.  0.
         25    1    3    3    0    0  0.91585103737E+01  0.50055580881E+02 -0.13453636108E+04  0.13516629331E+04  0.12000000000E+03 0.  0.
         25    1    3    3    0    0 -0.91585103737E+01 -0.50055580881E+02 -0.68322103957E+03  0.69554326134E+03  0.12000000000E+03 0.  0.
<mgrwt>
<rscale>  0 0.27549504E+03</rscale>
<asrwt>0</asrwt>
<pdfrwt beam="1">  1        2 0.31352263E+00 0.27549504E+03</pdfrwt>
<pdfrwt beam="2">  1       -2 0.14324253E-02 0.27549504E+03</pdfrwt>
<totfact> 0.89559604E+03</totfact>
</mgrwt>
</event>
<event>
 5    1  0.1122238E+001  0.2743223E+03  0.7818608E-02  0.1098831E+00
          2   -1    0    0  501    0  0.00000000000E+00  0.00000000000E+00  0.13852189518E+03  0.13852189518E+03  0.00000000000E+00 0.  1.
         -2   -1    0    0    0  501 -0.00000000000E+00 -0.00000000000E+00 -0.13581380145E+03  0.13581380145E+03  0.00000000000E+00 0.  1.
         35    2    1    2    0    0  0.00000000000E+00  0.00000000000E+00  0.27080937245E+01  0.27433569663E+03  0.27432232989E+03 0.  0.
         25    1    3    3    0    0 -0.13791370722E+02  0.64356278071E+02 -0.76604222494E+01  0.13707886235E+03  0.12000000000E+03 0.  0.
         25    1    3    3    0    0  0.13791370722E+02 -0.64356278071E+02  0.10368515974E+02  0.13725683428E+03  0.12000000000E+03 0.  0.
<mgrwt>
<rscale>  0 0.27432233E+03</rscale>
<asrwt>0</asrwt>
<pdfrwt beam="1">  1        2 0.21311061E-01 0.27432233E+03</pdfrwt>
<pdfrwt beam="2">  1       -2 0.20894431E-01 0.27432233E+03</pdfrwt>
<totfact> 0.49937697E+03</totfact>
</mgrwt>
</event>
<event>
 5    1  0.1122238E+001  0.2749492E+03  0.7818608E-02  0.1098480E+00
          2   -1    0    0  501    0  0.00000000000E+00  0.00000000000E+00  0.21797023351E+04  0.21797023351E+04  0.00000000000E+00 0.  1.
         -2   -1    0    0    0  501 -0.00000000000E+00 -0.00000000000E+00 -0.86705703994E+01  0.86705703994E+01  0.00000000000E+00 0.  1.
         35    2    1    2    0    0  0.00000000000E+00  0.00000000000E+00  0.21710317647E+04  0.21883729055E+04  0.27494917746E+03 0.  0.
         25    1    3    3    0    0  0.15873027064E+02 -0.19799449893E+02  0.59132183971E+03  0.60390851072E+03  0.12000000000E+03 0.  0.
         25    1    3    3    0    0 -0.15873027064E+02  0.19799449893E+02  0.15797099250E+04  0.15844643948E+04  0.12000000000E+03 0.  0.
<mgrwt>
<rscale>  0 0.27494918E+03</rscale>
<asrwt>0</asrwt>
<pdfrwt beam="1">  1        2 0.33533838E+00 0.27494918E+03</pdfrwt>
<pdfrwt beam="2">  1       -2 0.13339357E-02 0.27494918E+03</pdfrwt>
<totfact> 0.83617868E+03</totfact>
</mgrwt>
</event>
<event>
 5    1  0.1122238E+001  0.2748592E+03  0.7818608E-02  0.1098530E+00
         -2   -1    0    0    0  501 -0.00000000000E+00  0.00000000000E+00  0.22946134538E+02  0.22946134538E+02  0.00000000000E+00 0.  1.
          2   -1    0    0  501    0  0.00000000000E+00 -0.00000000000E+00 -0.82309707755E+03  0.82309707755E+03  0.00000000000E+00 0.  1.
         35    2    1    2    0    0  0.00000000000E+00  0.00000000000E+00 -0.80015094301E+03  0.84604321209E+03  0.27485920963E+03 0.  0.
         25    1    3    3    0    0  0.29140299726E+02 -0.54806294213E+02 -0.32257040821E+03  0.34972068170E+03  0.12000000000E+03 0.  0.
         25    1    3    3    0    0 -0.29140299726E+02  0.54806294213E+02 -0.47758053480E+03  0.49632253039E+03  0.12000000000E+03 0.  0.
<mgrwt>
<rscale>  0 0.27485921E+03</rscale>
<asrwt>0</asrwt>
<pdfrwt beam="1">  1        2 0.12663032E+00 0.27485921E+03</pdfrwt>
<pdfrwt beam="2">  1       -2 0.35301746E-02 0.27485921E+03</pdfrwt>
<totfact> 0.11308988E+04</totfact>
</mgrwt>
</event>
<event>
 5    1  0.1122238E+001  0.2742510E+03  0.7818608E-02  0.1098871E+00
         -4   -1    0    0    0  501 -0.00000000000E+00  0.00000000000E+00  0.23569200078E+03  0.23569200078E+03  0.00000000000E+00 0. -1.
          4   -1    0    0  501    0  0.00000000000E+00 -0.00000000000E+00 -0.79779568304E+02  0.79779568304E+02  0.00000000000E+00 0. -1.
         35    2    1    2    0    0  0.00000000000E+00  0.00000000000E+00  0.15591243248E+03  0.31547156908E+03  0.27425102425E+03 0.  0.
         25    1    3    3    0    0  0.46865108652E+02 -0.34626231670E+02  0.41433590143E+02  0.13968556375E+03  0.12000000000E+03 0.  0.
         25    1    3    3    0    0 -0.46865108652E+02  0.34626231670E+02  0.11447884233E+03  0.17578600533E+03  0.12000000000E+03 0.  0.
<mgrwt>
<rscale>  0 0.27425102E+03</rscale>
<asrwt>0</asrwt>
<pdfrwt beam="1">  1        4 0.12273780E-01 0.27425102E+03</pdfrwt>
<pdfrwt beam="2">  1       -4 0.36260308E-01 0.27425102E+03</pdfrwt>
<totfact> 0.73920131E+02</totfact>
</mgrwt>
</event>
<event>
 5    1  0.1122238E+001  0.2755992E+03  0.7818608E-02  0.1098117E+00
         -2   -1    0    0    0  501 -0.00000000000E+00  0.00000000000E+00  0.11553154923E+02  0.11553154923E+02  0.00000000000E+00 0.  1.
          2   -1    0    0  501    0  0.00000000000E+00 -0.00000000000E+00 -0.16435968108E+04  0.16435968108E+04  0.00000000000E+00 0.  1.
         35    2    1    2    0    0  0.00000000000E+00  0.00000000000E+00 -0.16320436559E+04  0.16551499657E+04  0.27559919149E+03 0.  0.
         25    1    3    3    0    0 -0.67167017107E+02 -0.16963023143E+01 -0.86783870340E+03  0.87866848171E+03  0.12000000000E+03 0.  0.
         25    1    3    3    0    0  0.67167017107E+02  0.16963023143E+01 -0.76420495249E+03  0.77648148403E+03  0.12000000000E+03 0.  0.
<mgrwt>
<rscale>  0 0.27559919E+03</rscale>
<asrwt>0</asrwt>
<pdfrwt beam="1">  1        2 0.25286103E+00 0.27559919E+03</pdfrwt>
<pdfrwt beam="2">  1       -2 0.17774086E-02 0.27559919E+03</pdfrwt>
<totfact> 0.10524013E+04</totfact>
</mgrwt>
</event>
<event>
 5    1  0.1122238E+001  0.2791774E+03  0.7818608E-02  0.1096139E+00
         -2   -1    0    0    0  501 -0.00000000000E+00  0.00000000000E+00  0.15600470819E+03  0.15600470819E+03  0.00000000000E+00 0. -1.
          2   -1    0    0  501    0  0.00000000000E+00 -0.00000000000E+00 -0.12490011543E+03  0.12490011543E+03  0.00000000000E+00 0. -1.
         35    2    1    2    0    0  0.00000000000E+00  0.00000000000E+00  0.31104592757E+02  0.28090482361E+03  0.27917740639E+03 0.  0.
         25    1    3    3    0    0  0.25050742074E+02  0.64809537914E+02  0.31688676541E+02  0.14223919328E+03  0.12000000000E+03 0.  0.
         25    1    3    3    0    0 -0.25050742074E+02 -0.64809537914E+02 -0.58408378340E+00  0.13866563034E+03  0.12000000000E+03 0.  0.
<mgrwt>
<rscale>  0 0.27917741E+03</rscale>
<asrwt>0</asrwt>
<pdfrwt beam="1">  1        2 0.19215402E-01 0.27917741E+03</pdfrwt>
<pdfrwt beam="2">  1       -2 0.24000724E-01 0.27917741E+03</pdfrwt>
<totfact> 0.44211476E+03</totfact>
</mgrwt>
</event>
<event>
 5    1  0.1122238E+001  0.2752927E+03  0.7818608E-02  0.1098288E+00
         -2   -1    0    0    0  501 -0.00000000000E+00  0.00000000000E+00  0.12787772462E+02  0.12787772462E+02  0.00000000000E+00 0. -1.
          2   -1    0    0  501    0  0.00000000000E+00 -0.00000000000E+00 -0.14816124402E+04  0.14816124402E+04  0.00000000000E+00 0. -1.
         35    2    1    2    0    0  0.00000000000E+00  0.00000000000E+00 -0.14688246678E+04  0.14944002127E+04  0.27529273701E+03 0.  0.
         25    1    3    3    0    0  0.36837040335E+02 -0.55833380154E+02 -0.78053424854E+03  0.79253267883E+03  0.12000000000E+03 0.  0.
         25    1    3    3    0    0 -0.36837040335E+02  0.55833380154E+02 -0.68829041922E+03  0.70186753384E+03  0.12000000000E+03 0.  0.
<mgrwt>
<rscale>  0 0.27529274E+03</rscale>
<asrwt>0</asrwt>
<pdfrwt beam="1">  1        2 0.22794031E+00 0.27529274E+03</pdfrwt>
<pdfrwt beam="2">  1       -2 0.19673502E-02 0.27529274E+03</pdfrwt>
<totfact> 0.11055128E+04</totfact>
</mgrwt>
</event>
<event>
 4    1  0.1122238E+001  0.2564973E+03  0.7818608E-02  0.1109266E+00
          1   -1    0    0  501    0  0.00000000000E+00  0.00000000000E+00  0.31283524106E+03  0.31283524106E+03  0.00000000000E+00 0. -1.
         -1   -1    0    0    0  501 -0.00000000000E+00 -0.00000000000E+00 -0.52576306119E+02  0.52576306119E+02  0.00000000000E+00 0. -1.
         25    1    1    2    0    0  0.28267383282E+02 -0.29640341426E+02  0.10272164386E+03  0.16318495922E+03  0.12000000000E+03 0.  0.
         25    1    1    2    0    0 -0.28267383282E+02  0.29640341426E+02  0.15753729108E+03  0.20222658796E+03  0.12000000000E+03 0.  0.
<mgrwt>
<rscale>  0 0.25649734E+03</rscale>
<asrwt>0</asrwt>
<pdfrwt beam="1">  1        1 0.48128497E-01 0.25649734E+03</pdfrwt>
<pdfrwt beam="2">  1       -1 0.80886627E-02 0.25649734E+03</pdfrwt>
<totfact> 0.69567947E+03</totfact>
</mgrwt>
</event>
<event>
 5    1  0.1122238E+001  0.2751164E+03  0.7818608E-02  0.1098387E+00
         -2   -1    0    0    0  501 -0.00000000000E+00  0.00000000000E+00  0.12957063090E+02  0.12957063090E+02  0.00000000000E+00 0. -1.
          2   -1    0    0  501    0  0.00000000000E+00 -0.00000000000E+00 -0.14603815770E+04  0.14603815770E+04  0.00000000000E+00 0. -1.
         35    2    1    2    0    0  0.00000000000E+00  0.00000000000E+00 -0.14474245139E+04  0.14733386401E+04  0.27511638431E+03 0.  0.
         25    1    3    3    0    0 -0.40393795114E+01 -0.59141431742E+01 -0.36562683573E+03  0.38488215947E+03  0.12000000000E+03 0.  0.
         25    1    3    3    0    0  0.40393795114E+01  0.59141431742E+01 -0.10817976782E+04  0.10884564806E+04  0.12000000000E+03 0.  0.
<mgrwt>
<rscale>  0 0.27511638E+03</rscale>
<asrwt>0</asrwt>
<pdfrwt beam="1">  1        2 0.22467425E+00 0.27511638E+03</pdfrwt>
<pdfrwt beam="2">  1       -2 0.19933929E-02 0.27511638E+03</pdfrwt>
<totfact> 0.11131768E+04</totfact>
</mgrwt>
</event>
<event>
 5    1  0.1122238E+001  0.2744123E+03  0.7818608E-02  0.1098781E+00
          1   -1    0    0  501    0  0.00000000000E+00  0.00000000000E+00  0.35706298978E+03  0.35706298978E+03  0.00000000000E+00 0. -1.
         -1   -1    0    0    0  501 -0.00000000000E+00 -0.00000000000E+00 -0.52723256617E+02  0.52723256617E+02  0.00000000000E+00 0. -1.
         35    2    1    2    0    0  0.00000000000E+00  0.00000000000E+00  0.30433973316E+03  0.40978624640E+03  0.27441227114E+03 0.  0.
         25    1    3    3    0    0 -0.32865482220E+02 -0.56487171802E+02  0.17073657473E+03  0.21868223168E+03  0.12000000000E+03 0.  0.
         25    1    3    3    0    0  0.32865482220E+02  0.56487171802E+02  0.13360315843E+03  0.19110401472E+03  0.12000000000E+03 0.  0.
<mgrwt>
<rscale>  0 0.27441227E+03</rscale>
<asrwt>0</asrwt>
<pdfrwt beam="1">  1        1 0.54932766E-01 0.27441227E+03</pdfrwt>
<pdfrwt beam="2">  1       -1 0.81112705E-02 0.27441227E+03</pdfrwt>
<totfact> 0.58755240E+03</totfact>
</mgrwt>
</event>
<event>
 5    1  0.1122238E+001  0.2752133E+03  0.7818608E-02  0.1098332E+00
         -1   -1    0    0    0  501 -0.00000000000E+00  0.00000000000E+00  0.18901143703E+02  0.18901143703E+02  0.00000000000E+00 0. -1.
          1   -1    0    0  501    0  0.00000000000E+00 -0.00000000000E+00 -0.10018222540E+04  0.10018222540E+04  0.00000000000E+00 0. -1.
         35    2    1    2    0    0  0.00000000000E+00  0.00000000000E+00 -0.98292111026E+03  0.10207233977E+04  0.27521327284E+03 0.  0.
         25    1    3    3    0    0  0.42477136613E+02 -0.30365381691E+02 -0.64921613405E+03  0.66227483136E+03  0.12000000000E+03 0.  0.
         25    1    3    3    0    0 -0.42477136613E+02  0.30365381691E+02 -0.33370497621E+03  0.35844856630E+03  0.12000000000E+03 0.  0.
<mgrwt>
<rscale>  0 0.27521327E+03</rscale>
<asrwt>0</asrwt>
<pdfrwt beam="1">  1        1 0.15412653E+00 0.27521327E+03</pdfrwt>
<pdfrwt beam="2">  1       -1 0.29078678E-02 0.27521327E+03</pdfrwt>
<totfact> 0.62928744E+03</totfact>
</mgrwt>
</event>
<event>
 5    1  0.1122238E+001  0.2744967E+03  0.7818608E-02  0.1098733E+00
         -2   -1    0    0    0  501 -0.00000000000E+00  0.00000000000E+00  0.14226054361E+03  0.14226054361E+03  0.00000000000E+00 0.  1.
          2   -1    0    0  501    0  0.00000000000E+00 -0.00000000000E+00 -0.13241271211E+03  0.13241271211E+03  0.00000000000E+00 0.  1.
         35    2    1    2    0    0  0.00000000000E+00  0.00000000000E+00  0.98478314963E+01  0.27467325572E+03  0.27449666232E+03 0.  0.
         25    1    3    3    0    0  0.90774472731E+01 -0.48185060517E+02 -0.40192830808E+02  0.13571906187E+03  0.12000000000E+03 0.  0.
         25    1    3    3    0    0 -0.90774472731E+01  0.48185060517E+02  0.50040662304E+02  0.13895419385E+03  0.12000000000E+03 0.  0.
<mgrwt>
<rscale>  0 0.27449666E+03</rscale>
<asrwt>0</asrwt>
<pdfrwt beam="1">  1        2 0.20371187E-01 0.27449666E+03</pdfrwt>
<pdfrwt beam="2">  1       -2 0.21886237E-01 0.27449666E+03</pdfrwt>
<totfact> 0.48529153E+03</totfact>
</mgrwt>
</event>
<event>
 5    1  0.1122238E+001  0.2750558E+03  0.7818608E-02  0.1098420E+00
         -2   -1    0    0    0  501 -0.00000000000E+00  0.00000000000E+00  0.17912597419E+03  0.17912597419E+03  0.00000000000E+00 0.  1.
          2   -1    0    0  501    0  0.00000000000E+00 -0.00000000000E+00 -0.10559002818E+03  0.10559002818E+03  0.00000000000E+00 0.  1.
         35    2    1    2    0    0  0.00000000000E+00  0.00000000000E+00  0.73535946009E+02  0.28471600238E+03  0.27505575190E+03 0.  0.
         25    1    3    3    0    0  0.31595896697E+02 -0.32443548098E+02 -0.14603993113E+02  0.12908974055E+03  0.12000000000E+03 0.  0.
         25    1    3    3    0    0 -0.31595896697E+02  0.32443548098E+02  0.88139939122E+02  0.15562626183E+03  0.12000000000E+03 0.  0.
<mgrwt>
<rscale>  0 0.27505575E+03</rscale>
<asrwt>0</asrwt>
<pdfrwt beam="1">  1        2 0.16244620E-01 0.27505575E+03</pdfrwt>
<pdfrwt beam="2">  1       -2 0.27557842E-01 0.27505575E+03</pdfrwt>
<totfact> 0.42048569E+03</totfact>
</mgrwt>
</event>
<event>
 5    1  0.1122238E+001  0.2745946E+03  0.7818608E-02  0.1098678E+00
         -2   -1    0    0    0  501 -0.00000000000E+00  0.00000000000E+00  0.15135477788E+02  0.15135477788E+02  0.00000000000E+00 0.  1.
          2   -1    0    0  501    0  0.00000000000E+00 -0.00000000000E+00 -0.12454541604E+04  0.12454541604E+04  0.00000000000E+00 0.  1.
         35    2    1    2    0    0  0.00000000000E+00  0.00000000000E+00 -0.12303186826E+04  0.12605896382E+04  0.27459456499E+03 0.  0.
         25    1    3    3    0    0 -0.42149597674E+02  0.13584278806E+02 -0.38610891366E+03  0.40674465506E+03  0.12000000000E+03 0.  0.
         25    1    3    3    0    0  0.42149597674E+02 -0.13584278806E+02 -0.84420976894E+03  0.85384498311E+03  0.12000000000E+03 0.  0.
<mgrwt>
<rscale>  0 0.27459456E+03</rscale>
<asrwt>0</asrwt>
<pdfrwt beam="1">  1        2 0.19160838E+00 0.27459456E+03</pdfrwt>
<pdfrwt beam="2">  1       -2 0.23285344E-02 0.27459456E+03</pdfrwt>
<totfact> 0.11612160E+04</totfact>
</mgrwt>
</event>
<event>
 5    1  0.1122238E+001  0.2739129E+03  0.7818608E-02  0.1099061E+00
          4   -1    0    0  501    0  0.00000000000E+00  0.00000000000E+00  0.32956245999E+02  0.32956245999E+02  0.00000000000E+00 0.  1.
         -4   -1    0    0    0  501 -0.00000000000E+00 -0.00000000000E+00 -0.56915070097E+03  0.56915070097E+03  0.00000000000E+00 0.  1.
         35    2    1    2    0    0  0.00000000000E+00  0.00000000000E+00 -0.53619445497E+03  0.60210694697E+03  0.27391290960E+03 0.  0.
         25    1    3    3    0    0 -0.31782966407E+02 -0.38411120743E+01 -0.14120821364E+03  0.18805496722E+03  0.12000000000E+03 0.  0.
         25    1    3    3    0    0  0.31782966407E+02  0.38411120743E+01 -0.39498624134E+03  0.41405197976E+03  0.12000000000E+03 0.  0.
<mgrwt>
<rscale>  0 0.27391291E+03</rscale>
<asrwt>0</asrwt>
<pdfrwt beam="1">  1        4 0.50701920E-02 0.27391291E+03</pdfrwt>
<pdfrwt beam="2">  1       -4 0.87561641E-01 0.27391291E+03</pdfrwt>
<totfact> 0.50670774E+02</totfact>
</mgrwt>
</event>
<event>
 5    1  0.1122238E+001  0.2753209E+03  0.7818608E-02  0.1098272E+00
          1   -1    0    0  501    0  0.00000000000E+00  0.00000000000E+00  0.77334012130E+02  0.77334012130E+02  0.00000000000E+00 0.  1.
         -1   -1    0    0    0  501 -0.00000000000E+00 -0.00000000000E+00 -0.24504604007E+03  0.24504604007E+03  0.00000000000E+00 0.  1.
         35    2    1    2    0    0  0.00000000000E+00  0.00000000000E+00 -0.16771202794E+03  0.32238005220E+03  0.27532085598E+03 0.  0.
         25    1    3    3    0    0  0.61635200833E+02 -0.49318024677E+01 -0.11543134093E+03  0.17761648326E+03  0.12000000000E+03 0.  0.
         25    1    3    3    0    0 -0.61635200833E+02  0.49318024677E+01 -0.52280687009E+02  0.14476356894E+03  0.12000000000E+03 0.  0.
<mgrwt>
<rscale>  0 0.27532086E+03</rscale>
<asrwt>0</asrwt>
<pdfrwt beam="1">  1        1 0.11897540E-01 0.27532086E+03</pdfrwt>
<pdfrwt beam="2">  1       -1 0.37699390E-01 0.27532086E+03</pdfrwt>
<totfact> 0.34659872E+03</totfact>
</mgrwt>
</event>
<event>
 5    1  0.1122238E+001  0.2748607E+03  0.7818608E-02  0.1098529E+00
         -2   -1    0    0    0  501 -0.00000000000E+00  0.00000000000E+00  0.19972219097E+02  0.19972219097E+02  0.00000000000E+00 0. -1.
          2   -1    0    0  501    0  0.00000000000E+00 -0.00000000000E+00 -0.94566881727E+03  0.94566881727E+03  0.00000000000E+00 0. -1.
         35    2    1    2    0    0  0.00000000000E+00  0.00000000000E+00 -0.92569659817E+03  0.96564103637E+03  0.27486072700E+03 0.  0.
         25    1    3    3    0    0  0.46298231541E+02  0.20703599305E+01 -0.29292800270E+03  0.31992909746E+03  0.12000000000E+03 0.  0.
         25    1    3    3    0    0 -0.46298231541E+02 -0.20703599305E+01 -0.63276859547E+03  0.64571193891E+03  0.12000000000E+03 0.  0.
<mgrwt>
<rscale>  0 0.27486073E+03</rscale>
<asrwt>0</asrwt>
<pdfrwt beam="1">  1        2 0.14548751E+00 0.27486073E+03</pdfrwt>
<pdfrwt beam="2">  1       -2 0.30726491E-02 0.27486073E+03</pdfrwt>
<totfact> 0.11571883E+04</totfact>
</mgrwt>
</event>
<event>
 5    1  0.1122238E+001  0.2745369E+03  0.7818608E-02  0.1098711E+00
          2   -1    0    0  501    0  0.00000000000E+00  0.00000000000E+00  0.13004580480E+03  0.13004580480E+03  0.00000000000E+00 0. -1.
         -2   -1    0    0    0  501 -0.00000000000E+00 -0.00000000000E+00 -0.14489227145E+03  0.14489227145E+03  0.00000000000E+00 0. -1.
         35    2    1    2    0    0  0.00000000000E+00  0.00000000000E+00 -0.14846466642E+02  0.27493807625E+03  0.27453693413E+03 0.  0.
         25    1    3    3    0    0  0.10863849600E+02 -0.25309289291E+02  0.53361818503E+02  0.13418668722E+03  0.12000000000E+03 0.  0.
         25    1    3    3    0    0 -0.10863849600E+02  0.25309289291E+02 -0.68208285144E+02  0.14075138903E+03  0.12000000000E+03 0.  0.
<mgrwt>
<rscale>  0 0.27453693E+03</rscale>
<asrwt>0</asrwt>
<pdfrwt beam="1">  1        2 0.20007047E-01 0.27453693E+03</pdfrwt>
<pdfrwt beam="2">  1       -2 0.22291119E-01 0.27453693E+03</pdfrwt>
<totfact> 0.47991522E+03</totfact>
</mgrwt>
</event>
<event>
 5    1  0.1122238E+001  0.2746763E+03  0.7818608E-02  0.1098633E+00
          1   -1    0    0  501    0  0.00000000000E+00  0.00000000000E+00  0.51643043073E+03  0.51643043073E+03  0.00000000000E+00 0.  1.
         -1   -1    0    0    0  501 -0.00000000000E+00 -0.00000000000E+00 -0.36523352939E+02  0.36523352939E+02  0.00000000000E+00 0.  1.
         35    2    1    2    0    0  0.00000000000E+00  0.00000000000E+00  0.47990707779E+03  0.55295378367E+03  0.27467632508E+03 0.  0.
         25    1    3    3    0    0  0.64206405825E+01  0.55244901979E+02  0.16548077442E+03  0.21184218306E+03  0.12000000000E+03 0.  0.
         25    1    3    3    0    0 -0.64206405825E+01 -0.55244901979E+02  0.31442630336E+03  0.34111160060E+03  0.12000000000E+03 0.  0.
<mgrwt>
<rscale>  0 0.27467633E+03</rscale>
<asrwt>0</asrwt>
<pdfrwt beam="1">  1        1 0.79450830E-01 0.27467633E+03</pdfrwt>
<pdfrwt beam="2">  1       -1 0.56189778E-02 0.27467633E+03</pdfrwt>
<totfact> 0.63503734E+03</totfact>
</mgrwt>
</event>
<event>
 5    1  0.1122238E+001  0.2718406E+03  0.7818608E-02  0.1100231E+00
          2   -1    0    0  501    0  0.00000000000E+00  0.00000000000E+00  0.34110140093E+03  0.34110140093E+03  0.00000000000E+00 0. -1.
         -2   -1    0    0    0  501 -0.00000000000E+00 -0.00000000000E+00 -0.54160794274E+02  0.54160794274E+02  0.00000000000E+00 0. -1.
         35    2    1    2    0    0  0.00000000000E+00  0.00000000000E+00  0.28694060665E+03  0.39526219520E+03  0.27184056211E+03 0.  0.
         25    1    3    3    0    0  0.15755611255E+01 -0.40906640554E+02  0.72260511137E+02  0.14593634607E+03  0.12000000000E+03 0.  0.
         25    1    3    3    0    0 -0.15755611255E+01  0.40906640554E+02  0.21468009552E+03  0.24932584913E+03  0.12000000000E+03 0.  0.
<mgrwt>
<rscale>  0 0.27184056E+03</rscale>
<asrwt>0</asrwt>
<pdfrwt beam="1">  1        2 0.52477137E-01 0.27184056E+03</pdfrwt>
<pdfrwt beam="2">  1       -2 0.83324301E-02 0.27184056E+03</pdfrwt>
<totfact> 0.83628118E+03</totfact>
</mgrwt>
</event>
<event>
 5    1  0.1122238E+001  0.2754002E+03  0.7818608E-02  0.1098228E+00
         -2   -1    0    0    0  501 -0.00000000000E+00  0.00000000000E+00  0.32557946000E+02  0.32557946000E+02  0.00000000000E+00 0.  1.
          2   -1    0    0  501    0  0.00000000000E+00 -0.00000000000E+00 -0.58238672088E+03  0.58238672088E+03  0.00000000000E+00 0.  1.
         35    2    1    2    0    0  0.00000000000E+00  0.00000000000E+00 -0.54982877488E+03  0.61494466688E+03  0.27540018453E+03 0.  0.
         25    1    3    3    0    0 -0.36735019746E+02 -0.56420524557E+02 -0.26297756289E+03  0.29679948762E+03  0.12000000000E+03 0.  0.
         25    1    3    3    0    0  0.36735019746E+02  0.56420524557E+02 -0.28685121199E+03  0.31814517926E+03  0.12000000000E+03 0.  0.
<mgrwt>
<rscale>  0 0.27540018E+03</rscale>
<asrwt>0</asrwt>
<pdfrwt beam="1">  1        2 0.89597954E-01 0.27540018E+03</pdfrwt>
<pdfrwt beam="2">  1       -2 0.50089150E-02 0.27540018E+03</pdfrwt>
<totfact> 0.10152965E+04</totfact>
</mgrwt>
</event>
<event>
 5    1  0.1122238E+001  0.2750991E+03  0.7818608E-02  0.1098396E+00
         -2   -1    0    0    0  501 -0.00000000000E+00  0.00000000000E+00  0.59455267188E+01  0.59455267188E+01  0.00000000000E+00 0. -1.
          2   -1    0    0  501    0  0.00000000000E+00 -0.00000000000E+00 -0.31822032772E+04  0.31822032772E+04  0.00000000000E+00 0. -1.
         35    2    1    2    0    0  0.00000000000E+00  0.00000000000E+00 -0.31762577505E+04  0.31881488039E+04  0.27509907022E+03 0.  0.
         25    1    3    3    0    0  0.18790951381E+02 -0.64478724458E+02 -0.15528461329E+04  0.15589232560E+04  0.12000000000E+03 0.  0.
         25    1    3    3    0    0 -0.18790951381E+02  0.64478724458E+02 -0.16234116176E+04  0.16292255479E+04  0.12000000000E+03 0.  0.
<mgrwt>
<rscale>  0 0.27509907E+03</rscale>
<asrwt>0</asrwt>
<pdfrwt beam="1">  1        2 0.48957047E+00 0.27509907E+03</pdfrwt>
<pdfrwt beam="2">  1       -2 0.91469505E-03 0.27509907E+03</pdfrwt>
<totfact> 0.39251217E+03</totfact>
</mgrwt>
</event>
<event>
 5    1  0.1122238E+001  0.2737971E+03  0.7818608E-02  0.1099126E+00
          1   -1    0    0  501    0  0.00000000000E+00  0.00000000000E+00  0.50857259626E+02  0.50857259626E+02  0.00000000000E+00 0.  1.
         -1   -1    0    0    0  501 -0.00000000000E+00 -0.00000000000E+00 -0.36850622491E+03  0.36850622491E+03  0.00000000000E+00 0.  1.
         35    2    1    2    0    0  0.00000000000E+00  0.00000000000E+00 -0.31764896529E+03  0.41936348454E+03  0.27379712748E+03 0.  0.
         25    1    3    3    0    0  0.41611865714E+02  0.37965621318E+02 -0.21117673590E+03  0.24933621790E+03  0.12000000000E+03 0.  0.
         25    1    3    3    0    0 -0.41611865714E+02 -0.37965621318E+02 -0.10647222938E+03  0.17002726664E+03  0.12000000000E+03 0.  0.
<mgrwt>
<rscale>  0 0.27379713E+03</rscale>
<asrwt>0</asrwt>
<pdfrwt beam="1">  1        1 0.78241937E-02 0.27379713E+03</pdfrwt>
<pdfrwt beam="2">  1       -1 0.56693266E-01 0.27379713E+03</pdfrwt>
<totfact> 0.28954023E+03</totfact>
</mgrwt>
</event>
<event>
 5    1  0.1122238E+001  0.2842041E+03  0.7818608E-02  0.1093415E+00
         -2   -1    0    0    0  501 -0.00000000000E+00  0.00000000000E+00  0.10538191867E+02  0.10538191867E+02  0.00000000000E+00 0. -1.
          2   -1    0    0  501    0  0.00000000000E+00 -0.00000000000E+00 -0.19161721275E+04  0.19161721275E+04  0.00000000000E+00 0. -1.
         35    2    1    2    0    0  0.00000000000E+00  0.00000000000E+00 -0.19056339357E+04  0.19267103194E+04  0.28420407829E+03 0.  0.
         25    1    3    3    0    0 -0.49546668264E+02  0.26670584602E+02 -0.60536131423E+03  0.61970034145E+03  0.12000000000E+03 0.  0.
         25    1    3    3    0    0  0.49546668264E+02 -0.26670584602E+02 -0.13002726214E+04  0.13070099779E+04  0.12000000000E+03 0.  0.
<mgrwt>
<rscale>  0 0.28420408E+03</rscale>
<asrwt>0</asrwt>
<pdfrwt beam="1">  1        2 0.29479557E+00 0.28420408E+03</pdfrwt>
<pdfrwt beam="2">  1       -2 0.16212611E-02 0.28420408E+03</pdfrwt>
<totfact> 0.86605093E+03</totfact>
</mgrwt>
</event>
<event>
 5    1  0.1122238E+001  0.2749455E+03  0.7818608E-02  0.1098482E+00
         -2   -1    0    0    0  501 -0.00000000000E+00  0.00000000000E+00  0.77077365056E+01  0.77077365056E+01  0.00000000000E+00 0. -1.
          2   -1    0    0  501    0  0.00000000000E+00 -0.00000000000E+00 -0.24519212722E+04  0.24519212722E+04  0.00000000000E+00 0. -1.
         35    2    1    2    0    0  0.00000000000E+00  0.00000000000E+00 -0.24442135357E+04  0.24596290087E+04  0.27494554441E+03 0.  0.
         25    1    3    3    0    0 -0.56487674381E+02  0.63404694209E+00 -0.89862903708E+03  0.90836413714E+03  0.12000000000E+03 0.  0.
         25    1    3    3    0    0  0.56487674381E+02 -0.63404694209E+00 -0.15455844986E+04  0.15512648715E+04  0.12000000000E+03 0.  0.
<mgrwt>
<rscale>  0 0.27494554E+03</rscale>
<asrwt>0</asrwt>
<pdfrwt beam="1">  1        2 0.37721907E+00 0.27494554E+03</pdfrwt>
<pdfrwt beam="2">  1       -2 0.11858043E-02 0.27494554E+03</pdfrwt>
<totfact> 0.70880907E+03</totfact>
</mgrwt>
</event>
<event>
 5    1  0.1122238E+001  0.2736135E+03  0.7818608E-02  0.1099229E+00
         -1   -1    0    0    0  501 -0.00000000000E+00  0.00000000000E+00  0.70670611770E+02  0.70670611770E+02  0.00000000000E+00 0.  1.
          1   -1    0    0  501    0  0.00000000000E+00 -0.00000000000E+00 -0.26483550057E+03  0.26483550057E+03  0.00000000000E+00 0.  1.
         35    2    1    2    0    0  0.00000000000E+00  0.00000000000E+00 -0.19416488880E+03  0.33550611234E+03  0.27361349999E+03 0.  0.
         25    1    3    3    0    0 -0.54314998353E+02  0.36514893610E+02 -0.10408688939E+03  0.17180668510E+03  0.12000000000E+03 0.  0.
         25    1    3    3    0    0  0.54314998353E+02 -0.36514893610E+02 -0.90077999408E+02  0.16369942724E+03  0.12000000000E+03 0.  0.
<mgrwt>
<rscale>  0 0.27361350E+03</rscale>
<asrwt>0</asrwt>
<pdfrwt beam="1">  1        1 0.40743924E-01 0.27361350E+03</pdfrwt>
<pdfrwt beam="2">  1       -1 0.10872402E-01 0.27361350E+03</pdfrwt>
<totfact> 0.54516774E+03</totfact>
</mgrwt>
</event>
<event>
 5    1  0.1122238E+001  0.2736040E+03  0.7818608E-02  0.1099234E+00
         -2   -1    0    0    0  501 -0.00000000000E+00  0.00000000000E+00  0.16356965653E+02  0.16356965653E+02  0.00000000000E+00 0. -1.
          2   -1    0    0  501    0  0.00000000000E+00 -0.00000000000E+00 -0.11441476651E+04  0.11441476651E+04  0.00000000000E+00 0. -1.
         35    2    1    2    0    0  0.00000000000E+00  0.00000000000E+00 -0.11277906994E+04  0.11605046307E+04  0.27360397701E+03 0.  0.
         25    1    3    3    0    0  0.41950695079E+02 -0.36830128314E+02 -0.71073289967E+03  0.72295060263E+03  0.12000000000E+03 0.  0.
         25    1    3    3    0    0 -0.41950695079E+02  0.36830128314E+02 -0.41705779973E+03  0.43755402808E+03  0.12000000000E+03 0.  0.
<mgrwt>
<rscale>  0 0.27360398E+03</rscale>
<asrwt>0</asrwt>
<pdfrwt beam="1">  1        2 0.17602279E+00 0.27360398E+03</pdfrwt>
<pdfrwt beam="2">  1       -2 0.25164552E-02 0.27360398E+03</pdfrwt>
<totfact> 0.11822389E+04</totfact>
</mgrwt>
</event>
<event>
 5    1  0.1122238E+001  0.2748054E+03  0.7818608E-02  0.1098560E+00
         -2   -1    0    0    0  501 -0.00000000000E+00  0.00000000000E+00  0.22314126349E+02  0.22314126349E+02  0.00000000000E+00 0. -1.
          2   -1    0    0  501    0  0.00000000000E+00 -0.00000000000E+00 -0.84607864353E+03  0.84607864353E+03  0.00000000000E+00 0. -1.
         35    2    1    2    0    0  0.00000000000E+00  0.00000000000E+00 -0.82376451718E+03  0.86839276988E+03  0.27480542755E+03 0.  0.
         25    1    3    3    0    0  0.20082189936E+02 -0.59952383344E+02 -0.48125354995E+03  0.50000256195E+03  0.12000000000E+03 0.  0.
         25    1    3    3    0    0 -0.20082189936E+02  0.59952383344E+02 -0.34251096723E+03  0.36839020793E+03  0.12000000000E+03 0.  0.
<mgrwt>
<rscale>  0 0.27480543E+03</rscale>
<asrwt>0</asrwt>
<pdfrwt beam="1">  1        2 0.13016592E+00 0.27480543E+03</pdfrwt>
<pdfrwt beam="2">  1       -2 0.34329432E-02 0.27480543E+03</pdfrwt>
<totfact> 0.11378378E+04</totfact>
</mgrwt>
</event>
<event>
 5    1  0.1122238E+001  0.2751561E+03  0.7818608E-02  0.1098364E+00
          2   -1    0    0  501    0  0.00000000000E+00  0.00000000000E+00  0.94836045175E+03  0.94836045175E+03  0.00000000000E+00 0.  1.
         -2   -1    0    0    0  501 -0.00000000000E+00 -0.00000000000E+00 -0.19958366046E+02  0.19958366046E+02  0.00000000000E+00 0.  1.
         35    2    1    2    0    0  0.00000000000E+00  0.00000000000E+00  0.92840208570E+03  0.96831881780E+03  0.27515613778E+03 0.  0.
         25    1    3    3    0    0 -0.57018425502E+02  0.52452662345E+01  0.58857794871E+03  0.60340916083E+03  0.12000000000E+03 0.  0.
         25    1    3    3    0    0  0.57018425502E+02 -0.52452662345E+01  0.33982413699E+03  0.36490965697E+03  0.12000000000E+03 0.  0.
<mgrwt>
<rscale>  0 0.27515614E+03</rscale>
<asrwt>0</asrwt>
<pdfrwt beam="1">  1        2 0.14590157E+00 0.27515614E+03</pdfrwt>
<pdfrwt beam="2">  1       -2 0.30705186E-02 0.27515614E+03</pdfrwt>
<totfact> 0.11539176E+04</totfact>
</mgrwt>
</event>
<event>
 5    1  0.1122238E+001  0.2744671E+03  0.7818608E-02  0.1098750E+00
          2   -1    0    0  501    0  0.00000000000E+00  0.00000000000E+00  0.10138592792E+04  0.10138592792E+04  0.00000000000E+00 0.  1.
         -2   -1    0    0    0  501 -0.00000000000E+00 -0.00000000000E+00 -0.18575604294E+02  0.18575604294E+02  0.00000000000E+00 0.  1.
         35    2    1    2    0    0  0.00000000000E+00  0.00000000000E+00  0.99528367493E+03  0.10324348835E+04  0.27446711119E+03 0.  0.
         25    1    3    3    0    0 -0.60476975062E+02  0.21097951400E+02  0.56602233833E+03  0.58213733393E+03  0.12000000000E+03 0.  0.
         25    1    3    3    0    0  0.60476975062E+02 -0.21097951400E+02  0.42926133660E+03  0.45029754959E+03  0.12000000000E+03 0.  0.
<mgrwt>
<rscale>  0 0.27446711E+03</rscale>
<asrwt>0</asrwt>
<pdfrwt beam="1">  1        2 0.15597831E+00 0.27446711E+03</pdfrwt>
<pdfrwt beam="2">  1       -2 0.28577861E-02 0.27446711E+03</pdfrwt>
<totfact> 0.11695783E+04</totfact>
</mgrwt>
</event>
<event>
 5    1  0.1122238E+001  0.2750205E+03  0.7818608E-02  0.1098440E+00
          1   -1    0    0  501    0  0.00000000000E+00  0.00000000000E+00  0.60482049787E+03  0.60482049787E+03  0.00000000000E+00 0. -1.
         -1   -1    0    0    0  501 -0.00000000000E+00 -0.00000000000E+00 -0.31263929972E+02  0.31263929972E+02  0.00000000000E+00 0. -1.
         35    2    1    2    0    0  0.00000000000E+00  0.00000000000E+00  0.57355656790E+03  0.63608442784E+03  0.27502047699E+03 0.  0.
         25    1    3    3    0    0 -0.35524532808E+02  0.31252624018E+02  0.17657467201E+03  0.21867174882E+03  0.12000000000E+03 0.  0.
         25    1    3    3    0    0  0.35524532808E+02 -0.31252624018E+02  0.39698189589E+03  0.41741267902E+03  0.12000000000E+03 0.  0.
<mgrwt>
<rscale>  0 0.27502048E+03</rscale>
<asrwt>0</asrwt>
<pdfrwt beam="1">  1        1 0.93049299E-01 0.27502048E+03</pdfrwt>
<pdfrwt beam="2">  1       -1 0.48098358E-02 0.27502048E+03</pdfrwt>
<totfact> 0.64649977E+03</totfact>
</mgrwt>
</event>
<event>
 5    1  0.1122238E+001  0.2748976E+03  0.7818608E-02  0.1098509E+00
          2   -1    0    0  501    0  0.00000000000E+00  0.00000000000E+00  0.15390356514E+03  0.15390356514E+03  0.00000000000E+00 0.  1.
         -2   -1    0    0    0  501 -0.00000000000E+00 -0.00000000000E+00 -0.12275327074E+03  0.12275327074E+03  0.00000000000E+00 0.  1.
         35    2    1    2    0    0  0.00000000000E+00  0.00000000000E+00  0.31150294407E+02  0.27665683588E+03  0.27489755182E+03 0.  0.
         25    1    3    3    0    0 -0.82408019952E+01  0.36333865817E+02 -0.40495912177E+02  0.13201507310E+03  0.12000000000E+03 0.  0.
         25    1    3    3    0    0  0.82408019952E+01 -0.36333865817E+02  0.71646206584E+02  0.14464176278E+03  0.12000000000E+03 0.  0.
<mgrwt>
<rscale>  0 0.27489755E+03</rscale>
<asrwt>0</asrwt>
<pdfrwt beam="1">  1        2 0.23677472E-01 0.27489755E+03</pdfrwt>
<pdfrwt beam="2">  1       -2 0.18885119E-01 0.27489755E+03</pdfrwt>
<totfact> 0.52701761E+03</totfact>
</mgrwt>
</event>
<event>
 5    1  0.1122238E+001  0.2757420E+03  0.7818608E-02  0.1098038E+00
          1   -1    0    0  501    0  0.00000000000E+00  0.00000000000E+00  0.12291800870E+03  0.12291800870E+03  0.00000000000E+00 0. -1.
         -1   -1    0    0    0  501 -0.00000000000E+00 -0.00000000000E+00 -0.15464300705E+03  0.15464300705E+03  0.00000000000E+00 0. -1.
         35    2    1    2    0    0  0.00000000000E+00  0.00000000000E+00 -0.31724998350E+02  0.27756101576E+03  0.27574198438E+03 0.  0.
         25    1    3    3    0    0  0.64427630108E+01  0.59878867191E+02 -0.47396827785E+02  0.14238485599E+03  0.12000000000E+03 0.  0.
         25    1    3    3    0    0 -0.64427630108E+01 -0.59878867191E+02  0.15671829435E+02  0.13517615977E+03  0.12000000000E+03 0.  0.
<mgrwt>
<rscale>  0 0.27574198E+03</rscale>
<asrwt>0</asrwt>
<pdfrwt beam="1">  1        1 0.18910463E-01 0.27574198E+03</pdfrwt>
<pdfrwt beam="2">  1       -1 0.23791232E-01 0.27574198E+03</pdfrwt>
<totfact> 0.41316562E+03</totfact>
</mgrwt>
</event>
<event>
 4    1  0.1122238E+001  0.3007029E+03  0.7818608E-02  0.1084890E+00
         -2   -1    0    0    0  501 -0.00000000000E+00  0.00000000000E+00  0.15202658413E+02  0.15202658413E+02  0.00000000000E+00 0.  1.
          2   -1    0    0  501    0  0.00000000000E+00 -0.00000000000E+00 -0.14869480855E+04  0.14869480855E+04  0.00000000000E+00 0.  1.
         25    1    1    2    0    0  0.69238128973E+02 -0.53045459619E+02 -0.85801406351E+03  0.87074443580E+03  0.12000000000E+03 0.  0.
         25    1    1    2    0    0 -0.69238128973E+02  0.53045459619E+02 -0.61373136356E+03  0.63140630810E+03  0.12000000000E+03 0.  0.
<mgrwt>
<rscale>  0 0.30070294E+03</rscale>
<asrwt>0</asrwt>
<pdfrwt beam="1">  1        2 0.22876134E+00 0.30070294E+03</pdfrwt>
<pdfrwt beam="2">  1       -2 0.23388696E-02 0.30070294E+03</pdfrwt>
<totfact> 0.85212114E+03</totfact>
</mgrwt>
</event>
<event>
 5    1  0.1122238E+001  0.2745322E+03  0.7818608E-02  0.1098713E+00
         -3   -1    0    0    0  501 -0.00000000000E+00  0.00000000000E+00  0.47557428011E+03  0.47557428011E+03  0.00000000000E+00 0. -1.
          3   -1    0    0  501    0  0.00000000000E+00 -0.00000000000E+00 -0.39619435451E+02  0.39619435451E+02  0.00000000000E+00 0. -1.
         35    2    1    2    0    0  0.00000000000E+00  0.00000000000E+00  0.43595484466E+03  0.51519371556E+03  0.27453221664E+03 0.  0.
         25    1    3    3    0    0 -0.19832776411E+02  0.27595317721E+02  0.32557106202E+03  0.34864216183E+03  0.12000000000E+03 0.  0.
         25    1    3    3    0    0  0.19832776411E+02 -0.27595317721E+02  0.11038378263E+03  0.16655155373E+03  0.12000000000E+03 0.  0.
<mgrwt>
<rscale>  0 0.27453222E+03</rscale>
<asrwt>0</asrwt>
<pdfrwt beam="1">  1        3 0.60952981E-02 0.27453222E+03</pdfrwt>
<pdfrwt beam="2">  1       -3 0.73165270E-01 0.27453222E+03</pdfrwt>
<totfact> 0.76288678E+02</totfact>
</mgrwt>
</event>
<event>
 5    1  0.1122238E+001  0.2750460E+03  0.7818608E-02  0.1098426E+00
          2   -1    0    0  501    0  0.00000000000E+00  0.00000000000E+00  0.18456617555E+04  0.18456617555E+04  0.00000000000E+00 0.  1.
         -2   -1    0    0    0  501 -0.00000000000E+00 -0.00000000000E+00 -0.10247043447E+02  0.10247043447E+02  0.00000000000E+00 0.  1.
         35    2    1    2    0    0  0.00000000000E+00  0.00000000000E+00  0.18354147121E+04  0.18559087990E+04  0.27504600487E+03 0.  0.
         25    1    3    3    0    0 -0.32745713722E+01 -0.24198033731E+02  0.49543783098E+03  0.51034783435E+03  0.12000000000E+03 0.  0.
         25    1    3    3    0    0  0.32745713722E+01  0.24198033731E+02  0.13399768811E+04  0.13455609646E+04  0.12000000000E+03 0.  0.
<mgrwt>
<rscale>  0 0.27504600E+03</rscale>
<asrwt>0</asrwt>
<pdfrwt beam="1">  1        2 0.28394770E+00 0.27504600E+03</pdfrwt>
<pdfrwt beam="2">  1       -2 0.15764697E-02 0.27504600E+03</pdfrwt>
<totfact> 0.98230638E+03</totfact>
</mgrwt>
</event>
<event>
 5    1  0.1122238E+001  0.2757420E+03  0.7818608E-02  0.1098038E+00
          3   -1    0    0  501    0  0.00000000000E+00  0.00000000000E+00  0.14449476358E+03  0.14449476358E+03  0.00000000000E+00 0.  1.
         -3   -1    0    0    0  501 -0.00000000000E+00 -0.00000000000E+00 -0.13155090885E+03  0.13155090885E+03  0.00000000000E+00 0.  1.
         35    2    1    2    0    0  0.00000000000E+00  0.00000000000E+00  0.12943854736E+02  0.27604567243E+03  0.27574203505E+03 0.  0.
         25    1    3    3    0    0 -0.24180346558E+02 -0.63432749616E+02  0.63510062054E+01  0.13801716619E+03  0.12000000000E+03 0.  0.
         25    1    3    3    0    0  0.24180346558E+02  0.63432749616E+02  0.65928485309E+01  0.13802850624E+03  0.12000000000E+03 0.  0.
<mgrwt>
<rscale>  0 0.27574204E+03</rscale>
<asrwt>0</asrwt>
<pdfrwt beam="1">  1        3 0.22229964E-01 0.27574204E+03</pdfrwt>
<pdfrwt beam="2">  1       -3 0.20238601E-01 0.27574204E+03</pdfrwt>
<totfact> 0.10386792E+03</totfact>
</mgrwt>
</event>
<event>
 5    1  0.1122238E+001  0.2744760E+03  0.7818608E-02  0.1098745E+00
         -2   -1    0    0    0  501 -0.00000000000E+00  0.00000000000E+00  0.61147204310E+01  0.61147204310E+01  0.00000000000E+00 0. -1.
          2   -1    0    0  501    0  0.00000000000E+00 -0.00000000000E+00 -0.30801516389E+04  0.30801516389E+04  0.00000000000E+00 0. -1.
         35    2    1    2    0    0  0.00000000000E+00  0.00000000000E+00 -0.30740369185E+04  0.30862663593E+04  0.27447598188E+03 0.  0.
         25    1    3    3    0    0  0.18312341995E+02  0.63315754569E+02 -0.16437138408E+04  0.16494057770E+04  0.12000000000E+03 0.  0.
         25    1    3    3    0    0 -0.18312341995E+02 -0.63315754569E+02 -0.14303230776E+04  0.14368605823E+04  0.12000000000E+03 0.  0.
<mgrwt>
<rscale>  0 0.27447598E+03</rscale>
<asrwt>0</asrwt>
<pdfrwt beam="1">  1        2 0.47386949E+00 0.27447598E+03</pdfrwt>
<pdfrwt beam="2">  1       -2 0.94072620E-03 0.27447598E+03</pdfrwt>
<totfact> 0.43480759E+03</totfact>
</mgrwt>
</event>
<event>
 5    1  0.1122238E+001  0.2789609E+03  0.7818608E-02  0.1096258E+00
         -1   -1    0    0    0  501 -0.00000000000E+00  0.00000000000E+00  0.10825292930E+03  0.10825292930E+03  0.00000000000E+00 0.  1.
          1   -1    0    0  501    0  0.00000000000E+00 -0.00000000000E+00 -0.17971612903E+03  0.17971612903E+03  0.00000000000E+00 0.  1.
         35    2    1    2    0    0  0.00000000000E+00  0.00000000000E+00 -0.71463199724E+02  0.28796905833E+03  0.27896091059E+03 0.  0.
         25    1    3    3    0    0  0.90849936991E+01  0.40568638314E+02 -0.95269389264E+02  0.15875959201E+03  0.12000000000E+03 0.  0.
         25    1    3    3    0    0 -0.90849936991E+01 -0.40568638314E+02  0.23806189541E+02  0.12920946632E+03  0.12000000000E+03 0.  0.
<mgrwt>
<rscale>  0 0.27896091E+03</rscale>
<asrwt>0</asrwt>
<pdfrwt beam="1">  1        1 0.27648635E-01 0.27896091E+03</pdfrwt>
<pdfrwt beam="2">  1       -1 0.16654297E-01 0.27896091E+03</pdfrwt>
<totfact> 0.45400534E+03</totfact>
</mgrwt>
</event>
<event>
 5    1  0.1122238E+001  0.2749728E+03  0.7818608E-02  0.1098467E+00
          3   -1    0    0  501    0  0.00000000000E+00  0.00000000000E+00  0.14405214503E+02  0.14405214503E+02  0.00000000000E+00 0. -1.
         -3   -1    0    0    0  501 -0.00000000000E+00 -0.00000000000E+00 -0.13121988152E+04  0.13121988152E+04  0.00000000000E+00 0. -1.
         35    2    1    2    0    0  0.00000000000E+00  0.00000000000E+00 -0.12977936007E+04  0.13266040297E+04  0.27497276522E+03 0.  0.
         25    1    3    3    0    0  0.25572812135E+01 -0.39871602347E+02 -0.38881141293E+03  0.40886501340E+03  0.12000000000E+03 0.  0.
         25    1    3    3    0    0 -0.25572812135E+01  0.39871602347E+02 -0.90898218776E+03  0.91773901629E+03  0.12000000000E+03 0.  0.
<mgrwt>
<rscale>  0 0.27497277E+03</rscale>
<asrwt>0</asrwt>
<pdfrwt beam="1">  1        3 0.22161870E-02 0.27497277E+03</pdfrwt>
<pdfrwt beam="2">  1       -3 0.20187673E+00 0.27497277E+03</pdfrwt>
<totfact> 0.32005260E+02</totfact>
</mgrwt>
</event>
<event>
 5    1  0.1122238E+001  0.2753567E+03  0.7818608E-02  0.1098252E+00
         -1   -1    0    0    0  501 -0.00000000000E+00  0.00000000000E+00  0.24290854008E+04  0.24290854008E+04  0.00000000000E+00 0.  1.
          1   -1    0    0  501    0  0.00000000000E+00 -0.00000000000E+00 -0.78034829160E+01  0.78034829160E+01  0.00000000000E+00 0.  1.
         35    2    1    2    0    0  0.00000000000E+00  0.00000000000E+00  0.24212819179E+04  0.24368888837E+04  0.27535668814E+03 0.  0.
         25    1    3    3    0    0  0.10342912634E+02  0.24117723657E+02  0.66032824085E+03  0.67165618147E+03  0.12000000000E+03 0.  0.
         25    1    3    3    0    0 -0.10342912634E+02 -0.24117723657E+02  0.17609536770E+04  0.17652327022E+04  0.12000000000E+03 0.  0.
<mgrwt>
<rscale>  0 0.27535669E+03</rscale>
<asrwt>0</asrwt>
<pdfrwt beam="1">  1        1 0.12005378E-02 0.27535669E+03</pdfrwt>
<pdfrwt beam="2">  1       -1 0.37370484E+00 0.27535669E+03</pdfrwt>
<totfact> 0.16365477E+02</totfact>
</mgrwt>
</event>
<event>
 5    1  0.1122238E+001  0.2748475E+03  0.7818608E-02  0.1098537E+00
         -2   -1    0    0    0  501 -0.00000000000E+00  0.00000000000E+00  0.13601836260E+03  0.13601836260E+03  0.00000000000E+00 0. -1.
          2   -1    0    0  501    0  0.00000000000E+00 -0.00000000000E+00 -0.13884362695E+03  0.13884362695E+03  0.00000000000E+00 0. -1.
         35    2    1    2    0    0  0.00000000000E+00  0.00000000000E+00 -0.28252643435E+01  0.27486198955E+03  0.27484746894E+03 0.  0.
         25    1    3    3    0    0  0.79663306871E+01 -0.15062613239E+02 -0.66184395427E+02  0.13809677382E+03  0.12000000000E+03 0.  0.
         25    1    3    3    0    0 -0.79663306871E+01  0.15062613239E+02  0.63359131083E+02  0.13676521573E+03  0.12000000000E+03 0.  0.
<mgrwt>
<rscale>  0 0.27484747E+03</rscale>
<asrwt>0</asrwt>
<pdfrwt beam="1">  1        2 0.21360558E-01 0.27484747E+03</pdfrwt>
<pdfrwt beam="2">  1       -2 0.20925902E-01 0.27484747E+03</pdfrwt>
<totfact> 0.49680688E+03</totfact>
</mgrwt>
</event>
<event>
 5    1  0.1122238E+001  0.2751688E+03  0.7818608E-02  0.1098357E+00
         -3   -1    0    0    0  501 -0.00000000000E+00  0.00000000000E+00  0.33592363674E+03  0.33592363674E+03  0.00000000000E+00 0.  1.
          3   -1    0    0  501    0  0.00000000000E+00 -0.00000000000E+00 -0.56350523602E+02  0.56350523602E+02  0.00000000000E+00 0.  1.
         35    2    1    2    0    0  0.00000000000E+00  0.00000000000E+00  0.27957311314E+03  0.39227416034E+03  0.27516884141E+03 0.  0.
         25    1    3    3    0    0  0.66148910380E+01  0.48996851487E+02  0.20488131744E+03  0.24253000325E+03  0.12000000000E+03 0.  0.
         25    1    3    3    0    0 -0.66148910380E+01 -0.48996851487E+02  0.74691795693E+02  0.14974415709E+03  0.12000000000E+03 0.  0.
<mgrwt>
<rscale>  0 0.27516884E+03</rscale>
<asrwt>0</asrwt>
<pdfrwt beam="1">  1        3 0.86693115E-02 0.27516884E+03</pdfrwt>
<pdfrwt beam="2">  1       -3 0.51680558E-01 0.27516884E+03</pdfrwt>
<totfact> 0.88814130E+02</totfact>
</mgrwt>
</event>
<event>
 5    1  0.1122238E+001  0.2692838E+03  0.7818608E-02  0.1101690E+00
          3   -1    0    0  501    0  0.00000000000E+00  0.00000000000E+00  0.97805547300E+01  0.97805547300E+01  0.00000000000E+00 0. -1.
         -3   -1    0    0    0  501 -0.00000000000E+00 -0.00000000000E+00 -0.18535188849E+04  0.18535188849E+04  0.00000000000E+00 0. -1.
         35    2    1    2    0    0  0.00000000000E+00  0.00000000000E+00 -0.18437383302E+04  0.18632994396E+04  0.26928381234E+03 0.  0.
         25    1    3    3    0    0  0.75408470533E+01 -0.46877906453E+02 -0.65620859459E+03  0.66877808135E+03  0.12000000000E+03 0.  0.
         25    1    3    3    0    0 -0.75408470533E+01  0.46877906453E+02 -0.11875297356E+04  0.11945213583E+04  0.12000000000E+03 0.  0.
<mgrwt>
<rscale>  0 0.26928381E+03</rscale>
<asrwt>0</asrwt>
<pdfrwt beam="1">  1        3 0.15047028E-02 0.26928381E+03</pdfrwt>
<pdfrwt beam="2">  1       -3 0.28515635E+00 0.26928381E+03</pdfrwt>
<totfact> 0.19604237E+02</totfact>
</mgrwt>
</event>
<event>
 5    1  0.1122238E+001  0.2752027E+03  0.7818608E-02  0.1098338E+00
          2   -1    0    0  501    0  0.00000000000E+00  0.00000000000E+00  0.41119968457E+03  0.41119968457E+03  0.00000000000E+00 0.  1.
         -2   -1    0    0    0  501 -0.00000000000E+00 -0.00000000000E+00 -0.46046061813E+02  0.46046061813E+02  0.00000000000E+00 0.  1.
         35    2    1    2    0    0  0.00000000000E+00  0.00000000000E+00  0.36515362276E+03  0.45724574638E+03  0.27520266055E+03 0.  0.
         25    1    3    3    0    0  0.22734577590E+02 -0.51608677738E+02  0.24370982673E+03  0.27744332085E+03  0.12000000000E+03 0.  0.
         25    1    3    3    0    0 -0.22734577590E+02  0.51608677738E+02  0.12144379602E+03  0.17980242554E+03  0.12000000000E+03 0.  0.
<mgrwt>
<rscale>  0 0.27520266E+03</rscale>
<asrwt>0</asrwt>
<pdfrwt beam="1">  1        2 0.63261488E-01 0.27520266E+03</pdfrwt>
<pdfrwt beam="2">  1       -2 0.70840098E-02 0.27520266E+03</pdfrwt>
<totfact> 0.88002412E+03</totfact>
</mgrwt>
</event>
<event>
 5    1  0.1122238E+001  0.2750785E+03  0.7818608E-02  0.1098408E+00
         -2   -1    0    0    0  501 -0.00000000000E+00  0.00000000000E+00  0.17778024330E+02  0.17778024330E+02  0.00000000000E+00 0.  1.
          2   -1    0    0  501    0  0.00000000000E+00 -0.00000000000E+00 -0.10640689907E+04  0.10640689907E+04  0.00000000000E+00 0.  1.
         35    2    1    2    0    0  0.00000000000E+00  0.00000000000E+00 -0.10462909664E+04  0.10818470150E+04  0.27507849356E+03 0.  0.
         25    1    3    3    0    0  0.18276727615E+02 -0.31973458910E+02 -0.74425177269E+03  0.75476290449E+03  0.12000000000E+03 0.  0.
         25    1    3    3    0    0 -0.18276727615E+02  0.31973458910E+02 -0.30203919369E+03  0.32708411055E+03  0.12000000000E+03 0.  0.
<mgrwt>
<rscale>  0 0.27507849E+03</rscale>
<asrwt>0</asrwt>
<pdfrwt beam="1">  1        2 0.16370293E+00 0.27507849E+03</pdfrwt>
<pdfrwt beam="2">  1       -2 0.27350804E-02 0.27507849E+03</pdfrwt>
<totfact> 0.11644828E+04</totfact>
</mgrwt>
</event>
<event>
 5    1  0.1122238E+001  0.2749960E+03  0.7818608E-02  0.1098454E+00
          1   -1    0    0  501    0  0.00000000000E+00  0.00000000000E+00  0.14513668687E+03  0.14513668687E+03  0.00000000000E+00 0.  1.
         -1   -1    0    0    0  501 -0.00000000000E+00 -0.00000000000E+00 -0.13026139132E+03  0.13026139132E+03  0.00000000000E+00 0.  1.
         35    2    1    2    0    0  0.00000000000E+00  0.00000000000E+00  0.14875295543E+02  0.27539807819E+03  0.27499604916E+03 0.  0.
         25    1    3    3    0    0 -0.24741479077E+02  0.61311973050E+02  0.19048040459E+02  0.13832616047E+03  0.12000000000E+03 0.  0.
         25    1    3    3    0    0  0.24741479077E+02 -0.61311973050E+02 -0.41727449156E+01  0.13707191772E+03  0.12000000000E+03 0.  0.
<mgrwt>
<rscale>  0 0.27499605E+03</rscale>
<asrwt>0</asrwt>
<pdfrwt beam="1">  1        1 0.22328721E-01 0.27499605E+03</pdfrwt>
<pdfrwt beam="2">  1       -1 0.20040214E-01 0.27499605E+03</pdfrwt>
<totfact> 0.44201833E+03</totfact>
</mgrwt>
</event>
<event>
 5    1  0.1122238E+001  0.2740400E+03  0.7818608E-02  0.1098989E+00
         -1   -1    0    0    0  501 -0.00000000000E+00  0.00000000000E+00  0.21297056667E+02  0.21297056667E+02  0.00000000000E+00 0.  1.
          1   -1    0    0  501    0  0.00000000000E+00 -0.00000000000E+00 -0.88155255036E+03  0.88155255036E+03  0.00000000000E+00 0.  1.
         35    2    1    2    0    0  0.00000000000E+00  0.00000000000E+00 -0.86025549369E+03  0.90284960703E+03  0.27403995782E+03 0.  0.
         25    1    3    3    0    0 -0.48029785410E+02  0.40148989111E+02 -0.50045573158E+03  0.51843489552E+03  0.12000000000E+03 0.  0.
         25    1    3    3    0    0  0.48029785410E+02 -0.40148989111E+02 -0.35979976211E+03  0.38441471151E+03  0.12000000000E+03 0.  0.
<mgrwt>
<rscale>  0 0.27403996E+03</rscale>
<asrwt>0</asrwt>
<pdfrwt beam="1">  1        1 0.13562344E+00 0.27403996E+03</pdfrwt>
<pdfrwt beam="2">  1       -1 0.32764709E-02 0.27403996E+03</pdfrwt>
<totfact> 0.65286747E+03</totfact>
</mgrwt>
</event>
<event>
 5    1  0.1122238E+001  0.2749239E+03  0.7818608E-02  0.1098494E+00
          2   -1    0    0  501    0  0.00000000000E+00  0.00000000000E+00  0.83829096933E+02  0.83829096933E+02  0.00000000000E+00 0. -1.
         -2   -1    0    0    0  501 -0.00000000000E+00 -0.00000000000E+00 -0.22540842234E+03  0.22540842234E+03  0.00000000000E+00 0. -1.
         35    2    1    2    0    0  0.00000000000E+00  0.00000000000E+00 -0.14157932541E+03  0.30923751927E+03  0.27492387663E+03 0.  0.
         25    1    3    3    0    0 -0.31379448411E+01  0.77302688396E+01 -0.14562285862E+03  0.18887991081E+03  0.12000000000E+03 0.  0.
         25    1    3    3    0    0  0.31379448411E+01 -0.77302688396E+01  0.40435332148E+01  0.12035760846E+03  0.12000000000E+03 0.  0.
<mgrwt>
<rscale>  0 0.27492388E+03</rscale>
<asrwt>0</asrwt>
<pdfrwt beam="1">  1        2 0.12896784E-01 0.27492388E+03</pdfrwt>
<pdfrwt beam="2">  1       -2 0.34678218E-01 0.27492388E+03</pdfrwt>
<totfact> 0.36379065E+03</totfact>
</mgrwt>
</event>
<event>
 5    1  0.1122238E+001  0.2748081E+03  0.7818608E-02  0.1098559E+00
          2   -1    0    0  501    0  0.00000000000E+00  0.00000000000E+00  0.11231002905E+04  0.11231002905E+04  0.00000000000E+00 0.  1.
         -2   -1    0    0    0  501 -0.00000000000E+00 -0.00000000000E+00 -0.16810502087E+02  0.16810502087E+02  0.00000000000E+00 0.  1.
         35    2    1    2    0    0  0.00000000000E+00  0.00000000000E+00  0.11062897884E+04  0.11399107926E+04  0.27480814965E+03 0.  0.
         25    1    3    3    0    0 -0.55947306385E+02 -0.16452148248E+02  0.68940640866E+03  0.70219795683E+03  0.12000000000E+03 0.  0.
         25    1    3    3    0    0  0.55947306385E+02  0.16452148248E+02  0.41688337976E+03  0.43771283577E+03  0.12000000000E+03 0.  0.
<mgrwt>
<rscale>  0 0.27480815E+03</rscale>
<asrwt>0</asrwt>
<pdfrwt beam="1">  1        2 0.17278460E+00 0.27480815E+03</pdfrwt>
<pdfrwt beam="2">  1       -2 0.25862320E-02 0.27480815E+03</pdfrwt>
<totfact> 0.11678509E+04</totfact>
</mgrwt>
</event>
<event>
 5    1  0.1122238E+001  0.2719253E+03  0.7818608E-02  0.1100183E+00
          2   -1    0    0  501    0  0.00000000000E+00  0.00000000000E+00  0.10426232826E+03  0.10426232826E+03  0.00000000000E+00 0.  1.
         -2   -1    0    0    0  501 -0.00000000000E+00 -0.00000000000E+00 -0.17730124302E+03  0.17730124302E+03  0.00000000000E+00 0.  1.
         35    2    1    2    0    0  0.00000000000E+00  0.00000000000E+00 -0.73038914765E+02  0.28156357128E+03  0.27192528680E+03 0.  0.
         25    1    3    3    0    0 -0.29314432120E+02 -0.56466608713E+02 -0.42904597748E+02  0.14243812108E+03  0.12000000000E+03 0.  0.
         25    1    3    3    0    0  0.29314432120E+02  0.56466608713E+02 -0.30134317017E+02  0.13912545020E+03  0.12000000000E+03 0.  0.
<mgrwt>
<rscale>  0 0.27192529E+03</rscale>
<asrwt>0</asrwt>
<pdfrwt beam="1">  1        2 0.16040358E-01 0.27192529E+03</pdfrwt>
<pdfrwt beam="2">  1       -2 0.27277115E-01 0.27192529E+03</pdfrwt>
<totfact> 0.43451268E+03</totfact>
</mgrwt>
</event>
<event>
 5    1  0.1122238E+001  0.2755021E+03  0.7818608E-02  0.1098171E+00
          2   -1    0    0  501    0  0.00000000000E+00  0.00000000000E+00  0.36061279310E+02  0.36061279310E+02  0.00000000000E+00 0.  1.
         -2   -1    0    0    0  501 -0.00000000000E+00 -0.00000000000E+00 -0.52619729317E+03  0.52619729317E+03  0.00000000000E+00 0.  1.
         35    2    1    2    0    0  0.00000000000E+00  0.00000000000E+00 -0.49013601386E+03  0.56225857248E+03  0.27550206940E+03 0.  0.
         25    1    3    3    0    0 -0.16156913642E+02 -0.50520787061E+02 -0.15940205813E+03  0.20645196032E+03  0.12000000000E+03 0.  0.
         25    1    3    3    0    0  0.16156913642E+02  0.50520787061E+02 -0.33073395573E+03  0.35580661216E+03  0.12000000000E+03 0.  0.
<mgrwt>
<rscale>  0 0.27550207E+03</rscale>
<asrwt>0</asrwt>
<pdfrwt beam="1">  1        2 0.55478897E-02 0.27550207E+03</pdfrwt>
<pdfrwt beam="2">  1       -2 0.80953421E-01 0.27550207E+03</pdfrwt>
<totfact> 0.18970663E+03</totfact>
</mgrwt>
</event>
<event>
 5    1  0.1122238E+001  0.2763849E+03  0.7818608E-02  0.1097680E+00
         -1   -1    0    0    0  501 -0.00000000000E+00  0.00000000000E+00  0.13885448299E+04  0.13885448299E+04  0.00000000000E+00 0.  1.
          1   -1    0    0  501    0  0.00000000000E+00 -0.00000000000E+00 -0.13753356678E+02  0.13753356678E+02  0.00000000000E+00 0.  1.
         35    2    1    2    0    0  0.00000000000E+00  0.00000000000E+00  0.13747914732E+04  0.14022981866E+04  0.27638489328E+03 0.  0.
         25    1    3    3    0    0  0.20695161958E+02 -0.42344124711E+02  0.93985258438E+03  0.94865388577E+03  0.12000000000E+03 0.  0.
         25    1    3    3    0    0 -0.20695161958E+02  0.42344124711E+02  0.43493888887E+03  0.45364430083E+03  0.12000000000E+03 0.  0.
<mgrwt>
<rscale>  0 0.27638489E+03</rscale>
<asrwt>0</asrwt>
<pdfrwt beam="1">  1        1 0.21159021E-02 0.27638489E+03</pdfrwt>
<pdfrwt beam="2">  1       -1 0.21362217E+00 0.27638489E+03</pdfrwt>
<totfact> 0.75788664E+02</totfact>
</mgrwt>
</event>
<event>
 5    1  0.1122238E+001  0.2741875E+03  0.7818608E-02  0.1098907E+00
          3   -1    0    0  501    0  0.00000000000E+00  0.00000000000E+00  0.11957747262E+03  0.11957747262E+03  0.00000000000E+00 0.  1.
         -3   -1    0    0    0  501 -0.00000000000E+00 -0.00000000000E+00 -0.15717590849E+03  0.15717590849E+03  0.00000000000E+00 0.  1.
         35    2    1    2    0    0  0.00000000000E+00  0.00000000000E+00 -0.37598435876E+02  0.27675338111E+03  0.27418751170E+03 0.  0.
         25    1    3    3    0    0  0.47297776090E+02  0.42921611987E+02 -0.36723595749E+02  0.14081181372E+03  0.12000000000E+03 0.  0.
         25    1    3    3    0    0 -0.47297776090E+02 -0.42921611987E+02 -0.87484012745E+00  0.13594156739E+03  0.12000000000E+03 0.  0.
<mgrwt>
<rscale>  0 0.27418751E+03</rscale>
<asrwt>0</asrwt>
<pdfrwt beam="1">  1        3 0.18396534E-01 0.27418751E+03</pdfrwt>
<pdfrwt beam="2">  1       -3 0.24180909E-01 0.27418751E+03</pdfrwt>
<totfact> 0.10557481E+03</totfact>
</mgrwt>
</event>
<event>
 5    1  0.1122238E+001  0.2760082E+03  0.7818608E-02  0.1097889E+00
          2   -1    0    0  501    0  0.00000000000E+00  0.00000000000E+00  0.17024769095E+04  0.17024769095E+04  0.00000000000E+00 0. -1.
         -2   -1    0    0    0  501 -0.00000000000E+00 -0.00000000000E+00 -0.11186717127E+02  0.11186717127E+02  0.00000000000E+00 0. -1.
         35    2    1    2    0    0  0.00000000000E+00  0.00000000000E+00  0.16912901924E+04  0.17136636266E+04  0.27600817090E+03 0.  0.
         25    1    3    3    0    0  0.60756575131E+02  0.83526450146E+00  0.65396999527E+03  0.66765920484E+03  0.12000000000E+03 0.  0.
         25    1    3    3    0    0 -0.60756575131E+02 -0.83526450146E+00  0.10373201971E+04  0.10460044218E+04  0.12000000000E+03 0.  0.
<mgrwt>
<rscale>  0 0.27600817E+03</rscale>
<asrwt>0</asrwt>
<pdfrwt beam="1">  1        2 0.26191932E+00 0.27600817E+03</pdfrwt>
<pdfrwt beam="2">  1       -2 0.17210348E-02 0.27600817E+03</pdfrwt>
<totfact> 0.10272421E+04</totfact>
</mgrwt>
</event>
<event>
 5    1  0.1122238E+001  0.2759055E+03  0.7818608E-02  0.1097946E+00
         -2   -1    0    0    0  501 -0.00000000000E+00  0.00000000000E+00  0.12217682294E+03  0.12217682294E+03  0.00000000000E+00 0. -1.
          2   -1    0    0  501    0  0.00000000000E+00 -0.00000000000E+00 -0.15576577316E+03  0.15576577316E+03  0.00000000000E+00 0. -1.
         35    2    1    2    0    0  0.00000000000E+00  0.00000000000E+00 -0.33588950219E+02  0.27794259610E+03  0.27590554389E+03 0.  0.
         25    1    3    3    0    0  0.28722725547E+02  0.38420724518E+02 -0.65419058201E+02  0.14484750675E+03  0.12000000000E+03 0.  0.
         25    1    3    3    0    0 -0.28722725547E+02 -0.38420724518E+02  0.31830107982E+02  0.13309508935E+03  0.12000000000E+03 0.  0.
<mgrwt>
<rscale>  0 0.27590554E+03</rscale>
<asrwt>0</asrwt>
<pdfrwt beam="1">  1        2 0.23963965E-01 0.27590554E+03</pdfrwt>
<pdfrwt beam="2">  1       -2 0.18796434E-01 0.27590554E+03</pdfrwt>
<totfact> 0.52418520E+03</totfact>
</mgrwt>
</event>
<event>
 5    1  0.1122238E+001  0.2757000E+03  0.7818608E-02  0.1098061E+00
          1   -1    0    0  501    0  0.00000000000E+00  0.00000000000E+00  0.82365169026E+02  0.82365169026E+02  0.00000000000E+00 0. -1.
         -1   -1    0    0    0  501 -0.00000000000E+00 -0.00000000000E+00 -0.23071194256E+03  0.23071194256E+03  0.00000000000E+00 0. -1.
         35    2    1    2    0    0  0.00000000000E+00  0.00000000000E+00 -0.14834677353E+03  0.31307711158E+03  0.27570004095E+03 0.  0.
         25    1    3    3    0    0  0.29078739336E+02 -0.71831675728E+01 -0.50483482122E+01  0.12378471956E+03  0.12000000000E+03 0.  0.
         25    1    3    3    0    0 -0.29078739336E+02  0.71831675728E+01 -0.14329842532E+03  0.18929239202E+03  0.12000000000E+03 0.  0.
<mgrwt>
<rscale>  0 0.27570004E+03</rscale>
<asrwt>0</asrwt>
<pdfrwt beam="1">  1        1 0.12671565E-01 0.27570004E+03</pdfrwt>
<pdfrwt beam="2">  1       -1 0.35494145E-01 0.27570004E+03</pdfrwt>
<totfact> 0.35422370E+03</totfact>
</mgrwt>
</event>
<event>
 5    1  0.1122238E+001  0.2743025E+03  0.7818608E-02  0.1098842E+00
          2   -1    0    0  501    0  0.00000000000E+00  0.00000000000E+00  0.11627903808E+04  0.11627903808E+04  0.00000000000E+00 0.  1.
         -2   -1    0    0    0  501 -0.00000000000E+00 -0.00000000000E+00 -0.16176999123E+02  0.16176999123E+02  0.00000000000E+00 0.  1.
         35    2    1    2    0    0  0.00000000000E+00  0.00000000000E+00  0.11466133817E+04  0.11789673799E+04  0.27430245329E+03 0.  0.
         25    1    3    3    0    0  0.10387387648E+02  0.61435187890E+02  0.67209457960E+03  0.68556057651E+03  0.12000000000E+03 0.  0.
         25    1    3    3    0    0 -0.10387387648E+02 -0.61435187890E+02  0.47451880209E+03  0.49340680343E+03  0.12000000000E+03 0.  0.
<mgrwt>
<rscale>  0 0.27430245E+03</rscale>
<asrwt>0</asrwt>
<pdfrwt beam="1">  1        2 0.17889076E+00 0.27430245E+03</pdfrwt>
<pdfrwt beam="2">  1       -2 0.24887700E-02 0.27430245E+03</pdfrwt>
<totfact> 0.11724696E+04</totfact>
</mgrwt>
</event>
<event>
 5    1  0.1122238E+001  0.2747714E+03  0.7818608E-02  0.1098579E+00
          2   -1    0    0  501    0  0.00000000000E+00  0.00000000000E+00  0.28704197705E+04  0.28704197705E+04  0.00000000000E+00 0.  1.
         -2   -1    0    0    0  501 -0.00000000000E+00 -0.00000000000E+00 -0.65756330931E+01  0.65756330931E+01  0.00000000000E+00 0.  1.
         35    2    1    2    0    0  0.00000000000E+00  0.00000000000E+00  0.28638441374E+04  0.28769954036E+04  0.27477137576E+03 0.  0.
         25    1    3    3    0    0  0.41059579248E+02 -0.19705921005E+02  0.91890841348E+03  0.92782912475E+03  0.12000000000E+03 0.  0.
         25    1    3    3    0    0 -0.41059579248E+02  0.19705921005E+02  0.19449357239E+04  0.19491662788E+04  0.12000000000E+03 0.  0.
<mgrwt>
<rscale>  0 0.27477138E+03</rscale>
<asrwt>0</asrwt>
<pdfrwt beam="1">  1        2 0.44160204E+00 0.27477138E+03</pdfrwt>
<pdfrwt beam="2">  1       -2 0.10116382E-02 0.27477138E+03</pdfrwt>
<totfact> 0.52029871E+03</totfact>
</mgrwt>
</event>
<event>
 5    1  0.1122238E+001  0.2768289E+03  0.7818608E-02  0.1097434E+00
         -2   -1    0    0    0  501 -0.00000000000E+00  0.00000000000E+00  0.16627898629E+02  0.16627898629E+02  0.00000000000E+00 0.  1.
          2   -1    0    0  501    0  0.00000000000E+00 -0.00000000000E+00 -0.11521934886E+04  0.11521934886E+04  0.00000000000E+00 0.  1.
         35    2    1    2    0    0  0.00000000000E+00  0.00000000000E+00 -0.11355655899E+04  0.11688213872E+04  0.27682887515E+03 0.  0.
         25    1    3    3    0    0  0.65929231849E+02 -0.16698142450E+02 -0.61648724101E+03  0.63172938027E+03  0.12000000000E+03 0.  0.
         25    1    3    3    0    0 -0.65929231849E+02  0.16698142450E+02 -0.51907834893E+03  0.53709200693E+03  0.12000000000E+03 0.  0.
<mgrwt>
<rscale>  0 0.27682888E+03</rscale>
<asrwt>0</asrwt>
<pdfrwt beam="1">  1        2 0.17726061E+00 0.27682888E+03</pdfrwt>
<pdfrwt beam="2">  1       -2 0.25581372E-02 0.27682888E+03</pdfrwt>
<totfact> 0.11419346E+04</totfact>
</mgrwt>
</event>
<event>
 5    1  0.1122238E+001  0.2736710E+03  0.7818608E-02  0.1099197E+00
          2   -1    0    0  501    0  0.00000000000E+00  0.00000000000E+00  0.30161905577E+03  0.30161905577E+03  0.00000000000E+00 0.  1.
         -2   -1    0    0    0  501 -0.00000000000E+00 -0.00000000000E+00 -0.62078159018E+02  0.62078159018E+02  0.00000000000E+00 0.  1.
         35    2    1    2    0    0  0.00000000000E+00  0.00000000000E+00  0.23954089675E+03  0.36369721479E+03  0.27367101203E+03 0.  0.
         25    1    3    3    0    0  0.32439656900E+02  0.81626068604E+01  0.19500631668E+03  0.23140100051E+03  0.12000000000E+03 0.  0.
         25    1    3    3    0    0 -0.32439656900E+02 -0.81626068604E+01  0.44534580069E+02  0.13229621428E+03  0.12000000000E+03 0.  0.
<mgrwt>
<rscale>  0 0.27367101E+03</rscale>
<asrwt>0</asrwt>
<pdfrwt beam="1">  1        2 0.46402931E-01 0.27367101E+03</pdfrwt>
<pdfrwt beam="2">  1       -2 0.95504861E-02 0.27367101E+03</pdfrwt>
<totfact> 0.77028772E+03</totfact>
</mgrwt>
</event>
<event>
 5    1  0.1122238E+001  0.2744521E+03  0.7818608E-02  0.1098758E+00
          2   -1    0    0  501    0  0.00000000000E+00  0.00000000000E+00  0.13814928374E+04  0.13814928374E+04  0.00000000000E+00 0.  1.
         -2   -1    0    0    0  501 -0.00000000000E+00 -0.00000000000E+00 -0.13630894666E+02  0.13630894666E+02  0.00000000000E+00 0.  1.
         35    2    1    2    0    0  0.00000000000E+00  0.00000000000E+00  0.13678619428E+04  0.13951237321E+04  0.27445206029E+03 0.  0.
         25    1    3    3    0    0  0.42514825095E+02 -0.50900120356E+02  0.71297740213E+03  0.72604070723E+03  0.12000000000E+03 0.  0.
         25    1    3    3    0    0 -0.42514825095E+02  0.50900120356E+02  0.65488454064E+03  0.66908302487E+03  0.12000000000E+03 0.  0.
<mgrwt>
<rscale>  0 0.27445206E+03</rscale>
<asrwt>0</asrwt>
<pdfrwt beam="1">  1        2 0.21253725E+00 0.27445206E+03</pdfrwt>
<pdfrwt beam="2">  1       -2 0.20970618E-02 0.27445206E+03</pdfrwt>
<totfact> 0.11397967E+04</totfact>
</mgrwt>
</event>
<event>
 5    1  0.1122238E+001  0.2754456E+03  0.7818608E-02  0.1098203E+00
         -2   -1    0    0    0  501 -0.00000000000E+00  0.00000000000E+00  0.88772901320E+01  0.88772901320E+01  0.00000000000E+00 0. -1.
          2   -1    0    0  501    0  0.00000000000E+00 -0.00000000000E+00 -0.21366391609E+04  0.21366391609E+04  0.00000000000E+00 0. -1.
         35    2    1    2    0    0  0.00000000000E+00  0.00000000000E+00 -0.21277618707E+04  0.21455164510E+04  0.27544557167E+03 0.  0.
         25    1    3    3    0    0 -0.37070199248E+02  0.54815891628E+02 -0.95691423957E+03  0.96667670063E+03  0.12000000000E+03 0.  0.
         25    1    3    3    0    0  0.37070199248E+02 -0.54815891628E+02 -0.11708476312E+04  0.11788397504E+04  0.12000000000E+03 0.  0.
<mgrwt>
<rscale>  0 0.27544557E+03</rscale>
<asrwt>0</asrwt>
<pdfrwt beam="1">  1        2 0.32871332E+00 0.27544557E+03</pdfrwt>
<pdfrwt beam="2">  1       -2 0.13657386E-02 0.27544557E+03</pdfrwt>
<totfact> 0.85154016E+03</totfact>
</mgrwt>
</event>
<event>
 5    1  0.1122238E+001  0.2748495E+03  0.7818608E-02  0.1098536E+00
          2   -1    0    0  501    0  0.00000000000E+00  0.00000000000E+00  0.96077249767E+03  0.96077249767E+03  0.00000000000E+00 0.  1.
         -2   -1    0    0    0  501 -0.00000000000E+00 -0.00000000000E+00 -0.19656641907E+02  0.19656641907E+02  0.00000000000E+00 0.  1.
         35    2    1    2    0    0  0.00000000000E+00  0.00000000000E+00  0.94111585576E+03  0.98042913958E+03  0.27484949293E+03 0.  0.
         25    1    3    3    0    0 -0.25223413456E+02 -0.61491949891E+02  0.49999078957E+03  0.51846723150E+03  0.12000000000E+03 0.  0.
         25    1    3    3    0    0  0.25223413456E+02  0.61491949891E+02  0.44112506619E+03  0.46196190807E+03  0.12000000000E+03 0.  0.
<mgrwt>
<rscale>  0 0.27484949E+03</rscale>
<asrwt>0</asrwt>
<pdfrwt beam="1">  1        2 0.14781112E+00 0.27484949E+03</pdfrwt>
<pdfrwt beam="2">  1       -2 0.30240995E-02 0.27484949E+03</pdfrwt>
<totfact> 0.11594005E+04</totfact>
</mgrwt>
</event>
<event>
 5    1  0.1122238E+001  0.2738219E+03  0.7818608E-02  0.1099112E+00
         -2   -1    0    0    0  501 -0.00000000000E+00  0.00000000000E+00  0.14898167250E+02  0.14898167250E+02  0.00000000000E+00 0.  1.
          2   -1    0    0  501    0  0.00000000000E+00 -0.00000000000E+00 -0.12581820913E+04  0.12581820913E+04  0.00000000000E+00 0.  1.
         35    2    1    2    0    0  0.00000000000E+00  0.00000000000E+00 -0.12432839240E+04  0.12730802585E+04  0.27382189267E+03 0.  0.
         25    1    3    3    0    0 -0.36071575680E+02  0.19699266054E+02 -0.86122252148E+03  0.87051332624E+03  0.12000000000E+03 0.  0.
         25    1    3    3    0    0  0.36071575680E+02 -0.19699266054E+02 -0.38206140252E+03  0.40256693226E+03  0.12000000000E+03 0.  0.
<mgrwt>
<rscale>  0 0.27382189E+03</rscale>
<asrwt>0</asrwt>
<pdfrwt beam="1">  1        2 0.19356644E+00 0.27382189E+03</pdfrwt>
<pdfrwt beam="2">  1       -2 0.22920262E-02 0.27382189E+03</pdfrwt>
<totfact> 0.11691890E+04</totfact>
</mgrwt>
</event>
<event>
 5    1  0.1122238E+001  0.2746600E+03  0.7818608E-02  0.1098642E+00
         -2   -1    0    0    0  501 -0.00000000000E+00  0.00000000000E+00  0.57997618721E+01  0.57997618721E+01  0.00000000000E+00 0. -1.
          2   -1    0    0  501    0  0.00000000000E+00 -0.00000000000E+00 -0.32517768946E+04  0.32517768946E+04  0.00000000000E+00 0. -1.
         35    2    1    2    0    0  0.00000000000E+00  0.00000000000E+00 -0.32459771327E+04  0.32575766564E+04  0.27466002002E+03 0.  0.
         25    1    3    3    0    0  0.70636308458E+01  0.59372357431E+02 -0.12702419709E+04  0.12772977868E+04  0.12000000000E+03 0.  0.
         25    1    3    3    0    0 -0.70636308458E+01 -0.59372357431E+02 -0.19757351618E+04  0.19802788696E+04  0.12000000000E+03 0.  0.
<mgrwt>
<rscale>  0 0.27466002E+03</rscale>
<asrwt>0</asrwt>
<pdfrwt beam="1">  1        2 0.50027256E+00 0.27466002E+03</pdfrwt>
<pdfrwt beam="2">  1       -2 0.89227250E-03 0.27466002E+03</pdfrwt>
<totfact> 0.36846996E+03</totfact>
</mgrwt>
</event>
<event>
 5    1  0.1122238E+001  0.2676935E+03  0.7818608E-02  0.1102607E+00
         -2   -1    0    0    0  501 -0.00000000000E+00  0.00000000000E+00  0.22330722407E+02  0.22330722407E+02  0.00000000000E+00 0.  1.
          2   -1    0    0  501    0  0.00000000000E+00 -0.00000000000E+00 -0.80225571459E+03  0.80225571459E+03  0.00000000000E+00 0.  1.
         35    2    1    2    0    0  0.00000000000E+00  0.00000000000E+00 -0.77992499218E+03  0.82458643699E+03  0.26769347891E+03 0.  0.
         25    1    3    3    0    0  0.48437191043E+01  0.43012894610E+02 -0.51475911648E+03  0.53033057494E+03  0.12000000000E+03 0.  0.
         25    1    3    3    0    0 -0.48437191043E+01 -0.43012894610E+02 -0.26516587570E+03  0.29425586205E+03  0.12000000000E+03 0.  0.
<mgrwt>
<rscale>  0 0.26769348E+03</rscale>
<asrwt>0</asrwt>
<pdfrwt beam="1">  1        2 0.12342394E+00 0.26769348E+03</pdfrwt>
<pdfrwt beam="2">  1       -2 0.34354961E-02 0.26769348E+03</pdfrwt>
<totfact> 0.12159898E+04</totfact>
</mgrwt>
</event>
<event>
 5    1  0.1122238E+001  0.2751714E+03  0.7818608E-02  0.1098356E+00
         -1   -1    0    0    0  501 -0.00000000000E+00  0.00000000000E+00  0.15298653257E+02  0.15298653257E+02  0.00000000000E+00 0.  1.
          1   -1    0    0  501    0  0.00000000000E+00 -0.00000000000E+00 -0.12373526327E+04  0.12373526327E+04  0.00000000000E+00 0.  1.
         35    2    1    2    0    0  0.00000000000E+00  0.00000000000E+00 -0.12220539794E+04  0.12526512859E+04  0.27517142936E+03 0.  0.
         25    1    3    3    0    0 -0.53184539858E+02 -0.71556224889E+01 -0.79594229433E+03  0.80672419954E+03  0.12000000000E+03 0.  0.
         25    1    3    3    0    0  0.53184539858E+02  0.71556224889E+01 -0.42611168508E+03  0.44592708639E+03  0.12000000000E+03 0.  0.
<mgrwt>
<rscale>  0 0.27517143E+03</rscale>
<asrwt>0</asrwt>
<pdfrwt beam="1">  1        1 0.19036194E+00 0.27517143E+03</pdfrwt>
<pdfrwt beam="2">  1       -1 0.23536390E-02 0.27517143E+03</pdfrwt>
<totfact> 0.58192199E+03</totfact>
</mgrwt>
</event>
<event>
 5    1  0.1122238E+001  0.2750502E+03  0.7818608E-02  0.1098424E+00
          1   -1    0    0  501    0  0.00000000000E+00  0.00000000000E+00  0.13850067861E+04  0.13850067861E+04  0.00000000000E+00 0.  1.
         -1   -1    0    0    0  501 -0.00000000000E+00 -0.00000000000E+00 -0.13655638227E+02  0.13655638227E+02  0.00000000000E+00 0.  1.
         35    2    1    2    0    0  0.00000000000E+00  0.00000000000E+00  0.13713511479E+04  0.13986624243E+04  0.27505018897E+03 0.  0.
         25    1    3    3    0    0 -0.25113736086E+02 -0.55110747125E+02  0.83351676641E+03  0.84428555245E+03  0.12000000000E+03 0.  0.
         25    1    3    3    0    0  0.25113736086E+02  0.55110747125E+02  0.53783438146E+03  0.55437687188E+03  0.12000000000E+03 0.  0.
<mgrwt>
<rscale>  0 0.27505019E+03</rscale>
<asrwt>0</asrwt>
<pdfrwt beam="1">  1        1 0.21307786E+00 0.27505019E+03</pdfrwt>
<pdfrwt beam="2">  1       -1 0.21008685E-02 0.27505019E+03</pdfrwt>
<totfact> 0.54498542E+03</totfact>
</mgrwt>
</event>
<event>
 5    1  0.1122238E+001  0.2764741E+03  0.7818608E-02  0.1097630E+00
          1   -1    0    0  501    0  0.00000000000E+00  0.00000000000E+00  0.14067877291E+03  0.14067877291E+03  0.00000000000E+00 0.  1.
         -1   -1    0    0    0  501 -0.00000000000E+00 -0.00000000000E+00 -0.13583768952E+03  0.13583768952E+03  0.00000000000E+00 0.  1.
         35    2    1    2    0    0  0.00000000000E+00  0.00000000000E+00  0.48410833957E+01  0.27651646243E+03  0.27647408179E+03 0.  0.
         25    1    3    3    0    0 -0.17684036301E+02  0.43916316768E+02 -0.47267164909E+02  0.13738832882E+03  0.12000000000E+03 0.  0.
         25    1    3    3    0    0  0.17684036301E+02 -0.43916316768E+02  0.52108248305E+02  0.13912813360E+03  0.12000000000E+03 0.  0.
<mgrwt>
<rscale>  0 0.27647408E+03</rscale>
<asrwt>0</asrwt>
<pdfrwt beam="1">  1        1 0.21642888E-01 0.27647408E+03</pdfrwt>
<pdfrwt beam="2">  1       -1 0.20898106E-01 0.27647408E+03</pdfrwt>
<totfact> 0.42974694E+03</totfact>
</mgrwt>
</event>
<event>
 5    1  0.1122238E+001  0.2751029E+03  0.7818608E-02  0.1098394E+00
          2   -1    0    0  501    0  0.00000000000E+00  0.00000000000E+00  0.35106763857E+02  0.35106763857E+02  0.00000000000E+00 0.  1.
         -2   -1    0    0    0  501 -0.00000000000E+00 -0.00000000000E+00 -0.53893900902E+03  0.53893900902E+03  0.00000000000E+00 0.  1.
         35    2    1    2    0    0  0.00000000000E+00  0.00000000000E+00 -0.50383224516E+03  0.57404577288E+03  0.27510292272E+03 0.  0.
         25    1    3    3    0    0  0.17271698222E+02 -0.64056909172E+02 -0.22917199309E+03  0.26706067024E+03  0.12000000000E+03 0.  0.
         25    1    3    3    0    0 -0.17271698222E+02  0.64056909172E+02 -0.27466025207E+03  0.30698510263E+03  0.12000000000E+03 0.  0.
<mgrwt>
<rscale>  0 0.27510292E+03</rscale>
<asrwt>0</asrwt>
<pdfrwt beam="1">  1        2 0.54010411E-02 0.27510292E+03</pdfrwt>
<pdfrwt beam="2">  1       -2 0.82913686E-01 0.27510292E+03</pdfrwt>
<totfact> 0.18634609E+03</totfact>
</mgrwt>
</event>
<event>
 5    1  0.1122238E+001  0.2753902E+03  0.7818608E-02  0.1098234E+00
         -2   -1    0    0    0  501 -0.00000000000E+00  0.00000000000E+00  0.30592237143E+03  0.30592237143E+03  0.00000000000E+00 0. -1.
          2   -1    0    0  501    0  0.00000000000E+00 -0.00000000000E+00 -0.61976297607E+02  0.61976297607E+02  0.00000000000E+00 0. -1.
         35    2    1    2    0    0  0.00000000000E+00  0.00000000000E+00  0.24394607382E+03  0.36789866904E+03  0.27539016639E+03 0.  0.
         25    1    3    3    0    0  0.49546043721E+02  0.35521805907E+02  0.16076821389E+03  0.20967362195E+03  0.12000000000E+03 0.  0.
         25    1    3    3    0    0 -0.49546043721E+02 -0.35521805907E+02  0.83177859930E+02  0.15822504709E+03  0.12000000000E+03 0.  0.
<mgrwt>
<rscale>  0 0.27539017E+03</rscale>
<asrwt>0</asrwt>
<pdfrwt beam="1">  1        2 0.95348152E-02 0.27539017E+03</pdfrwt>
<pdfrwt beam="2">  1       -2 0.47064979E-01 0.27539017E+03</pdfrwt>
<totfact> 0.29379465E+03</totfact>
</mgrwt>
</event>
<event>
 5    1  0.1122238E+001  0.2748898E+03  0.7818608E-02  0.1098513E+00
         -4   -1    0    0    0  501 -0.00000000000E+00  0.00000000000E+00  0.21114560676E+03  0.21114560676E+03  0.00000000000E+00 0.  1.
          4   -1    0    0  501    0  0.00000000000E+00 -0.00000000000E+00 -0.89469546919E+02  0.89469546919E+02  0.00000000000E+00 0.  1.
         35    2    1    2    0    0  0.00000000000E+00  0.00000000000E+00  0.12167605984E+03  0.30061515368E+03  0.27488980898E+03 0.  0.
         25    1    3    3    0    0 -0.27835588490E+02 -0.53772189090E+02  0.92245674368E+02  0.16302003787E+03  0.12000000000E+03 0.  0.
         25    1    3    3    0    0  0.27835588490E+02  0.53772189090E+02  0.29430385471E+02  0.13759511581E+03  0.12000000000E+03 0.  0.
<mgrwt>
<rscale>  0 0.27488981E+03</rscale>
<asrwt>0</asrwt>
<pdfrwt beam="1">  1        4 0.13764546E-01 0.27488981E+03</pdfrwt>
<pdfrwt beam="2">  1       -4 0.32483939E-01 0.27488981E+03</pdfrwt>
<totfact> 0.75018889E+02</totfact>
</mgrwt>
</event>
<event>
 5    1  0.1122238E+001  0.2741542E+03  0.7818608E-02  0.1098925E+00
          1   -1    0    0  501    0  0.00000000000E+00  0.00000000000E+00  0.28631627132E+03  0.28631627132E+03  0.00000000000E+00 0.  1.
         -1   -1    0    0    0  501 -0.00000000000E+00 -0.00000000000E+00 -0.65627164413E+02  0.65627164413E+02  0.00000000000E+00 0.  1.
         35    2    1    2    0    0  0.00000000000E+00  0.00000000000E+00  0.22068910691E+03  0.35194343573E+03  0.27415415380E+03 0.  0.
         25    1    3    3    0    0 -0.55003030458E+02  0.13437017515E+02  0.66167415712E+02  0.14827007015E+03  0.12000000000E+03 0.  0.
         25    1    3    3    0    0  0.55003030458E+02 -0.13437017515E+02  0.15452169119E+03  0.20367336558E+03  0.12000000000E+03 0.  0.
<mgrwt>
<rscale>  0 0.27415415E+03</rscale>
<asrwt>0</asrwt>
<pdfrwt beam="1">  1        1 0.44048657E-01 0.27415415E+03</pdfrwt>
<pdfrwt beam="2">  1       -1 0.10096487E-01 0.27415415E+03</pdfrwt>
<totfact> 0.55446794E+03</totfact>
</mgrwt>
</event>
<event>
 5    1  0.1122238E+001  0.2743504E+03  0.7818608E-02  0.1098815E+00
          1   -1    0    0  501    0  0.00000000000E+00  0.00000000000E+00  0.14836676188E+03  0.14836676188E+03  0.00000000000E+00 0. -1.
         -1   -1    0    0    0  501 -0.00000000000E+00 -0.00000000000E+00 -0.12682780698E+03  0.12682780698E+03  0.00000000000E+00 0. -1.
         35    2    1    2    0    0  0.00000000000E+00  0.00000000000E+00  0.21538954893E+02  0.27519456886E+03  0.27435036751E+03 0.  0.
         25    1    3    3    0    0 -0.74821758677E+01  0.66036658960E+02  0.11226682289E+02  0.13763306898E+03  0.12000000000E+03 0.  0.
         25    1    3    3    0    0  0.74821758677E+01 -0.66036658960E+02  0.10312272603E+02  0.13756149988E+03  0.12000000000E+03 0.  0.
<mgrwt>
<rscale>  0 0.27435037E+03</rscale>
<asrwt>0</asrwt>
<pdfrwt beam="1">  1        1 0.22825656E-01 0.27435037E+03</pdfrwt>
<pdfrwt beam="2">  1       -1 0.19511970E-01 0.27435037E+03</pdfrwt>
<totfact> 0.44876309E+03</totfact>
</mgrwt>
</event>
<event>
 5    1  0.1122238E+001  0.2752520E+03  0.7818608E-02  0.1098311E+00
          1   -1    0    0  501    0  0.00000000000E+00  0.00000000000E+00  0.57980543825E+03  0.57980543825E+03  0.00000000000E+00 0.  1.
         -1   -1    0    0    0  501 -0.00000000000E+00 -0.00000000000E+00 -0.32667712977E+02  0.32667712977E+02  0.00000000000E+00 0.  1.
         35    2    1    2    0    0  0.00000000000E+00  0.00000000000E+00  0.54713772528E+03  0.61247315123E+03  0.27525201281E+03 0.  0.
         25    1    3    3    0    0  0.25330814670E+02  0.60391378606E+02  0.30890223209E+03  0.33780076639E+03  0.12000000000E+03 0.  0.
         25    1    3    3    0    0 -0.25330814670E+02 -0.60391378606E+02  0.23823549319E+03  0.27467238484E+03  0.12000000000E+03 0.  0.
<mgrwt>
<rscale>  0 0.27525201E+03</rscale>
<asrwt>0</asrwt>
<pdfrwt beam="1">  1        1 0.89200829E-01 0.27525201E+03</pdfrwt>
<pdfrwt beam="2">  1       -1 0.50258024E-02 0.27525201E+03</pdfrwt>
<totfact> 0.64180418E+03</totfact>
</mgrwt>
</event>
<event>
 5    1  0.1122238E+001  0.2758482E+03  0.7818608E-02  0.1097978E+00
         -2   -1    0    0    0  501 -0.00000000000E+00  0.00000000000E+00  0.13626422836E+02  0.13626422836E+02  0.00000000000E+00 0.  1.
          2   -1    0    0  501    0  0.00000000000E+00 -0.00000000000E+00 -0.13960419305E+04  0.13960419305E+04  0.00000000000E+00 0.  1.
         35    2    1    2    0    0  0.00000000000E+00  0.00000000000E+00 -0.13824155077E+04  0.14096683534E+04  0.27584820203E+03 0.  0.
         25    1    3    3    0    0 -0.36676457454E+02  0.47753287123E+02 -0.85260915882E+03  0.86311523950E+03  0.12000000000E+03 0.  0.
         25    1    3    3    0    0  0.36676457454E+02 -0.47753287123E+02 -0.52980634886E+03  0.54655311385E+03  0.12000000000E+03 0.  0.
<mgrwt>
<rscale>  0 0.27584820E+03</rscale>
<asrwt>0</asrwt>
<pdfrwt beam="1">  1        2 0.21477546E+00 0.27584820E+03</pdfrwt>
<pdfrwt beam="2">  1       -2 0.20963749E-02 0.27584820E+03</pdfrwt>
<totfact> 0.11198828E+04</totfact>
</mgrwt>
</event>
<event>
 5    1  0.1122238E+001  0.2886678E+03  0.7818608E-02  0.1091047E+00
          3   -1    0    0  501    0  0.00000000000E+00  0.00000000000E+00  0.36828597180E+02  0.36828597180E+02  0.00000000000E+00 0.  1.
         -3   -1    0    0    0  501 -0.00000000000E+00 -0.00000000000E+00 -0.56565489919E+03  0.56565489919E+03  0.00000000000E+00 0.  1.
         35    2    1    2    0    0  0.00000000000E+00  0.00000000000E+00 -0.52882630201E+03  0.60248349637E+03  0.28866781203E+03 0.  0.
         25    1    3    3    0    0  0.39427177422E+02 -0.61233294175E+01 -0.11920801106E+03  0.17378880109E+03  0.12000000000E+03 0.  0.
         25    1    3    3    0    0 -0.39427177422E+02  0.61233294175E+01 -0.40961829095E+03  0.42869469528E+03  0.12000000000E+03 0.  0.
<mgrwt>
<rscale>  0 0.28866781E+03</rscale>
<asrwt>0</asrwt>
<pdfrwt beam="1">  1        3 0.56659377E-02 0.28866781E+03</pdfrwt>
<pdfrwt beam="2">  1       -3 0.87023836E-01 0.28866781E+03</pdfrwt>
<totfact> 0.58930845E+02</totfact>
</mgrwt>
</event>
<event>
 5    1  0.1122238E+001  0.2749739E+03  0.7818608E-02  0.1098466E+00
          2   -1    0    0  501    0  0.00000000000E+00  0.00000000000E+00  0.26446751423E+03  0.26446751423E+03  0.00000000000E+00 0.  1.
         -2   -1    0    0    0  501 -0.00000000000E+00 -0.00000000000E+00 -0.71474402425E+02  0.71474402425E+02  0.00000000000E+00 0.  1.
         35    2    1    2    0    0  0.00000000000E+00  0.00000000000E+00  0.19299311180E+03  0.33594191665E+03  0.27497387178E+03 0.  0.
         25    1    3    3    0    0 -0.53441011425E+02 -0.25484811479E+02  0.13507748306E+03  0.19013506712E+03  0.12000000000E+03 0.  0.
         25    1    3    3    0    0  0.53441011425E+02  0.25484811479E+02  0.57915628739E+02  0.14580684953E+03  0.12000000000E+03 0.  0.
<mgrwt>
<rscale>  0 0.27497387E+03</rscale>
<asrwt>0</asrwt>
<pdfrwt beam="1">  1        2 0.40687309E-01 0.27497387E+03</pdfrwt>
<pdfrwt beam="2">  1       -2 0.10996062E-01 0.27497387E+03</pdfrwt>
<totfact> 0.70901728E+03</totfact>
</mgrwt>
</event>
<event>
 5    1  0.1122238E+001  0.2748146E+03  0.7818608E-02  0.1098555E+00
         -1   -1    0    0    0  501 -0.00000000000E+00  0.00000000000E+00  0.10429274820E+03  0.10429274820E+03  0.00000000000E+00 0.  1.
          1   -1    0    0  501    0  0.00000000000E+00 -0.00000000000E+00 -0.18103622332E+03  0.18103622332E+03  0.00000000000E+00 0.  1.
         35    2    1    2    0    0  0.00000000000E+00  0.00000000000E+00 -0.76743475121E+02  0.28532897151E+03  0.27481459388E+03 0.  0.
         25    1    3    3    0    0 -0.41931801918E+02 -0.28790561730E+02  0.68085900082E+01  0.13051256397E+03  0.12000000000E+03 0.  0.
         25    1    3    3    0    0  0.41931801918E+02  0.28790561730E+02 -0.83552065129E+02  0.15481640754E+03  0.12000000000E+03 0.  0.
<mgrwt>
<rscale>  0 0.27481459E+03</rscale>
<asrwt>0</asrwt>
<pdfrwt beam="1">  1        1 0.27851727E-01 0.27481459E+03</pdfrwt>
<pdfrwt beam="2">  1       -1 0.16045038E-01 0.27481459E+03</pdfrwt>
<totfact> 0.47718866E+03</totfact>
</mgrwt>
</event>
<event>
 5    1  0.1122238E+001  0.2751106E+03  0.7818608E-02  0.1098390E+00
         -2   -1    0    0    0  501 -0.00000000000E+00  0.00000000000E+00  0.41698906277E+02  0.41698906277E+02  0.00000000000E+00 0.  1.
          2   -1    0    0  501    0  0.00000000000E+00 -0.00000000000E+00 -0.45376403637E+03  0.45376403637E+03  0.00000000000E+00 0.  1.
         35    2    1    2    0    0  0.00000000000E+00  0.00000000000E+00 -0.41206513010E+03  0.49546294265E+03  0.27511062520E+03 0.  0.
         25    1    3    3    0    0 -0.27602309595E+02  0.13098216466E+02 -0.98155075023E+02  0.15801224485E+03  0.12000000000E+03 0.  0.
         25    1    3    3    0    0  0.27602309595E+02 -0.13098216466E+02 -0.31391005507E+03  0.33745069780E+03  0.12000000000E+03 0.  0.
<mgrwt>
<rscale>  0 0.27511063E+03</rscale>
<asrwt>0</asrwt>
<pdfrwt beam="1">  1        2 0.69809856E-01 0.27511063E+03</pdfrwt>
<pdfrwt beam="2">  1       -2 0.64152160E-02 0.27511063E+03</pdfrwt>
<totfact> 0.92078303E+03</totfact>
</mgrwt>
</event>
<event>
 5    1  0.1122238E+001  0.2762851E+03  0.7818608E-02  0.1097735E+00
         -1   -1    0    0    0  501 -0.00000000000E+00  0.00000000000E+00  0.18200873786E+03  0.18200873786E+03  0.00000000000E+00 0.  1.
          1   -1    0    0  501    0  0.00000000000E+00 -0.00000000000E+00 -0.10484858584E+03  0.10484858584E+03  0.00000000000E+00 0.  1.
         35    2    1    2    0    0  0.00000000000E+00  0.00000000000E+00  0.77160152019E+02  0.28685732370E+03  0.27628506131E+03 0.  0.
         25    1    3    3    0    0  0.86897899045E+01  0.41081209071E+02  0.94686603929E+02  0.15852044395E+03  0.12000000000E+03 0.  0.
         25    1    3    3    0    0 -0.86897899045E+01 -0.41081209071E+02 -0.17526451910E+02  0.12833687975E+03  0.12000000000E+03 0.  0.
<mgrwt>
<rscale>  0 0.27628506E+03</rscale>
<asrwt>0</asrwt>
<pdfrwt beam="1">  1        1 0.16130552E-01 0.27628506E+03</pdfrwt>
<pdfrwt beam="2">  1       -1 0.28001344E-01 0.27628506E+03</pdfrwt>
<totfact> 0.38703585E+03</totfact>
</mgrwt>
</event>
<event>
 5    1  0.1122238E+001  0.2750083E+03  0.7818608E-02  0.1098447E+00
         -2   -1    0    0    0  501 -0.00000000000E+00  0.00000000000E+00  0.10222985218E+03  0.10222985218E+03  0.00000000000E+00 0.  1.
          2   -1    0    0  501    0  0.00000000000E+00 -0.00000000000E+00 -0.18494979784E+03  0.18494979784E+03  0.00000000000E+00 0.  1.
         35    2    1    2    0    0  0.00000000000E+00  0.00000000000E+00 -0.82719945658E+02  0.28717965002E+03  0.27500829438E+03 0.  0.
         25    1    3    3    0    0  0.54241527006E+02  0.35620619048E+02 -0.23381172949E+02  0.13841116646E+03  0.12000000000E+03 0.  0.
         25    1    3    3    0    0 -0.54241527006E+02 -0.35620619048E+02 -0.59338772709E+02  0.14876848356E+03  0.12000000000E+03 0.  0.
<mgrwt>
<rscale>  0 0.27500829E+03</rscale>
<asrwt>0</asrwt>
<pdfrwt beam="1">  1        2 0.28453815E-01 0.27500829E+03</pdfrwt>
<pdfrwt beam="2">  1       -2 0.15727670E-01 0.27500829E+03</pdfrwt>
<totfact> 0.58393477E+03</totfact>
</mgrwt>
</event>
<event>
 5    1  0.1122238E+001  0.2742053E+03  0.7818608E-02  0.1098897E+00
         -2   -1    0    0    0  501 -0.00000000000E+00  0.00000000000E+00  0.75934537206E+01  0.75934537206E+01  0.00000000000E+00 0. -1.
          2   -1    0    0  501    0  0.00000000000E+00 -0.00000000000E+00 -0.24754390150E+04  0.24754390150E+04  0.00000000000E+00 0. -1.
         35    2    1    2    0    0  0.00000000000E+00  0.00000000000E+00 -0.24678455613E+04  0.24830324688E+04  0.27420526325E+03 0.  0.
         25    1    3    3    0    0 -0.78954229702E+01  0.62441407434E+02 -0.10448703013E+04  0.10536200518E+04  0.12000000000E+03 0.  0.
         25    1    3    3    0    0  0.78954229702E+01 -0.62441407434E+02 -0.14229752600E+04  0.14294124169E+04  0.12000000000E+03 0.  0.
<mgrwt>
<rscale>  0 0.27420526E+03</rscale>
<asrwt>0</asrwt>
<pdfrwt beam="1">  1        2 0.38083721E+00 0.27420526E+03</pdfrwt>
<pdfrwt beam="2">  1       -2 0.11682223E-02 0.27420526E+03</pdfrwt>
<totfact> 0.70331614E+03</totfact>
</mgrwt>
</event>
<event>
 5    1  0.1122238E+001  0.2753337E+03  0.7818608E-02  0.1098265E+00
         -1   -1    0    0    0  501 -0.00000000000E+00  0.00000000000E+00  0.74454914764E+03  0.74454914764E+03  0.00000000000E+00 0. -1.
          1   -1    0    0  501    0  0.00000000000E+00 -0.00000000000E+00 -0.25454539719E+02  0.25454539719E+02  0.00000000000E+00 0. -1.
         35    2    1    2    0    0  0.00000000000E+00  0.00000000000E+00  0.71909460793E+03  0.77000368736E+03  0.27533365833E+03 0.  0.
         25    1    3    3    0    0 -0.94562804371E+01  0.18917089175E+02  0.53872487512E+03  0.55233302325E+03  0.12000000000E+03 0.  0.
         25    1    3    3    0    0  0.94562804371E+01 -0.18917089175E+02  0.18036973281E+03  0.21767066412E+03  0.12000000000E+03 0.  0.
<mgrwt>
<rscale>  0 0.27533366E+03</rscale>
<asrwt>0</asrwt>
<pdfrwt beam="1">  1        1 0.39160836E-02 0.27533366E+03</pdfrwt>
<pdfrwt beam="2">  1       -1 0.11454601E+00 0.27533366E+03</pdfrwt>
<totfact> 0.17283143E+03</totfact>
</mgrwt>
</event>
<event>
 5    1  0.1122238E+001  0.2761718E+03  0.7818608E-02  0.1097798E+00
         -2   -1    0    0    0  501 -0.00000000000E+00  0.00000000000E+00  0.31987250400E+02  0.31987250400E+02  0.00000000000E+00 0.  1.
          2   -1    0    0  501    0  0.00000000000E+00 -0.00000000000E+00 -0.59610362088E+03  0.59610362088E+03  0.00000000000E+00 0.  1.
         35    2    1    2    0    0  0.00000000000E+00  0.00000000000E+00 -0.56411637048E+03  0.62809087128E+03  0.27617180005E+03 0.  0.
         25    1    3    3    0    0  0.14442812487E+02 -0.66669211948E+02 -0.27344677501E+03  0.30631114478E+03  0.12000000000E+03 0.  0.
         25    1    3    3    0    0 -0.14442812487E+02  0.66669211948E+02 -0.29066959548E+03  0.32177972650E+03  0.12000000000E+03 0.  0.
<mgrwt>
<rscale>  0 0.27617180E+03</rscale>
<asrwt>0</asrwt>
<pdfrwt beam="1">  1        2 0.91708248E-01 0.27617180E+03</pdfrwt>
<pdfrwt beam="2">  1       -2 0.49211155E-02 0.27617180E+03</pdfrwt>
<totfact> 0.10153454E+04</totfact>
</mgrwt>
</event>
<event>
 5    1  0.1122238E+001  0.2740833E+03  0.7818608E-02  0.1098965E+00
          1   -1    0    0  501    0  0.00000000000E+00  0.00000000000E+00  0.13337954160E+04  0.13337954160E+04  0.00000000000E+00 0.  1.
         -1   -1    0    0    0  501 -0.00000000000E+00 -0.00000000000E+00 -0.14080435568E+02  0.14080435568E+02  0.00000000000E+00 0.  1.
         35    2    1    2    0    0  0.00000000000E+00  0.00000000000E+00  0.13197149805E+04  0.13478758516E+04  0.27408334803E+03 0.  0.
         25    1    3    3    0    0  0.37428196705E+02  0.15801888599E+02  0.40291454406E+03  0.42236323160E+03  0.12000000000E+03 0.  0.
         25    1    3    3    0    0 -0.37428196705E+02 -0.15801888599E+02  0.91680043642E+03  0.92551262001E+03  0.12000000000E+03 0.  0.
<mgrwt>
<rscale>  0 0.27408335E+03</rscale>
<asrwt>0</asrwt>
<pdfrwt beam="1">  1        1 0.20519919E+00 0.27408335E+03</pdfrwt>
<pdfrwt beam="2">  1       -1 0.21662219E-02 0.27408335E+03</pdfrwt>
<totfact> 0.56430797E+03</totfact>
</mgrwt>
</event>
<event>
 5    1  0.1122238E+001  0.2756484E+03  0.7818608E-02  0.1098090E+00
         -2   -1    0    0    0  501 -0.00000000000E+00  0.00000000000E+00  0.90304546046E+02  0.90304546046E+02  0.00000000000E+00 0. -1.
          2   -1    0    0  501    0  0.00000000000E+00 -0.00000000000E+00 -0.21034944135E+03  0.21034944135E+03  0.00000000000E+00 0. -1.
         35    2    1    2    0    0  0.00000000000E+00  0.00000000000E+00 -0.12004489531E+03  0.30065398740E+03  0.27564840513E+03 0.  0.
         25    1    3    3    0    0  0.20478562357E+02 -0.29414602472E+02 -0.12278287001E+03  0.17538592738E+03  0.12000000000E+03 0.  0.
         25    1    3    3    0    0 -0.20478562357E+02  0.29414602472E+02  0.27379747062E+01  0.12526806002E+03  0.12000000000E+03 0.  0.
<mgrwt>
<rscale>  0 0.27564841E+03</rscale>
<asrwt>0</asrwt>
<pdfrwt beam="1">  1        2 0.32361452E-01 0.27564841E+03</pdfrwt>
<pdfrwt beam="2">  1       -2 0.13893007E-01 0.27564841E+03</pdfrwt>
<totfact> 0.62226301E+03</totfact>
</mgrwt>
</event>
<event>
 5    1  0.1122238E+001  0.2791381E+03  0.7818608E-02  0.1096161E+00
          1   -1    0    0  501    0  0.00000000000E+00  0.00000000000E+00  0.76182173507E+01  0.76182173507E+01  0.00000000000E+00 0. -1.
         -1   -1    0    0    0  501 -0.00000000000E+00 -0.00000000000E+00 -0.25569647762E+04  0.25569647762E+04  0.00000000000E+00 0. -1.
         35    2    1    2    0    0  0.00000000000E+00  0.00000000000E+00 -0.25493465588E+04  0.25645829935E+04  0.27913805490E+03 0.  0.
         25    1    3    3    0    0 -0.94744650765E+00 -0.43904169642E+01 -0.62117470664E+03  0.63267542199E+03  0.12000000000E+03 0.  0.
         25    1    3    3    0    0  0.94744650765E+00  0.43904169642E+01 -0.19281718522E+04  0.19319075715E+04  0.12000000000E+03 0.  0.
<mgrwt>
<rscale>  0 0.27913805E+03</rscale>
<asrwt>0</asrwt>
<pdfrwt beam="1">  1        1 0.11720315E-02 0.27913805E+03</pdfrwt>
<pdfrwt beam="2">  1       -1 0.39337985E+00 0.27913805E+03</pdfrwt>
<totfact> 0.12558162E+02</totfact>
</mgrwt>
</event>
<event>
 5    1  0.1122238E+001  0.2751858E+03  0.7818608E-02  0.1098348E+00
         -2   -1    0    0    0  501 -0.00000000000E+00  0.00000000000E+00  0.15373481990E+02  0.15373481990E+02  0.00000000000E+00 0.  1.
          2   -1    0    0  501    0  0.00000000000E+00 -0.00000000000E+00 -0.12314590010E+04  0.12314590010E+04  0.00000000000E+00 0.  1.
         35    2    1    2    0    0  0.00000000000E+00  0.00000000000E+00 -0.12160855190E+04  0.12468324830E+04  0.27518584828E+03 0.  0.
         25    1    3    3    0    0  0.63507761216E+02  0.15971466607E+02 -0.53734234721E+03  0.55445930562E+03  0.12000000000E+03 0.  0.
         25    1    3    3    0    0 -0.63507761216E+02 -0.15971466607E+02 -0.67874317182E+03  0.69237317739E+03  0.12000000000E+03 0.  0.
<mgrwt>
<rscale>  0 0.27518585E+03</rscale>
<asrwt>0</asrwt>
<pdfrwt beam="1">  1        2 0.18945525E+00 0.27518585E+03</pdfrwt>
<pdfrwt beam="2">  1       -2 0.23651508E-02 0.27518585E+03</pdfrwt>
<totfact> 0.11555698E+04</totfact>
</mgrwt>
</event>
<event>
 5    1  0.1122238E+001  0.2693578E+03  0.7818608E-02  0.1101648E+00
         -2   -1    0    0    0  501 -0.00000000000E+00  0.00000000000E+00  0.12581442846E+02  0.12581442846E+02  0.00000000000E+00 0.  1.
          2   -1    0    0  501    0  0.00000000000E+00 -0.00000000000E+00 -0.14416789175E+04  0.14416789175E+04  0.00000000000E+00 0.  1.
         35    2    1    2    0    0  0.00000000000E+00  0.00000000000E+00 -0.14290974747E+04  0.14542603604E+04  0.26935776137E+03 0.  0.
         25    1    3    3    0    0 -0.19965704571E+02 -0.40895746169E+02 -0.49409331591E+03  0.51048927143E+03  0.12000000000E+03 0.  0.
         25    1    3    3    0    0  0.19965704571E+02  0.40895746169E+02 -0.93500415878E+03  0.94377108896E+03  0.12000000000E+03 0.  0.
<mgrwt>
<rscale>  0 0.26935776E+03</rscale>
<asrwt>0</asrwt>
<pdfrwt beam="1">  1        2 0.22179653E+00 0.26935776E+03</pdfrwt>
<pdfrwt beam="2">  1       -2 0.19356086E-02 0.26935776E+03</pdfrwt>
<totfact> 0.11890761E+04</totfact>
</mgrwt>
</event>
<event>
 5    1  0.1122238E+001  0.2752214E+03  0.7818608E-02  0.1098328E+00
          1   -1    0    0  501    0  0.00000000000E+00  0.00000000000E+00  0.46272218302E+03  0.46272218302E+03  0.00000000000E+00 0.  1.
         -1   -1    0    0    0  501 -0.00000000000E+00 -0.00000000000E+00 -0.40924562052E+02  0.40924562052E+02  0.00000000000E+00 0.  1.
         35    2    1    2    0    0  0.00000000000E+00  0.00000000000E+00  0.42179762097E+03  0.50364674507E+03  0.27522138501E+03 0.  0.
         25    1    3    3    0    0 -0.49242338173E+02  0.44744336673E+02  0.23007765573E+03  0.26788540684E+03  0.12000000000E+03 0.  0.
         25    1    3    3    0    0  0.49242338173E+02 -0.44744336673E+02  0.19171996524E+03  0.23576133823E+03  0.12000000000E+03 0.  0.
<mgrwt>
<rscale>  0 0.27522139E+03</rscale>
<asrwt>0</asrwt>
<pdfrwt beam="1">  1        1 0.71188025E-01 0.27522139E+03</pdfrwt>
<pdfrwt beam="2">  1       -1 0.62960868E-02 0.27522139E+03</pdfrwt>
<totfact> 0.61861047E+03</totfact>
</mgrwt>
</event>
<event>
 5    1  0.1122238E+001  0.2743630E+03  0.7818608E-02  0.1098808E+00
         -1   -1    0    0    0  501 -0.00000000000E+00  0.00000000000E+00  0.14668613920E+03  0.14668613920E+03  0.00000000000E+00 0.  1.
          1   -1    0    0  501    0  0.00000000000E+00 -0.00000000000E+00 -0.12829271413E+03  0.12829271413E+03  0.00000000000E+00 0.  1.
         35    2    1    2    0    0  0.00000000000E+00  0.00000000000E+00  0.18393425067E+02  0.27497885333E+03  0.27436299257E+03 0.  0.
         25    1    3    3    0    0 -0.64841632020E+02 -0.17033702786E+01 -0.53763599115E+01  0.13651462910E+03  0.12000000000E+03 0.  0.
         25    1    3    3    0    0  0.64841632020E+02  0.17033702786E+01  0.23769784978E+02  0.13846422423E+03  0.12000000000E+03 0.  0.
<mgrwt>
<rscale>  0 0.27436299E+03</rscale>
<asrwt>0</asrwt>
<pdfrwt beam="1">  1        1 0.19737340E-01 0.27436299E+03</pdfrwt>
<pdfrwt beam="2">  1       -1 0.22567099E-01 0.27436299E+03</pdfrwt>
<totfact> 0.42648534E+03</totfact>
</mgrwt>
</event>
<event>
 5    1  0.1122238E+001  0.2751813E+03  0.7818608E-02  0.1098350E+00
         -2   -1    0    0    0  501 -0.00000000000E+00  0.00000000000E+00  0.14546963871E+03  0.14546963871E+03  0.00000000000E+00 0. -1.
          2   -1    0    0  501    0  0.00000000000E+00 -0.00000000000E+00 -0.13013839172E+03  0.13013839172E+03  0.00000000000E+00 0. -1.
         35    2    1    2    0    0  0.00000000000E+00  0.00000000000E+00  0.15331246990E+02  0.27560803043E+03  0.27518128444E+03 0.  0.
         25    1    3    3    0    0  0.16014882632E+02  0.53382382743E+02  0.45473728690E+02  0.13990716656E+03  0.12000000000E+03 0.  0.
         25    1    3    3    0    0 -0.16014882632E+02 -0.53382382743E+02 -0.30142481700E+02  0.13570086387E+03  0.12000000000E+03 0.  0.
<mgrwt>
<rscale>  0 0.27518128E+03</rscale>
<asrwt>0</asrwt>
<pdfrwt beam="1">  1        2 0.20021291E-01 0.27518128E+03</pdfrwt>
<pdfrwt beam="2">  1       -2 0.22379944E-01 0.27518128E+03</pdfrwt>
<totfact> 0.47626316E+03</totfact>
</mgrwt>
</event>
<event>
 5    1  0.1122238E+001  0.2752357E+03  0.7818608E-02  0.1098320E+00
          2   -1    0    0  501    0  0.00000000000E+00  0.00000000000E+00  0.47060950131E+03  0.47060950131E+03  0.00000000000E+00 0.  1.
         -2   -1    0    0    0  501 -0.00000000000E+00 -0.00000000000E+00 -0.40242862576E+02  0.40242862576E+02  0.00000000000E+00 0.  1.
         35    2    1    2    0    0  0.00000000000E+00  0.00000000000E+00  0.43036663873E+03  0.51085236389E+03  0.27523570617E+03 0.  0.
         25    1    3    3    0    0  0.62002531697E+02  0.10971681357E+02  0.25965050863E+03  0.29288748413E+03  0.12000000000E+03 0.  0.
         25    1    3    3    0    0 -0.62002531697E+02 -0.10971681357E+02  0.17071613010E+03  0.21796487975E+03  0.12000000000E+03 0.  0.
<mgrwt>
<rscale>  0 0.27523571E+03</rscale>
<asrwt>0</asrwt>
<pdfrwt beam="1">  1        2 0.72401458E-01 0.27523571E+03</pdfrwt>
<pdfrwt beam="2">  1       -2 0.61912099E-02 0.27523571E+03</pdfrwt>
<totfact> 0.93416255E+03</totfact>
</mgrwt>
</event>
<event>
 4    1  0.1122238E+001  0.3158411E+03  0.7818608E-02  0.1077579E+00
          2   -1    0    0  501    0  0.00000000000E+00  0.00000000000E+00  0.22625117383E+04  0.22625117383E+04  0.00000000000E+00 0. -1.
         -2   -1    0    0    0  501 -0.00000000000E+00 -0.00000000000E+00 -0.11022662610E+02  0.11022662610E+02  0.00000000000E+00 0. -1.
         25    1    1    2    0    0  0.58602623632E+02 -0.59607763530E+01  0.52052201913E+03  0.53741322160E+03  0.12000000000E+03 0.  0.
         25    1    1    2    0    0 -0.58602623632E+02  0.59607763530E+01  0.17309670565E+04  0.17361211793E+04  0.12000000000E+03 0.  0.
<mgrwt>
<rscale>  0 0.31584112E+03</rscale>
<asrwt>0</asrwt>
<pdfrwt beam="1">  1        2 0.34807836E+00 0.31584112E+03</pdfrwt>
<pdfrwt beam="2">  1       -2 0.16957960E-02 0.31584112E+03</pdfrwt>
<totfact> 0.53111356E+03</totfact>
</mgrwt>
</event>
<event>
 5    1  0.1122238E+001  0.2740509E+03  0.7818608E-02  0.1098983E+00
          2   -1    0    0  501    0  0.00000000000E+00  0.00000000000E+00  0.57369368274E+02  0.57369368274E+02  0.00000000000E+00 0.  1.
         -2   -1    0    0    0  501 -0.00000000000E+00 -0.00000000000E+00 -0.32728224217E+03  0.32728224217E+03  0.00000000000E+00 0.  1.
         35    2    1    2    0    0  0.00000000000E+00  0.00000000000E+00 -0.26991287389E+03  0.38465161044E+03  0.27405091119E+03 0.  0.
         25    1    3    3    0    0  0.35628204934E+01  0.54445250581E+02 -0.82458212472E+02  0.15548741365E+03  0.12000000000E+03 0.  0.
         25    1    3    3    0    0 -0.35628204934E+01 -0.54445250581E+02 -0.18745466142E+03  0.22916419679E+03  0.12000000000E+03 0.  0.
<mgrwt>
<rscale>  0 0.27405091E+03</rscale>
<asrwt>0</asrwt>
<pdfrwt beam="1">  1        2 0.88260566E-02 0.27405091E+03</pdfrwt>
<pdfrwt beam="2">  1       -2 0.50351114E-01 0.27405091E+03</pdfrwt>
<totfact> 0.28305789E+03</totfact>
</mgrwt>
</event>
<event>
 5    1  0.1122238E+001  0.2721561E+03  0.7818608E-02  0.1100052E+00
         -1   -1    0    0    0  501 -0.00000000000E+00  0.00000000000E+00  0.17430573499E+03  0.17430573499E+03  0.00000000000E+00 0. -1.
          1   -1    0    0  501    0  0.00000000000E+00 -0.00000000000E+00 -0.10623424073E+03  0.10623424073E+03  0.00000000000E+00 0. -1.
         35    2    1    2    0    0  0.00000000000E+00  0.00000000000E+00  0.68071494256E+02  0.28053997573E+03  0.27215611264E+03 0.  0.
         25    1    3    3    0    0  0.35416498779E+02 -0.53193860675E+02  0.39986111781E+02  0.14171381138E+03  0.12000000000E+03 0.  0.
         25    1    3    3    0    0 -0.35416498779E+02  0.53193860675E+02  0.28085382476E+02  0.13882616435E+03  0.12000000000E+03 0.  0.
<mgrwt>
<rscale>  0 0.27215611E+03</rscale>
<asrwt>0</asrwt>
<pdfrwt beam="1">  1        1 0.16343729E-01 0.27215611E+03</pdfrwt>
<pdfrwt beam="2">  1       -1 0.26816267E-01 0.27215611E+03</pdfrwt>
<totfact> 0.40897109E+03</totfact>
</mgrwt>
</event>
<event>
 5    1  0.1122238E+001  0.2753631E+03  0.7818608E-02  0.1098249E+00
         -2   -1    0    0    0  501 -0.00000000000E+00  0.00000000000E+00  0.23545938706E+02  0.23545938706E+02  0.00000000000E+00 0. -1.
          2   -1    0    0  501    0  0.00000000000E+00 -0.00000000000E+00 -0.80507312891E+03  0.80507312891E+03  0.00000000000E+00 0. -1.
         35    2    1    2    0    0  0.00000000000E+00  0.00000000000E+00 -0.78152719020E+03  0.82861906761E+03  0.27536305160E+03 0.  0.
         25    1    3    3    0    0  0.43975680984E+02 -0.44460398490E+02 -0.46722390629E+03  0.48642447118E+03  0.12000000000E+03 0.  0.
         25    1    3    3    0    0 -0.43975680984E+02  0.44460398490E+02 -0.31430328391E+03  0.34219459643E+03  0.12000000000E+03 0.  0.
<mgrwt>
<rscale>  0 0.27536305E+03</rscale>
<asrwt>0</asrwt>
<pdfrwt beam="1">  1        2 0.12385743E+00 0.27536305E+03</pdfrwt>
<pdfrwt beam="2">  1       -2 0.36224514E-02 0.27536305E+03</pdfrwt>
<totfact> 0.11194241E+04</totfact>
</mgrwt>
</event>
<event>
 5    1  0.1122238E+001  0.2741438E+03  0.7818608E-02  0.1098931E+00
         -2   -1    0    0    0  501 -0.00000000000E+00  0.00000000000E+00  0.57739895686E+01  0.57739895686E+01  0.00000000000E+00 0. -1.
          2   -1    0    0  501    0  0.00000000000E+00 -0.00000000000E+00 -0.32540240839E+04  0.32540240839E+04  0.00000000000E+00 0. -1.
         35    2    1    2    0    0  0.00000000000E+00  0.00000000000E+00 -0.32482500943E+04  0.32597980735E+04  0.27414376605E+03 0.  0.
         25    1    3    3    0    0  0.57392741565E+02 -0.98077271634E+00 -0.20173886455E+04  0.20217694814E+04  0.12000000000E+03 0.  0.
         25    1    3    3    0    0 -0.57392741565E+02  0.98077271634E+00 -0.12308614488E+04  0.12380285921E+04  0.12000000000E+03 0.  0.
<mgrwt>
<rscale>  0 0.27414377E+03</rscale>
<asrwt>0</asrwt>
<pdfrwt beam="1">  1        2 0.50061946E+00 0.27414377E+03</pdfrwt>
<pdfrwt beam="2">  1       -2 0.88830543E-03 0.27414377E+03</pdfrwt>
<totfact> 0.36967888E+03</totfact>
</mgrwt>
</event>
<event>
 5    1  0.1122238E+001  0.2747609E+03  0.7818608E-02  0.1098585E+00
         -3   -1    0    0    0  501 -0.00000000000E+00  0.00000000000E+00  0.16881198360E+03  0.16881198360E+03  0.00000000000E+00 0. -1.
          3   -1    0    0  501    0  0.00000000000E+00 -0.00000000000E+00 -0.11180122494E+03  0.11180122494E+03  0.00000000000E+00 0. -1.
         35    2    1    2    0    0  0.00000000000E+00  0.00000000000E+00  0.57010758656E+02  0.28061320854E+03  0.27476088915E+03 0.  0.
         25    1    3    3    0    0 -0.27856462160E+02  0.24891376150E+02 -0.28154422250E+02  0.12879532050E+03  0.12000000000E+03 0.  0.
         25    1    3    3    0    0  0.27856462160E+02 -0.24891376150E+02  0.85165180905E+02  0.15181788804E+03  0.12000000000E+03 0.  0.
<mgrwt>
<rscale>  0 0.27476089E+03</rscale>
<asrwt>0</asrwt>
<pdfrwt beam="1">  1        3 0.17200188E-01 0.27476089E+03</pdfrwt>
<pdfrwt beam="2">  1       -3 0.25971074E-01 0.27476089E+03</pdfrwt>
<totfact> 0.10430972E+03</totfact>
</mgrwt>
</event>
<event>
 5    1  0.1122238E+001  0.2744621E+03  0.7818608E-02  0.1098753E+00
         -2   -1    0    0    0  501 -0.00000000000E+00  0.00000000000E+00  0.26737457312E+03  0.26737457312E+03  0.00000000000E+00 0. -1.
          2   -1    0    0  501    0  0.00000000000E+00 -0.00000000000E+00 -0.70434392387E+02  0.70434392387E+02  0.00000000000E+00 0. -1.
         35    2    1    2    0    0  0.00000000000E+00  0.00000000000E+00  0.19694018073E+03  0.33780896550E+03  0.27446213289E+03 0.  0.
         25    1    3    3    0    0  0.22370960704E+02  0.47688352212E+02  0.14858249168E+03  0.19811964985E+03  0.12000000000E+03 0.  0.
         25    1    3    3    0    0 -0.22370960704E+02 -0.47688352212E+02  0.48357689046E+02  0.13968931566E+03  0.12000000000E+03 0.  0.
<mgrwt>
<rscale>  0 0.27446213E+03</rscale>
<asrwt>0</asrwt>
<pdfrwt beam="1">  1        2 0.10836061E-01 0.27446213E+03</pdfrwt>
<pdfrwt beam="2">  1       -2 0.41134549E-01 0.27446213E+03</pdfrwt>
<totfact> 0.32574480E+03</totfact>
</mgrwt>
</event>
<event>
 5    1  0.1122238E+001  0.2753793E+03  0.7818608E-02  0.1098240E+00
         -2   -1    0    0    0  501 -0.00000000000E+00  0.00000000000E+00  0.74659791044E+01  0.74659791044E+01  0.00000000000E+00 0. -1.
          2   -1    0    0  501    0  0.00000000000E+00 -0.00000000000E+00 -0.25393112306E+04  0.25393112306E+04  0.00000000000E+00 0. -1.
         35    2    1    2    0    0  0.00000000000E+00  0.00000000000E+00 -0.25318452515E+04  0.25467772097E+04  0.27537933537E+03 0.  0.
         25    1    3    3    0    0  0.36650492359E+01  0.67150362553E+02 -0.12105559413E+04  0.12183465397E+04  0.12000000000E+03 0.  0.
         25    1    3    3    0    0 -0.36650492359E+01 -0.67150362553E+02 -0.13212893103E+04  0.13284306701E+04  0.12000000000E+03 0.  0.
<mgrwt>
<rscale>  0 0.27537934E+03</rscale>
<asrwt>0</asrwt>
<pdfrwt beam="1">  1        2 0.39066364E+00 0.27537934E+03</pdfrwt>
<pdfrwt beam="2">  1       -2 0.11486111E-02 0.27537934E+03</pdfrwt>
<totfact> 0.66498036E+03</totfact>
</mgrwt>
</event>
<event>
 5    1  0.1122238E+001  0.2757518E+03  0.7818608E-02  0.1098032E+00
         -1   -1    0    0    0  501 -0.00000000000E+00  0.00000000000E+00  0.49594809797E+02  0.49594809797E+02  0.00000000000E+00 0.  1.
          1   -1    0    0  501    0  0.00000000000E+00 -0.00000000000E+00 -0.38330147901E+03  0.38330147901E+03  0.00000000000E+00 0.  1.
         35    2    1    2    0    0  0.00000000000E+00  0.00000000000E+00 -0.33370666921E+03  0.43289628880E+03  0.27575180105E+03 0.  0.
         25    1    3    3    0    0 -0.30555713822E+02 -0.60228896268E+02 -0.17779666399E+03  0.22488402637E+03  0.12000000000E+03 0.  0.
         25    1    3    3    0    0  0.30555713822E+02  0.60228896268E+02 -0.15591000522E+03  0.20801226243E+03  0.12000000000E+03 0.  0.
<mgrwt>
<rscale>  0 0.27575180E+03</rscale>
<asrwt>0</asrwt>
<pdfrwt beam="1">  1        1 0.58969461E-01 0.27575180E+03</pdfrwt>
<pdfrwt beam="2">  1       -1 0.76299704E-02 0.27575180E+03</pdfrwt>
<totfact> 0.58944486E+03</totfact>
</mgrwt>
</event>
<event>
 5    1  0.1122238E+001  0.2779127E+03  0.7818608E-02  0.1096834E+00
          1   -1    0    0  501    0  0.00000000000E+00  0.00000000000E+00  0.64701916310E+02  0.64701916310E+02  0.00000000000E+00 0. -1.
         -1   -1    0    0    0  501 -0.00000000000E+00 -0.00000000000E+00 -0.29842808648E+03  0.29842808648E+03  0.00000000000E+00 0. -1.
         35    2    1    2    0    0  0.00000000000E+00  0.00000000000E+00 -0.23372617017E+03  0.36313000279E+03  0.27791271346E+03 0.  0.
         25    1    3    3    0    0 -0.61856841172E+02  0.23529039003E+02 -0.14691521328E+03  0.20090785044E+03  0.12000000000E+03 0.  0.
         25    1    3    3    0    0  0.61856841172E+02 -0.23529039003E+02 -0.86810956890E+02  0.16222215235E+03  0.12000000000E+03 0.  0.
<mgrwt>
<rscale>  0 0.27791271E+03</rscale>
<asrwt>0</asrwt>
<pdfrwt beam="1">  1        1 0.99541413E-02 0.27791271E+03</pdfrwt>
<pdfrwt beam="2">  1       -1 0.45912012E-01 0.27791271E+03</pdfrwt>
<totfact> 0.30940952E+03</totfact>
</mgrwt>
</event>
<event>
 5    1  0.1122238E+001  0.2758559E+03  0.7818608E-02  0.1097974E+00
         -2   -1    0    0    0  501 -0.00000000000E+00  0.00000000000E+00  0.19211345393E+02  0.19211345393E+02  0.00000000000E+00 0.  1.
          2   -1    0    0  501    0  0.00000000000E+00 -0.00000000000E+00 -0.99025467828E+03  0.99025467828E+03  0.00000000000E+00 0.  1.
         35    2    1    2    0    0  0.00000000000E+00  0.00000000000E+00 -0.97104333289E+03  0.10094660237E+04  0.27585593814E+03 0.  0.
         25    1    3    3    0    0 -0.53462709376E+02  0.41903514647E+02 -0.49706983895E+03  0.51584163328E+03  0.12000000000E+03 0.  0.
         25    1    3    3    0    0  0.53462709376E+02 -0.41903514647E+02 -0.47397349393E+03  0.49362439039E+03  0.12000000000E+03 0.  0.
<mgrwt>
<rscale>  0 0.27585594E+03</rscale>
<asrwt>0</asrwt>
<pdfrwt beam="1">  1        2 0.15234692E+00 0.27585594E+03</pdfrwt>
<pdfrwt beam="2">  1       -2 0.29555908E-02 0.27585594E+03</pdfrwt>
<totfact> 0.11503150E+04</totfact>
</mgrwt>
</event>
<event>
 5    1  0.1122238E+001  0.2763005E+03  0.7818608E-02  0.1097727E+00
         -1   -1    0    0    0  501 -0.00000000000E+00  0.00000000000E+00  0.47347632405E+02  0.47347632405E+02  0.00000000000E+00 0.  1.
          1   -1    0    0  501    0  0.00000000000E+00 -0.00000000000E+00 -0.40309276823E+03  0.40309276823E+03  0.00000000000E+00 0.  1.
         35    2    1    2    0    0  0.00000000000E+00  0.00000000000E+00 -0.35574513583E+03  0.45044040064E+03  0.27630047568E+03 0.  0.
         25    1    3    3    0    0 -0.25100324927E+02  0.63367677340E+02 -0.18818312884E+03  0.23336319080E+03  0.12000000000E+03 0.  0.
         25    1    3    3    0    0  0.25100324927E+02 -0.63367677340E+02 -0.16756200699E+03  0.21707720983E+03  0.12000000000E+03 0.  0.
<mgrwt>
<rscale>  0 0.27630048E+03</rscale>
<asrwt>0</asrwt>
<pdfrwt beam="1">  1        1 0.62014270E-01 0.27630048E+03</pdfrwt>
<pdfrwt beam="2">  1       -1 0.72842514E-02 0.27630048E+03</pdfrwt>
<totfact> 0.59310818E+03</totfact>
</mgrwt>
</event>
<event>
 5    1  0.1122238E+001  0.2743413E+03  0.7818608E-02  0.1098820E+00
          2   -1    0    0  501    0  0.00000000000E+00  0.00000000000E+00  0.12184527656E+03  0.12184527656E+03  0.00000000000E+00 0.  1.
         -2   -1    0    0    0  501 -0.00000000000E+00 -0.00000000000E+00 -0.15442358887E+03  0.15442358887E+03  0.00000000000E+00 0.  1.
         35    2    1    2    0    0  0.00000000000E+00  0.00000000000E+00 -0.32578312311E+02  0.27626886543E+03  0.27434128302E+03 0.  0.
         25    1    3    3    0    0  0.19974243427E+02 -0.25378989115E+02  0.42194028416E+02  0.13123795001E+03  0.12000000000E+03 0.  0.
         25    1    3    3    0    0 -0.19974243427E+02  0.25378989115E+02 -0.74772340727E+02  0.14503091542E+03  0.12000000000E+03 0.  0.
<mgrwt>
<rscale>  0 0.27434128E+03</rscale>
<asrwt>0</asrwt>
<pdfrwt beam="1">  1        2 0.18745427E-01 0.27434128E+03</pdfrwt>
<pdfrwt beam="2">  1       -2 0.23757475E-01 0.27434128E+03</pdfrwt>
<totfact> 0.46283546E+03</totfact>
</mgrwt>
</event>
<event>
 5    1  0.1122238E+001  0.2748481E+03  0.7818608E-02  0.1098537E+00
         -2   -1    0    0    0  501 -0.00000000000E+00  0.00000000000E+00  0.18183163916E+02  0.18183163916E+02  0.00000000000E+00 0. -1.
          2   -1    0    0  501    0  0.00000000000E+00 -0.00000000000E+00 -0.10386181491E+04  0.10386181491E+04  0.00000000000E+00 0. -1.
         35    2    1    2    0    0  0.00000000000E+00  0.00000000000E+00 -0.10204349852E+04  0.10568013131E+04  0.27484806022E+03 0.  0.
         25    1    3    3    0    0 -0.36714322631E+02  0.36018689143E+02 -0.34528029209E+03  0.36913922517E+03  0.12000000000E+03 0.  0.
         25    1    3    3    0    0  0.36714322631E+02 -0.36018689143E+02 -0.67515469314E+03  0.68766208789E+03  0.12000000000E+03 0.  0.
<mgrwt>
<rscale>  0 0.27484806E+03</rscale>
<asrwt>0</asrwt>
<pdfrwt beam="1">  1        2 0.15978746E+00 0.27484806E+03</pdfrwt>
<pdfrwt beam="2">  1       -2 0.27974090E-02 0.27484806E+03</pdfrwt>
<totfact> 0.11663696E+04</totfact>
</mgrwt>
</event>
<event>
 5    1  0.1122238E+001  0.2748248E+03  0.7818608E-02  0.1098550E+00
         -1   -1    0    0    0  501 -0.00000000000E+00  0.00000000000E+00  0.20678988595E+04  0.20678988595E+04  0.00000000000E+00 0.  1.
          1   -1    0    0  501    0  0.00000000000E+00 -0.00000000000E+00 -0.91310870101E+01  0.91310870101E+01  0.00000000000E+00 0.  1.
         35    2    1    2    0    0  0.00000000000E+00  0.00000000000E+00  0.20587677725E+04  0.20770299465E+04  0.27482477628E+03 0.  0.
         25    1    3    3    0    0  0.58641280400E+02 -0.31649496084E+02  0.10781726375E+04  0.10868747521E+04  0.12000000000E+03 0.  0.
         25    1    3    3    0    0 -0.58641280400E+02  0.31649496084E+02  0.98059513497E+03  0.99015519445E+03  0.12000000000E+03 0.  0.
<mgrwt>
<rscale>  0 0.27482478E+03</rscale>
<asrwt>0</asrwt>
<pdfrwt beam="1">  1        1 0.14047843E-02 0.27482478E+03</pdfrwt>
<pdfrwt beam="2">  1       -1 0.31813791E+00 0.27482478E+03</pdfrwt>
<totfact> 0.29689165E+02</totfact>
</mgrwt>
</event>
<event>
 5    1  0.1122238E+001  0.2737586E+03  0.7818608E-02  0.1099148E+00
          2   -1    0    0  501    0  0.00000000000E+00  0.00000000000E+00  0.13664639137E+03  0.13664639137E+03  0.00000000000E+00 0.  1.
         -2   -1    0    0    0  501 -0.00000000000E+00 -0.00000000000E+00 -0.13711260830E+03  0.13711260830E+03  0.00000000000E+00 0.  1.
         35    2    1    2    0    0  0.00000000000E+00  0.00000000000E+00 -0.46621693080E+00  0.27375899967E+03  0.27375860268E+03 0.  0.
         25    1    3    3    0    0 -0.31108060740E+02 -0.27074759591E+02  0.51101058797E+02  0.13679207674E+03  0.12000000000E+03 0.  0.
         25    1    3    3    0    0  0.31108060740E+02  0.27074759591E+02 -0.51567275728E+02  0.13696692293E+03  0.12000000000E+03 0.  0.
<mgrwt>
<rscale>  0 0.27375860E+03</rscale>
<asrwt>0</asrwt>
<pdfrwt beam="1">  1        2 0.21022522E-01 0.27375860E+03</pdfrwt>
<pdfrwt beam="2">  1       -2 0.21094247E-01 0.27375860E+03</pdfrwt>
<totfact> 0.49890307E+03</totfact>
</mgrwt>
</event>
<event>
 5    1  0.1122238E+001  0.2749064E+03  0.7818608E-02  0.1098504E+00
         -2   -1    0    0    0  501 -0.00000000000E+00  0.00000000000E+00  0.12706643645E+03  0.12706643645E+03  0.00000000000E+00 0.  1.
          2   -1    0    0  501    0  0.00000000000E+00 -0.00000000000E+00 -0.14868897566E+03  0.14868897566E+03  0.00000000000E+00 0.  1.
         35    2    1    2    0    0  0.00000000000E+00  0.00000000000E+00 -0.21622539214E+02  0.27575541211E+03  0.27490637153E+03 0.  0.
         25    1    3    3    0    0 -0.26405971375E+02  0.47611418388E+02  0.28415207495E+02  0.13480187870E+03  0.12000000000E+03 0.  0.
         25    1    3    3    0    0  0.26405971375E+02 -0.47611418388E+02 -0.50037746709E+02  0.14095353341E+03  0.12000000000E+03 0.  0.
<mgrwt>
<rscale>  0 0.27490637E+03</rscale>
<asrwt>0</asrwt>
<pdfrwt beam="1">  1        2 0.22875227E-01 0.27490637E+03</pdfrwt>
<pdfrwt beam="2">  1       -2 0.19548682E-01 0.27490637E+03</pdfrwt>
<totfact> 0.51660312E+03</totfact>
</mgrwt>
</event>
<event>
 5    1  0.1122238E+001  0.2756552E+03  0.7818608E-02  0.1098086E+00
          2   -1    0    0  501    0  0.00000000000E+00  0.00000000000E+00  0.20627582083E+03  0.20627582083E+03  0.00000000000E+00 0. -1.
         -2   -1    0    0    0  501 -0.00000000000E+00 -0.00000000000E+00 -0.92092448537E+02  0.92092448537E+02  0.00000000000E+00 0. -1.
         35    2    1    2    0    0  0.00000000000E+00  0.00000000000E+00  0.11418337230E+03  0.29836826937E+03  0.27565518616E+03 0.  0.
         25    1    3    3    0    0  0.49786366888E+02 -0.33848815184E+02  0.23345535094E+02  0.13626972747E+03  0.12000000000E+03 0.  0.
         25    1    3    3    0    0 -0.49786366888E+02  0.33848815184E+02  0.90837837202E+02  0.16209854190E+03  0.12000000000E+03 0.  0.
<mgrwt>
<rscale>  0 0.27565519E+03</rscale>
<asrwt>0</asrwt>
<pdfrwt beam="1">  1        2 0.31734742E-01 0.27565519E+03</pdfrwt>
<pdfrwt beam="2">  1       -2 0.14168069E-01 0.27565519E+03</pdfrwt>
<totfact> 0.61557540E+03</totfact>
</mgrwt>
</event>
<event>
 5    1  0.1122238E+001  0.2744020E+03  0.7818608E-02  0.1098786E+00
         -2   -1    0    0    0  501 -0.00000000000E+00  0.00000000000E+00  0.65604093116E+01  0.65604093116E+01  0.00000000000E+00 0. -1.
          2   -1    0    0  501    0  0.00000000000E+00 -0.00000000000E+00 -0.28693515730E+04  0.28693515730E+04  0.00000000000E+00 0. -1.
         35    2    1    2    0    0  0.00000000000E+00  0.00000000000E+00 -0.28627911637E+04  0.28759119823E+04  0.27440204648E+03 0.  0.
         25    1    3    3    0    0 -0.91505195119E+01 -0.31432257762E+02 -0.82456663941E+03  0.83389559399E+03  0.12000000000E+03 0.  0.
         25    1    3    3    0    0  0.91505195119E+01  0.31432257762E+02 -0.20382245243E+04  0.20420163883E+04  0.12000000000E+03 0.  0.
<mgrwt>
<rscale>  0 0.27440205E+03</rscale>
<asrwt>0</asrwt>
<pdfrwt beam="1">  1        2 0.44143842E+00 0.27440205E+03</pdfrwt>
<pdfrwt beam="2">  1       -2 0.10092944E-02 0.27440205E+03</pdfrwt>
<totfact> 0.52280776E+03</totfact>
</mgrwt>
</event>
<event>
 5    1  0.1122238E+001  0.2745527E+03  0.7818608E-02  0.1098702E+00
         -2   -1    0    0    0  501 -0.00000000000E+00  0.00000000000E+00  0.57987893358E+01  0.57987893358E+01  0.00000000000E+00 0.  1.
          2   -1    0    0  501    0  0.00000000000E+00 -0.00000000000E+00 -0.32497821408E+04  0.32497821408E+04  0.00000000000E+00 0.  1.
         35    2    1    2    0    0  0.00000000000E+00  0.00000000000E+00 -0.32439833515E+04  0.32555809301E+04  0.27455274190E+03 0.  0.
         25    1    3    3    0    0  0.42104570241E+01  0.50324736289E+02 -0.11058731581E+04  0.11135105517E+04  0.12000000000E+03 0.  0.
         25    1    3    3    0    0 -0.42104570241E+01 -0.50324736289E+02 -0.21381101934E+04  0.21420703784E+04  0.12000000000E+03 0.  0.
<mgrwt>
<rscale>  0 0.27455274E+03</rscale>
<asrwt>0</asrwt>
<pdfrwt beam="1">  1        2 0.49996647E+00 0.27455274E+03</pdfrwt>
<pdfrwt beam="2">  1       -2 0.89212147E-03 0.27455274E+03</pdfrwt>
<totfact> 0.36962029E+03</totfact>
</mgrwt>
</event>
<event>
 5    1  0.1122238E+001  0.2751063E+03  0.7818608E-02  0.1098392E+00
         -2   -1    0    0    0  501 -0.00000000000E+00  0.00000000000E+00  0.74158931232E+02  0.74158931232E+02  0.00000000000E+00 0.  1.
          2   -1    0    0  501    0  0.00000000000E+00 -0.00000000000E+00 -0.25513950547E+03  0.25513950547E+03  0.00000000000E+00 0.  1.
         35    2    1    2    0    0  0.00000000000E+00  0.00000000000E+00 -0.18098057424E+03  0.32929843671E+03  0.27510632883E+03 0.  0.
         25    1    3    3    0    0 -0.21335564034E+02  0.63750580763E+02 -0.91970974201E+02  0.16546299567E+03  0.12000000000E+03 0.  0.
         25    1    3    3    0    0  0.21335564034E+02 -0.63750580763E+02 -0.89009600040E+02  0.16383544104E+03  0.12000000000E+03 0.  0.
<mgrwt>
<rscale>  0 0.27510633E+03</rscale>
<asrwt>0</asrwt>
<pdfrwt beam="1">  1        2 0.39252231E-01 0.27510633E+03</pdfrwt>
<pdfrwt beam="2">  1       -2 0.11409066E-01 0.27510633E+03</pdfrwt>
<totfact> 0.69466812E+03</totfact>
</mgrwt>
</event>
<event>
 5    1  0.1122238E+001  0.2752141E+03  0.7818608E-02  0.1098332E+00
          3   -1    0    0  501    0  0.00000000000E+00  0.00000000000E+00  0.30061706317E+03  0.30061706317E+03  0.00000000000E+00 0. -1.
         -3   -1    0    0    0  501 -0.00000000000E+00 -0.00000000000E+00 -0.62989424210E+02  0.62989424210E+02  0.00000000000E+00 0. -1.
         35    2    1    2    0    0  0.00000000000E+00  0.00000000000E+00  0.23762763896E+03  0.36360648738E+03  0.27521406735E+03 0.  0.
         25    1    3    3    0    0 -0.14193446453E+02 -0.64043236925E+02  0.98659672997E+02  0.16863191037E+03  0.12000000000E+03 0.  0.
         25    1    3    3    0    0  0.14193446453E+02  0.64043236925E+02  0.13896796597E+03  0.19497457702E+03  0.12000000000E+03 0.  0.
<mgrwt>
<rscale>  0 0.27521407E+03</rscale>
<asrwt>0</asrwt>
<pdfrwt beam="1">  1        3 0.46248778E-01 0.27521407E+03</pdfrwt>
<pdfrwt beam="2">  1       -3 0.96906808E-02 0.27521407E+03</pdfrwt>
<totfact> 0.92336230E+02</totfact>
</mgrwt>
</event>
<event>
 5    1  0.1122238E+001  0.2746758E+03  0.7818608E-02  0.1098633E+00
         -1   -1    0    0    0  501 -0.00000000000E+00  0.00000000000E+00  0.52337549542E+02  0.52337549542E+02  0.00000000000E+00 0.  1.
          1   -1    0    0  501    0  0.00000000000E+00 -0.00000000000E+00 -0.36038560104E+03  0.36038560104E+03  0.00000000000E+00 0.  1.
         35    2    1    2    0    0  0.00000000000E+00  0.00000000000E+00 -0.30804805150E+03  0.41272315059E+03  0.27467580344E+03 0.  0.
         25    1    3    3    0    0 -0.49348552006E+02 -0.37250313354E+02 -0.11604600075E+03  0.17801556033E+03  0.12000000000E+03 0.  0.
         25    1    3    3    0    0  0.49348552006E+02  0.37250313354E+02 -0.19200205075E+03  0.23470759026E+03  0.12000000000E+03 0.  0.
<mgrwt>
<rscale>  0 0.27467580E+03</rscale>
<asrwt>0</asrwt>
<pdfrwt beam="1">  1        1 0.55443940E-01 0.27467580E+03</pdfrwt>
<pdfrwt beam="2">  1       -1 0.80519305E-02 0.27467580E+03</pdfrwt>
<totfact> 0.58724899E+03</totfact>
</mgrwt>
</event>
<event>
 5    1  0.1122238E+001  0.2750180E+03  0.7818608E-02  0.1098442E+00
         -2   -1    0    0    0  501 -0.00000000000E+00  0.00000000000E+00  0.35815708880E+02  0.35815708880E+02  0.00000000000E+00 0.  1.
          2   -1    0    0  501    0  0.00000000000E+00 -0.00000000000E+00 -0.52794496277E+03  0.52794496277E+03  0.00000000000E+00 0.  1.
         35    2    1    2    0    0  0.00000000000E+00  0.00000000000E+00 -0.49212925389E+03  0.56376067165E+03  0.27501798553E+03 0.  0.
         25    1    3    3    0    0  0.37534869921E+02  0.18989646799E+02 -0.35335222196E+03  0.37553597152E+03  0.12000000000E+03 0.  0.
         25    1    3    3    0    0 -0.37534869921E+02 -0.18989646799E+02 -0.13877703193E+03  0.18822470013E+03  0.12000000000E+03 0.  0.
<mgrwt>
<rscale>  0 0.27501799E+03</rscale>
<asrwt>0</asrwt>
<pdfrwt beam="1">  1        2 0.81222295E-01 0.27501799E+03</pdfrwt>
<pdfrwt beam="2">  1       -2 0.55101095E-02 0.27501799E+03</pdfrwt>
<totfact> 0.98198402E+03</totfact>
</mgrwt>
</event>
<event>
 5    1  0.1122238E+001  0.2755875E+03  0.7818608E-02  0.1098124E+00
         -2   -1    0    0    0  501 -0.00000000000E+00  0.00000000000E+00  0.82376151479E+02  0.82376151479E+02  0.00000000000E+00 0. -1.
          2   -1    0    0  501    0  0.00000000000E+00 -0.00000000000E+00 -0.23049282469E+03  0.23049282469E+03  0.00000000000E+00 0. -1.
         35    2    1    2    0    0  0.00000000000E+00  0.00000000000E+00 -0.14811667321E+03  0.31286897617E+03  0.27558745865E+03 0.  0.
         25    1    3    3    0    0 -0.28265156159E+02 -0.56513047163E+02 -0.46378252999E+02  0.14333033839E+03  0.12000000000E+03 0.  0.
         25    1    3    3    0    0  0.28265156159E+02  0.56513047163E+02 -0.10173842021E+03  0.16953863778E+03  0.12000000000E+03 0.  0.
<mgrwt>
<rscale>  0 0.27558746E+03</rscale>
<asrwt>0</asrwt>
<pdfrwt beam="1">  1        2 0.35460434E-01 0.27558746E+03</pdfrwt>
<pdfrwt beam="2">  1       -2 0.12673254E-01 0.27558746E+03</pdfrwt>
<totfact> 0.65441135E+03</totfact>
</mgrwt>
</event>
<event>
 5    1  0.1122238E+001  0.2745977E+03  0.7818608E-02  0.1098677E+00
          2   -1    0    0  501    0  0.00000000000E+00  0.00000000000E+00  0.44077649915E+03  0.44077649915E+03  0.00000000000E+00 0. -1.
         -2   -1    0    0    0  501 -0.00000000000E+00 -0.00000000000E+00 -0.42767655449E+02  0.42767655449E+02  0.00000000000E+00 0. -1.
         35    2    1    2    0    0  0.00000000000E+00  0.00000000000E+00  0.39800884371E+03  0.48354415460E+03  0.27459772356E+03 0.  0.
         25    1    3    3    0    0 -0.48376096960E+02  0.17351033905E+02  0.12409452901E+03  0.18011317904E+03  0.12000000000E+03 0.  0.
         25    1    3    3    0    0  0.48376096960E+02 -0.17351033905E+02  0.27391431469E+03  0.30343097556E+03  0.12000000000E+03 0.  0.
<mgrwt>
<rscale>  0 0.27459772E+03</rscale>
<asrwt>0</asrwt>
<pdfrwt beam="1">  1        2 0.67811766E-01 0.27459772E+03</pdfrwt>
<pdfrwt beam="2">  1       -2 0.65796396E-02 0.27459772E+03</pdfrwt>
<totfact> 0.91423735E+03</totfact>
</mgrwt>
</event>
<event>
 5    1  0.1122238E+001  0.2747706E+03  0.7818608E-02  0.1098580E+00
         -2   -1    0    0    0  501 -0.00000000000E+00  0.00000000000E+00  0.66133803129E+01  0.66133803129E+01  0.00000000000E+00 0.  1.
          2   -1    0    0  501    0  0.00000000000E+00 -0.00000000000E+00 -0.28540193171E+04  0.28540193171E+04  0.00000000000E+00 0.  1.
         35    2    1    2    0    0  0.00000000000E+00  0.00000000000E+00 -0.28474059368E+04  0.28606326974E+04  0.27477056003E+03 0.  0.
         25    1    3    3    0    0 -0.58587254045E+02  0.78390054608E+00 -0.10876950273E+04  0.10958620138E+04  0.12000000000E+03 0.  0.
         25    1    3    3    0    0  0.58587254045E+02 -0.78390054608E+00 -0.17597109095E+04  0.17647706836E+04  0.12000000000E+03 0.  0.
<mgrwt>
<rscale>  0 0.27477056E+03</rscale>
<asrwt>0</asrwt>
<pdfrwt beam="1">  1        2 0.43908034E+00 0.27477056E+03</pdfrwt>
<pdfrwt beam="2">  1       -2 0.10174421E-02 0.27477056E+03</pdfrwt>
<totfact> 0.52737618E+03</totfact>
</mgrwt>
</event>
<event>
 5    1  0.1122238E+001  0.2751024E+03  0.7818608E-02  0.1098394E+00
         -2   -1    0    0    0  501 -0.00000000000E+00  0.00000000000E+00  0.85251977889E+02  0.85251977889E+02  0.00000000000E+00 0.  1.
          2   -1    0    0  501    0  0.00000000000E+00 -0.00000000000E+00 -0.22193428197E+03  0.22193428197E+03  0.00000000000E+00 0.  1.
         35    2    1    2    0    0  0.00000000000E+00  0.00000000000E+00 -0.13668230408E+03  0.30718625986E+03  0.27510242819E+03 0.  0.
         25    1    3    3    0    0 -0.50154019479E+02 -0.39189178081E+02 -0.44155993221E+02  0.14283196101E+03  0.12000000000E+03 0.  0.
         25    1    3    3    0    0  0.50154019479E+02  0.39189178081E+02 -0.92526310859E+02  0.16435429885E+03  0.12000000000E+03 0.  0.
<mgrwt>
<rscale>  0 0.27510243E+03</rscale>
<asrwt>0</asrwt>
<pdfrwt beam="1">  1        2 0.34143735E-01 0.27510243E+03</pdfrwt>
<pdfrwt beam="2">  1       -2 0.13115689E-01 0.27510243E+03</pdfrwt>
<totfact> 0.64481997E+03</totfact>
</mgrwt>
</event>
<event>
 5    1  0.1122238E+001  0.2747902E+03  0.7818608E-02  0.1098569E+00
          2   -1    0    0  501    0  0.00000000000E+00  0.00000000000E+00  0.76670743057E+03  0.76670743057E+03  0.00000000000E+00 0. -1.
         -2   -1    0    0    0  501 -0.00000000000E+00 -0.00000000000E+00 -0.24621411631E+02  0.24621411631E+02  0.00000000000E+00 0. -1.
         35    2    1    2    0    0  0.00000000000E+00  0.00000000000E+00  0.74208601894E+03  0.79132884220E+03  0.27479024181E+03 0.  0.
         25    1    3    3    0    0  0.64063419886E+02  0.19320744631E+02  0.37081428478E+03  0.39544992949E+03  0.12000000000E+03 0.  0.
         25    1    3    3    0    0 -0.64063419886E+02 -0.19320744631E+02  0.37127173416E+03  0.39587891271E+03  0.12000000000E+03 0.  0.
<mgrwt>
<rscale>  0 0.27479024E+03</rscale>
<asrwt>0</asrwt>
<pdfrwt beam="1">  1        2 0.11795497E+00 0.27479024E+03</pdfrwt>
<pdfrwt beam="2">  1       -2 0.37879101E-02 0.27479024E+03</pdfrwt>
<totfact> 0.11134780E+04</totfact>
</mgrwt>
</event>
<event>
 5    1  0.1122238E+001  0.2758353E+03  0.7818608E-02  0.1097986E+00
          2   -1    0    0  501    0  0.00000000000E+00  0.00000000000E+00  0.14590088790E+04  0.14590088790E+04  0.00000000000E+00 0.  1.
         -2   -1    0    0    0  501 -0.00000000000E+00 -0.00000000000E+00 -0.13037124764E+02  0.13037124764E+02  0.00000000000E+00 0.  1.
         35    2    1    2    0    0  0.00000000000E+00  0.00000000000E+00  0.14459717543E+04  0.14720460038E+04  0.27583531890E+03 0.  0.
         25    1    3    3    0    0 -0.13053680918E+02  0.66431381544E+02  0.75577664222E+03  0.76823294642E+03  0.12000000000E+03 0.  0.
         25    1    3    3    0    0  0.13053680918E+02 -0.66431381544E+02  0.69019511205E+03  0.70381305738E+03  0.12000000000E+03 0.  0.
<mgrwt>
<rscale>  0 0.27583532E+03</rscale>
<asrwt>0</asrwt>
<pdfrwt beam="1">  1        2 0.22446278E+00 0.27583532E+03</pdfrwt>
<pdfrwt beam="2">  1       -2 0.20057126E-02 0.27583532E+03</pdfrwt>
<totfact> 0.11050749E+04</totfact>
</mgrwt>
</event>
<event>
 5    1  0.1122238E+001  0.2889463E+03  0.7818608E-02  0.1090901E+00
          2   -1    0    0  501    0  0.00000000000E+00  0.00000000000E+00  0.14755565147E+03  0.14755565147E+03  0.00000000000E+00 0. -1.
         -2   -1    0    0    0  501 -0.00000000000E+00 -0.00000000000E+00 -0.14145508132E+03  0.14145508132E+03  0.00000000000E+00 0. -1.
         35    2    1    2    0    0  0.00000000000E+00  0.00000000000E+00  0.61005701528E+01  0.28901073280E+03  0.28894633882E+03 0.  0.
         25    1    3    3    0    0  0.16323825739E+02 -0.74998381678E+02 -0.21064673951E+02  0.14399633686E+03  0.12000000000E+03 0.  0.
         25    1    3    3    0    0 -0.16323825739E+02  0.74998381678E+02  0.27165244104E+02  0.14501439593E+03  0.12000000000E+03 0.  0.
<mgrwt>
<rscale>  0 0.28894634E+03</rscale>
<asrwt>0</asrwt>
<pdfrwt beam="1">  1        2 0.22700870E-01 0.28894634E+03</pdfrwt>
<pdfrwt beam="2">  1       -2 0.21762320E-01 0.28894634E+03</pdfrwt>
<totfact> 0.43404380E+03</totfact>
</mgrwt>
</event>
<event>
 5    1  0.1122238E+001  0.2749490E+03  0.7818608E-02  0.1098480E+00
          1   -1    0    0  501    0  0.00000000000E+00  0.00000000000E+00  0.14316491203E+04  0.14316491203E+04  0.00000000000E+00 0.  1.
         -1   -1    0    0    0  501 -0.00000000000E+00 -0.00000000000E+00 -0.13201024951E+02  0.13201024951E+02  0.00000000000E+00 0.  1.
         35    2    1    2    0    0  0.00000000000E+00  0.00000000000E+00  0.14184480953E+04  0.14448501452E+04  0.27494898260E+03 0.  0.
         25    1    3    3    0    0  0.65169841345E+02  0.13644831569E+02  0.66654985876E+03  0.68053067812E+03  0.12000000000E+03 0.  0.
         25    1    3    3    0    0 -0.65169841345E+02 -0.13644831569E+02  0.75189823654E+03  0.76431946709E+03  0.12000000000E+03 0.  0.
<mgrwt>
<rscale>  0 0.27494898E+03</rscale>
<asrwt>0</asrwt>
<pdfrwt beam="1">  1        1 0.22025359E+00 0.27494898E+03</pdfrwt>
<pdfrwt beam="2">  1       -1 0.20309280E-02 0.27494898E+03</pdfrwt>
<totfact> 0.53285229E+03</totfact>
</mgrwt>
</event>
<event>
 5    1  0.1122238E+001  0.2750056E+03  0.7818608E-02  0.1098448E+00
          2   -1    0    0  501    0  0.00000000000E+00  0.00000000000E+00  0.76407766285E+03  0.76407766285E+03  0.00000000000E+00 0. -1.
         -2   -1    0    0    0  501 -0.00000000000E+00 -0.00000000000E+00 -0.24744887866E+02  0.24744887866E+02  0.00000000000E+00 0. -1.
         35    2    1    2    0    0  0.00000000000E+00  0.00000000000E+00  0.73933277498E+03  0.78882255072E+03  0.27500557149E+03 0.  0.
         25    1    3    3    0    0 -0.31241304210E+02 -0.22955545421E+02  0.21245258359E+03  0.24706087596E+03  0.12000000000E+03 0.  0.
         25    1    3    3    0    0  0.31241304210E+02  0.22955545421E+02  0.52688019140E+03  0.54176167476E+03  0.12000000000E+03 0.  0.
<mgrwt>
<rscale>  0 0.27500557E+03</rscale>
<asrwt>0</asrwt>
<pdfrwt beam="1">  1        2 0.11755039E+00 0.27500557E+03</pdfrwt>
<pdfrwt beam="2">  1       -2 0.38069064E-02 0.27500557E+03</pdfrwt>
<totfact> 0.11099412E+04</totfact>
</mgrwt>
</event>
<event>
 5    1  0.1122238E+001  0.2755599E+03  0.7818608E-02  0.1098139E+00
          2   -1    0    0  501    0  0.00000000000E+00  0.00000000000E+00  0.13181764472E+04  0.13181764472E+04  0.00000000000E+00 0. -1.
         -2   -1    0    0    0  501 -0.00000000000E+00 -0.00000000000E+00 -0.14401190093E+02  0.14401190093E+02  0.00000000000E+00 0. -1.
         35    2    1    2    0    0  0.00000000000E+00  0.00000000000E+00  0.13037752571E+04  0.13325776373E+04  0.27555986350E+03 0.  0.
         25    1    3    3    0    0  0.26849914680E+02  0.50213188276E+02  0.82897817792E+03  0.83955172662E+03  0.12000000000E+03 0.  0.
         25    1    3    3    0    0 -0.26849914680E+02 -0.50213188276E+02  0.47479707918E+03  0.49302591067E+03  0.12000000000E+03 0.  0.
<mgrwt>
<rscale>  0 0.27555986E+03</rscale>
<asrwt>0</asrwt>
<pdfrwt beam="1">  1        2 0.20279628E+00 0.27555986E+03</pdfrwt>
<pdfrwt beam="2">  1       -2 0.22155688E-02 0.27555986E+03</pdfrwt>
<totfact> 0.11386284E+04</totfact>
</mgrwt>
</event>
<event>
 5    1  0.1122238E+001  0.2753943E+03  0.7818608E-02  0.1098231E+00
         -1   -1    0    0    0  501 -0.00000000000E+00  0.00000000000E+00  0.45815228733E+02  0.45815228733E+02  0.00000000000E+00 0.  1.
          1   -1    0    0  501    0  0.00000000000E+00 -0.00000000000E+00 -0.41384731365E+03  0.41384731365E+03  0.00000000000E+00 0.  1.
         35    2    1    2    0    0  0.00000000000E+00  0.00000000000E+00 -0.36803208491E+03  0.45966254238E+03  0.27539433063E+03 0.  0.
         25    1    3    3    0    0  0.37748412289E+02  0.34664664407E+02 -0.11061465968E+03  0.17106193184E+03  0.12000000000E+03 0.  0.
         25    1    3    3    0    0 -0.37748412289E+02 -0.34664664407E+02 -0.25741742524E+03  0.28860061054E+03  0.12000000000E+03 0.  0.
<mgrwt>
<rscale>  0 0.27539433E+03</rscale>
<asrwt>0</asrwt>
<pdfrwt beam="1">  1        1 0.63668817E-01 0.27539433E+03</pdfrwt>
<pdfrwt beam="2">  1       -1 0.70484967E-02 0.27539433E+03</pdfrwt>
<totfact> 0.60269495E+03</totfact>
</mgrwt>
</event>
<event>
 5    1  0.1122238E+001  0.2747502E+03  0.7818608E-02  0.1098591E+00
          1   -1    0    0  501    0  0.00000000000E+00  0.00000000000E+00  0.97900566620E+02  0.97900566620E+02  0.00000000000E+00 0. -1.
         -1   -1    0    0    0  501 -0.00000000000E+00 -0.00000000000E+00 -0.19276616689E+03  0.19276616689E+03  0.00000000000E+00 0. -1.
         35    2    1    2    0    0  0.00000000000E+00  0.00000000000E+00 -0.94865600273E+02  0.29066673351E+03  0.27475019173E+03 0.  0.
         25    1    3    3    0    0  0.62971430716E+02  0.18840370620E+02 -0.60456798742E+02  0.14958404048E+03  0.12000000000E+03 0.  0.
         25    1    3    3    0    0 -0.62971430716E+02 -0.18840370620E+02 -0.34408801531E+02  0.14108269304E+03  0.12000000000E+03 0.  0.
<mgrwt>
<rscale>  0 0.27475019E+03</rscale>
<asrwt>0</asrwt>
<pdfrwt beam="1">  1        1 0.15061626E-01 0.27475019E+03</pdfrwt>
<pdfrwt beam="2">  1       -1 0.29656333E-01 0.27475019E+03</pdfrwt>
<totfact> 0.38410702E+03</totfact>
</mgrwt>
</event>
<event>
 5    1  0.1122238E+001  0.2754760E+03  0.7818608E-02  0.1098186E+00
         -2   -1    0    0    0  501 -0.00000000000E+00  0.00000000000E+00  0.22487846404E+02  0.22487846404E+02  0.00000000000E+00 0.  1.
          2   -1    0    0  501    0  0.00000000000E+00 -0.00000000000E+00 -0.84364504610E+03  0.84364504610E+03  0.00000000000E+00 0.  1.
         35    2    1    2    0    0  0.00000000000E+00  0.00000000000E+00 -0.82115719969E+03  0.86613289250E+03  0.27547602593E+03 0.  0.
         25    1    3    3    0    0 -0.50427756046E+02  0.38835551230E+01 -0.55166989661E+03  0.56683129361E+03  0.12000000000E+03 0.  0.
         25    1    3    3    0    0  0.50427756046E+02 -0.38835551230E+01 -0.26948730308E+03  0.29930159890E+03  0.12000000000E+03 0.  0.
<mgrwt>
<rscale>  0 0.27547603E+03</rscale>
<asrwt>0</asrwt>
<pdfrwt beam="1">  1        2 0.12979155E+00 0.27547603E+03</pdfrwt>
<pdfrwt beam="2">  1       -2 0.34596685E-02 0.27547603E+03</pdfrwt>
<totfact> 0.11290369E+04</totfact>
</mgrwt>
</event>
<event>
 5    1  0.1122238E+001  0.2749238E+03  0.7818608E-02  0.1098494E+00
         -3   -1    0    0    0  501 -0.00000000000E+00  0.00000000000E+00  0.31861271019E+03  0.31861271019E+03  0.00000000000E+00 0. -1.
          3   -1    0    0  501    0  0.00000000000E+00 -0.00000000000E+00 -0.59306394616E+02  0.59306394616E+02  0.00000000000E+00 0. -1.
         35    2    1    2    0    0  0.00000000000E+00  0.00000000000E+00  0.25930631557E+03  0.37791910480E+03  0.27492377940E+03 0.  0.
         25    1    3    3    0    0 -0.77438135058E+01 -0.68109293918E+01  0.38580104122E+02  0.12647047023E+03  0.12000000000E+03 0.  0.
         25    1    3    3    0    0  0.77438135058E+01  0.68109293918E+01  0.22072621145E+03  0.25144863457E+03  0.12000000000E+03 0.  0.
<mgrwt>
<rscale>  0 0.27492378E+03</rscale>
<asrwt>0</asrwt>
<pdfrwt beam="1">  1        3 0.91240609E-02 0.27492378E+03</pdfrwt>
<pdfrwt beam="2">  1       -3 0.49017339E-01 0.27492378E+03</pdfrwt>
<totfact> 0.90800693E+02</totfact>
</mgrwt>
</event>
<event>
 4    1  0.1122238E+001  0.2936719E+03  0.7818608E-02  0.1088447E+00
          1   -1    0    0  501    0  0.00000000000E+00  0.00000000000E+00  0.78694479758E+03  0.78694479758E+03  0.00000000000E+00 0.  1.
         -1   -1    0    0    0  501 -0.00000000000E+00 -0.00000000000E+00 -0.27398102094E+02  0.27398102094E+02  0.00000000000E+00 0.  1.
         25    1    1    2    0    0 -0.66383702718E+02  0.37282325431E+02  0.27736006451E+03  0.31164943953E+03  0.12000000000E+03 0.  0.
         25    1    1    2    0    0  0.66383702718E+02 -0.37282325431E+02  0.48218663098E+03  0.50269346014E+03  0.12000000000E+03 0.  0.
<mgrwt>
<rscale>  0 0.29367188E+03</rscale>
<asrwt>0</asrwt>
<pdfrwt beam="1">  1        1 0.12106841E+00 0.29367188E+03</pdfrwt>
<pdfrwt beam="2">  1       -1 0.42150932E-02 0.29367188E+03</pdfrwt>
<totfact> 0.53753783E+03</totfact>
</mgrwt>
</event>
<event>
 5    1  0.1122238E+001  0.2755264E+03  0.7818608E-02  0.1098158E+00
         -1   -1    0    0    0  501 -0.00000000000E+00  0.00000000000E+00  0.21001128092E+02  0.21001128092E+02  0.00000000000E+00 0.  1.
          1   -1    0    0  501    0  0.00000000000E+00 -0.00000000000E+00 -0.90369901628E+03  0.90369901628E+03  0.00000000000E+00 0.  1.
         35    2    1    2    0    0  0.00000000000E+00  0.00000000000E+00 -0.88269788819E+03  0.92470014438E+03  0.27552639654E+03 0.  0.
         25    1    3    3    0    0  0.41233229546E+02 -0.89486706800E+01 -0.61888876633E+03  0.63182557958E+03  0.12000000000E+03 0.  0.
         25    1    3    3    0    0 -0.41233229546E+02  0.89486706800E+01 -0.26380912186E+03  0.29287456479E+03  0.12000000000E+03 0.  0.
<mgrwt>
<rscale>  0 0.27552640E+03</rscale>
<asrwt>0</asrwt>
<pdfrwt beam="1">  1        1 0.13903063E+00 0.27552640E+03</pdfrwt>
<pdfrwt beam="2">  1       -1 0.32309426E-02 0.27552640E+03</pdfrwt>
<totfact> 0.64031540E+03</totfact>
</mgrwt>
</event>
<event>
 5    1  0.1122238E+001  0.2753690E+03  0.7818608E-02  0.1098246E+00
         -2   -1    0    0    0  501 -0.00000000000E+00  0.00000000000E+00  0.39065871792E+02  0.39065871792E+02  0.00000000000E+00 0. -1.
          2   -1    0    0  501    0  0.00000000000E+00 -0.00000000000E+00 -0.48525781111E+03  0.48525781111E+03  0.00000000000E+00 0. -1.
         35    2    1    2    0    0  0.00000000000E+00  0.00000000000E+00 -0.44619193931E+03  0.52432368290E+03  0.27536898471E+03 0.  0.
         25    1    3    3    0    0 -0.55950075454E+02  0.22373557291E+01 -0.29488756029E+03  0.32325545613E+03  0.12000000000E+03 0.  0.
         25    1    3    3    0    0  0.55950075454E+02 -0.22373557291E+01 -0.15130437902E+03  0.20106822677E+03  0.12000000000E+03 0.  0.
<mgrwt>
<rscale>  0 0.27536898E+03</rscale>
<asrwt>0</asrwt>
<pdfrwt beam="1">  1        2 0.74655052E-01 0.27536898E+03</pdfrwt>
<pdfrwt beam="2">  1       -2 0.60101338E-02 0.27536898E+03</pdfrwt>
<totfact> 0.94502350E+03</totfact>
</mgrwt>
</event>
<event>
 5    1  0.1122238E+001  0.2673281E+03  0.7818608E-02  0.1102819E+00
         -3   -1    0    0    0  501 -0.00000000000E+00  0.00000000000E+00  0.28614312675E+03  0.28614312675E+03  0.00000000000E+00 0.  1.
          3   -1    0    0  501    0  0.00000000000E+00 -0.00000000000E+00 -0.62437558498E+02  0.62437558498E+02  0.00000000000E+00 0.  1.
         35    2    1    2    0    0  0.00000000000E+00  0.00000000000E+00  0.22370556825E+03  0.34858068525E+03  0.26732809965E+03 0.  0.
         25    1    3    3    0    0  0.12202229086E+02  0.44821604688E+02  0.64690260287E+02  0.14402326346E+03  0.12000000000E+03 0.  0.
         25    1    3    3    0    0 -0.12202229086E+02 -0.44821604688E+02  0.15901530797E+03  0.20455742179E+03  0.12000000000E+03 0.  0.
<mgrwt>
<rscale>  0 0.26732810E+03</rscale>
<asrwt>0</asrwt>
<pdfrwt beam="1">  1        3 0.96057784E-02 0.26732810E+03</pdfrwt>
<pdfrwt beam="2">  1       -3 0.44022019E-01 0.26732810E+03</pdfrwt>
<totfact> 0.10296116E+03</totfact>
</mgrwt>
</event>
<event>
 5    1  0.1122238E+001  0.2751923E+03  0.7818608E-02  0.1098344E+00
          3   -1    0    0  501    0  0.00000000000E+00  0.00000000000E+00  0.81769998984E+02  0.81769998984E+02  0.00000000000E+00 0. -1.
         -3   -1    0    0    0  501 -0.00000000000E+00 -0.00000000000E+00 -0.23153605200E+03  0.23153605200E+03  0.00000000000E+00 0. -1.
         35    2    1    2    0    0  0.00000000000E+00  0.00000000000E+00 -0.14976605302E+03  0.31330605099E+03  0.27519231630E+03 0.  0.
         25    1    3    3    0    0  0.44466056149E+02 -0.42542343418E+02 -0.10597095044E+03  0.17151362473E+03  0.12000000000E+03 0.  0.
         25    1    3    3    0    0 -0.44466056149E+02  0.42542343418E+02 -0.43795102585E+02  0.14179242626E+03  0.12000000000E+03 0.  0.
<mgrwt>
<rscale>  0 0.27519232E+03</rscale>
<asrwt>0</asrwt>
<pdfrwt beam="1">  1        3 0.12580000E-01 0.27519232E+03</pdfrwt>
<pdfrwt beam="2">  1       -3 0.35620931E-01 0.27519232E+03</pdfrwt>
<totfact> 0.99034477E+02</totfact>
</mgrwt>
</event>
<event>
 5    1  0.1122238E+001  0.2749448E+03  0.7818608E-02  0.1098482E+00
          2   -1    0    0  501    0  0.00000000000E+00  0.00000000000E+00  0.11334462173E+04  0.11334462173E+04  0.00000000000E+00 0. -1.
         -2   -1    0    0    0  501 -0.00000000000E+00 -0.00000000000E+00 -0.16673628125E+02  0.16673628125E+02  0.00000000000E+00 0. -1.
         35    2    1    2    0    0  0.00000000000E+00  0.00000000000E+00  0.11167725892E+04  0.11501198454E+04  0.27494479975E+03 0.  0.
         25    1    3    3    0    0  0.35250151047E+02 -0.48260973256E+02  0.68574525309E+03  0.69872616011E+03  0.12000000000E+03 0.  0.
         25    1    3    3    0    0 -0.35250151047E+02  0.48260973256E+02  0.43102733610E+03  0.45139368533E+03  0.12000000000E+03 0.  0.
<mgrwt>
<rscale>  0 0.27494480E+03</rscale>
<asrwt>0</asrwt>
<pdfrwt beam="1">  1        2 0.17437628E+00 0.27494480E+03</pdfrwt>
<pdfrwt beam="2">  1       -2 0.25651745E-02 0.27494480E+03</pdfrwt>
<totfact> 0.11658356E+04</totfact>
</mgrwt>
</event>
<event>
 5    1  0.1122238E+001  0.2754845E+03  0.7818608E-02  0.1098181E+00
          1   -1    0    0  501    0  0.00000000000E+00  0.00000000000E+00  0.93648288977E+03  0.93648288977E+03  0.00000000000E+00 0. -1.
         -1   -1    0    0    0  501 -0.00000000000E+00 -0.00000000000E+00 -0.20259769709E+02  0.20259769709E+02  0.00000000000E+00 0. -1.
         35    2    1    2    0    0  0.00000000000E+00  0.00000000000E+00  0.91622312006E+03  0.95674265948E+03  0.27548450180E+03 0.  0.
         25    1    3    3    0    0 -0.64866328665E+02 -0.17581074483E+02  0.48414542946E+03  0.50330262432E+03  0.12000000000E+03 0.  0.
         25    1    3    3    0    0  0.64866328665E+02  0.17581074483E+02  0.43207769060E+03  0.45344003516E+03  0.12000000000E+03 0.  0.
<mgrwt>
<rscale>  0 0.27548450E+03</rscale>
<asrwt>0</asrwt>
<pdfrwt beam="1">  1        1 0.14407426E+00 0.27548450E+03</pdfrwt>
<pdfrwt beam="2">  1       -1 0.31168884E-02 0.27548450E+03</pdfrwt>
<totfact> 0.63674839E+03</totfact>
</mgrwt>
</event>
<event>
 5    1  0.1122238E+001  0.2751988E+03  0.7818608E-02  0.1098341E+00
          2   -1    0    0  501    0  0.00000000000E+00  0.00000000000E+00  0.38676001198E+04  0.38676001198E+04  0.00000000000E+00 0.  1.
         -2   -1    0    0    0  501 -0.00000000000E+00 -0.00000000000E+00 -0.48954391109E+01  0.48954391109E+01  0.00000000000E+00 0.  1.
         35    2    1    2    0    0  0.00000000000E+00  0.00000000000E+00  0.38627046807E+04  0.38724955589E+04  0.27519884369E+03 0.  0.
         25    1    3    3    0    0 -0.59170424640E+02  0.30177558008E+01  0.14812021293E+04  0.14872356888E+04  0.12000000000E+03 0.  0.
         25    1    3    3    0    0  0.59170424640E+02 -0.30177558008E+01  0.23815025513E+04  0.23852598701E+04  0.12000000000E+03 0.  0.
<mgrwt>
<rscale>  0 0.27519884E+03</rscale>
<asrwt>0</asrwt>
<pdfrwt beam="1">  1        2 0.59501296E+00 0.27519884E+03</pdfrwt>
<pdfrwt beam="2">  1       -2 0.75314757E-03 0.27519884E+03</pdfrwt>
<totfact> 0.18083610E+03</totfact>
</mgrwt>
</event>
<event>
 5    1  0.1122238E+001  0.2750578E+03  0.7818608E-02  0.1098419E+00
          2   -1    0    0  501    0  0.00000000000E+00  0.00000000000E+00  0.11078647034E+04  0.11078647034E+04  0.00000000000E+00 0. -1.
         -2   -1    0    0    0  501 -0.00000000000E+00 -0.00000000000E+00 -0.17072657033E+02  0.17072657033E+02  0.00000000000E+00 0. -1.
         35    2    1    2    0    0  0.00000000000E+00  0.00000000000E+00  0.10907920463E+04  0.11249373604E+04  0.27505776934E+03 0.  0.
         25    1    3    3    0    0 -0.33529435059E+01  0.60570235725E+02  0.42727176104E+03  0.44792985328E+03  0.12000000000E+03 0.  0.
         25    1    3    3    0    0  0.33529435059E+01 -0.60570235725E+02  0.66352028530E+03  0.67700750712E+03  0.12000000000E+03 0.  0.
<mgrwt>
<rscale>  0 0.27505777E+03</rscale>
<asrwt>0</asrwt>
<pdfrwt beam="1">  1        2 0.17044067E+00 0.27505777E+03</pdfrwt>
<pdfrwt beam="2">  1       -2 0.26265635E-02 0.27505777E+03</pdfrwt>
<totfact> 0.11650389E+04</totfact>
</mgrwt>
</event>
<event>
 5    1  0.1122238E+001  0.2768089E+03  0.7818608E-02  0.1097445E+00
          1   -1    0    0  501    0  0.00000000000E+00  0.00000000000E+00  0.23783364457E+03  0.23783364457E+03  0.00000000000E+00 0.  1.
         -1   -1    0    0    0  501 -0.00000000000E+00 -0.00000000000E+00 -0.80542842927E+02  0.80542842927E+02  0.00000000000E+00 0.  1.
         35    2    1    2    0    0  0.00000000000E+00  0.00000000000E+00  0.15729080164E+03  0.31837648749E+03  0.27680894405E+03 0.  0.
         25    1    3    3    0    0  0.32826469775E+02  0.29497362352E+02  0.17696034792E+02  0.12907680330E+03  0.12000000000E+03 0.  0.
         25    1    3    3    0    0 -0.32826469775E+02 -0.29497362352E+02  0.13959476685E+03  0.18929968419E+03  0.12000000000E+03 0.  0.
<mgrwt>
<rscale>  0 0.27680894E+03</rscale>
<asrwt>0</asrwt>
<pdfrwt beam="1">  1        1 0.36589791E-01 0.27680894E+03</pdfrwt>
<pdfrwt beam="2">  1       -1 0.12391207E-01 0.27680894E+03</pdfrwt>
<totfact> 0.50908127E+03</totfact>
</mgrwt>
</event>
<event>
 5    1  0.1122238E+001  0.2750089E+03  0.7818608E-02  0.1098447E+00
         -2   -1    0    0    0  501 -0.00000000000E+00  0.00000000000E+00  0.84873900769E+03  0.84873900769E+03  0.00000000000E+00 0.  1.
          2   -1    0    0  501    0  0.00000000000E+00 -0.00000000000E+00 -0.22277142905E+02  0.22277142905E+02  0.00000000000E+00 0.  1.
         35    2    1    2    0    0  0.00000000000E+00  0.00000000000E+00  0.82646186479E+03  0.87101615060E+03  0.27500894650E+03 0.  0.
         25    1    3    3    0    0  0.62052819004E+02 -0.20413052892E+02  0.36414041539E+03  0.38892864024E+03  0.12000000000E+03 0.  0.
         25    1    3    3    0    0 -0.62052819004E+02  0.20413052892E+02  0.46232144940E+03  0.48208751036E+03  0.12000000000E+03 0.  0.
<mgrwt>
<rscale>  0 0.27500895E+03</rscale>
<asrwt>0</asrwt>
<pdfrwt beam="1">  1        2 0.34272534E-02 0.27500895E+03</pdfrwt>
<pdfrwt beam="2">  1       -2 0.13057521E+00 0.27500895E+03</pdfrwt>
<totfact> 0.11783208E+03</totfact>
</mgrwt>
</event>
<event>
 5    1  0.1122238E+001  0.2751956E+03  0.7818608E-02  0.1098342E+00
          2   -1    0    0  501    0  0.00000000000E+00  0.00000000000E+00  0.50905488024E+03  0.50905488024E+03  0.00000000000E+00 0. -1.
         -2   -1    0    0    0  501 -0.00000000000E+00 -0.00000000000E+00 -0.37192767929E+02  0.37192767929E+02  0.00000000000E+00 0. -1.
         35    2    1    2    0    0  0.00000000000E+00  0.00000000000E+00  0.47186211231E+03  0.54624764817E+03  0.27519563967E+03 0.  0.
         25    1    3    3    0    0  0.29430381271E+02 -0.60550661922E+02  0.23750658462E+03  0.27448480420E+03  0.12000000000E+03 0.  0.
         25    1    3    3    0    0 -0.29430381271E+02  0.60550661922E+02  0.23435552769E+03  0.27176284396E+03  0.12000000000E+03 0.  0.
<mgrwt>
<rscale>  0 0.27519564E+03</rscale>
<asrwt>0</asrwt>
<pdfrwt beam="1">  1        2 0.78316131E-01 0.27519564E+03</pdfrwt>
<pdfrwt beam="2">  1       -2 0.57219647E-02 0.27519564E+03</pdfrwt>
<totfact> 0.96580103E+03</totfact>
</mgrwt>
</event>
<event>
 5    1  0.1122238E+001  0.2751658E+03  0.7818608E-02  0.1098359E+00
         -2   -1    0    0    0  501 -0.00000000000E+00  0.00000000000E+00  0.13167701254E+02  0.13167701254E+02  0.00000000000E+00 0.  1.
          2   -1    0    0  501    0  0.00000000000E+00 -0.00000000000E+00 -0.14375362243E+04  0.14375362243E+04  0.00000000000E+00 0.  1.
         35    2    1    2    0    0  0.00000000000E+00  0.00000000000E+00 -0.14243685231E+04  0.14507039256E+04  0.27516575037E+03 0.  0.
         25    1    3    3    0    0  0.22562427466E+02 -0.63141132669E+02 -0.74255352231E+03  0.75516991417E+03  0.12000000000E+03 0.  0.
         25    1    3    3    0    0 -0.22562427466E+02  0.63141132669E+02 -0.68181500074E+03  0.69553401139E+03  0.12000000000E+03 0.  0.
<mgrwt>
<rscale>  0 0.27516575E+03</rscale>
<asrwt>0</asrwt>
<pdfrwt beam="1">  1        2 0.22115957E+00 0.27516575E+03</pdfrwt>
<pdfrwt beam="2">  1       -2 0.20257988E-02 0.27516575E+03</pdfrwt>
<totfact> 0.11183379E+04</totfact>
</mgrwt>
</event>
<event>
 5    1  0.1122238E+001  0.2748226E+03  0.7818608E-02  0.1098551E+00
          2   -1    0    0  501    0  0.00000000000E+00  0.00000000000E+00  0.34335602460E+04  0.34335602460E+04  0.00000000000E+00 0.  1.
         -2   -1    0    0    0  501 -0.00000000000E+00 -0.00000000000E+00 -0.54992088974E+01  0.54992088974E+01  0.00000000000E+00 0.  1.
         35    2    1    2    0    0  0.00000000000E+00  0.00000000000E+00  0.34280610371E+04  0.34390594549E+04  0.27482259772E+03 0.  0.
         25    1    3    3    0    0  0.51516670109E+02  0.22119745849E+02  0.12561891594E+04  0.12631525856E+04  0.12000000000E+03 0.  0.
         25    1    3    3    0    0 -0.51516670109E+02 -0.22119745849E+02  0.21718718777E+04  0.21759068693E+04  0.12000000000E+03 0.  0.
<mgrwt>
<rscale>  0 0.27482260E+03</rscale>
<asrwt>0</asrwt>
<pdfrwt beam="1">  1        2 0.52823832E+00 0.27482260E+03</pdfrwt>
<pdfrwt beam="2">  1       -2 0.84603488E-03 0.27482260E+03</pdfrwt>
<totfact> 0.30478142E+03</totfact>
</mgrwt>
</event>
<event>
 5    1  0.1122238E+001  0.2731756E+03  0.7818608E-02  0.1099476E+00
          2   -1    0    0  501    0  0.00000000000E+00  0.00000000000E+00  0.17636670955E+04  0.17636670955E+04  0.00000000000E+00 0. -1.
         -2   -1    0    0    0  501 -0.00000000000E+00 -0.00000000000E+00 -0.10578092638E+02  0.10578092638E+02  0.00000000000E+00 0. -1.
         35    2    1    2    0    0  0.00000000000E+00  0.00000000000E+00  0.17530890028E+04  0.17742451881E+04  0.27317564986E+03 0.  0.
         25    1    3    3    0    0  0.20921411819E+02  0.59860256092E+02  0.77692084358E+03  0.78868685353E+03  0.12000000000E+03 0.  0.
         25    1    3    3    0    0 -0.20921411819E+02 -0.59860256092E+02  0.97616815924E+03  0.98555833457E+03  0.12000000000E+03 0.  0.
<mgrwt>
<rscale>  0 0.27317565E+03</rscale>
<asrwt>0</asrwt>
<pdfrwt beam="1">  1        2 0.27133316E+00 0.27317565E+03</pdfrwt>
<pdfrwt beam="2">  1       -2 0.16274003E-02 0.27317565E+03</pdfrwt>
<totfact> 0.10352122E+04</totfact>
</mgrwt>
</event>
<event>
 5    1  0.1122238E+001  0.2751510E+03  0.7818608E-02  0.1098367E+00
         -1   -1    0    0    0  501 -0.00000000000E+00  0.00000000000E+00  0.88564387083E+03  0.88564387083E+03  0.00000000000E+00 0.  1.
          1   -1    0    0  501    0  0.00000000000E+00 -0.00000000000E+00 -0.21370911336E+02  0.21370911336E+02  0.00000000000E+00 0.  1.
         35    2    1    2    0    0  0.00000000000E+00  0.00000000000E+00  0.86427295949E+03  0.90701478217E+03  0.27515098865E+03 0.  0.
         25    1    3    3    0    0 -0.18466781267E+02 -0.12051120839E+02  0.64168041248E+03  0.65317685452E+03  0.12000000000E+03 0.  0.
         25    1    3    3    0    0  0.18466781267E+02  0.12051120839E+02  0.22259254701E+03  0.25383792764E+03  0.12000000000E+03 0.  0.
<mgrwt>
<rscale>  0 0.27515099E+03</rscale>
<asrwt>0</asrwt>
<pdfrwt beam="1">  1        1 0.32878332E-02 0.27515099E+03</pdfrwt>
<pdfrwt beam="2">  1       -1 0.13625288E+00 0.27515099E+03</pdfrwt>
<totfact> 0.14500278E+03</totfact>
</mgrwt>
</event>
<event>
 5    1  0.1122238E+001  0.2749898E+03  0.7818608E-02  0.1098457E+00
         -2   -1    0    0    0  501 -0.00000000000E+00  0.00000000000E+00  0.27448523449E+02  0.27448523449E+02  0.00000000000E+00 0. -1.
          2   -1    0    0  501    0  0.00000000000E+00 -0.00000000000E+00 -0.68873825624E+03  0.68873825624E+03  0.00000000000E+00 0. -1.
         35    2    1    2    0    0  0.00000000000E+00  0.00000000000E+00 -0.66128973279E+03  0.71618677969E+03  0.27498980473E+03 0.  0.
         25    1    3    3    0    0 -0.57545208142E+02 -0.17671356102E+01 -0.42049800650E+03  0.44105911987E+03  0.12000000000E+03 0.  0.
         25    1    3    3    0    0  0.57545208142E+02  0.17671356102E+01 -0.24079172628E+03  0.27512765982E+03  0.12000000000E+03 0.  0.
<mgrwt>
<rscale>  0 0.27498980E+03</rscale>
<asrwt>0</asrwt>
<pdfrwt beam="1">  1        2 0.10595971E+00 0.27498980E+03</pdfrwt>
<pdfrwt beam="2">  1       -2 0.42228506E-02 0.27498980E+03</pdfrwt>
<totfact> 0.10787631E+04</totfact>
</mgrwt>
</event>
<event>
 5    1  0.1122238E+001  0.2739622E+03  0.7818608E-02  0.1099033E+00
         -1   -1    0    0    0  501 -0.00000000000E+00  0.00000000000E+00  0.12045176211E+02  0.12045176211E+02  0.00000000000E+00 0.  1.
          1   -1    0    0  501    0  0.00000000000E+00 -0.00000000000E+00 -0.15577871673E+04  0.15577871673E+04  0.00000000000E+00 0.  1.
         35    2    1    2    0    0  0.00000000000E+00  0.00000000000E+00 -0.15457419911E+04  0.15698323435E+04  0.27396219396E+03 0.  0.
         25    1    3    3    0    0 -0.26164429597E+02 -0.56131723050E+02 -0.90459779193E+03  0.91462151345E+03  0.12000000000E+03 0.  0.
         25    1    3    3    0    0  0.26164429597E+02  0.56131723050E+02 -0.64114419916E+03  0.65521083005E+03  0.12000000000E+03 0.  0.
<mgrwt>
<rscale>  0 0.27396219E+03</rscale>
<asrwt>0</asrwt>
<pdfrwt beam="1">  1        1 0.23965953E+00 0.27396219E+03</pdfrwt>
<pdfrwt beam="2">  1       -1 0.18531043E-02 0.27396219E+03</pdfrwt>
<totfact> 0.50240937E+03</totfact>
</mgrwt>
</event>
<event>
 5    1  0.1122238E+001  0.2742300E+03  0.7818608E-02  0.1098883E+00
          2   -1    0    0  501    0  0.00000000000E+00  0.00000000000E+00  0.11082099994E+04  0.11082099994E+04  0.00000000000E+00 0. -1.
         -2   -1    0    0    0  501 -0.00000000000E+00 -0.00000000000E+00 -0.16964768354E+02  0.16964768354E+02  0.00000000000E+00 0. -1.
         35    2    1    2    0    0  0.00000000000E+00  0.00000000000E+00  0.10912452310E+04  0.11251747677E+04  0.27423001970E+03 0.  0.
         25    1    3    3    0    0  0.26653199763E+02  0.60667478130E+02  0.53291647865E+03  0.55026439934E+03  0.12000000000E+03 0.  0.
         25    1    3    3    0    0 -0.26653199763E+02 -0.60667478130E+02  0.55832875235E+03  0.57491036837E+03  0.12000000000E+03 0.  0.
<mgrwt>
<rscale>  0 0.27423002E+03</rscale>
<asrwt>0</asrwt>
<pdfrwt beam="1">  1        2 0.17049379E+00 0.27423002E+03</pdfrwt>
<pdfrwt beam="2">  1       -2 0.26099652E-02 0.27423002E+03</pdfrwt>
<totfact> 0.11753823E+04</totfact>
</mgrwt>
</event>
<event>
 5    1  0.1122238E+001  0.2753322E+03  0.7818608E-02  0.1098266E+00
          2   -1    0    0  501    0  0.00000000000E+00  0.00000000000E+00  0.19597423279E+04  0.19597423279E+04  0.00000000000E+00 0.  1.
         -2   -1    0    0    0  501 -0.00000000000E+00 -0.00000000000E+00 -0.96706340281E+01  0.96706340281E+01  0.00000000000E+00 0.  1.
         35    2    1    2    0    0  0.00000000000E+00  0.00000000000E+00  0.19500716939E+04  0.19694129619E+04  0.27533216915E+03 0.  0.
         25    1    3    3    0    0 -0.57509330366E+02 -0.20388582695E+02  0.11809753548E+04  0.11886234922E+04  0.12000000000E+03 0.  0.
         25    1    3    3    0    0  0.57509330366E+02  0.20388582695E+02  0.76909633905E+03  0.78078946979E+03  0.12000000000E+03 0.  0.
<mgrwt>
<rscale>  0 0.27533217E+03</rscale>
<asrwt>0</asrwt>
<pdfrwt beam="1">  1        2 0.30149850E+00 0.27533217E+03</pdfrwt>
<pdfrwt beam="2">  1       -2 0.14877914E-02 0.27533217E+03</pdfrwt>
<totfact> 0.93143140E+03</totfact>
</mgrwt>
</event>
<event>
 5    1  0.1122238E+001  0.2747804E+03  0.7818608E-02  0.1098574E+00
         -2   -1    0    0    0  501 -0.00000000000E+00  0.00000000000E+00  0.24267753541E+03  0.24267753541E+03  0.00000000000E+00 0. -1.
          2   -1    0    0  501    0  0.00000000000E+00 -0.00000000000E+00 -0.77782478668E+02  0.77782478668E+02  0.00000000000E+00 0. -1.
         35    2    1    2    0    0  0.00000000000E+00  0.00000000000E+00  0.16489505674E+03  0.32046001407E+03  0.27478035025E+03 0.  0.
         25    1    3    3    0    0 -0.41378803540E+02  0.50207066500E+02  0.64263696844E+02  0.15087338281E+03  0.12000000000E+03 0.  0.
         25    1    3    3    0    0  0.41378803540E+02 -0.50207066500E+02  0.10063135989E+03  0.16958663126E+03  0.12000000000E+03 0.  0.
<mgrwt>
<rscale>  0 0.27478035E+03</rscale>
<asrwt>0</asrwt>
<pdfrwt beam="1">  1        2 0.11966535E-01 0.27478035E+03</pdfrwt>
<pdfrwt beam="2">  1       -2 0.37335005E-01 0.27478035E+03</pdfrwt>
<totfact> 0.34690046E+03</totfact>
</mgrwt>
</event>
<event>
 5    1  0.1122238E+001  0.2735270E+03  0.7818608E-02  0.1099278E+00
          2   -1    0    0  501    0  0.00000000000E+00  0.00000000000E+00  0.25351030447E+04  0.25351030447E+04  0.00000000000E+00 0. -1.
         -2   -1    0    0    0  501 -0.00000000000E+00 -0.00000000000E+00 -0.73781045000E+01  0.73781045000E+01  0.00000000000E+00 0. -1.
         35    2    1    2    0    0  0.00000000000E+00  0.00000000000E+00  0.25277249402E+04  0.25424811492E+04  0.27352700183E+03 0.  0.
         25    1    3    3    0    0  0.34644879254E+02  0.16929503767E+02  0.77048398648E+03  0.78072559147E+03  0.12000000000E+03 0.  0.
         25    1    3    3    0    0 -0.34644879254E+02 -0.16929503767E+02  0.17572409537E+04  0.17617555577E+04  0.12000000000E+03 0.  0.
<mgrwt>
<rscale>  0 0.27352700E+03</rscale>
<asrwt>0</asrwt>
<pdfrwt beam="1">  1        2 0.39001516E+00 0.27352700E+03</pdfrwt>
<pdfrwt beam="2">  1       -2 0.11350950E-02 0.27352700E+03</pdfrwt>
<totfact> 0.68019155E+03</totfact>
</mgrwt>
</event>
<event>
 5    1  0.1122238E+001  0.2754076E+03  0.7818608E-02  0.1098224E+00
         -2   -1    0    0    0  501 -0.00000000000E+00  0.00000000000E+00  0.20604161936E+02  0.20604161936E+02  0.00000000000E+00 0. -1.
          2   -1    0    0  501    0  0.00000000000E+00 -0.00000000000E+00 -0.92031561051E+03  0.92031561051E+03  0.00000000000E+00 0. -1.
         35    2    1    2    0    0  0.00000000000E+00  0.00000000000E+00 -0.89971144857E+03  0.94091977244E+03  0.27540756614E+03 0.  0.
         25    1    3    3    0    0  0.53266461146E+02  0.96621707141E+01 -0.31185182605E+03  0.33849997761E+03  0.12000000000E+03 0.  0.
         25    1    3    3    0    0 -0.53266461146E+02 -0.96621707141E+01 -0.58785962252E+03  0.60241979484E+03  0.12000000000E+03 0.  0.
<mgrwt>
<rscale>  0 0.27540757E+03</rscale>
<asrwt>0</asrwt>
<pdfrwt beam="1">  1        2 0.14158699E+00 0.27540757E+03</pdfrwt>
<pdfrwt beam="2">  1       -2 0.31698718E-02 0.27540757E+03</pdfrwt>
<totfact> 0.11464161E+04</totfact>
</mgrwt>
</event>
<event>
 5    1  0.1122238E+001  0.2751619E+03  0.7818608E-02  0.1098361E+00
         -1   -1    0    0    0  501 -0.00000000000E+00  0.00000000000E+00  0.16926923293E+02  0.16926923293E+02  0.00000000000E+00 0.  1.
          1   -1    0    0  501    0  0.00000000000E+00 -0.00000000000E+00 -0.11182488343E+04  0.11182488343E+04  0.00000000000E+00 0.  1.
         35    2    1    2    0    0  0.00000000000E+00  0.00000000000E+00 -0.11013219110E+04  0.11351757576E+04  0.27516185957E+03 0.  0.
         25    1    3    3    0    0 -0.40336909414E+02  0.46063488668E+02 -0.66584997020E+03  0.67934166225E+03  0.12000000000E+03 0.  0.
         25    1    3    3    0    0  0.40336909414E+02 -0.46063488668E+02 -0.43547194079E+03  0.45583409533E+03  0.12000000000E+03 0.  0.
<mgrwt>
<rscale>  0 0.27516186E+03</rscale>
<asrwt>0</asrwt>
<pdfrwt beam="1">  1        1 0.17203834E+00 0.27516186E+03</pdfrwt>
<pdfrwt beam="2">  1       -1 0.26041412E-02 0.27516186E+03</pdfrwt>
<totfact> 0.60845164E+03</totfact>
</mgrwt>
</event>
<event>
 5    1  0.1122238E+001  0.2750517E+03  0.7818608E-02  0.1098423E+00
         -2   -1    0    0    0  501 -0.00000000000E+00  0.00000000000E+00  0.45735561727E+02  0.45735561727E+02  0.00000000000E+00 0.  1.
          2   -1    0    0  501    0  0.00000000000E+00 -0.00000000000E+00 -0.41353728257E+03  0.41353728257E+03  0.00000000000E+00 0.  1.
         35    2    1    2    0    0  0.00000000000E+00  0.00000000000E+00 -0.36780172085E+03  0.45927284430E+03  0.27505170360E+03 0.  0.
         25    1    3    3    0    0 -0.47996465888E+02 -0.36864218791E+02 -0.13519828454E+03  0.19063369982E+03  0.12000000000E+03 0.  0.
         25    1    3    3    0    0  0.47996465888E+02  0.36864218791E+02 -0.23260343631E+03  0.26863914448E+03  0.12000000000E+03 0.  0.
<mgrwt>
<rscale>  0 0.27505170E+03</rscale>
<asrwt>0</asrwt>
<pdfrwt beam="1">  1        2 0.63621119E-01 0.27505170E+03</pdfrwt>
<pdfrwt beam="2">  1       -2 0.70362404E-02 0.27505170E+03</pdfrwt>
<totfact> 0.88380128E+03</totfact>
</mgrwt>
</event>
<event>
 5    1  0.1122238E+001  0.2753517E+03  0.7818608E-02  0.1098255E+00
          2   -1    0    0  501    0  0.00000000000E+00  0.00000000000E+00  0.25981411603E+02  0.25981411603E+02  0.00000000000E+00 0.  1.
         -2   -1    0    0    0  501 -0.00000000000E+00 -0.00000000000E+00 -0.72954615473E+03  0.72954615473E+03  0.00000000000E+00 0.  1.
         35    2    1    2    0    0  0.00000000000E+00  0.00000000000E+00 -0.70356474313E+03  0.75552756634E+03  0.27535169460E+03 0.  0.
         25    1    3    3    0    0 -0.44291905511E+02  0.50167648919E+02 -0.32785042966E+03  0.35547780538E+03  0.12000000000E+03 0.  0.
         25    1    3    3    0    0  0.44291905511E+02 -0.50167648919E+02 -0.37571431347E+03  0.40004976095E+03  0.12000000000E+03 0.  0.
<mgrwt>
<rscale>  0 0.27535169E+03</rscale>
<asrwt>0</asrwt>
<pdfrwt beam="1">  1        2 0.39971399E-02 0.27535169E+03</pdfrwt>
<pdfrwt beam="2">  1       -2 0.11223788E+00 0.27535169E+03</pdfrwt>
<totfact> 0.13839563E+03</totfact>
</mgrwt>
</event>
<event>
 5    1  0.1122238E+001  0.2793757E+03  0.7818608E-02  0.1096030E+00
          2   -1    0    0  501    0  0.00000000000E+00  0.00000000000E+00  0.95831942004E+02  0.95831942004E+02  0.00000000000E+00 0. -1.
         -2   -1    0    0    0  501 -0.00000000000E+00 -0.00000000000E+00 -0.20361374921E+03  0.20361374921E+03  0.00000000000E+00 0. -1.
         35    2    1    2    0    0  0.00000000000E+00  0.00000000000E+00 -0.10778180721E+03  0.29944569121E+03  0.27937573986E+03 0.  0.
         25    1    3    3    0    0  0.29603136060E+02 -0.12544144607E+02 -0.12234606811E+03  0.17436244324E+03  0.12000000000E+03 0.  0.
         25    1    3    3    0    0 -0.29603136060E+02  0.12544144607E+02  0.14564260909E+02  0.12508324798E+03  0.12000000000E+03 0.  0.
<mgrwt>
<rscale>  0 0.27937574E+03</rscale>
<asrwt>0</asrwt>
<pdfrwt beam="1">  1        2 0.14743376E-01 0.27937574E+03</pdfrwt>
<pdfrwt beam="2">  1       -2 0.31325192E-01 0.27937574E+03</pdfrwt>
<totfact> 0.37408157E+03</totfact>
</mgrwt>
</event>
<event>
 5    1  0.1122238E+001  0.2752422E+03  0.7818608E-02  0.1098316E+00
          2   -1    0    0  501    0  0.00000000000E+00  0.00000000000E+00  0.19928824619E+03  0.19928824619E+03  0.00000000000E+00 0.  1.
         -2   -1    0    0    0  501 -0.00000000000E+00 -0.00000000000E+00 -0.95036048159E+02  0.95036048159E+02  0.00000000000E+00 0.  1.
         35    2    1    2    0    0  0.00000000000E+00  0.00000000000E+00  0.10425219803E+03  0.29432429435E+03  0.27524220143E+03 0.  0.
         25    1    3    3    0    0 -0.41545462732E+02 -0.49830372162E+02  0.32686782764E+02  0.14027657406E+03  0.12000000000E+03 0.  0.
         25    1    3    3    0    0  0.41545462732E+02  0.49830372162E+02  0.71565415269E+02  0.15404772029E+03  0.12000000000E+03 0.  0.
<mgrwt>
<rscale>  0 0.27524220E+03</rscale>
<asrwt>0</asrwt>
<pdfrwt beam="1">  1        2 0.30659730E-01 0.27524220E+03</pdfrwt>
<pdfrwt beam="2">  1       -2 0.14620930E-01 0.27524220E+03</pdfrwt>
<totfact> 0.60695701E+03</totfact>
</mgrwt>
</event>
<event>
 5    1  0.1122238E+001  0.2749436E+03  0.7818608E-02  0.1098483E+00
          2   -1    0    0  501    0  0.00000000000E+00  0.00000000000E+00  0.28106623990E+02  0.28106623990E+02  0.00000000000E+00 0. -1.
         -2   -1    0    0    0  501 -0.00000000000E+00 -0.00000000000E+00 -0.67238568343E+03  0.67238568343E+03  0.00000000000E+00 0. -1.
         35    2    1    2    0    0  0.00000000000E+00  0.00000000000E+00 -0.64427905944E+03  0.70049230742E+03  0.27494356934E+03 0.  0.
         25    1    3    3    0    0 -0.57178136898E+02 -0.32200414169E+02 -0.28681038292E+03  0.31775210741E+03  0.12000000000E+03 0.  0.
         25    1    3    3    0    0  0.57178136898E+02  0.32200414169E+02 -0.35746867652E+03  0.38274020001E+03  0.12000000000E+03 0.  0.
<mgrwt>
<rscale>  0 0.27494357E+03</rscale>
<asrwt>0</asrwt>
<pdfrwt beam="1">  1        2 0.43240962E-02 0.27494357E+03</pdfrwt>
<pdfrwt beam="2">  1       -2 0.10344395E+00 0.27494357E+03</pdfrwt>
<totfact> 0.15107837E+03</totfact>
</mgrwt>
</event>
<event>
 5    1  0.1122238E+001  0.2745744E+03  0.7818608E-02  0.1098690E+00
          1   -1    0    0  501    0  0.00000000000E+00  0.00000000000E+00  0.88993507807E+03  0.88993507807E+03  0.00000000000E+00 0.  1.
         -1   -1    0    0    0  501 -0.00000000000E+00 -0.00000000000E+00 -0.21178815121E+02  0.21178815121E+02  0.00000000000E+00 0.  1.
         35    2    1    2    0    0  0.00000000000E+00  0.00000000000E+00  0.86875626295E+03  0.91111389319E+03  0.27457436507E+03 0.  0.
         25    1    3    3    0    0 -0.49904423959E+02  0.44180249577E+02  0.44210658755E+03  0.46292610721E+03  0.12000000000E+03 0.  0.
         25    1    3    3    0    0  0.49904423959E+02 -0.44180249577E+02  0.42664967539E+03  0.44818778597E+03  0.12000000000E+03 0.  0.
<mgrwt>
<rscale>  0 0.27457437E+03</rscale>
<asrwt>0</asrwt>
<pdfrwt beam="1">  1        1 0.13691306E+00 0.27457437E+03</pdfrwt>
<pdfrwt beam="2">  1       -1 0.32582799E-02 0.27457437E+03</pdfrwt>
<totfact> 0.64831172E+03</totfact>
</mgrwt>
</event>
<event>
 5    1  0.1122238E+001  0.2758909E+03  0.7818608E-02  0.1097955E+00
          4   -1    0    0  501    0  0.00000000000E+00  0.00000000000E+00  0.56586418389E+03  0.56586418389E+03  0.00000000000E+00 0.  1.
         -4   -1    0    0    0  501 -0.00000000000E+00 -0.00000000000E+00 -0.33628106392E+02  0.33628106392E+02  0.00000000000E+00 0.  1.
         35    2    1    2    0    0  0.00000000000E+00  0.00000000000E+00  0.53223607749E+03  0.59949229028E+03  0.27589085508E+03 0.  0.
         25    1    3    3    0    0 -0.12073717247E+02 -0.61595517946E+02  0.20907457933E+03  0.24910231272E+03  0.12000000000E+03 0.  0.
         25    1    3    3    0    0  0.12073717247E+02  0.61595517946E+02  0.32316149816E+03  0.35038997756E+03  0.12000000000E+03 0.  0.
<mgrwt>
<rscale>  0 0.27589086E+03</rscale>
<asrwt>0</asrwt>
<pdfrwt beam="1">  1        4 0.87056021E-01 0.27589086E+03</pdfrwt>
<pdfrwt beam="2">  1       -4 0.51735552E-02 0.27589086E+03</pdfrwt>
<totfact> 0.49734023E+02</totfact>
</mgrwt>
</event>
<event>
 5    1  0.1122238E+001  0.2754215E+03  0.7818608E-02  0.1098216E+00
         -1   -1    0    0    0  501 -0.00000000000E+00  0.00000000000E+00  0.24443245951E+02  0.24443245951E+02  0.00000000000E+00 0. -1.
          1   -1    0    0  501    0  0.00000000000E+00 -0.00000000000E+00 -0.77584839768E+03  0.77584839768E+03  0.00000000000E+00 0. -1.
         35    2    1    2    0    0  0.00000000000E+00  0.00000000000E+00 -0.75140515172E+03  0.80029164363E+03  0.27542151844E+03 0.  0.
         25    1    3    3    0    0 -0.61757491422E+02 -0.27390757181E+02 -0.37538587573E+03  0.39984846758E+03  0.12000000000E+03 0.  0.
         25    1    3    3    0    0  0.61757491422E+02  0.27390757181E+02 -0.37601927599E+03  0.40044317605E+03  0.12000000000E+03 0.  0.
<mgrwt>
<rscale>  0 0.27542152E+03</rscale>
<asrwt>0</asrwt>
<pdfrwt beam="1">  1        1 0.11936126E+00 0.27542152E+03</pdfrwt>
<pdfrwt beam="2">  1       -1 0.37605004E-02 0.27542152E+03</pdfrwt>
<totfact> 0.65007628E+03</totfact>
</mgrwt>
</event>
<event>
 5    1  0.1122238E+001  0.2758325E+03  0.7818608E-02  0.1097987E+00
          2   -1    0    0  501    0  0.00000000000E+00  0.00000000000E+00  0.82252863306E+02  0.82252863306E+02  0.00000000000E+00 0. -1.
         -2   -1    0    0    0  501 -0.00000000000E+00 -0.00000000000E+00 -0.23124894147E+03  0.23124894147E+03  0.00000000000E+00 0. -1.
         35    2    1    2    0    0  0.00000000000E+00  0.00000000000E+00 -0.14899607816E+03  0.31350180478E+03  0.27583246780E+03 0.  0.
         25    1    3    3    0    0  0.35810953634E+02  0.57645612407E+02 -0.78964980977E+02  0.15887387844E+03  0.12000000000E+03 0.  0.
         25    1    3    3    0    0 -0.35810953634E+02 -0.57645612407E+02 -0.70031097188E+02  0.15462792634E+03  0.12000000000E+03 0.  0.
<mgrwt>
<rscale>  0 0.27583247E+03</rscale>
<asrwt>0</asrwt>
<pdfrwt beam="1">  1        2 0.12654287E-01 0.27583247E+03</pdfrwt>
<pdfrwt beam="2">  1       -2 0.35576760E-01 0.27583247E+03</pdfrwt>
<totfact> 0.35492394E+03</totfact>
</mgrwt>
</event>
<event>
 5    1  0.1122238E+001  0.2743004E+03  0.7818608E-02  0.1098843E+00
          3   -1    0    0  501    0  0.00000000000E+00  0.00000000000E+00  0.69073578237E+03  0.69073578237E+03  0.00000000000E+00 0.  1.
         -3   -1    0    0    0  501 -0.00000000000E+00 -0.00000000000E+00 -0.27232082315E+02  0.27232082315E+02  0.00000000000E+00 0.  1.
         35    2    1    2    0    0  0.00000000000E+00  0.00000000000E+00  0.66350370005E+03  0.71796786469E+03  0.27430037319E+03 0.  0.
         25    1    3    3    0    0 -0.46613812634E+02  0.47251162767E+02  0.33739837408E+03  0.36420211799E+03  0.12000000000E+03 0.  0.
         25    1    3    3    0    0  0.46613812634E+02 -0.47251162767E+02  0.32610532597E+03  0.35376574670E+03  0.12000000000E+03 0.  0.
<mgrwt>
<rscale>  0 0.27430037E+03</rscale>
<asrwt>0</asrwt>
<pdfrwt beam="1">  1        3 0.10626703E+00 0.27430037E+03</pdfrwt>
<pdfrwt beam="2">  1       -3 0.41895517E-02 0.27430037E+03</pdfrwt>
<totfact> 0.60344521E+02</totfact>
</mgrwt>
</event>
<event>
 5    1  0.1122238E+001  0.2749088E+03  0.7818608E-02  0.1098503E+00
         -1   -1    0    0    0  501 -0.00000000000E+00  0.00000000000E+00  0.19338562088E+03  0.19338562088E+03  0.00000000000E+00 0.  1.
          1   -1    0    0  501    0  0.00000000000E+00 -0.00000000000E+00 -0.97699657311E+02  0.97699657311E+02  0.00000000000E+00 0.  1.
         35    2    1    2    0    0  0.00000000000E+00  0.00000000000E+00  0.95685963574E+02  0.29108527819E+03  0.27490877679E+03 0.  0.
         25    1    3    3    0    0  0.34519312129E+02 -0.56623054578E+02  0.37470875558E+02  0.14213310570E+03  0.12000000000E+03 0.  0.
         25    1    3    3    0    0 -0.34519312129E+02  0.56623054578E+02  0.58215088016E+02  0.14895217250E+03  0.12000000000E+03 0.  0.
<mgrwt>
<rscale>  0 0.27490878E+03</rscale>
<asrwt>0</asrwt>
<pdfrwt beam="1">  1        1 0.15030717E-01 0.27490878E+03</pdfrwt>
<pdfrwt beam="2">  1       -1 0.29751634E-01 0.27490878E+03</pdfrwt>
<totfact> 0.38305640E+03</totfact>
</mgrwt>
</event>
<event>
 5    1  0.1122238E+001  0.2743747E+03  0.7818608E-02  0.1098802E+00
         -1   -1    0    0    0  501 -0.00000000000E+00  0.00000000000E+00  0.64135518695E+02  0.64135518695E+02  0.00000000000E+00 0.  1.
          1   -1    0    0  501    0  0.00000000000E+00 -0.00000000000E+00 -0.29344700191E+03  0.29344700191E+03  0.00000000000E+00 0.  1.
         35    2    1    2    0    0  0.00000000000E+00  0.00000000000E+00 -0.22931148322E+03  0.35758252061E+03  0.27437474867E+03 0.  0.
         25    1    3    3    0    0 -0.64097854958E+02  0.99680865682E+01 -0.95658565810E+02  0.16660870017E+03  0.12000000000E+03 0.  0.
         25    1    3    3    0    0  0.64097854958E+02 -0.99680865682E+01 -0.13365291741E+03  0.19097382044E+03  0.12000000000E+03 0.  0.
<mgrwt>
<rscale>  0 0.27437475E+03</rscale>
<asrwt>0</asrwt>
<pdfrwt beam="1">  1        1 0.45145693E-01 0.27437475E+03</pdfrwt>
<pdfrwt beam="2">  1       -1 0.98670028E-02 0.27437475E+03</pdfrwt>
<totfact> 0.55705168E+03</totfact>
</mgrwt>
</event>
<event>
 5    1  0.1122238E+001  0.2746403E+03  0.7818608E-02  0.1098653E+00
         -2   -1    0    0    0  501 -0.00000000000E+00  0.00000000000E+00  0.53330386999E+01  0.53330386999E+01  0.00000000000E+00 0.  1.
          2   -1    0    0  501    0  0.00000000000E+00 -0.00000000000E+00 -0.35358496830E+04  0.35358496830E+04  0.00000000000E+00 0.  1.
         35    2    1    2    0    0  0.00000000000E+00  0.00000000000E+00 -0.35305166443E+04  0.35411827217E+04  0.27464029709E+03 0.  0.
         25    1    3    3    0    0  0.59038526401E+02 -0.21587297094E+02 -0.14754283195E+04  0.14816343291E+04  0.12000000000E+03 0.  0.
         25    1    3    3    0    0 -0.59038526401E+02  0.21587297094E+02 -0.20550883248E+04  0.20595483927E+04  0.12000000000E+03 0.  0.
<mgrwt>
<rscale>  0 0.27464030E+03</rscale>
<asrwt>0</asrwt>
<pdfrwt beam="1">  1        2 0.54397781E+00 0.27464030E+03</pdfrwt>
<pdfrwt beam="2">  1       -2 0.82046609E-03 0.27464030E+03</pdfrwt>
<totfact> 0.27276621E+03</totfact>
</mgrwt>
</event>
<event>
 5    1  0.1122238E+001  0.2754097E+03  0.7818608E-02  0.1098223E+00
          2   -1    0    0  501    0  0.00000000000E+00  0.00000000000E+00  0.14942417452E+03  0.14942417452E+03  0.00000000000E+00 0.  1.
         -2   -1    0    0    0  501 -0.00000000000E+00 -0.00000000000E+00 -0.12690462577E+03  0.12690462577E+03  0.00000000000E+00 0.  1.
         35    2    1    2    0    0  0.00000000000E+00  0.00000000000E+00  0.22519548744E+02  0.27632880029E+03  0.27540965088E+03 0.  0.
         25    1    3    3    0    0  0.34980636860E+02  0.14164733491E+02 -0.44948027269E+02  0.13358371826E+03  0.12000000000E+03 0.  0.
         25    1    3    3    0    0 -0.34980636860E+02 -0.14164733491E+02  0.67467576013E+02  0.14274508203E+03  0.12000000000E+03 0.  0.
<mgrwt>
<rscale>  0 0.27540965E+03</rscale>
<asrwt>0</asrwt>
<pdfrwt beam="1">  1        2 0.22988335E-01 0.27540965E+03</pdfrwt>
<pdfrwt beam="2">  1       -2 0.19523789E-01 0.27540965E+03</pdfrwt>
<totfact> 0.51488836E+03</totfact>
</mgrwt>
</event>
<event>
 5    1  0.1122238E+001  0.2757010E+03  0.7818608E-02  0.1098060E+00
         -2   -1    0    0    0  501 -0.00000000000E+00  0.00000000000E+00  0.22553062258E+02  0.22553062258E+02  0.00000000000E+00 0. -1.
          2   -1    0    0  501    0  0.00000000000E+00 -0.00000000000E+00 -0.84257987371E+03  0.84257987371E+03  0.00000000000E+00 0. -1.
         35    2    1    2    0    0  0.00000000000E+00  0.00000000000E+00 -0.82002681145E+03  0.86513293597E+03  0.27570097098E+03 0.  0.
         25    1    3    3    0    0  0.12356383886E+02  0.59048114636E+02 -0.31261607965E+03  0.34024722383E+03  0.12000000000E+03 0.  0.
         25    1    3    3    0    0 -0.12356383886E+02 -0.59048114636E+02 -0.50741073180E+03  0.52488571214E+03  0.12000000000E+03 0.  0.
<mgrwt>
<rscale>  0 0.27570097E+03</rscale>
<asrwt>0</asrwt>
<pdfrwt beam="1">  1        2 0.12962765E+00 0.27570097E+03</pdfrwt>
<pdfrwt beam="2">  1       -2 0.34697026E-02 0.27570097E+03</pdfrwt>
<totfact> 0.11260367E+04</totfact>
</mgrwt>
</event>
<event>
 5    1  0.1122238E+001  0.2752769E+03  0.7818608E-02  0.1098297E+00
         -2   -1    0    0    0  501 -0.00000000000E+00  0.00000000000E+00  0.45032425371E+02  0.45032425371E+02  0.00000000000E+00 0. -1.
          2   -1    0    0  501    0  0.00000000000E+00 -0.00000000000E+00 -0.42068238739E+03  0.42068238739E+03  0.00000000000E+00 0. -1.
         35    2    1    2    0    0  0.00000000000E+00  0.00000000000E+00 -0.37564996202E+03  0.46571481276E+03  0.27527693848E+03 0.  0.
         25    1    3    3    0    0  0.19752432147E+02 -0.38672057029E+00 -0.29686491088E+03  0.32081004261E+03  0.12000000000E+03 0.  0.
         25    1    3    3    0    0 -0.19752432147E+02  0.38672057029E+00 -0.78785051136E+02  0.14490477015E+03  0.12000000000E+03 0.  0.
<mgrwt>
<rscale>  0 0.27527694E+03</rscale>
<asrwt>0</asrwt>
<pdfrwt beam="1">  1        2 0.64720366E-01 0.27527694E+03</pdfrwt>
<pdfrwt beam="2">  1       -2 0.69280656E-02 0.27527694E+03</pdfrwt>
<totfact> 0.88852023E+03</totfact>
</mgrwt>
</event>
<event>
 5    1  0.1122238E+001  0.2747760E+03  0.7818608E-02  0.1098577E+00
          2   -1    0    0  501    0  0.00000000000E+00  0.00000000000E+00  0.27478718116E+03  0.27478718116E+03  0.00000000000E+00 0.  1.
         -2   -1    0    0    0  501 -0.00000000000E+00 -0.00000000000E+00 -0.68691209172E+02  0.68691209172E+02  0.00000000000E+00 0.  1.
         35    2    1    2    0    0  0.00000000000E+00  0.00000000000E+00  0.20609597199E+03  0.34347839034E+03  0.27477600870E+03 0.  0.
         25    1    3    3    0    0  0.18208148448E+02 -0.30939120908E+02  0.17361326337E+03  0.21408019780E+03  0.12000000000E+03 0.  0.
         25    1    3    3    0    0 -0.18208148448E+02  0.30939120908E+02  0.32482708625E+02  0.12939819254E+03  0.12000000000E+03 0.  0.
<mgrwt>
<rscale>  0 0.27477601E+03</rscale>
<asrwt>0</asrwt>
<pdfrwt beam="1">  1        2 0.42274950E-01 0.27477601E+03</pdfrwt>
<pdfrwt beam="2">  1       -2 0.10567878E-01 0.27477601E+03</pdfrwt>
<totfact> 0.72499910E+03</totfact>
</mgrwt>
</event>
<event>
 5    1  0.1122238E+001  0.2750507E+03  0.7818608E-02  0.1098423E+00
         -2   -1    0    0    0  501 -0.00000000000E+00  0.00000000000E+00  0.44610320801E+03  0.44610320801E+03  0.00000000000E+00 0.  1.
          2   -1    0    0  501    0  0.00000000000E+00 -0.00000000000E+00 -0.42396516591E+02  0.42396516591E+02  0.00000000000E+00 0.  1.
         35    2    1    2    0    0  0.00000000000E+00  0.00000000000E+00  0.40370669142E+03  0.48849972460E+03  0.27505070122E+03 0.  0.
         25    1    3    3    0    0 -0.51276068405E+02 -0.37589861154E+02  0.24039736893E+03  0.27610347307E+03  0.12000000000E+03 0.  0.
         25    1    3    3    0    0  0.51276068405E+02  0.37589861154E+02  0.16330932249E+03  0.21239625153E+03  0.12000000000E+03 0.  0.
<mgrwt>
<rscale>  0 0.27505070E+03</rscale>
<asrwt>0</asrwt>
<pdfrwt beam="1">  1        2 0.65225413E-02 0.27505070E+03</pdfrwt>
<pdfrwt beam="2">  1       -2 0.68631259E-01 0.27505070E+03</pdfrwt>
<totfact> 0.21987283E+03</totfact>
</mgrwt>
</event>
<event>
 5    1  0.1122238E+001  0.2747130E+03  0.7818608E-02  0.1098612E+00
         -3   -1    0    0    0  501 -0.00000000000E+00  0.00000000000E+00  0.11602340426E+04  0.11602340426E+04  0.00000000000E+00 0. -1.
          3   -1    0    0  501    0  0.00000000000E+00 -0.00000000000E+00 -0.16261209863E+02  0.16261209863E+02  0.00000000000E+00 0. -1.
         35    2    1    2    0    0  0.00000000000E+00  0.00000000000E+00  0.11439728328E+04  0.11764952525E+04  0.27471300848E+03 0.  0.
         25    1    3    3    0    0  0.63127847168E+02 -0.97866273994E+01  0.65611658745E+03  0.67005214685E+03  0.12000000000E+03 0.  0.
         25    1    3    3    0    0 -0.63127847168E+02  0.97866273994E+01  0.48785624533E+03  0.50644310566E+03  0.12000000000E+03 0.  0.
<mgrwt>
<rscale>  0 0.27471301E+03</rscale>
<asrwt>0</asrwt>
<pdfrwt beam="1">  1        3 0.25017255E-02 0.27471301E+03</pdfrwt>
<pdfrwt beam="2">  1       -3 0.17849748E+00 0.27471301E+03</pdfrwt>
<totfact> 0.37236248E+02</totfact>
</mgrwt>
</event>
<event>
 5    1  0.1122238E+001  0.2750008E+03  0.7818608E-02  0.1098451E+00
         -2   -1    0    0    0  501 -0.00000000000E+00  0.00000000000E+00  0.13120341032E+02  0.13120341032E+02  0.00000000000E+00 0. -1.
          2   -1    0    0  501    0  0.00000000000E+00 -0.00000000000E+00 -0.14409965897E+04  0.14409965897E+04  0.00000000000E+00 0. -1.
         35    2    1    2    0    0  0.00000000000E+00  0.00000000000E+00 -0.14278762487E+04  0.14541169307E+04  0.27500084860E+03 0.  0.
         25    1    3    3    0    0 -0.46845011255E+02  0.45943239906E+02 -0.63894800260E+03  0.65342159928E+03  0.12000000000E+03 0.  0.
         25    1    3    3    0    0  0.46845011255E+02 -0.45943239906E+02 -0.78892824605E+03  0.80069533144E+03  0.12000000000E+03 0.  0.
<mgrwt>
<rscale>  0 0.27500085E+03</rscale>
<asrwt>0</asrwt>
<pdfrwt beam="1">  1        2 0.22169181E+00 0.27500085E+03</pdfrwt>
<pdfrwt beam="2">  1       -2 0.20185138E-02 0.27500085E+03</pdfrwt>
<totfact> 0.11194454E+04</totfact>
</mgrwt>
</event>
<event>
 5    1  0.1122238E+001  0.2749442E+03  0.7818608E-02  0.1098483E+00
          1   -1    0    0  501    0  0.00000000000E+00  0.00000000000E+00  0.41202755032E+03  0.41202755032E+03  0.00000000000E+00 0. -1.
         -1   -1    0    0    0  501 -0.00000000000E+00 -0.00000000000E+00 -0.45867272048E+02  0.45867272048E+02  0.00000000000E+00 0. -1.
         35    2    1    2    0    0  0.00000000000E+00  0.00000000000E+00  0.36616027827E+03  0.45789482236E+03  0.27494421064E+03 0.  0.
         25    1    3    3    0    0  0.22871223438E+02 -0.52252039963E+02  0.12431190213E+03  0.18195278935E+03  0.12000000000E+03 0.  0.
         25    1    3    3    0    0 -0.22871223438E+02  0.52252039963E+02  0.24184837614E+03  0.27594203301E+03  0.12000000000E+03 0.  0.
<mgrwt>
<rscale>  0 0.27494421E+03</rscale>
<asrwt>0</asrwt>
<pdfrwt beam="1">  1        1 0.63388851E-01 0.27494421E+03</pdfrwt>
<pdfrwt beam="2">  1       -1 0.70565037E-02 0.27494421E+03</pdfrwt>
<totfact> 0.60504960E+03</totfact>
</mgrwt>
</event>
<event>
 5    1  0.1122238E+001  0.2751268E+03  0.7818608E-02  0.1098381E+00
          2   -1    0    0  501    0  0.00000000000E+00  0.00000000000E+00  0.17480080242E+04  0.17480080242E+04  0.00000000000E+00 0.  1.
         -2   -1    0    0    0  501 -0.00000000000E+00 -0.00000000000E+00 -0.10825857959E+02  0.10825857959E+02  0.00000000000E+00 0.  1.
         35    2    1    2    0    0  0.00000000000E+00  0.00000000000E+00  0.17371821663E+04  0.17588338822E+04  0.27512678228E+03 0.  0.
         25    1    3    3    0    0  0.47059832272E+02  0.47810899123E+02  0.83781469206E+03  0.84901941564E+03  0.12000000000E+03 0.  0.
         25    1    3    3    0    0 -0.47059832272E+02 -0.47810899123E+02  0.89936747421E+03  0.90981446655E+03  0.12000000000E+03 0.  0.
<mgrwt>
<rscale>  0 0.27512678E+03</rscale>
<asrwt>0</asrwt>
<pdfrwt beam="1">  1        2 0.26892409E+00 0.27512678E+03</pdfrwt>
<pdfrwt beam="2">  1       -2 0.16655180E-02 0.27512678E+03</pdfrwt>
<totfact> 0.10199374E+04</totfact>
</mgrwt>
</event>
<event>
 5    1  0.1122238E+001  0.2743160E+03  0.7818608E-02  0.1098835E+00
         -1   -1    0    0    0  501 -0.00000000000E+00  0.00000000000E+00  0.81134809435E+03  0.81134809435E+03  0.00000000000E+00 0. -1.
          1   -1    0    0  501    0  0.00000000000E+00 -0.00000000000E+00 -0.23186491134E+02  0.23186491134E+02  0.00000000000E+00 0. -1.
         35    2    1    2    0    0  0.00000000000E+00  0.00000000000E+00  0.78816160321E+03  0.83453458548E+03  0.27431598857E+03 0.  0.
         25    1    3    3    0    0 -0.11827896986E+02 -0.29460868440E+02  0.57158891010E+03  0.58491172331E+03  0.12000000000E+03 0.  0.
         25    1    3    3    0    0  0.11827896986E+02  0.29460868440E+02  0.21657269311E+03  0.24962286217E+03  0.12000000000E+03 0.  0.
<mgrwt>
<rscale>  0 0.27431599E+03</rscale>
<asrwt>0</asrwt>
<pdfrwt beam="1">  1        1 0.35671531E-02 0.27431599E+03</pdfrwt>
<pdfrwt beam="2">  1       -1 0.12482276E+00 0.27431599E+03</pdfrwt>
<totfact> 0.16050216E+03</totfact>
</mgrwt>
</event>
<event>
 5    1  0.1122238E+001  0.2739875E+03  0.7818608E-02  0.1099019E+00
          1   -1    0    0  501    0  0.00000000000E+00  0.00000000000E+00  0.39770899704E+03  0.39770899704E+03  0.00000000000E+00 0.  1.
         -1   -1    0    0    0  501 -0.00000000000E+00 -0.00000000000E+00 -0.47188476794E+02  0.47188476794E+02  0.00000000000E+00 0.  1.
         35    2    1    2    0    0  0.00000000000E+00  0.00000000000E+00  0.35052052025E+03  0.44489747384E+03  0.27398745795E+03 0.  0.
         25    1    3    3    0    0 -0.54358047735E+02  0.29936866538E+02  0.13836529978E+03  0.19338037521E+03  0.12000000000E+03 0.  0.
         25    1    3    3    0    0  0.54358047735E+02 -0.29936866538E+02  0.21215522047E+03  0.25151709863E+03  0.12000000000E+03 0.  0.
<mgrwt>
<rscale>  0 0.27398746E+03</rscale>
<asrwt>0</asrwt>
<pdfrwt beam="1">  1        1 0.61185997E-01 0.27398746E+03</pdfrwt>
<pdfrwt beam="2">  1       -1 0.72597659E-02 0.27398746E+03</pdfrwt>
<totfact> 0.60636451E+03</totfact>
</mgrwt>
</event>
<event>
 5    1  0.1122238E+001  0.2748522E+03  0.7818608E-02  0.1098534E+00
         -1   -1    0    0    0  501 -0.00000000000E+00  0.00000000000E+00  0.54119588290E+03  0.54119588290E+03  0.00000000000E+00 0.  1.
          1   -1    0    0  501    0  0.00000000000E+00 -0.00000000000E+00 -0.34896655877E+02  0.34896655877E+02  0.00000000000E+00 0.  1.
         35    2    1    2    0    0  0.00000000000E+00  0.00000000000E+00  0.50629922702E+03  0.57609253878E+03  0.27485215289E+03 0.  0.
         25    1    3    3    0    0  0.61065062653E+02 -0.27371906943E+02  0.25898966769E+03  0.29317880404E+03  0.12000000000E+03 0.  0.
         25    1    3    3    0    0 -0.61065062653E+02  0.27371906943E+02  0.24730955933E+03  0.28291373474E+03  0.12000000000E+03 0.  0.
<mgrwt>
<rscale>  0 0.27485215E+03</rscale>
<asrwt>0</asrwt>
<pdfrwt beam="1">  1        1 0.53687167E-02 0.27485215E+03</pdfrwt>
<pdfrwt beam="2">  1       -1 0.83260899E-01 0.27485215E+03</pdfrwt>
<totfact> 0.22578205E+03</totfact>
</mgrwt>
</event>
<event>
 5    1  0.1122238E+001  0.2757198E+03  0.7818608E-02  0.1098050E+00
         -1   -1    0    0    0  501 -0.00000000000E+00  0.00000000000E+00  0.21562833343E+02  0.21562833343E+02  0.00000000000E+00 0. -1.
          1   -1    0    0  501    0  0.00000000000E+00 -0.00000000000E+00 -0.88139387619E+03  0.88139387619E+03  0.00000000000E+00 0. -1.
         35    2    1    2    0    0  0.00000000000E+00  0.00000000000E+00 -0.85983104285E+03  0.90295670953E+03  0.27571977994E+03 0.  0.
         25    1    3    3    0    0 -0.24898571484E+02  0.54008177120E+02 -0.32286425780E+03  0.34953991335E+03  0.12000000000E+03 0.  0.
         25    1    3    3    0    0  0.24898571484E+02 -0.54008177120E+02 -0.53696678505E+03  0.55341679619E+03  0.12000000000E+03 0.  0.
<mgrwt>
<rscale>  0 0.27571978E+03</rscale>
<asrwt>0</asrwt>
<pdfrwt beam="1">  1        1 0.13559905E+00 0.27571978E+03</pdfrwt>
<pdfrwt beam="2">  1       -1 0.33173591E-02 0.27571978E+03</pdfrwt>
<totfact> 0.64127825E+03</totfact>
</mgrwt>
</event>
<event>
 5    1  0.1122238E+001  0.2745686E+03  0.7818608E-02  0.1098693E+00
          2   -1    0    0  501    0  0.00000000000E+00  0.00000000000E+00  0.10463493707E+03  0.10463493707E+03  0.00000000000E+00 0.  1.
         -2   -1    0    0    0  501 -0.00000000000E+00 -0.00000000000E+00 -0.18012134726E+03  0.18012134726E+03  0.00000000000E+00 0.  1.
         35    2    1    2    0    0  0.00000000000E+00  0.00000000000E+00 -0.75486410196E+02  0.28475628433E+03  0.27456864960E+03 0.  0.
         25    1    3    3    0    0 -0.52939997141E+02  0.38030344539E+02 -0.23148550543E+02  0.13850922639E+03  0.12000000000E+03 0.  0.
         25    1    3    3    0    0  0.52939997141E+02 -0.38030344539E+02 -0.52337859653E+02  0.14624705794E+03  0.12000000000E+03 0.  0.
<mgrwt>
<rscale>  0 0.27456865E+03</rscale>
<asrwt>0</asrwt>
<pdfrwt beam="1">  1        2 0.16097683E-01 0.27456865E+03</pdfrwt>
<pdfrwt beam="2">  1       -2 0.27710976E-01 0.27456865E+03</pdfrwt>
<totfact> 0.42077351E+03</totfact>
</mgrwt>
</event>
<event>
 5    1  0.1122238E+001  0.2759175E+03  0.7818608E-02  0.1097940E+00
          1   -1    0    0  501    0  0.00000000000E+00  0.00000000000E+00  0.19531578596E+03  0.19531578596E+03  0.00000000000E+00 0. -1.
         -1   -1    0    0    0  501 -0.00000000000E+00 -0.00000000000E+00 -0.97445349040E+02  0.97445349040E+02  0.00000000000E+00 0. -1.
         35    2    1    2    0    0  0.00000000000E+00  0.00000000000E+00  0.97870436923E+02  0.29276113500E+03  0.27591748720E+03 0.  0.
         25    1    3    3    0    0 -0.17470871460E+02  0.24389408947E+02 -0.15888874655E+02  0.12470978693E+03  0.12000000000E+03 0.  0.
         25    1    3    3    0    0  0.17470871460E+02 -0.24389408947E+02  0.11375931158E+03  0.16805134807E+03  0.12000000000E+03 0.  0.
<mgrwt>
<rscale>  0 0.27591749E+03</rscale>
<asrwt>0</asrwt>
<pdfrwt beam="1">  1        1 0.30048582E-01 0.27591749E+03</pdfrwt>
<pdfrwt beam="2">  1       -1 0.14991592E-01 0.27591749E+03</pdfrwt>
<totfact> 0.48305853E+03</totfact>
</mgrwt>
</event>
<event>
 5    1  0.1122238E+001  0.2740594E+03  0.7818608E-02  0.1098979E+00
         -1   -1    0    0    0  501 -0.00000000000E+00  0.00000000000E+00  0.23072827275E+02  0.23072827275E+02  0.00000000000E+00 0. -1.
          1   -1    0    0  501    0  0.00000000000E+00 -0.00000000000E+00 -0.81382021740E+03  0.81382021740E+03  0.00000000000E+00 0. -1.
         35    2    1    2    0    0  0.00000000000E+00  0.00000000000E+00 -0.79074739013E+03  0.83689304467E+03  0.27405936079E+03 0.  0.
         25    1    3    3    0    0  0.63620739322E+02  0.15523726327E+02 -0.36663834089E+03  0.39129561403E+03  0.12000000000E+03 0.  0.
         25    1    3    3    0    0 -0.63620739322E+02 -0.15523726327E+02 -0.42410904924E+03  0.44559743064E+03  0.12000000000E+03 0.  0.
<mgrwt>
<rscale>  0 0.27405936E+03</rscale>
<asrwt>0</asrwt>
<pdfrwt beam="1">  1        1 0.12520309E+00 0.27405936E+03</pdfrwt>
<pdfrwt beam="2">  1       -1 0.35496663E-02 0.27405936E+03</pdfrwt>
<totfact> 0.65797562E+03</totfact>
</mgrwt>
</event>
<event>
 5    1  0.1122238E+001  0.2751483E+03  0.7818608E-02  0.1098369E+00
          2   -1    0    0  501    0  0.00000000000E+00  0.00000000000E+00  0.11606666277E+04  0.11606666277E+04  0.00000000000E+00 0.  1.
         -2   -1    0    0    0  501 -0.00000000000E+00 -0.00000000000E+00 -0.16306701263E+02  0.16306701263E+02  0.00000000000E+00 0.  1.
         35    2    1    2    0    0  0.00000000000E+00  0.00000000000E+00  0.11443599264E+04  0.11769733289E+04  0.27514827976E+03 0.  0.
         25    1    3    3    0    0  0.39810167112E+02  0.22883925067E+02  0.78252815926E+03  0.79300620645E+03  0.12000000000E+03 0.  0.
         25    1    3    3    0    0 -0.39810167112E+02 -0.22883925067E+02  0.36183176715E+03  0.38396712249E+03  0.12000000000E+03 0.  0.
<mgrwt>
<rscale>  0 0.27514828E+03</rscale>
<asrwt>0</asrwt>
<pdfrwt beam="1">  1        2 0.17856403E+00 0.27514828E+03</pdfrwt>
<pdfrwt beam="2">  1       -2 0.25087242E-02 0.27514828E+03</pdfrwt>
<totfact> 0.11620595E+04</totfact>
</mgrwt>
</event>
<event>
 5    1  0.1122238E+001  0.2746049E+03  0.7818608E-02  0.1098673E+00
         -1   -1    0    0    0  501 -0.00000000000E+00  0.00000000000E+00  0.16474274111E+03  0.16474274111E+03  0.00000000000E+00 0.  1.
          1   -1    0    0  501    0  0.00000000000E+00 -0.00000000000E+00 -0.11443274978E+03  0.11443274978E+03  0.00000000000E+00 0.  1.
         35    2    1    2    0    0  0.00000000000E+00  0.00000000000E+00  0.50309991329E+02  0.27917549089E+03  0.27460491527E+03 0.  0.
         25    1    3    3    0    0  0.30291524845E+02  0.51400884817E+02 -0.52142173745E+01  0.13411493392E+03  0.12000000000E+03 0.  0.
         25    1    3    3    0    0 -0.30291524845E+02 -0.51400884817E+02  0.55524208704E+02  0.14506055697E+03  0.12000000000E+03 0.  0.
<mgrwt>
<rscale>  0 0.27460492E+03</rscale>
<asrwt>0</asrwt>
<pdfrwt beam="1">  1        1 0.17605038E-01 0.27460492E+03</pdfrwt>
<pdfrwt beam="2">  1       -1 0.25345037E-01 0.27460492E+03</pdfrwt>
<totfact> 0.40806214E+03</totfact>
</mgrwt>
</event>
<event>
 5    1  0.1122238E+001  0.2741897E+03  0.7818608E-02  0.1098905E+00
          2   -1    0    0  501    0  0.00000000000E+00  0.00000000000E+00  0.95805272953E+03  0.95805272953E+03  0.00000000000E+00 0. -1.
         -2   -1    0    0    0  501 -0.00000000000E+00 -0.00000000000E+00 -0.19617915704E+02  0.19617915704E+02  0.00000000000E+00 0. -1.
         35    2    1    2    0    0  0.00000000000E+00  0.00000000000E+00  0.93843481382E+03  0.97767064523E+03  0.27418969848E+03 0.  0.
         25    1    3    3    0    0  0.39948768327E+01 -0.62199793169E+01  0.23430614233E+03  0.26335150563E+03  0.12000000000E+03 0.  0.
         25    1    3    3    0    0 -0.39948768327E+01  0.62199793169E+01  0.70412867149E+03  0.71431913960E+03  0.12000000000E+03 0.  0.
<mgrwt>
<rscale>  0 0.27418970E+03</rscale>
<asrwt>0</asrwt>
<pdfrwt beam="1">  1        2 0.14739269E+00 0.27418970E+03</pdfrwt>
<pdfrwt beam="2">  1       -2 0.30181416E-02 0.27418970E+03</pdfrwt>
<totfact> 0.11672781E+04</totfact>
</mgrwt>
</event>
<event>
 5    1  0.1122238E+001  0.2739376E+03  0.7818608E-02  0.1099047E+00
         -2   -1    0    0    0  501 -0.00000000000E+00  0.00000000000E+00  0.78205512236E+02  0.78205512236E+02  0.00000000000E+00 0. -1.
          2   -1    0    0  501    0  0.00000000000E+00 -0.00000000000E+00 -0.23988665551E+03  0.23988665551E+03  0.00000000000E+00 0. -1.
         35    2    1    2    0    0  0.00000000000E+00  0.00000000000E+00 -0.16168114328E+03  0.31809216775E+03  0.27393764818E+03 0.  0.
         25    1    3    3    0    0  0.53212034917E+02 -0.18468971082E+02 -0.40820362669E+02  0.13870445401E+03  0.12000000000E+03 0.  0.
         25    1    3    3    0    0 -0.53212034917E+02  0.18468971082E+02 -0.12086078061E+03  0.17938771374E+03  0.12000000000E+03 0.  0.
<mgrwt>
<rscale>  0 0.27393765E+03</rscale>
<asrwt>0</asrwt>
<pdfrwt beam="1">  1        2 0.36905639E-01 0.27393765E+03</pdfrwt>
<pdfrwt beam="2">  1       -2 0.12031617E-01 0.27393765E+03</pdfrwt>
<totfact> 0.68152464E+03</totfact>
</mgrwt>
</event>
<event>
 5    1  0.1122238E+001  0.2752034E+03  0.7818608E-02  0.1098338E+00
          2   -1    0    0  501    0  0.00000000000E+00  0.00000000000E+00  0.23028353025E+03  0.23028353025E+03  0.00000000000E+00 0. -1.
         -2   -1    0    0    0  501 -0.00000000000E+00 -0.00000000000E+00 -0.82221366012E+02  0.82221366012E+02  0.00000000000E+00 0. -1.
         35    2    1    2    0    0  0.00000000000E+00  0.00000000000E+00  0.14806216424E+03  0.31250489626E+03  0.27520338971E+03 0.  0.
         25    1    3    3    0    0 -0.47765611620E+02  0.38738028440E+02  0.10517139121E+03  0.17100646196E+03  0.12000000000E+03 0.  0.
         25    1    3    3    0    0  0.47765611620E+02 -0.38738028440E+02  0.42890773024E+02  0.14149843431E+03  0.12000000000E+03 0.  0.
<mgrwt>
<rscale>  0 0.27520339E+03</rscale>
<asrwt>0</asrwt>
<pdfrwt beam="1">  1        2 0.35428235E-01 0.27520339E+03</pdfrwt>
<pdfrwt beam="2">  1       -2 0.12649441E-01 0.27520339E+03</pdfrwt>
<totfact> 0.65702542E+03</totfact>
</mgrwt>
</event>
<event>
 5    1  0.1122238E+001  0.2753897E+03  0.7818608E-02  0.1098234E+00
         -3   -1    0    0    0  501 -0.00000000000E+00  0.00000000000E+00  0.14636306861E+03  0.14636306861E+03  0.00000000000E+00 0. -1.
          3   -1    0    0  501    0  0.00000000000E+00 -0.00000000000E+00 -0.12954000058E+03  0.12954000058E+03  0.00000000000E+00 0. -1.
         35    2    1    2    0    0  0.00000000000E+00  0.00000000000E+00  0.16823068025E+02  0.27590306919E+03  0.27538970201E+03 0.  0.
         25    1    3    3    0    0 -0.59468362793E+02 -0.31043981889E+02  0.16149727239E+02  0.13842336752E+03  0.12000000000E+03 0.  0.
         25    1    3    3    0    0  0.59468362793E+02  0.31043981889E+02  0.67334078512E+00  0.13747970167E+03  0.12000000000E+03 0.  0.
<mgrwt>
<rscale>  0 0.27538970E+03</rscale>
<asrwt>0</asrwt>
<pdfrwt beam="1">  1        3 0.19929231E-01 0.27538970E+03</pdfrwt>
<pdfrwt beam="2">  1       -3 0.22517395E-01 0.27538970E+03</pdfrwt>
<totfact> 0.10429628E+03</totfact>
</mgrwt>
</event>
<event>
 5    1  0.1122238E+001  0.2751063E+03  0.7818608E-02  0.1098392E+00
         -1   -1    0    0    0  501 -0.00000000000E+00  0.00000000000E+00  0.26507648414E+02  0.26507648414E+02  0.00000000000E+00 0.  1.
          1   -1    0    0  501    0  0.00000000000E+00 -0.00000000000E+00 -0.71378920250E+03  0.71378920250E+03  0.00000000000E+00 0.  1.
         35    2    1    2    0    0  0.00000000000E+00  0.00000000000E+00 -0.68728155409E+03  0.74029685092E+03  0.27510633015E+03 0.  0.
         25    1    3    3    0    0  0.26830638432E+01 -0.61987093225E+02 -0.27392108722E+03  0.30542161119E+03  0.12000000000E+03 0.  0.
         25    1    3    3    0    0 -0.26830638432E+01  0.61987093225E+02 -0.41336046686E+03  0.43487523972E+03  0.12000000000E+03 0.  0.
<mgrwt>
<rscale>  0 0.27510633E+03</rscale>
<asrwt>0</asrwt>
<pdfrwt beam="1">  1        1 0.10981374E+00 0.27510633E+03</pdfrwt>
<pdfrwt beam="2">  1       -1 0.40780993E-02 0.27510633E+03</pdfrwt>
<totfact> 0.65267996E+03</totfact>
</mgrwt>
</event>
<event>
 5    1  0.1122238E+001  0.2728124E+03  0.7818608E-02  0.1099681E+00
          1   -1    0    0  501    0  0.00000000000E+00  0.00000000000E+00  0.10077654976E+03  0.10077654976E+03  0.00000000000E+00 0. -1.
         -1   -1    0    0    0  501 -0.00000000000E+00 -0.00000000000E+00 -0.18463280066E+03  0.18463280066E+03  0.00000000000E+00 0. -1.
         35    2    1    2    0    0  0.00000000000E+00  0.00000000000E+00 -0.83856250897E+02  0.28540935042E+03  0.27281243831E+03 0.  0.
         25    1    3    3    0    0  0.64094474858E+02 -0.64552193622E+01 -0.49818600252E+02  0.14502297920E+03  0.12000000000E+03 0.  0.
         25    1    3    3    0    0 -0.64094474858E+02  0.64552193622E+01 -0.34037650645E+02  0.14038637123E+03  0.12000000000E+03 0.  0.
<mgrwt>
<rscale>  0 0.27281244E+03</rscale>
<asrwt>0</asrwt>
<pdfrwt beam="1">  1        1 0.15504085E-01 0.27281244E+03</pdfrwt>
<pdfrwt beam="2">  1       -1 0.28405046E-01 0.27281244E+03</pdfrwt>
<totfact> 0.39773499E+03</totfact>
</mgrwt>
</event>
<event>
 5    1  0.1122238E+001  0.2737993E+03  0.7818608E-02  0.1099125E+00
          4   -1    0    0  501    0  0.00000000000E+00  0.00000000000E+00  0.16375829240E+03  0.16375829240E+03  0.00000000000E+00 0. -1.
         -4   -1    0    0    0  501 -0.00000000000E+00 -0.00000000000E+00 -0.11444618827E+03  0.11444618827E+03  0.00000000000E+00 0. -1.
         35    2    1    2    0    0  0.00000000000E+00  0.00000000000E+00  0.49312104125E+02  0.27820448067E+03  0.27379928680E+03 0.  0.
         25    1    3    3    0    0 -0.37700766093E+02  0.30960500437E+00  0.79563131738E+02  0.14883459125E+03  0.12000000000E+03 0.  0.
         25    1    3    3    0    0  0.37700766093E+02 -0.30960500437E+00 -0.30251027613E+02  0.12936988943E+03  0.12000000000E+03 0.  0.
<mgrwt>
<rscale>  0 0.27379929E+03</rscale>
<asrwt>0</asrwt>
<pdfrwt beam="1">  1        4 0.25193583E-01 0.27379929E+03</pdfrwt>
<pdfrwt beam="2">  1       -4 0.17607106E-01 0.27379929E+03</pdfrwt>
<totfact> 0.78543289E+02</totfact>
</mgrwt>
</event>
<event>
 5    1  0.1122238E+001  0.2760982E+03  0.7818608E-02  0.1097839E+00
         -2   -1    0    0    0  501 -0.00000000000E+00  0.00000000000E+00  0.56556802677E+02  0.56556802677E+02  0.00000000000E+00 0.  1.
          2   -1    0    0  501    0  0.00000000000E+00 -0.00000000000E+00 -0.33696300899E+03  0.33696300899E+03  0.00000000000E+00 0.  1.
         35    2    1    2    0    0  0.00000000000E+00  0.00000000000E+00 -0.28040620631E+03  0.39351981166E+03  0.27609817391E+03 0.  0.
         25    1    3    3    0    0 -0.58166634595E+02  0.28465251189E+02 -0.17090221330E+03  0.21863484264E+03  0.12000000000E+03 0.  0.
         25    1    3    3    0    0  0.58166634595E+02 -0.28465251189E+02 -0.10950399301E+03  0.17488496903E+03  0.12000000000E+03 0.  0.
<mgrwt>
<rscale>  0 0.27609817E+03</rscale>
<asrwt>0</asrwt>
<pdfrwt beam="1">  1        2 0.51840463E-01 0.27609817E+03</pdfrwt>
<pdfrwt beam="2">  1       -2 0.87010466E-02 0.27609817E+03</pdfrwt>
<totfact> 0.79219089E+03</totfact>
</mgrwt>
</event>
<event>
 5    1  0.1122238E+001  0.2750305E+03  0.7818608E-02  0.1098435E+00
         -1   -1    0    0    0  501 -0.00000000000E+00  0.00000000000E+00  0.35378461213E+03  0.35378461213E+03  0.00000000000E+00 0. -1.
          1   -1    0    0  501    0  0.00000000000E+00 -0.00000000000E+00 -0.53451836857E+02  0.53451836857E+02  0.00000000000E+00 0. -1.
         35    2    1    2    0    0  0.00000000000E+00  0.00000000000E+00  0.30033277527E+03  0.40723644899E+03  0.27503045192E+03 0.  0.
         25    1    3    3    0    0  0.13442497584E+02 -0.66932683952E+01  0.24709189189E+03  0.27509980666E+03  0.12000000000E+03 0.  0.
         25    1    3    3    0    0 -0.13442497584E+02  0.66932683952E+01  0.53240883377E+02  0.13213664233E+03  0.12000000000E+03 0.  0.
<mgrwt>
<rscale>  0 0.27503045E+03</rscale>
<asrwt>0</asrwt>
<pdfrwt beam="1">  1        1 0.82233597E-02 0.27503045E+03</pdfrwt>
<pdfrwt beam="2">  1       -1 0.54428400E-01 0.27503045E+03</pdfrwt>
<totfact> 0.29230810E+03</totfact>
</mgrwt>
</event>
<event>
 5    1  0.1122238E+001  0.2757234E+03  0.7818608E-02  0.1098048E+00
          2   -1    0    0  501    0  0.00000000000E+00  0.00000000000E+00  0.15075802707E+04  0.15075802707E+04  0.00000000000E+00 0.  1.
         -2   -1    0    0    0  501 -0.00000000000E+00 -0.00000000000E+00 -0.12606855501E+02  0.12606855501E+02  0.00000000000E+00 0.  1.
         35    2    1    2    0    0  0.00000000000E+00  0.00000000000E+00  0.14949734152E+04  0.15201871262E+04  0.27572338769E+03 0.  0.
         25    1    3    3    0    0 -0.50299834697E+02  0.35774307917E+02  0.59193586021E+03  0.60712267053E+03  0.12000000000E+03 0.  0.
         25    1    3    3    0    0  0.50299834697E+02 -0.35774307917E+02  0.90303755501E+03  0.91306445569E+03  0.12000000000E+03 0.  0.
<mgrwt>
<rscale>  0 0.27572339E+03</rscale>
<asrwt>0</asrwt>
<pdfrwt beam="1">  1        2 0.23193528E+00 0.27572339E+03</pdfrwt>
<pdfrwt beam="2">  1       -2 0.19395174E-02 0.27572339E+03</pdfrwt>
<totfact> 0.10933696E+04</totfact>
</mgrwt>
</event>
<event>
 5    1  0.1122238E+001  0.2746711E+03  0.7818608E-02  0.1098636E+00
          2   -1    0    0  501    0  0.00000000000E+00  0.00000000000E+00  0.55304183034E+02  0.55304183034E+02  0.00000000000E+00 0. -1.
         -2   -1    0    0    0  501 -0.00000000000E+00 -0.00000000000E+00 -0.34104212672E+03  0.34104212672E+03  0.00000000000E+00 0. -1.
         35    2    1    2    0    0  0.00000000000E+00  0.00000000000E+00 -0.28573794369E+03  0.39634630975E+03  0.27467112115E+03 0.  0.
         25    1    3    3    0    0  0.10160164643E+02  0.16132165094E+02 -0.23523782810E+03  0.26476463409E+03  0.12000000000E+03 0.  0.
         25    1    3    3    0    0 -0.10160164643E+02 -0.16132165094E+02 -0.50500115588E+02  0.13158167566E+03  0.12000000000E+03 0.  0.
<mgrwt>
<rscale>  0 0.27467112E+03</rscale>
<asrwt>0</asrwt>
<pdfrwt beam="1">  1        2 0.85083358E-02 0.27467112E+03</pdfrwt>
<pdfrwt beam="2">  1       -2 0.52468020E-01 0.27467112E+03</pdfrwt>
<totfact> 0.27296199E+03</totfact>
</mgrwt>
</event>
<event>
 5    1  0.1122238E+001  0.2753996E+03  0.7818608E-02  0.1098228E+00
         -2   -1    0    0    0  501 -0.00000000000E+00  0.00000000000E+00  0.49908241494E+02  0.49908241494E+02  0.00000000000E+00 0.  1.
          2   -1    0    0  501    0  0.00000000000E+00 -0.00000000000E+00 -0.37992178578E+03  0.37992178578E+03  0.00000000000E+00 0.  1.
         35    2    1    2    0    0  0.00000000000E+00  0.00000000000E+00 -0.33001354428E+03  0.42983002727E+03  0.27539955144E+03 0.  0.
         25    1    3    3    0    0 -0.57047714085E+02 -0.34428279787E+02 -0.18220905548E+03  0.22812252855E+03  0.12000000000E+03 0.  0.
         25    1    3    3    0    0  0.57047714085E+02  0.34428279787E+02 -0.14780448880E+03  0.20170749872E+03  0.12000000000E+03 0.  0.
<mgrwt>
<rscale>  0 0.27539955E+03</rscale>
<asrwt>0</asrwt>
<pdfrwt beam="1">  1        2 0.58449504E-01 0.27539955E+03</pdfrwt>
<pdfrwt beam="2">  1       -2 0.76781912E-02 0.27539955E+03</pdfrwt>
<totfact> 0.84618968E+03</totfact>
</mgrwt>
</event>
<event>
 5    1  0.1122238E+001  0.2747780E+03  0.7818608E-02  0.1098576E+00
         -2   -1    0    0    0  501 -0.00000000000E+00  0.00000000000E+00  0.36155885283E+02  0.36155885283E+02  0.00000000000E+00 0.  1.
          2   -1    0    0  501    0  0.00000000000E+00 -0.00000000000E+00 -0.52206549398E+03  0.52206549398E+03  0.00000000000E+00 0.  1.
         35    2    1    2    0    0  0.00000000000E+00  0.00000000000E+00 -0.48590960869E+03  0.55822137926E+03  0.27477802030E+03 0.  0.
         25    1    3    3    0    0  0.43176925217E+01 -0.59025370140E+02 -0.30632775854E+03  0.33427433710E+03  0.12000000000E+03 0.  0.
         25    1    3    3    0    0 -0.43176925217E+01  0.59025370140E+02 -0.17958185016E+03  0.22394704216E+03  0.12000000000E+03 0.  0.
<mgrwt>
<rscale>  0 0.27477802E+03</rscale>
<asrwt>0</asrwt>
<pdfrwt beam="1">  1        2 0.80317765E-01 0.27477802E+03</pdfrwt>
<pdfrwt beam="2">  1       -2 0.55624441E-02 0.27477802E+03</pdfrwt>
<totfact> 0.98018580E+03</totfact>
</mgrwt>
</event>
<event>
 5    1  0.1122238E+001  0.2745772E+03  0.7818608E-02  0.1098688E+00
          2   -1    0    0  501    0  0.00000000000E+00  0.00000000000E+00  0.31729542697E+03  0.31729542697E+03  0.00000000000E+00 0. -1.
         -2   -1    0    0    0  501 -0.00000000000E+00 -0.00000000000E+00 -0.59402577315E+02  0.59402577315E+02  0.00000000000E+00 0. -1.
         35    2    1    2    0    0  0.00000000000E+00  0.00000000000E+00  0.25789284966E+03  0.37669800429E+03  0.27457724693E+03 0.  0.
         25    1    3    3    0    0  0.60573754587E+02 -0.24647651861E+02  0.14691174913E+03  0.20064832050E+03  0.12000000000E+03 0.  0.
         25    1    3    3    0    0 -0.60573754587E+02  0.24647651861E+02  0.11098110052E+03  0.17604968378E+03  0.12000000000E+03 0.  0.
<mgrwt>
<rscale>  0 0.27457725E+03</rscale>
<asrwt>0</asrwt>
<pdfrwt beam="1">  1        2 0.48814680E-01 0.27457725E+03</pdfrwt>
<pdfrwt beam="2">  1       -2 0.91388582E-02 0.27457725E+03</pdfrwt>
<totfact> 0.78214101E+03</totfact>
</mgrwt>
</event>
<event>
 5    1  0.1122238E+001  0.2754572E+03  0.7818608E-02  0.1098196E+00
          2   -1    0    0  501    0  0.00000000000E+00  0.00000000000E+00  0.71843701117E+03  0.71843701117E+03  0.00000000000E+00 0.  1.
         -2   -1    0    0    0  501 -0.00000000000E+00 -0.00000000000E+00 -0.26403377345E+02  0.26403377345E+02  0.00000000000E+00 0.  1.
         35    2    1    2    0    0  0.00000000000E+00  0.00000000000E+00  0.69203363382E+03  0.74484038851E+03  0.27545717275E+03 0.  0.
         25    1    3    3    0    0  0.17865434707E+02 -0.40232623213E+02  0.48472319847E+03  0.50129274567E+03  0.12000000000E+03 0.  0.
         25    1    3    3    0    0 -0.17865434707E+02  0.40232623213E+02  0.20731043536E+03  0.24354764285E+03  0.12000000000E+03 0.  0.
<mgrwt>
<rscale>  0 0.27545717E+03</rscale>
<asrwt>0</asrwt>
<pdfrwt beam="1">  1        2 0.11052876E+00 0.27545717E+03</pdfrwt>
<pdfrwt beam="2">  1       -2 0.40620586E-02 0.27545717E+03</pdfrwt>
<totfact> 0.10865854E+04</totfact>
</mgrwt>
</event>
<event>
 5    1  0.1122238E+001  0.2773797E+03  0.7818608E-02  0.1097129E+00
          1   -1    0    0  501    0  0.00000000000E+00  0.00000000000E+00  0.13055670205E+03  0.13055670205E+03  0.00000000000E+00 0. -1.
         -1   -1    0    0    0  501 -0.00000000000E+00 -0.00000000000E+00 -0.14732970884E+03  0.14732970884E+03  0.00000000000E+00 0. -1.
         35    2    1    2    0    0  0.00000000000E+00  0.00000000000E+00 -0.16773006790E+02  0.27788641088E+03  0.27737974619E+03 0.  0.
         25    1    3    3    0    0  0.40552316295E+02  0.48580333512E+02 -0.37254789287E+02  0.14068567264E+03  0.12000000000E+03 0.  0.
         25    1    3    3    0    0 -0.40552316295E+02 -0.48580333512E+02  0.20481782497E+02  0.13720073825E+03  0.12000000000E+03 0.  0.
<mgrwt>
<rscale>  0 0.27737975E+03</rscale>
<asrwt>0</asrwt>
<pdfrwt beam="1">  1        1 0.20085646E-01 0.27737975E+03</pdfrwt>
<pdfrwt beam="2">  1       -1 0.22666109E-01 0.27737975E+03</pdfrwt>
<totfact> 0.41411971E+03</totfact>
</mgrwt>
</event>
<event>
 5    1  0.1122238E+001  0.2751739E+03  0.7818608E-02  0.1098354E+00
         -1   -1    0    0    0  501 -0.00000000000E+00  0.00000000000E+00  0.15750925109E+04  0.15750925109E+04  0.00000000000E+00 0. -1.
          1   -1    0    0  501    0  0.00000000000E+00 -0.00000000000E+00 -0.12018449445E+02  0.12018449445E+02  0.00000000000E+00 0. -1.
         35    2    1    2    0    0  0.00000000000E+00  0.00000000000E+00  0.15630740615E+04  0.15871109604E+04  0.27517390657E+03 0.  0.
         25    1    3    3    0    0  0.17091034109E+02  0.46990184598E+02  0.10414014766E+04  0.10494842621E+04  0.12000000000E+03 0.  0.
         25    1    3    3    0    0 -0.17091034109E+02 -0.46990184598E+02  0.52167258487E+03  0.53762669828E+03  0.12000000000E+03 0.  0.
<mgrwt>
<rscale>  0 0.27517391E+03</rscale>
<asrwt>0</asrwt>
<pdfrwt beam="1">  1        1 0.18489935E-02 0.27517391E+03</pdfrwt>
<pdfrwt beam="2">  1       -1 0.24232176E+00 0.27517391E+03</pdfrwt>
<totfact> 0.59993809E+02</totfact>
</mgrwt>
</event>
<event>
 5    1  0.1122238E+001  0.2755501E+03  0.7818608E-02  0.1098145E+00
          2   -1    0    0  501    0  0.00000000000E+00  0.00000000000E+00  0.26480470241E+04  0.26480470241E+04  0.00000000000E+00 0.  1.
         -2   -1    0    0    0  501 -0.00000000000E+00 -0.00000000000E+00 -0.71682869074E+01  0.71682869074E+01  0.00000000000E+00 0.  1.
         35    2    1    2    0    0  0.00000000000E+00  0.00000000000E+00  0.26408787372E+04  0.26552153110E+04  0.27555007395E+03 0.  0.
         25    1    3    3    0    0 -0.61610510571E+01  0.33455983085E+02  0.18843502103E+04  0.18884737161E+04  0.12000000000E+03 0.  0.
         25    1    3    3    0    0  0.61610510571E+01 -0.33455983085E+02  0.75652852689E+03  0.76674159490E+03  0.12000000000E+03 0.  0.
<mgrwt>
<rscale>  0 0.27555007E+03</rscale>
<asrwt>0</asrwt>
<pdfrwt beam="1">  1        2 0.40739107E+00 0.27555007E+03</pdfrwt>
<pdfrwt beam="2">  1       -2 0.11028155E-02 0.27555007E+03</pdfrwt>
<totfact> 0.61404435E+03</totfact>
</mgrwt>
</event>
<event>
 5    1  0.1122238E+001  0.2750993E+03  0.7818608E-02  0.1098396E+00
          2   -1    0    0  501    0  0.00000000000E+00  0.00000000000E+00  0.70949027804E+03  0.70949027804E+03  0.00000000000E+00 0. -1.
         -2   -1    0    0    0  501 -0.00000000000E+00 -0.00000000000E+00 -0.26666890985E+02  0.26666890985E+02  0.00000000000E+00 0. -1.
         35    2    1    2    0    0  0.00000000000E+00  0.00000000000E+00  0.68282338705E+03  0.73615716902E+03  0.27509925408E+03 0.  0.
         25    1    3    3    0    0 -0.19865266978E+02 -0.63862986096E+02  0.32310718808E+03  0.35110022047E+03  0.12000000000E+03 0.  0.
         25    1    3    3    0    0  0.19865266978E+02  0.63862986096E+02  0.35971619897E+03  0.38505694855E+03  0.12000000000E+03 0.  0.
<mgrwt>
<rscale>  0 0.27509925E+03</rscale>
<asrwt>0</asrwt>
<pdfrwt beam="1">  1        2 0.10915234E+00 0.27509925E+03</pdfrwt>
<pdfrwt beam="2">  1       -2 0.41025992E-02 0.27509925E+03</pdfrwt>
<totfact> 0.10869198E+04</totfact>
</mgrwt>
</event>
<event>
 5    1  0.1122238E+001  0.2753028E+03  0.7818608E-02  0.1098282E+00
          2   -1    0    0  501    0  0.00000000000E+00  0.00000000000E+00  0.60473441532E+03  0.60473441532E+03  0.00000000000E+00 0. -1.
         -2   -1    0    0    0  501 -0.00000000000E+00 -0.00000000000E+00 -0.31332611878E+02  0.31332611878E+02  0.00000000000E+00 0. -1.
         35    2    1    2    0    0  0.00000000000E+00  0.00000000000E+00  0.57340180344E+03  0.63606702720E+03  0.27530280583E+03 0.  0.
         25    1    3    3    0    0  0.55894968122E+02 -0.23149738751E+02  0.21786138767E+03  0.25597605767E+03  0.12000000000E+03 0.  0.
         25    1    3    3    0    0 -0.55894968122E+02  0.23149738751E+02  0.35554041577E+03  0.38009096952E+03  0.12000000000E+03 0.  0.
<mgrwt>
<rscale>  0 0.27530281E+03</rscale>
<asrwt>0</asrwt>
<pdfrwt beam="1">  1        2 0.93036055E-01 0.27530281E+03</pdfrwt>
<pdfrwt beam="2">  1       -2 0.48204023E-02 0.27530281E+03</pdfrwt>
<totfact> 0.10302427E+04</totfact>
</mgrwt>
</event>
<event>
 5    1  0.1122238E+001  0.2743581E+03  0.7818608E-02  0.1098811E+00
          1   -1    0    0  501    0  0.00000000000E+00  0.00000000000E+00  0.13186563556E+02  0.13186563556E+02  0.00000000000E+00 0.  1.
         -1   -1    0    0    0  501 -0.00000000000E+00 -0.00000000000E+00 -0.14270653089E+04  0.14270653089E+04  0.00000000000E+00 0.  1.
         35    2    1    2    0    0  0.00000000000E+00  0.00000000000E+00 -0.14138787454E+04  0.14402518725E+04  0.27435806818E+03 0.  0.
         25    1    3    3    0    0  0.65990899325E+02 -0.78521014655E+01 -0.71364790530E+03  0.72671162577E+03  0.12000000000E+03 0.  0.
         25    1    3    3    0    0 -0.65990899325E+02  0.78521014655E+01 -0.70023084009E+03  0.71354024673E+03  0.12000000000E+03 0.  0.
<mgrwt>
<rscale>  0 0.27435807E+03</rscale>
<asrwt>0</asrwt>
<pdfrwt beam="1">  1        1 0.20287017E-02 0.27435807E+03</pdfrwt>
<pdfrwt beam="2">  1       -1 0.21954855E+00 0.27435807E+03</pdfrwt>
<totfact> 0.73596692E+02</totfact>
</mgrwt>
</event>
<event>
 5    1  0.1122238E+001  0.2752861E+03  0.7818608E-02  0.1098292E+00
          1   -1    0    0  501    0  0.00000000000E+00  0.00000000000E+00  0.16237085721E+03  0.16237085721E+03  0.00000000000E+00 0. -1.
         -1   -1    0    0    0  501 -0.00000000000E+00 -0.00000000000E+00 -0.11668107887E+03  0.11668107887E+03  0.00000000000E+00 0. -1.
         35    2    1    2    0    0  0.00000000000E+00  0.00000000000E+00  0.45689778342E+02  0.27905193608E+03  0.27528608244E+03 0.  0.
         25    1    3    3    0    0  0.64993510862E+02 -0.45901826190E+01  0.52763075605E+01  0.13664942610E+03  0.12000000000E+03 0.  0.
         25    1    3    3    0    0 -0.64993510862E+02  0.45901826190E+01  0.40413470781E+02  0.14240250999E+03  0.12000000000E+03 0.  0.
<mgrwt>
<rscale>  0 0.27528608E+03</rscale>
<asrwt>0</asrwt>
<pdfrwt beam="1">  1        1 0.24980132E-01 0.27528608E+03</pdfrwt>
<pdfrwt beam="2">  1       -1 0.17950935E-01 0.27528608E+03</pdfrwt>
<totfact> 0.45772131E+03</totfact>
</mgrwt>
</event>
<event>
 5    1  0.1122238E+001  0.2730939E+03  0.7818608E-02  0.1099522E+00
         -2   -1    0    0    0  501 -0.00000000000E+00  0.00000000000E+00  0.93996478730E+02  0.93996478730E+02  0.00000000000E+00 0. -1.
          2   -1    0    0  501    0  0.00000000000E+00 -0.00000000000E+00 -0.19835917236E+03  0.19835917236E+03  0.00000000000E+00 0. -1.
         35    2    1    2    0    0  0.00000000000E+00  0.00000000000E+00 -0.10436269363E+03  0.29235565109E+03  0.27309385732E+03 0.  0.
         25    1    3    3    0    0 -0.24053570950E+02  0.39586386012E+02 -0.10123235438E+03  0.16368764708E+03  0.12000000000E+03 0.  0.
         25    1    3    3    0    0  0.24053570950E+02 -0.39586386012E+02 -0.31303392516E+01  0.12866800401E+03  0.12000000000E+03 0.  0.
<mgrwt>
<rscale>  0 0.27309386E+03</rscale>
<asrwt>0</asrwt>
<pdfrwt beam="1">  1        2 0.30516795E-01 0.27309386E+03</pdfrwt>
<pdfrwt beam="2">  1       -2 0.14460997E-01 0.27309386E+03</pdfrwt>
<totfact> 0.62104305E+03</totfact>
</mgrwt>
</event>
<event>
 5    1  0.1122238E+001  0.2713226E+03  0.7818608E-02  0.1100525E+00
         -1   -1    0    0    0  501 -0.00000000000E+00  0.00000000000E+00  0.74011091944E+02  0.74011091944E+02  0.00000000000E+00 0. -1.
          1   -1    0    0  501    0  0.00000000000E+00 -0.00000000000E+00 -0.24866520122E+03  0.24866520122E+03  0.00000000000E+00 0. -1.
         35    2    1    2    0    0  0.00000000000E+00  0.00000000000E+00 -0.17465410928E+03  0.32267629317E+03  0.27132256133E+03 0.  0.
         25    1    3    3    0    0 -0.44607071819E+02  0.44522008165E+02 -0.94052805494E+02  0.16497857524E+03  0.12000000000E+03 0.  0.
         25    1    3    3    0    0  0.44607071819E+02 -0.44522008165E+02 -0.80601303785E+02  0.15769771793E+03  0.12000000000E+03 0.  0.
<mgrwt>
<rscale>  0 0.27132256E+03</rscale>
<asrwt>0</asrwt>
<pdfrwt beam="1">  1        1 0.38256185E-01 0.27132256E+03</pdfrwt>
<pdfrwt beam="2">  1       -1 0.11386322E-01 0.27132256E+03</pdfrwt>
<totfact> 0.54897587E+03</totfact>
</mgrwt>
</event>
<event>
 5    1  0.1122238E+001  0.2760837E+03  0.7818608E-02  0.1097847E+00
         -4   -1    0    0    0  501 -0.00000000000E+00  0.00000000000E+00  0.84312606610E+03  0.84312606610E+03  0.00000000000E+00 0.  1.
          4   -1    0    0  501    0  0.00000000000E+00 -0.00000000000E+00 -0.22601065554E+02  0.22601065554E+02  0.00000000000E+00 0.  1.
         35    2    1    2    0    0  0.00000000000E+00  0.00000000000E+00  0.82052500055E+03  0.86572713165E+03  0.27608366479E+03 0.  0.
         25    1    3    3    0    0  0.59408494687E+02 -0.32700706317E+02  0.43390400994E+03  0.45527068352E+03  0.12000000000E+03 0.  0.
         25    1    3    3    0    0 -0.59408494687E+02  0.32700706317E+02  0.38662099061E+03  0.41045644813E+03  0.12000000000E+03 0.  0.
<mgrwt>
<rscale>  0 0.27608366E+03</rscale>
<asrwt>0</asrwt>
<pdfrwt beam="1">  1        4 0.34770877E-02 0.27608366E+03</pdfrwt>
<pdfrwt beam="2">  1       -4 0.12971168E+00 0.27608366E+03</pdfrwt>
<totfact> 0.36552205E+02</totfact>
</mgrwt>
</event>
<event>
 5    1  0.1122238E+001  0.2749942E+03  0.7818608E-02  0.1098455E+00
         -3   -1    0    0    0  501 -0.00000000000E+00  0.00000000000E+00  0.87056076012E+02  0.87056076012E+02  0.00000000000E+00 0.  1.
          3   -1    0    0  501    0  0.00000000000E+00 -0.00000000000E+00 -0.21716402420E+03  0.21716402420E+03  0.00000000000E+00 0.  1.
         35    2    1    2    0    0  0.00000000000E+00  0.00000000000E+00 -0.13010794819E+03  0.30422010021E+03  0.27499416574E+03 0.  0.
         25    1    3    3    0    0  0.27182621156E+02 -0.61281713481E+02 -0.61367477139E+02  0.15053342005E+03  0.12000000000E+03 0.  0.
         25    1    3    3    0    0 -0.27182621156E+02  0.61281713481E+02 -0.68740471046E+02  0.15368668016E+03  0.12000000000E+03 0.  0.
<mgrwt>
<rscale>  0 0.27499417E+03</rscale>
<asrwt>0</asrwt>
<pdfrwt beam="1">  1        3 0.33409849E-01 0.27499417E+03</pdfrwt>
<pdfrwt beam="2">  1       -3 0.13393243E-01 0.27499417E+03</pdfrwt>
<totfact> 0.10056866E+03</totfact>
</mgrwt>
</event>
<event>
 5    1  0.1122238E+001  0.2774170E+03  0.7818608E-02  0.1097108E+00
         -4   -1    0    0    0  501 -0.00000000000E+00  0.00000000000E+00  0.41127431876E+02  0.41127431876E+02  0.00000000000E+00 0.  1.
          4   -1    0    0  501    0  0.00000000000E+00 -0.00000000000E+00 -0.46781559306E+03  0.46781559306E+03  0.00000000000E+00 0.  1.
         35    2    1    2    0    0  0.00000000000E+00  0.00000000000E+00 -0.42668816119E+03  0.50894302494E+03  0.27741704298E+03 0.  0.
         25    1    3    3    0    0  0.28749385568E+02 -0.63129416893E+02 -0.22308696229E+03  0.26263975935E+03  0.12000000000E+03 0.  0.
         25    1    3    3    0    0 -0.28749385568E+02  0.63129416893E+02 -0.20360119890E+03  0.24630326559E+03  0.12000000000E+03 0.  0.
<mgrwt>
<rscale>  0 0.27741704E+03</rscale>
<asrwt>0</asrwt>
<pdfrwt beam="1">  1        4 0.71971629E-01 0.27741704E+03</pdfrwt>
<pdfrwt beam="2">  1       -4 0.63272973E-02 0.27741704E+03</pdfrwt>
<totfact> 0.54760511E+02</totfact>
</mgrwt>
</event>
<event>
 5    1  0.1122238E+001  0.2750669E+03  0.7818608E-02  0.1098414E+00
          1   -1    0    0  501    0  0.00000000000E+00  0.00000000000E+00  0.53532566048E+02  0.53532566048E+02  0.00000000000E+00 0. -1.
         -1   -1    0    0    0  501 -0.00000000000E+00 -0.00000000000E+00 -0.35334476382E+03  0.35334476382E+03  0.00000000000E+00 0. -1.
         35    2    1    2    0    0  0.00000000000E+00  0.00000000000E+00 -0.29981219777E+03  0.40687732987E+03  0.27506691482E+03 0.  0.
         25    1    3    3    0    0 -0.42595664297E+02  0.12345132518E+02 -0.22458209115E+03  0.25846452093E+03  0.12000000000E+03 0.  0.
         25    1    3    3    0    0  0.42595664297E+02 -0.12345132518E+02 -0.75230106615E+02  0.14841280893E+03  0.12000000000E+03 0.  0.
<mgrwt>
<rscale>  0 0.27506691E+03</rscale>
<asrwt>0</asrwt>
<pdfrwt beam="1">  1        1 0.82357795E-02 0.27506691E+03</pdfrwt>
<pdfrwt beam="2">  1       -1 0.54360732E-01 0.27506691E+03</pdfrwt>
<totfact> 0.29239422E+03</totfact>
</mgrwt>
</event>
<event>
 5    1  0.1122238E+001  0.2741049E+03  0.7818608E-02  0.1098953E+00
          3   -1    0    0  501    0  0.00000000000E+00  0.00000000000E+00  0.43337186071E+03  0.43337186071E+03  0.00000000000E+00 0.  1.
         -3   -1    0    0    0  501 -0.00000000000E+00 -0.00000000000E+00 -0.43342402484E+02  0.43342402484E+02  0.00000000000E+00 0.  1.
         35    2    1    2    0    0  0.00000000000E+00  0.00000000000E+00  0.39002945823E+03  0.47671426320E+03  0.27410492599E+03 0.  0.
         25    1    3    3    0    0 -0.30842216344E+00  0.14802666867E+02  0.82785702945E+02  0.14653561575E+03  0.12000000000E+03 0.  0.
         25    1    3    3    0    0  0.30842216344E+00 -0.14802666867E+02  0.30724375528E+03  0.33017864745E+03  0.12000000000E+03 0.  0.
<mgrwt>
<rscale>  0 0.27410493E+03</rscale>
<asrwt>0</asrwt>
<pdfrwt beam="1">  1        3 0.66672591E-01 0.27410493E+03</pdfrwt>
<pdfrwt beam="2">  1       -3 0.66680622E-02 0.27410493E+03</pdfrwt>
<totfact> 0.80537384E+02</totfact>
</mgrwt>
</event>
<event>
 5    1  0.1122238E+001  0.2749085E+03  0.7818608E-02  0.1098503E+00
          1   -1    0    0  501    0  0.00000000000E+00  0.00000000000E+00  0.16487525337E+04  0.16487525337E+04  0.00000000000E+00 0.  1.
         -1   -1    0    0    0  501 -0.00000000000E+00 -0.00000000000E+00 -0.11459369964E+02  0.11459369964E+02  0.00000000000E+00 0.  1.
         35    2    1    2    0    0  0.00000000000E+00  0.00000000000E+00  0.16372931638E+04  0.16602119037E+04  0.27490845940E+03 0.  0.
         25    1    3    3    0    0 -0.49293599716E+02 -0.21869414823E+02  0.10591179277E+04  0.10672576611E+04  0.12000000000E+03 0.  0.
         25    1    3    3    0    0  0.49293599716E+02  0.21869414823E+02  0.57817523603E+03  0.59295424261E+03  0.12000000000E+03 0.  0.
<mgrwt>
<rscale>  0 0.27490846E+03</rscale>
<asrwt>0</asrwt>
<pdfrwt beam="1">  1        1 0.25365405E+00 0.27490846E+03</pdfrwt>
<pdfrwt beam="2">  1       -1 0.17629813E-02 0.27490846E+03</pdfrwt>
<totfact> 0.47091825E+03</totfact>
</mgrwt>
</event>
<event>
 4    1  0.1122238E+001  0.2964205E+03  0.7818608E-02  0.1087044E+00
         -2   -1    0    0    0  501 -0.00000000000E+00  0.00000000000E+00  0.62043493824E+02  0.62043493824E+02  0.00000000000E+00 0.  1.
          2   -1    0    0  501    0  0.00000000000E+00 -0.00000000000E+00 -0.35404641424E+03  0.35404641424E+03  0.00000000000E+00 0.  1.
         25    1    1    2    0    0  0.46236307408E+02 -0.26691863196E+02 -0.24239923418E+03  0.27569483204E+03  0.12000000000E+03 0.  0.
         25    1    1    2    0    0 -0.46236307408E+02  0.26691863196E+02 -0.49603686240E+02  0.14039507603E+03  0.12000000000E+03 0.  0.
<mgrwt>
<rscale>  0 0.29642049E+03</rscale>
<asrwt>0</asrwt>
<pdfrwt beam="1">  1        2 0.54468680E-01 0.29642049E+03</pdfrwt>
<pdfrwt beam="2">  1       -2 0.95451528E-02 0.29642049E+03</pdfrwt>
<totfact> 0.65039366E+03</totfact>
</mgrwt>
</event>
<event>
 5    1  0.1122238E+001  0.2745951E+03  0.7818608E-02  0.1098678E+00
          2   -1    0    0  501    0  0.00000000000E+00  0.00000000000E+00  0.45257774943E+02  0.45257774943E+02  0.00000000000E+00 0.  1.
         -2   -1    0    0    0  501 -0.00000000000E+00 -0.00000000000E+00 -0.41651652015E+03  0.41651652015E+03  0.00000000000E+00 0.  1.
         35    2    1    2    0    0  0.00000000000E+00  0.00000000000E+00 -0.37125874521E+03  0.46177429509E+03  0.27459505406E+03 0.  0.
         25    1    3    3    0    0 -0.43962677509E+02 -0.36256685388E+02 -0.24396480556E+03  0.27778785179E+03  0.12000000000E+03 0.  0.
         25    1    3    3    0    0  0.43962677509E+02  0.36256685388E+02 -0.12729393965E+03  0.18398644331E+03  0.12000000000E+03 0.  0.
<mgrwt>
<rscale>  0 0.27459505E+03</rscale>
<asrwt>0</asrwt>
<pdfrwt beam="1">  1        2 0.69627346E-02 0.27459505E+03</pdfrwt>
<pdfrwt beam="2">  1       -2 0.64079465E-01 0.27459505E+03</pdfrwt>
<totfact> 0.23366452E+03</totfact>
</mgrwt>
</event>
<event>
 5    1  0.1122238E+001  0.2763802E+03  0.7818608E-02  0.1097683E+00
          2   -1    0    0  501    0  0.00000000000E+00  0.00000000000E+00  0.11670300912E+04  0.11670300912E+04  0.00000000000E+00 0. -1.
         -2   -1    0    0    0  501 -0.00000000000E+00 -0.00000000000E+00 -0.16363337985E+02  0.16363337985E+02  0.00000000000E+00 0. -1.
         35    2    1    2    0    0  0.00000000000E+00  0.00000000000E+00  0.11506667532E+04  0.11833934291E+04  0.27638022955E+03 0.  0.
         25    1    3    3    0    0  0.43325202184E+02  0.40706230655E+02  0.42934879845E+03  0.44974933139E+03  0.12000000000E+03 0.  0.
         25    1    3    3    0    0 -0.43325202184E+02 -0.40706230655E+02  0.72131795472E+03  0.73364409775E+03  0.12000000000E+03 0.  0.
<mgrwt>
<rscale>  0 0.27638023E+03</rscale>
<asrwt>0</asrwt>
<pdfrwt beam="1">  1        2 0.17954303E+00 0.27638023E+03</pdfrwt>
<pdfrwt beam="2">  1       -2 0.25174375E-02 0.27638023E+03</pdfrwt>
<totfact> 0.11465618E+04</totfact>
</mgrwt>
</event>
<event>
 5    1  0.1122238E+001  0.2755518E+03  0.7818608E-02  0.1098144E+00
          2   -1    0    0  501    0  0.00000000000E+00  0.00000000000E+00  0.10475239564E+04  0.10475239564E+04  0.00000000000E+00 0.  1.
         -2   -1    0    0    0  501 -0.00000000000E+00 -0.00000000000E+00 -0.18121010721E+02  0.18121010721E+02  0.00000000000E+00 0.  1.
         35    2    1    2    0    0  0.00000000000E+00  0.00000000000E+00  0.10294029457E+04  0.10656449671E+04  0.27555175807E+03 0.  0.
         25    1    3    3    0    0  0.19706077540E+02 -0.14595868190E+02  0.75870485124E+03  0.76852743618E+03  0.12000000000E+03 0.  0.
         25    1    3    3    0    0 -0.19706077540E+02  0.14595868190E+02  0.27069809441E+03  0.29711753092E+03  0.12000000000E+03 0.  0.
<mgrwt>
<rscale>  0 0.27555176E+03</rscale>
<asrwt>0</asrwt>
<pdfrwt beam="1">  1        2 0.16115748E+00 0.27555176E+03</pdfrwt>
<pdfrwt beam="2">  1       -2 0.27878486E-02 0.27555176E+03</pdfrwt>
<totfact> 0.11580490E+04</totfact>
</mgrwt>
</event>
<event>
 5    1  0.1122238E+001  0.2750455E+03  0.7818608E-02  0.1098426E+00
         -1   -1    0    0    0  501 -0.00000000000E+00  0.00000000000E+00  0.23784742391E+02  0.23784742391E+02  0.00000000000E+00 0.  1.
          1   -1    0    0  501    0  0.00000000000E+00 -0.00000000000E+00 -0.79515268138E+03  0.79515268138E+03  0.00000000000E+00 0.  1.
         35    2    1    2    0    0  0.00000000000E+00  0.00000000000E+00 -0.77136793899E+03  0.81893742377E+03  0.27504546307E+03 0.  0.
         25    1    3    3    0    0  0.23408000899E+02 -0.57525934223E+02 -0.30946244914E+03  0.33767465857E+03  0.12000000000E+03 0.  0.
         25    1    3    3    0    0 -0.23408000899E+02  0.57525934223E+02 -0.46190548985E+03  0.48126276520E+03  0.12000000000E+03 0.  0.
<mgrwt>
<rscale>  0 0.27504546E+03</rscale>
<asrwt>0</asrwt>
<pdfrwt beam="1">  1        1 0.12233118E+00 0.27504546E+03</pdfrwt>
<pdfrwt beam="2">  1       -1 0.36591911E-02 0.27504546E+03</pdfrwt>
<totfact> 0.65198798E+03</totfact>
</mgrwt>
</event>
<event>
 5    1  0.1122238E+001  0.2747194E+03  0.7818608E-02  0.1098609E+00
         -2   -1    0    0    0  501 -0.00000000000E+00  0.00000000000E+00  0.92045439525E+01  0.92045439525E+01  0.00000000000E+00 0. -1.
          2   -1    0    0  501    0  0.00000000000E+00 -0.00000000000E+00 -0.20498223955E+04  0.20498223955E+04  0.00000000000E+00 0. -1.
         35    2    1    2    0    0  0.00000000000E+00  0.00000000000E+00 -0.20406178516E+04  0.20590269395E+04  0.27471935013E+03 0.  0.
         25    1    3    3    0    0  0.48265981236E+02 -0.20419799798E+02 -0.13312490264E+04  0.13376735564E+04  0.12000000000E+03 0.  0.
         25    1    3    3    0    0 -0.48265981236E+02  0.20419799798E+02 -0.70936882519E+03  0.72135338310E+03  0.12000000000E+03 0.  0.
<mgrwt>
<rscale>  0 0.27471935E+03</rscale>
<asrwt>0</asrwt>
<pdfrwt beam="1">  1        2 0.31535708E+00 0.27471935E+03</pdfrwt>
<pdfrwt beam="2">  1       -2 0.14160846E-02 0.27471935E+03</pdfrwt>
<totfact> 0.89763565E+03</totfact>
</mgrwt>
</event>
<event>
 5    1  0.1122238E+001  0.2789371E+03  0.7818608E-02  0.1096271E+00
          2   -1    0    0  501    0  0.00000000000E+00  0.00000000000E+00  0.45164900635E+03  0.45164900635E+03  0.00000000000E+00 0. -1.
         -2   -1    0    0    0  501 -0.00000000000E+00 -0.00000000000E+00 -0.43067679860E+02  0.43067679860E+02  0.00000000000E+00 0. -1.
         35    2    1    2    0    0  0.00000000000E+00  0.00000000000E+00  0.40858132649E+03  0.49471668621E+03  0.27893708835E+03 0.  0.
         25    1    3    3    0    0  0.46067288717E+02 -0.37946685453E+02  0.13584505493E+03  0.19082983251E+03  0.12000000000E+03 0.  0.
         25    1    3    3    0    0 -0.46067288717E+02  0.37946685453E+02  0.27273627156E+03  0.30388685370E+03  0.12000000000E+03 0.  0.
<mgrwt>
<rscale>  0 0.27893709E+03</rscale>
<asrwt>0</asrwt>
<pdfrwt beam="1">  1        2 0.69484459E-01 0.27893709E+03</pdfrwt>
<pdfrwt beam="2">  1       -2 0.66257972E-02 0.27893709E+03</pdfrwt>
<totfact> 0.88103088E+03</totfact>
</mgrwt>
</event>
<event>
 5    1  0.1122238E+001  0.2748529E+03  0.7818608E-02  0.1098534E+00
          1   -1    0    0  501    0  0.00000000000E+00  0.00000000000E+00  0.90651119860E+03  0.90651119860E+03  0.00000000000E+00 0. -1.
         -1   -1    0    0    0  501 -0.00000000000E+00 -0.00000000000E+00 -0.20833753238E+02  0.20833753238E+02  0.00000000000E+00 0. -1.
         35    2    1    2    0    0  0.00000000000E+00  0.00000000000E+00  0.88567744536E+03  0.92734495184E+03  0.27485291062E+03 0.  0.
         25    1    3    3    0    0  0.18960580614E+02 -0.22359445878E+02  0.64602282918E+03  0.65772710470E+03  0.12000000000E+03 0.  0.
         25    1    3    3    0    0 -0.18960580614E+02  0.22359445878E+02  0.23965461619E+03  0.26961784714E+03  0.12000000000E+03 0.  0.
<mgrwt>
<rscale>  0 0.27485291E+03</rscale>
<asrwt>0</asrwt>
<pdfrwt beam="1">  1        1 0.13946323E+00 0.27485291E+03</pdfrwt>
<pdfrwt beam="2">  1       -1 0.32051935E-02 0.27485291E+03</pdfrwt>
<totfact> 0.64461873E+03</totfact>
</mgrwt>
</event>
<event>
 5    1  0.1122238E+001  0.2754189E+03  0.7818608E-02  0.1098218E+00
         -2   -1    0    0    0  501 -0.00000000000E+00  0.00000000000E+00  0.14478534438E+02  0.14478534438E+02  0.00000000000E+00 0. -1.
          2   -1    0    0  501    0  0.00000000000E+00 -0.00000000000E+00 -0.13097938248E+04  0.13097938248E+04  0.00000000000E+00 0. -1.
         35    2    1    2    0    0  0.00000000000E+00  0.00000000000E+00 -0.12953152904E+04  0.13242723592E+04  0.27541891728E+03 0.  0.
         25    1    3    3    0    0 -0.12694275917E+02 -0.57872305653E+02 -0.80372440783E+03  0.81479032404E+03  0.12000000000E+03 0.  0.
         25    1    3    3    0    0  0.12694275917E+02  0.57872305653E+02 -0.49159088252E+03  0.50948203519E+03  0.12000000000E+03 0.  0.
<mgrwt>
<rscale>  0 0.27541892E+03</rscale>
<asrwt>0</asrwt>
<pdfrwt beam="1">  1        2 0.20150674E+00 0.27541892E+03</pdfrwt>
<pdfrwt beam="2">  1       -2 0.22274669E-02 0.27541892E+03</pdfrwt>
<totfact> 0.11417556E+04</totfact>
</mgrwt>
</event>
<event>
 5    1  0.1122238E+001  0.2753973E+03  0.7818608E-02  0.1098230E+00
          3   -1    0    0  501    0  0.00000000000E+00  0.00000000000E+00  0.16244642750E+02  0.16244642750E+02  0.00000000000E+00 0. -1.
         -3   -1    0    0    0  501 -0.00000000000E+00 -0.00000000000E+00 -0.11672103767E+04  0.11672103767E+04  0.00000000000E+00 0. -1.
         35    2    1    2    0    0  0.00000000000E+00  0.00000000000E+00 -0.11509657340E+04  0.11834550195E+04  0.27539728092E+03 0.  0.
         25    1    3    3    0    0  0.27858761583E+02 -0.61412769516E+02 -0.59114091551E+03  0.60695569925E+03  0.12000000000E+03 0.  0.
         25    1    3    3    0    0 -0.27858761583E+02  0.61412769516E+02 -0.55982481848E+03  0.57649932024E+03  0.12000000000E+03 0.  0.
<mgrwt>
<rscale>  0 0.27539728E+03</rscale>
<asrwt>0</asrwt>
<pdfrwt beam="1">  1        3 0.24991748E-02 0.27539728E+03</pdfrwt>
<pdfrwt beam="2">  1       -3 0.17957090E+00 0.27539728E+03</pdfrwt>
<totfact> 0.36705947E+02</totfact>
</mgrwt>
</event>
<event>
 4    1  0.1122238E+001  0.2540155E+03  0.7818608E-02  0.1110793E+00
          2   -1    0    0  501    0  0.00000000000E+00  0.00000000000E+00  0.43136435745E+03  0.43136435745E+03  0.00000000000E+00 0. -1.
         -2   -1    0    0    0  501 -0.00000000000E+00 -0.00000000000E+00 -0.37395233054E+02  0.37395233054E+02  0.00000000000E+00 0. -1.
         25    1    1    2    0    0  0.85465264461E+01  0.28210839329E+02  0.14280160252E+03  0.18884171216E+03  0.12000000000E+03 0.  0.
         25    1    1    2    0    0 -0.85465264461E+01 -0.28210839329E+02  0.25116752188E+03  0.27991787835E+03  0.12000000000E+03 0.  0.
<mgrwt>
<rscale>  0 0.25401552E+03</rscale>
<asrwt>0</asrwt>
<pdfrwt beam="1">  1        2 0.66363744E-01 0.25401552E+03</pdfrwt>
<pdfrwt beam="2">  1       -2 0.57531131E-02 0.25401552E+03</pdfrwt>
<totfact> 0.11466049E+04</totfact>
</mgrwt>
</event>
<event>
 5    1  0.1122238E+001  0.2761074E+03  0.7818608E-02  0.1097834E+00
         -2   -1    0    0    0  501 -0.00000000000E+00  0.00000000000E+00  0.13233696826E+03  0.13233696826E+03  0.00000000000E+00 0.  1.
          2   -1    0    0  501    0  0.00000000000E+00 -0.00000000000E+00 -0.14401743301E+03  0.14401743301E+03  0.00000000000E+00 0.  1.
         35    2    1    2    0    0  0.00000000000E+00  0.00000000000E+00 -0.11680464743E+02  0.27635440127E+03  0.27610744620E+03 0.  0.
         25    1    3    3    0    0  0.18379157800E+02 -0.57533611863E+02 -0.37663646752E+02  0.13952225709E+03  0.12000000000E+03 0.  0.
         25    1    3    3    0    0 -0.18379157800E+02  0.57533611863E+02  0.25983182009E+02  0.13683214419E+03  0.12000000000E+03 0.  0.
<mgrwt>
<rscale>  0 0.27610745E+03</rscale>
<asrwt>0</asrwt>
<pdfrwt beam="1">  1        2 0.22156528E-01 0.27610745E+03</pdfrwt>
<pdfrwt beam="2">  1       -2 0.20359534E-01 0.27610745E+03</pdfrwt>
<totfact> 0.49969428E+03</totfact>
</mgrwt>
</event>
<event>
 5    1  0.1122238E+001  0.2782573E+03  0.7818608E-02  0.1096645E+00
         -1   -1    0    0    0  501 -0.00000000000E+00  0.00000000000E+00  0.32379317957E+02  0.32379317957E+02  0.00000000000E+00 0. -1.
          1   -1    0    0  501    0  0.00000000000E+00 -0.00000000000E+00 -0.59781304559E+03  0.59781304559E+03  0.00000000000E+00 0. -1.
         35    2    1    2    0    0  0.00000000000E+00  0.00000000000E+00 -0.56543372763E+03  0.63019236354E+03  0.27825728153E+03 0.  0.
         25    1    3    3    0    0 -0.50315867441E+02  0.48194496005E+02 -0.25980080487E+03  0.29453497954E+03  0.12000000000E+03 0.  0.
         25    1    3    3    0    0  0.50315867441E+02 -0.48194496005E+02 -0.30563292276E+03  0.33565738400E+03  0.12000000000E+03 0.  0.
<mgrwt>
<rscale>  0 0.27825728E+03</rscale>
<asrwt>0</asrwt>
<pdfrwt beam="1">  1        1 0.91971241E-01 0.27825728E+03</pdfrwt>
<pdfrwt beam="2">  1       -1 0.49814334E-02 0.27825728E+03</pdfrwt>
<totfact> 0.62366789E+03</totfact>
</mgrwt>
</event>
<event>
 5    1  0.1122238E+001  0.2756601E+03  0.7818608E-02  0.1098083E+00
         -2   -1    0    0    0  501 -0.00000000000E+00  0.00000000000E+00  0.61639128487E+01  0.61639128487E+01  0.00000000000E+00 0.  1.
          2   -1    0    0  501    0  0.00000000000E+00 -0.00000000000E+00 -0.30819914203E+04  0.30819914203E+04  0.00000000000E+00 0.  1.
         35    2    1    2    0    0  0.00000000000E+00  0.00000000000E+00 -0.30758275074E+04  0.30881553331E+04  0.27566012780E+03 0.  0.
         25    1    3    3    0    0  0.20499995490E+02  0.60683472370E+02 -0.17870066189E+04  0.17921761603E+04  0.12000000000E+03 0.  0.
         25    1    3    3    0    0 -0.20499995490E+02 -0.60683472370E+02 -0.12888208885E+04  0.12959791728E+04  0.12000000000E+03 0.  0.
<mgrwt>
<rscale>  0 0.27566013E+03</rscale>
<asrwt>0</asrwt>
<pdfrwt beam="1">  1        2 0.47415315E+00 0.27566013E+03</pdfrwt>
<pdfrwt beam="2">  1       -2 0.94829304E-03 0.27566013E+03</pdfrwt>
<totfact> 0.42863877E+03</totfact>
</mgrwt>
</event>
<event>
 5    1  0.1122238E+001  0.2744117E+03  0.7818608E-02  0.1098781E+00
         -2   -1    0    0    0  501 -0.00000000000E+00  0.00000000000E+00  0.27081273129E+02  0.27081273129E+02  0.00000000000E+00 0. -1.
          2   -1    0    0  501    0  0.00000000000E+00 -0.00000000000E+00 -0.69514607428E+03  0.69514607428E+03  0.00000000000E+00 0. -1.
         35    2    1    2    0    0  0.00000000000E+00  0.00000000000E+00 -0.66806480115E+03  0.72222734741E+03  0.27441166668E+03 0.  0.
         25    1    3    3    0    0 -0.16082677278E+02  0.11089299300E+01 -0.16416580811E+03  0.20398601615E+03  0.12000000000E+03 0.  0.
         25    1    3    3    0    0  0.16082677278E+02 -0.11089299300E+01 -0.50389899304E+03  0.51824133125E+03  0.12000000000E+03 0.  0.
<mgrwt>
<rscale>  0 0.27441167E+03</rscale>
<asrwt>0</asrwt>
<pdfrwt beam="1">  1        2 0.10694556E+00 0.27441167E+03</pdfrwt>
<pdfrwt beam="2">  1       -2 0.41663495E-02 0.27441167E+03</pdfrwt>
<totfact> 0.10885454E+04</totfact>
</mgrwt>
</event>
<event>
 5    1  0.1122238E+001  0.2755042E+03  0.7818608E-02  0.1098170E+00
         -1   -1    0    0    0  501 -0.00000000000E+00  0.00000000000E+00  0.32959212361E+02  0.32959212361E+02  0.00000000000E+00 0. -1.
          1   -1    0    0  501    0  0.00000000000E+00 -0.00000000000E+00 -0.57573087493E+03  0.57573087493E+03  0.00000000000E+00 0. -1.
         35    2    1    2    0    0  0.00000000000E+00  0.00000000000E+00 -0.54277166257E+03  0.60869008729E+03  0.27550416454E+03 0.  0.
         25    1    3    3    0    0 -0.44295782620E+02  0.33289084795E+02 -0.18566472581E+03  0.22790715201E+03  0.12000000000E+03 0.  0.
         25    1    3    3    0    0  0.44295782620E+02 -0.33289084795E+02 -0.35710693676E+03  0.38078293528E+03  0.12000000000E+03 0.  0.
<mgrwt>
<rscale>  0 0.27550416E+03</rscale>
<asrwt>0</asrwt>
<pdfrwt beam="1">  1        1 0.88573978E-01 0.27550416E+03</pdfrwt>
<pdfrwt beam="2">  1       -1 0.50706482E-02 0.27550416E+03</pdfrwt>
<totfact> 0.63950244E+03</totfact>
</mgrwt>
</event>
<event>
 5    1  0.1122238E+001  0.2748277E+03  0.7818608E-02  0.1098548E+00
          1   -1    0    0  501    0  0.00000000000E+00  0.00000000000E+00  0.80464536184E+03  0.80464536184E+03  0.00000000000E+00 0. -1.
         -1   -1    0    0    0  501 -0.00000000000E+00 -0.00000000000E+00 -0.23466940572E+02  0.23466940572E+02  0.00000000000E+00 0. -1.
         35    2    1    2    0    0  0.00000000000E+00  0.00000000000E+00  0.78117842127E+03  0.82811230241E+03  0.27482769065E+03 0.  0.
         25    1    3    3    0    0  0.64113547895E+01  0.17787022638E+02  0.19706067914E+03  0.23149599328E+03  0.12000000000E+03 0.  0.
         25    1    3    3    0    0 -0.64113547895E+01 -0.17787022638E+02  0.58411774213E+03  0.59661630913E+03  0.12000000000E+03 0.  0.
<mgrwt>
<rscale>  0 0.27482769E+03</rscale>
<asrwt>0</asrwt>
<pdfrwt beam="1">  1        1 0.12379157E+00 0.27482769E+03</pdfrwt>
<pdfrwt beam="2">  1       -1 0.36102992E-02 0.27482769E+03</pdfrwt>
<totfact> 0.65306707E+03</totfact>
</mgrwt>
</event>
<event>
 5    1  0.1122238E+001  0.2752646E+03  0.7818608E-02  0.1098304E+00
          2   -1    0    0  501    0  0.00000000000E+00  0.00000000000E+00  0.14911079304E+03  0.14911079304E+03  0.00000000000E+00 0.  1.
         -2   -1    0    0    0  501 -0.00000000000E+00 -0.00000000000E+00 -0.12703738835E+03  0.12703738835E+03  0.00000000000E+00 0.  1.
         35    2    1    2    0    0  0.00000000000E+00  0.00000000000E+00  0.22073404686E+02  0.27614818139E+03  0.27526456890E+03 0.  0.
         25    1    3    3    0    0 -0.44353498261E+02  0.19379494660E+02  0.58089800066E+02  0.14183519483E+03  0.12000000000E+03 0.  0.
         25    1    3    3    0    0  0.44353498261E+02 -0.19379494660E+02 -0.36016395381E+02  0.13431298656E+03  0.12000000000E+03 0.  0.
<mgrwt>
<rscale>  0 0.27526457E+03</rscale>
<asrwt>0</asrwt>
<pdfrwt beam="1">  1        2 0.22940122E-01 0.27526457E+03</pdfrwt>
<pdfrwt beam="2">  1       -2 0.19544214E-01 0.27526457E+03</pdfrwt>
<totfact> 0.51517962E+03</totfact>
</mgrwt>
</event>
<event>
 5    1  0.1122238E+001  0.2744678E+03  0.7818608E-02  0.1098749E+00
          2   -1    0    0  501    0  0.00000000000E+00  0.00000000000E+00  0.12754286187E+04  0.12754286187E+04  0.00000000000E+00 0.  1.
         -2   -1    0    0    0  501 -0.00000000000E+00 -0.00000000000E+00 -0.14766126531E+02  0.14766126531E+02  0.00000000000E+00 0.  1.
         35    2    1    2    0    0  0.00000000000E+00  0.00000000000E+00  0.12606624922E+04  0.12901947452E+04  0.27446777855E+03 0.  0.
         25    1    3    3    0    0 -0.41911792540E+02  0.37226221271E+02  0.46144859187E+03  0.48008040247E+03  0.12000000000E+03 0.  0.
         25    1    3    3    0    0  0.41911792540E+02 -0.37226221271E+02  0.79921390031E+03  0.81011434277E+03  0.12000000000E+03 0.  0.
<mgrwt>
<rscale>  0 0.27446778E+03</rscale>
<asrwt>0</asrwt>
<pdfrwt beam="1">  1        2 0.19621970E+00 0.27446778E+03</pdfrwt>
<pdfrwt beam="2">  1       -2 0.22717128E-02 0.27446778E+03</pdfrwt>
<totfact> 0.11587610E+04</totfact>
</mgrwt>
</event>
<event>
 5    1  0.1122238E+001  0.2744713E+03  0.7818608E-02  0.1098747E+00
         -2   -1    0    0    0  501 -0.00000000000E+00  0.00000000000E+00  0.31047451157E+02  0.31047451157E+02  0.00000000000E+00 0.  1.
          2   -1    0    0  501    0  0.00000000000E+00 -0.00000000000E+00 -0.60660776976E+03  0.60660776976E+03  0.00000000000E+00 0.  1.
         35    2    1    2    0    0  0.00000000000E+00  0.00000000000E+00 -0.57556031860E+03  0.63765522091E+03  0.27447131073E+03 0.  0.
         25    1    3    3    0    0 -0.12125642011E+02 -0.41966378367E+02 -0.40452978935E+03  0.42420815477E+03  0.12000000000E+03 0.  0.
         25    1    3    3    0    0  0.12125642011E+02  0.41966378367E+02 -0.17103052925E+03  0.21344706614E+03  0.12000000000E+03 0.  0.
<mgrwt>
<rscale>  0 0.27447131E+03</rscale>
<asrwt>0</asrwt>
<pdfrwt beam="1">  1        2 0.93324272E-01 0.27447131E+03</pdfrwt>
<pdfrwt beam="2">  1       -2 0.47765310E-02 0.27447131E+03</pdfrwt>
<totfact> 0.10407539E+04</totfact>
</mgrwt>
</event>
<event>
 5    1  0.1122238E+001  0.2761853E+03  0.7818608E-02  0.1097791E+00
          1   -1    0    0  501    0  0.00000000000E+00  0.00000000000E+00  0.19150086954E+04  0.19150086954E+04  0.00000000000E+00 0.  1.
         -1   -1    0    0    0  501 -0.00000000000E+00 -0.00000000000E+00 -0.99579611744E+01  0.99579611744E+01  0.00000000000E+00 0.  1.
         35    2    1    2    0    0  0.00000000000E+00  0.00000000000E+00  0.19050507342E+04  0.19249666565E+04  0.27618531632E+03 0.  0.
         25    1    3    3    0    0 -0.33677043189E+02 -0.57969600690E+02  0.86033246934E+03  0.87124426864E+03  0.12000000000E+03 0.  0.
         25    1    3    3    0    0  0.33677043189E+02  0.57969600690E+02  0.10447182649E+04  0.10537223879E+04  0.12000000000E+03 0.  0.
<mgrwt>
<rscale>  0 0.27618532E+03</rscale>
<asrwt>0</asrwt>
<pdfrwt beam="1">  1        1 0.29461643E+00 0.27618532E+03</pdfrwt>
<pdfrwt beam="2">  1       -1 0.15319955E-02 0.27618532E+03</pdfrwt>
<totfact> 0.38774157E+03</totfact>
</mgrwt>
</event>
<event>
 5    1  0.1122238E+001  0.2734288E+03  0.7818608E-02  0.1099333E+00
          1   -1    0    0  501    0  0.00000000000E+00  0.00000000000E+00  0.57276443737E+03  0.57276443737E+03  0.00000000000E+00 0.  1.
         -1   -1    0    0    0  501 -0.00000000000E+00 -0.00000000000E+00 -0.32632649666E+02  0.32632649666E+02  0.00000000000E+00 0.  1.
         35    2    1    2    0    0  0.00000000000E+00  0.00000000000E+00  0.54013178771E+03  0.60539708704E+03  0.27342875654E+03 0.  0.
         25    1    3    3    0    0  0.22076757611E+02 -0.39122246674E+02  0.16450935545E+03  0.20852160905E+03  0.12000000000E+03 0.  0.
         25    1    3    3    0    0 -0.22076757611E+02  0.39122246674E+02  0.37562243226E+03  0.39687547798E+03  0.12000000000E+03 0.  0.
<mgrwt>
<rscale>  0 0.27342876E+03</rscale>
<asrwt>0</asrwt>
<pdfrwt beam="1">  1        1 0.88117599E-01 0.27342876E+03</pdfrwt>
<pdfrwt beam="2">  1       -1 0.50204080E-02 0.27342876E+03</pdfrwt>
<totfact> 0.65358803E+03</totfact>
</mgrwt>
</event>
<event>
 4    1  0.1122238E+001  0.2544582E+03  0.7818608E-02  0.1110519E+00
         -2   -1    0    0    0  501 -0.00000000000E+00  0.00000000000E+00  0.62071813163E+02  0.62071813163E+02  0.00000000000E+00 0.  1.
          2   -1    0    0  501    0  0.00000000000E+00 -0.00000000000E+00 -0.26078259672E+03  0.26078259672E+03  0.00000000000E+00 0.  1.
         25    1    1    2    0    0  0.35780745810E+02  0.73595799373E+01 -0.12635482544E+03  0.17804484576E+03  0.12000000000E+03 0.  0.
         25    1    1    2    0    0 -0.35780745810E+02 -0.73595799373E+01 -0.72355958111E+02  0.14480956412E+03  0.12000000000E+03 0.  0.
<mgrwt>
<rscale>  0 0.25445824E+03</rscale>
<asrwt>0</asrwt>
<pdfrwt beam="1">  1        2 0.40120399E-01 0.25445824E+03</pdfrwt>
<pdfrwt beam="2">  1       -2 0.95495098E-02 0.25445824E+03</pdfrwt>
<totfact> 0.89810005E+03</totfact>
</mgrwt>
</event>
<event>
 5    1  0.1122238E+001  0.2748352E+03  0.7818608E-02  0.1098544E+00
          2   -1    0    0  501    0  0.00000000000E+00  0.00000000000E+00  0.97527043023E+03  0.97527043023E+03  0.00000000000E+00 0. -1.
         -2   -1    0    0    0  501 -0.00000000000E+00 -0.00000000000E+00 -0.19362421091E+02  0.19362421091E+02  0.00000000000E+00 0. -1.
         35    2    1    2    0    0  0.00000000000E+00  0.00000000000E+00  0.95590800914E+03  0.99463285133E+03  0.27483519970E+03 0.  0.
         25    1    3    3    0    0 -0.37907481599E+01  0.66322592861E+02  0.44755844228E+03  0.46810427828E+03  0.12000000000E+03 0.  0.
         25    1    3    3    0    0  0.37907481599E+01 -0.66322592861E+02  0.50834956687E+03  0.52652857304E+03  0.12000000000E+03 0.  0.
<mgrwt>
<rscale>  0 0.27483520E+03</rscale>
<asrwt>0</asrwt>
<pdfrwt beam="1">  1        2 0.15004157E+00 0.27483520E+03</pdfrwt>
<pdfrwt beam="2">  1       -2 0.29788348E-02 0.27483520E+03</pdfrwt>
<totfact> 0.11613416E+04</totfact>
</mgrwt>
</event>
<event>
 5    1  0.1122238E+001  0.2752666E+03  0.7818608E-02  0.1098303E+00
          2   -1    0    0  501    0  0.00000000000E+00  0.00000000000E+00  0.18845604401E+04  0.18845604401E+04  0.00000000000E+00 0. -1.
         -2   -1    0    0    0  501 -0.00000000000E+00 -0.00000000000E+00 -0.10051644189E+02  0.10051644189E+02  0.00000000000E+00 0. -1.
         35    2    1    2    0    0  0.00000000000E+00  0.00000000000E+00  0.18745087959E+04  0.18946120843E+04  0.27526664161E+03 0.  0.
         25    1    3    3    0    0 -0.50686172178E+02 -0.82585415277E+01  0.63679410612E+03  0.65003386461E+03  0.12000000000E+03 0.  0.
         25    1    3    3    0    0  0.50686172178E+02  0.82585415277E+01  0.12377146898E+04  0.12445782197E+04  0.12000000000E+03 0.  0.
<mgrwt>
<rscale>  0 0.27526664E+03</rscale>
<asrwt>0</asrwt>
<pdfrwt beam="1">  1        2 0.28993210E+00 0.27526664E+03</pdfrwt>
<pdfrwt beam="2">  1       -2 0.15464083E-02 0.27526664E+03</pdfrwt>
<totfact> 0.96399959E+03</totfact>
</mgrwt>
</event>
<event>
 5    1  0.1122238E+001  0.2744019E+03  0.7818608E-02  0.1098786E+00
         -3   -1    0    0    0  501 -0.00000000000E+00  0.00000000000E+00  0.43220465538E+02  0.43220465538E+02  0.00000000000E+00 0. -1.
          3   -1    0    0  501    0  0.00000000000E+00 -0.00000000000E+00 -0.43553667578E+03  0.43553667578E+03  0.00000000000E+00 0. -1.
         35    2    1    2    0    0  0.00000000000E+00  0.00000000000E+00 -0.39231621024E+03  0.47875714132E+03  0.27440187963E+03 0.  0.
         25    1    3    3    0    0 -0.63960597978E+01 -0.54786214694E+02 -0.13130532235E+03  0.18623513788E+03  0.12000000000E+03 0.  0.
         25    1    3    3    0    0  0.63960597978E+01  0.54786214694E+02 -0.26101088789E+03  0.29252200344E+03  0.12000000000E+03 0.  0.
<mgrwt>
<rscale>  0 0.27440188E+03</rscale>
<asrwt>0</asrwt>
<pdfrwt beam="1">  1        3 0.67005642E-01 0.27440188E+03</pdfrwt>
<pdfrwt beam="2">  1       -3 0.66493024E-02 0.27440188E+03</pdfrwt>
<totfact> 0.80065401E+02</totfact>
</mgrwt>
</event>
<event>
 5    1  0.1122238E+001  0.2768862E+03  0.7818608E-02  0.1097402E+00
         -2   -1    0    0    0  501 -0.00000000000E+00  0.00000000000E+00  0.81818855212E+01  0.81818855212E+01  0.00000000000E+00 0. -1.
          2   -1    0    0  501    0  0.00000000000E+00 -0.00000000000E+00 -0.23425525763E+04  0.23425525763E+04  0.00000000000E+00 0. -1.
         35    2    1    2    0    0  0.00000000000E+00  0.00000000000E+00 -0.23343706908E+04  0.23507344619E+04  0.27688623662E+03 0.  0.
         25    1    3    3    0    0  0.18631351844E+02  0.30544655504E+02 -0.16684769406E+04  0.16731692696E+04  0.12000000000E+03 0.  0.
         25    1    3    3    0    0 -0.18631351844E+02 -0.30544655504E+02 -0.66589375020E+03  0.67756519229E+03  0.12000000000E+03 0.  0.
<mgrwt>
<rscale>  0 0.27688624E+03</rscale>
<asrwt>0</asrwt>
<pdfrwt beam="1">  1        2 0.36039277E+00 0.27688624E+03</pdfrwt>
<pdfrwt beam="2">  1       -2 0.12587514E-02 0.27688624E+03</pdfrwt>
<totfact> 0.74470073E+03</totfact>
</mgrwt>
</event>
<event>
 5    1  0.1122238E+001  0.2751107E+03  0.7818608E-02  0.1098390E+00
         -1   -1    0    0    0  501 -0.00000000000E+00  0.00000000000E+00  0.30989932162E+02  0.30989932162E+02  0.00000000000E+00 0.  1.
          1   -1    0    0  501    0  0.00000000000E+00 -0.00000000000E+00 -0.61056842224E+03  0.61056842224E+03  0.00000000000E+00 0.  1.
         35    2    1    2    0    0  0.00000000000E+00  0.00000000000E+00 -0.57957849007E+03  0.64155835440E+03  0.27511069761E+03 0.  0.
         25    1    3    3    0    0  0.39474750211E+02  0.50302263987E+02 -0.33830945143E+03  0.36461192876E+03  0.12000000000E+03 0.  0.
         25    1    3    3    0    0 -0.39474750211E+02 -0.50302263987E+02 -0.24126903865E+03  0.27694642564E+03  0.12000000000E+03 0.  0.
<mgrwt>
<rscale>  0 0.27511070E+03</rscale>
<asrwt>0</asrwt>
<pdfrwt beam="1">  1        1 0.93933601E-01 0.27511070E+03</pdfrwt>
<pdfrwt beam="2">  1       -1 0.47676820E-02 0.27511070E+03</pdfrwt>
<totfact> 0.64649575E+03</totfact>
</mgrwt>
</event>
<event>
 5    1  0.1122238E+001  0.2753085E+03  0.7818608E-02  0.1098279E+00
         -1   -1    0    0    0  501 -0.00000000000E+00  0.00000000000E+00  0.11939579691E+02  0.11939579691E+02  0.00000000000E+00 0.  1.
          1   -1    0    0  501    0  0.00000000000E+00 -0.00000000000E+00 -0.15870480527E+04  0.15870480527E+04  0.00000000000E+00 0.  1.
         35    2    1    2    0    0  0.00000000000E+00  0.00000000000E+00 -0.15751084730E+04  0.15989876324E+04  0.27530845755E+03 0.  0.
         25    1    3    3    0    0  0.66548323000E+02 -0.80547731827E+00 -0.85100727620E+03  0.86199925304E+03  0.12000000000E+03 0.  0.
         25    1    3    3    0    0 -0.66548323000E+02  0.80547731827E+00 -0.72410119685E+03  0.73698837940E+03  0.12000000000E+03 0.  0.
<mgrwt>
<rscale>  0 0.27530846E+03</rscale>
<asrwt>0</asrwt>
<pdfrwt beam="1">  1        1 0.24416100E+00 0.27530846E+03</pdfrwt>
<pdfrwt beam="2">  1       -1 0.18368602E-02 0.27530846E+03</pdfrwt>
<totfact> 0.48685139E+03</totfact>
</mgrwt>
</event>
<event>
 5    1  0.1122238E+001  0.2748014E+03  0.7818608E-02  0.1098563E+00
         -2   -1    0    0    0  501 -0.00000000000E+00  0.00000000000E+00  0.37573784938E+02  0.37573784938E+02  0.00000000000E+00 0. -1.
          2   -1    0    0  501    0  0.00000000000E+00 -0.00000000000E+00 -0.50244998463E+03  0.50244998463E+03  0.00000000000E+00 0. -1.
         35    2    1    2    0    0  0.00000000000E+00  0.00000000000E+00 -0.46487619969E+03  0.54002376957E+03  0.27480136582E+03 0.  0.
         25    1    3    3    0    0  0.56269586597E+02 -0.36175573188E+02 -0.23637289826E+03  0.27339913223E+03  0.12000000000E+03 0.  0.
         25    1    3    3    0    0 -0.56269586597E+02  0.36175573188E+02 -0.22850330143E+03  0.26662463733E+03  0.12000000000E+03 0.  0.
<mgrwt>
<rscale>  0 0.27480137E+03</rscale>
<asrwt>0</asrwt>
<pdfrwt beam="1">  1        2 0.77299998E-01 0.27480137E+03</pdfrwt>
<pdfrwt beam="2">  1       -2 0.57805823E-02 0.27480137E+03</pdfrwt>
<totfact> 0.96482145E+03</totfact>
</mgrwt>
</event>
<event>
 5    1  0.1122238E+001  0.2742990E+03  0.7818608E-02  0.1098844E+00
         -2   -1    0    0    0  501 -0.00000000000E+00  0.00000000000E+00  0.18963467480E+03  0.18963467480E+03  0.00000000000E+00 0. -1.
          2   -1    0    0  501    0  0.00000000000E+00 -0.00000000000E+00 -0.99190661418E+02  0.99190661418E+02  0.00000000000E+00 0. -1.
         35    2    1    2    0    0  0.00000000000E+00  0.00000000000E+00  0.90444013382E+02  0.28882533622E+03  0.27429902531E+03 0.  0.
         25    1    3    3    0    0 -0.39917824071E+02 -0.53045078957E+02  0.46976293142E+02  0.14496201295E+03  0.12000000000E+03 0.  0.
         25    1    3    3    0    0  0.39917824071E+02  0.53045078957E+02  0.43467720240E+02  0.14386332327E+03  0.12000000000E+03 0.  0.
<mgrwt>
<rscale>  0 0.27429903E+03</rscale>
<asrwt>0</asrwt>
<pdfrwt beam="1">  1        2 0.15260102E-01 0.27429903E+03</pdfrwt>
<pdfrwt beam="2">  1       -2 0.29174565E-01 0.27429903E+03</pdfrwt>
<totfact> 0.40846370E+03</totfact>
</mgrwt>
</event>
<event>
 5    1  0.1122238E+001  0.2752335E+03  0.7818608E-02  0.1098321E+00
          3   -1    0    0  501    0  0.00000000000E+00  0.00000000000E+00  0.42679182699E+03  0.42679182699E+03  0.00000000000E+00 0. -1.
         -3   -1    0    0    0  501 -0.00000000000E+00 -0.00000000000E+00 -0.44373779499E+02  0.44373779499E+02  0.00000000000E+00 0. -1.
         35    2    1    2    0    0  0.00000000000E+00  0.00000000000E+00  0.38241804749E+03  0.47116560649E+03  0.27523347487E+03 0.  0.
         25    1    3    3    0    0  0.50265338191E+02 -0.40092741251E+02  0.22563154041E+03  0.26352158195E+03  0.12000000000E+03 0.  0.
         25    1    3    3    0    0 -0.50265338191E+02  0.40092741251E+02  0.15678650708E+03  0.20764402454E+03  0.12000000000E+03 0.  0.
<mgrwt>
<rscale>  0 0.27523347E+03</rscale>
<asrwt>0</asrwt>
<pdfrwt beam="1">  1        3 0.65660278E-01 0.27523347E+03</pdfrwt>
<pdfrwt beam="2">  1       -3 0.68267356E-02 0.27523347E+03</pdfrwt>
<totfact> 0.80102847E+02</totfact>
</mgrwt>
</event>
<event>
 5    1  0.1122238E+001  0.2723797E+03  0.7818608E-02  0.1099925E+00
         -2   -1    0    0    0  501 -0.00000000000E+00  0.00000000000E+00  0.17385427736E+02  0.17385427736E+02  0.00000000000E+00 0.  1.
          2   -1    0    0  501    0  0.00000000000E+00 -0.00000000000E+00 -0.10668520764E+04  0.10668520764E+04  0.00000000000E+00 0.  1.
         35    2    1    2    0    0  0.00000000000E+00  0.00000000000E+00 -0.10494666487E+04  0.10842375042E+04  0.27237973258E+03 0.  0.
         25    1    3    3    0    0  0.96616352901E+00 -0.24762845030E+02 -0.28811132674E+03  0.31308508198E+03  0.12000000000E+03 0.  0.
         25    1    3    3    0    0 -0.96616352901E+00  0.24762845030E+02 -0.76135532197E+03  0.77115242219E+03  0.12000000000E+03 0.  0.
<mgrwt>
<rscale>  0 0.27237973E+03</rscale>
<asrwt>0</asrwt>
<pdfrwt beam="1">  1        2 0.16413109E+00 0.27237973E+03</pdfrwt>
<pdfrwt beam="2">  1       -2 0.26746811E-02 0.27237973E+03</pdfrwt>
<totfact> 0.11987494E+04</totfact>
</mgrwt>
</event>
<event>
 5    1  0.1122238E+001  0.2757071E+03  0.7818608E-02  0.1098057E+00
          2   -1    0    0  501    0  0.00000000000E+00  0.00000000000E+00  0.71030803895E+03  0.71030803895E+03  0.00000000000E+00 0.  1.
         -2   -1    0    0    0  501 -0.00000000000E+00 -0.00000000000E+00 -0.26754031571E+02  0.26754031571E+02  0.00000000000E+00 0.  1.
         35    2    1    2    0    0  0.00000000000E+00  0.00000000000E+00  0.68355400738E+03  0.73706207052E+03  0.27570711778E+03 0.  0.
         25    1    3    3    0    0  0.18314807321E+02 -0.22202247920E+02  0.50603551833E+03  0.52086497079E+03  0.12000000000E+03 0.  0.
         25    1    3    3    0    0 -0.18314807321E+02  0.22202247920E+02  0.17751848905E+03  0.21619709974E+03  0.12000000000E+03 0.  0.
<mgrwt>
<rscale>  0 0.27570712E+03</rscale>
<asrwt>0</asrwt>
<pdfrwt beam="1">  1        2 0.10927815E+00 0.27570712E+03</pdfrwt>
<pdfrwt beam="2">  1       -2 0.41160054E-02 0.27570712E+03</pdfrwt>
<totfact> 0.10801616E+04</totfact>
</mgrwt>
</event>
<event>
 5    1  0.1122238E+001  0.2752819E+03  0.7818608E-02  0.1098294E+00
          2   -1    0    0  501    0  0.00000000000E+00  0.00000000000E+00  0.43201681124E+02  0.43201681124E+02  0.00000000000E+00 0. -1.
         -2   -1    0    0    0  501 -0.00000000000E+00 -0.00000000000E+00 -0.43852524089E+03  0.43852524089E+03  0.00000000000E+00 0. -1.
         35    2    1    2    0    0  0.00000000000E+00  0.00000000000E+00 -0.39532355976E+03  0.48172692201E+03  0.27528187461E+03 0.  0.
         25    1    3    3    0    0  0.32640443431E+02  0.55382905949E+02 -0.23319732996E+03  0.27002529422E+03  0.12000000000E+03 0.  0.
         25    1    3    3    0    0 -0.32640443431E+02 -0.55382905949E+02 -0.16212622980E+03  0.21170162779E+03  0.12000000000E+03 0.  0.
<mgrwt>
<rscale>  0 0.27528187E+03</rscale>
<asrwt>0</asrwt>
<pdfrwt beam="1">  1        2 0.66464124E-02 0.27528187E+03</pdfrwt>
<pdfrwt beam="2">  1       -2 0.67465423E-01 0.27528187E+03</pdfrwt>
<totfact> 0.22255861E+03</totfact>
</mgrwt>
</event>
<event>
 5    1  0.1122238E+001  0.2752918E+03  0.7818608E-02  0.1098289E+00
         -4   -1    0    0    0  501 -0.00000000000E+00  0.00000000000E+00  0.14764819044E+04  0.14764819044E+04  0.00000000000E+00 0.  1.
          4   -1    0    0  501    0  0.00000000000E+00 -0.00000000000E+00 -0.12832117078E+02  0.12832117078E+02  0.00000000000E+00 0.  1.
         35    2    1    2    0    0  0.00000000000E+00  0.00000000000E+00  0.14636497873E+04  0.14893140215E+04  0.27529176276E+03 0.  0.
         25    1    3    3    0    0 -0.42077627085E+02  0.43953010743E+02  0.57465731999E+03  0.59019778827E+03  0.12000000000E+03 0.  0.
         25    1    3    3    0    0  0.42077627085E+02 -0.43953010743E+02  0.88899246735E+03  0.89911623324E+03  0.12000000000E+03 0.  0.
<mgrwt>
<rscale>  0 0.27529176E+03</rscale>
<asrwt>0</asrwt>
<pdfrwt beam="1">  1        4 0.19741730E-02 0.27529176E+03</pdfrwt>
<pdfrwt beam="2">  1       -4 0.22715093E+00 0.27529176E+03</pdfrwt>
<totfact> 0.18978088E+02</totfact>
</mgrwt>
</event>
<event>
 5    1  0.1122238E+001  0.2751113E+03  0.7818608E-02  0.1098389E+00
         -2   -1    0    0    0  501 -0.00000000000E+00  0.00000000000E+00  0.23666168968E+02  0.23666168968E+02  0.00000000000E+00 0.  1.
          2   -1    0    0  501    0  0.00000000000E+00 -0.00000000000E+00 -0.79951920135E+03  0.79951920135E+03  0.00000000000E+00 0.  1.
         35    2    1    2    0    0  0.00000000000E+00  0.00000000000E+00 -0.77585303238E+03  0.82318537031E+03  0.27511129757E+03 0.  0.
         25    1    3    3    0    0  0.19387746436E+02  0.45594164243E+02 -0.52395913729E+03  0.53980356619E+03  0.12000000000E+03 0.  0.
         25    1    3    3    0    0 -0.19387746436E+02 -0.45594164243E+02 -0.25189389509E+03  0.28338180412E+03  0.12000000000E+03 0.  0.
<mgrwt>
<rscale>  0 0.27511130E+03</rscale>
<asrwt>0</asrwt>
<pdfrwt beam="1">  1        2 0.12300297E+00 0.27511130E+03</pdfrwt>
<pdfrwt beam="2">  1       -2 0.36409487E-02 0.27511130E+03</pdfrwt>
<totfact> 0.11207215E+04</totfact>
</mgrwt>
</event>
<event>
 5    1  0.1122238E+001  0.2750832E+03  0.7818608E-02  0.1098405E+00
         -2   -1    0    0    0  501 -0.00000000000E+00  0.00000000000E+00  0.27824547617E+02  0.27824547617E+02  0.00000000000E+00 0.  1.
          2   -1    0    0  501    0  0.00000000000E+00 -0.00000000000E+00 -0.67989201807E+03  0.67989201807E+03  0.00000000000E+00 0.  1.
         35    2    1    2    0    0  0.00000000000E+00  0.00000000000E+00 -0.65206747045E+03  0.70771656569E+03  0.27508317165E+03 0.  0.
         25    1    3    3    0    0  0.22006426803E+02  0.17658238642E+01 -0.48936274105E+03  0.50434441931E+03  0.12000000000E+03 0.  0.
         25    1    3    3    0    0 -0.22006426803E+02 -0.17658238642E+01 -0.16270472940E+03  0.20337214638E+03  0.12000000000E+03 0.  0.
<mgrwt>
<rscale>  0 0.27508317E+03</rscale>
<asrwt>0</asrwt>
<pdfrwt beam="1">  1        2 0.10459876E+00 0.27508317E+03</pdfrwt>
<pdfrwt beam="2">  1       -2 0.42807001E-02 0.27508317E+03</pdfrwt>
<totfact> 0.10734536E+04</totfact>
</mgrwt>
</event>
<event>
 5    1  0.1122238E+001  0.2769395E+03  0.7818608E-02  0.1097372E+00
         -2   -1    0    0    0  501 -0.00000000000E+00  0.00000000000E+00  0.12984158105E+03  0.12984158105E+03  0.00000000000E+00 0. -1.
          2   -1    0    0  501    0  0.00000000000E+00 -0.00000000000E+00 -0.14767127973E+03  0.14767127973E+03  0.00000000000E+00 0. -1.
         35    2    1    2    0    0  0.00000000000E+00  0.00000000000E+00 -0.17829698686E+02  0.27751286078E+03  0.27693950556E+03 0.  0.
         25    1    3    3    0    0  0.29418263137E+02 -0.60993485749E+02  0.48333556143E+01  0.13787313312E+03  0.12000000000E+03 0.  0.
         25    1    3    3    0    0 -0.29418263137E+02  0.60993485749E+02 -0.22663054300E+02  0.13963972766E+03  0.12000000000E+03 0.  0.
<mgrwt>
<rscale>  0 0.27693951E+03</rscale>
<asrwt>0</asrwt>
<pdfrwt beam="1">  1        2 0.22718658E-01 0.27693951E+03</pdfrwt>
<pdfrwt beam="2">  1       -2 0.19975628E-01 0.27693951E+03</pdfrwt>
<totfact> 0.50188922E+03</totfact>
</mgrwt>
</event>
<event>
 5    1  0.1122238E+001  0.2753254E+03  0.7818608E-02  0.1098270E+00
          1   -1    0    0  501    0  0.00000000000E+00  0.00000000000E+00  0.18101148646E+03  0.18101148646E+03  0.00000000000E+00 0.  1.
         -1   -1    0    0    0  501 -0.00000000000E+00 -0.00000000000E+00 -0.10469514375E+03  0.10469514375E+03  0.00000000000E+00 0.  1.
         35    2    1    2    0    0  0.00000000000E+00  0.00000000000E+00  0.76316342709E+02  0.28570663021E+03  0.27532543359E+03 0.  0.
         25    1    3    3    0    0 -0.82647874365E+01 -0.56248649493E+02  0.75842822221E+02  0.15291942638E+03  0.12000000000E+03 0.  0.
         25    1    3    3    0    0  0.82647874365E+01  0.56248649493E+02  0.47352048768E+00  0.13278720384E+03  0.12000000000E+03 0.  0.
<mgrwt>
<rscale>  0 0.27532543E+03</rscale>
<asrwt>0</asrwt>
<pdfrwt beam="1">  1        1 0.27847921E-01 0.27532543E+03</pdfrwt>
<pdfrwt beam="2">  1       -1 0.16106945E-01 0.27532543E+03</pdfrwt>
<totfact> 0.47437644E+03</totfact>
</mgrwt>
</event>
<event>
 5    1  0.1122238E+001  0.2759195E+03  0.7818608E-02  0.1097939E+00
         -2   -1    0    0    0  501 -0.00000000000E+00  0.00000000000E+00  0.19097434204E+02  0.19097434204E+02  0.00000000000E+00 0.  1.
          2   -1    0    0  501    0  0.00000000000E+00 -0.00000000000E+00 -0.99662032820E+03  0.99662032820E+03  0.00000000000E+00 0.  1.
         35    2    1    2    0    0  0.00000000000E+00  0.00000000000E+00 -0.97752289399E+03  0.10157177624E+04  0.27591948930E+03 0.  0.
         25    1    3    3    0    0 -0.39181552497E+02 -0.35981171607E+02 -0.64507435449E+03  0.65829382618E+03  0.12000000000E+03 0.  0.
         25    1    3    3    0    0  0.39181552497E+02  0.35981171607E+02 -0.33244853950E+03  0.35742393622E+03  0.12000000000E+03 0.  0.
<mgrwt>
<rscale>  0 0.27591949E+03</rscale>
<asrwt>0</asrwt>
<pdfrwt beam="1">  1        2 0.15332623E+00 0.27591949E+03</pdfrwt>
<pdfrwt beam="2">  1       -2 0.29380663E-02 0.27591949E+03</pdfrwt>
<totfact> 0.11501380E+04</totfact>
</mgrwt>
</event>
<event>
 5    1  0.1122238E+001  0.2661600E+03  0.7818608E-02  0.1103498E+00
          2   -1    0    0  501    0  0.00000000000E+00  0.00000000000E+00  0.25400314828E+03  0.25400314828E+03  0.00000000000E+00 0.  1.
         -2   -1    0    0    0  501 -0.00000000000E+00 -0.00000000000E+00 -0.69724659659E+02  0.69724659659E+02  0.00000000000E+00 0.  1.
         35    2    1    2    0    0  0.00000000000E+00  0.00000000000E+00  0.18427848862E+03  0.32372780794E+03  0.26615997495E+03 0.  0.
         25    1    3    3    0    0  0.24673005550E+02  0.50391026665E+02  0.76645486172E+02  0.15304425282E+03  0.12000000000E+03 0.  0.
         25    1    3    3    0    0 -0.24673005550E+02 -0.50391026665E+02  0.10763300245E+03  0.17068355512E+03  0.12000000000E+03 0.  0.
<mgrwt>
<rscale>  0 0.26615997E+03</rscale>
<asrwt>0</asrwt>
<pdfrwt beam="1">  1        2 0.39077407E-01 0.26615997E+03</pdfrwt>
<pdfrwt beam="2">  1       -2 0.10726871E-01 0.26615997E+03</pdfrwt>
<totfact> 0.76952314E+03</totfact>
</mgrwt>
</event>
<event>
 5    1  0.1122238E+001  0.2744083E+03  0.7818608E-02  0.1098783E+00
          3   -1    0    0  501    0  0.00000000000E+00  0.00000000000E+00  0.10883524321E+03  0.10883524321E+03  0.00000000000E+00 0.  1.
         -3   -1    0    0    0  501 -0.00000000000E+00 -0.00000000000E+00 -0.17296767451E+03  0.17296767451E+03  0.00000000000E+00 0.  1.
         35    2    1    2    0    0  0.00000000000E+00  0.00000000000E+00 -0.64132431296E+02  0.28180291772E+03  0.27440830107E+03 0.  0.
         25    1    3    3    0    0 -0.44986465932E+02 -0.17417305534E+02 -0.79102588977E+02  0.15160595052E+03  0.12000000000E+03 0.  0.
         25    1    3    3    0    0  0.44986465932E+02  0.17417305534E+02  0.14970157681E+02  0.13019696721E+03  0.12000000000E+03 0.  0.
<mgrwt>
<rscale>  0 0.27440830E+03</rscale>
<asrwt>0</asrwt>
<pdfrwt beam="1">  1        3 0.16743884E-01 0.27440830E+03</pdfrwt>
<pdfrwt beam="2">  1       -3 0.26610411E-01 0.27440830E+03</pdfrwt>
<totfact> 0.10454000E+03</totfact>
</mgrwt>
</event>
<event>
 5    1  0.1122238E+001  0.2743702E+03  0.7818608E-02  0.1098804E+00
         -2   -1    0    0    0  501 -0.00000000000E+00  0.00000000000E+00  0.18528451717E+02  0.18528451717E+02  0.00000000000E+00 0.  1.
          2   -1    0    0  501    0  0.00000000000E+00 -0.00000000000E+00 -0.10157218643E+04  0.10157218643E+04  0.00000000000E+00 0.  1.
         35    2    1    2    0    0  0.00000000000E+00  0.00000000000E+00 -0.99719341262E+03  0.10342503161E+04  0.27437021355E+03 0.  0.
         25    1    3    3    0    0 -0.28475109210E+02 -0.59193911720E+02 -0.45996992643E+03  0.47988236501E+03  0.12000000000E+03 0.  0.
         25    1    3    3    0    0  0.28475109210E+02  0.59193911720E+02 -0.53722348619E+03  0.55436795104E+03  0.12000000000E+03 0.  0.
<mgrwt>
<rscale>  0 0.27437021E+03</rscale>
<asrwt>0</asrwt>
<pdfrwt beam="1">  1        2 0.15626494E+00 0.27437021E+03</pdfrwt>
<pdfrwt beam="2">  1       -2 0.28505303E-02 0.27437021E+03</pdfrwt>
<totfact> 0.11709310E+04</totfact>
</mgrwt>
</event>
<event>
 5    1  0.1122238E+001  0.2744181E+03  0.7818608E-02  0.1098777E+00
         -2   -1    0    0    0  501 -0.00000000000E+00  0.00000000000E+00  0.34670218009E+02  0.34670218009E+02  0.00000000000E+00 0. -1.
          2   -1    0    0  501    0  0.00000000000E+00 -0.00000000000E+00 -0.54301132742E+03  0.54301132742E+03  0.00000000000E+00 0. -1.
         35    2    1    2    0    0  0.00000000000E+00  0.00000000000E+00 -0.50834110941E+03  0.57768154543E+03  0.27441808324E+03 0.  0.
         25    1    3    3    0    0 -0.62555592405E+02  0.22410011521E+02 -0.26112391952E+03  0.29495950926E+03  0.12000000000E+03 0.  0.
         25    1    3    3    0    0  0.62555592405E+02 -0.22410011521E+02 -0.24721718989E+03  0.28272203617E+03  0.12000000000E+03 0.  0.
<mgrwt>
<rscale>  0 0.27441808E+03</rscale>
<asrwt>0</asrwt>
<pdfrwt beam="1">  1        2 0.83540201E-01 0.27441808E+03</pdfrwt>
<pdfrwt beam="2">  1       -2 0.53338799E-02 0.27441808E+03</pdfrwt>
<totfact> 0.99945713E+03</totfact>
</mgrwt>
</event>
<event>
 5    1  0.1122238E+001  0.2764969E+03  0.7818608E-02  0.1097618E+00
         -2   -1    0    0    0  501 -0.00000000000E+00  0.00000000000E+00  0.57586024815E+03  0.57586024815E+03  0.00000000000E+00 0.  1.
          2   -1    0    0  501    0  0.00000000000E+00 -0.00000000000E+00 -0.33189697124E+02  0.33189697124E+02  0.00000000000E+00 0.  1.
         35    2    1    2    0    0  0.00000000000E+00  0.00000000000E+00  0.54267055103E+03  0.60904994528E+03  0.27649685150E+03 0.  0.
         25    1    3    3    0    0  0.24768745410E+02 -0.28134587343E+02  0.39801817451E+03  0.41740090201E+03  0.12000000000E+03 0.  0.
         25    1    3    3    0    0 -0.24768745410E+02  0.28134587343E+02  0.14465237651E+03  0.19164904327E+03  0.12000000000E+03 0.  0.
<mgrwt>
<rscale>  0 0.27649685E+03</rscale>
<asrwt>0</asrwt>
<pdfrwt beam="1">  1        2 0.51061077E-02 0.27649685E+03</pdfrwt>
<pdfrwt beam="2">  1       -2 0.88593877E-01 0.27649685E+03</pdfrwt>
<totfact> 0.17302179E+03</totfact>
</mgrwt>
</event>
<event>
 5    1  0.1122238E+001  0.2749586E+03  0.7818608E-02  0.1098475E+00
          1   -1    0    0  501    0  0.00000000000E+00  0.00000000000E+00  0.16076809075E+03  0.16076809075E+03  0.00000000000E+00 0.  1.
         -1   -1    0    0    0  501 -0.00000000000E+00 -0.00000000000E+00 -0.11756415038E+03  0.11756415038E+03  0.00000000000E+00 0.  1.
         35    2    1    2    0    0  0.00000000000E+00  0.00000000000E+00  0.43203940370E+02  0.27833224114E+03  0.27495864415E+03 0.  0.
         25    1    3    3    0    0 -0.10315179195E+02 -0.49865250303E+02 -0.22610199909E+02  0.13230331534E+03  0.12000000000E+03 0.  0.
         25    1    3    3    0    0  0.10315179195E+02  0.49865250303E+02  0.65814140278E+02  0.14602892580E+03  0.12000000000E+03 0.  0.
<mgrwt>
<rscale>  0 0.27495864E+03</rscale>
<asrwt>0</asrwt>
<pdfrwt beam="1">  1        1 0.24733552E-01 0.27495864E+03</pdfrwt>
<pdfrwt beam="2">  1       -1 0.18086792E-01 0.27495864E+03</pdfrwt>
<totfact> 0.45792849E+03</totfact>
</mgrwt>
</event>
<event>
 5    1  0.1122238E+001  0.2749440E+03  0.7818608E-02  0.1098483E+00
         -1   -1    0    0    0  501 -0.00000000000E+00  0.00000000000E+00  0.15762611680E+03  0.15762611680E+03  0.00000000000E+00 0.  1.
          1   -1    0    0  501    0  0.00000000000E+00 -0.00000000000E+00 -0.11989475996E+03  0.11989475996E+03  0.00000000000E+00 0.  1.
         35    2    1    2    0    0  0.00000000000E+00  0.00000000000E+00  0.37731356840E+02  0.27752087676E+03  0.27494396111E+03 0.  0.
         25    1    3    3    0    0 -0.63543570304E+01 -0.29390128601E+02 -0.41649448287E+02  0.13053288496E+03  0.12000000000E+03 0.  0.
         25    1    3    3    0    0  0.63543570304E+01  0.29390128601E+02  0.79380805127E+02  0.14698799181E+03  0.12000000000E+03 0.  0.
<mgrwt>
<rscale>  0 0.27494396E+03</rscale>
<asrwt>0</asrwt>
<pdfrwt beam="1">  1        1 0.18445348E-01 0.27494396E+03</pdfrwt>
<pdfrwt beam="2">  1       -1 0.24250172E-01 0.27494396E+03</pdfrwt>
<totfact> 0.41337343E+03</totfact>
</mgrwt>
</event>
<event>
 5    1  0.1122238E+001  0.2765491E+03  0.7818608E-02  0.1097589E+00
         -3   -1    0    0    0  501 -0.00000000000E+00  0.00000000000E+00  0.42135013958E+02  0.42135013958E+02  0.00000000000E+00 0. -1.
          3   -1    0    0  501    0  0.00000000000E+00 -0.00000000000E+00 -0.45377572899E+03  0.45377572899E+03  0.00000000000E+00 0. -1.
         35    2    1    2    0    0  0.00000000000E+00  0.00000000000E+00 -0.41164071504E+03  0.49591074295E+03  0.27654906744E+03 0.  0.
         25    1    3    3    0    0  0.49915819281E+02  0.19156597674E+02 -0.28318409751E+03  0.31217270433E+03  0.12000000000E+03 0.  0.
         25    1    3    3    0    0 -0.49915819281E+02 -0.19156597674E+02 -0.12845661753E+03  0.18373803862E+03  0.12000000000E+03 0.  0.
<mgrwt>
<rscale>  0 0.27654907E+03</rscale>
<asrwt>0</asrwt>
<pdfrwt beam="1">  1        3 0.69811647E-01 0.27654907E+03</pdfrwt>
<pdfrwt beam="2">  1       -3 0.64823101E-02 0.27654907E+03</pdfrwt>
<totfact> 0.76520773E+02</totfact>
</mgrwt>
</event>
<event>
 5    1  0.1122238E+001  0.2748040E+03  0.7818608E-02  0.1098561E+00
          2   -1    0    0  501    0  0.00000000000E+00  0.00000000000E+00  0.89371798856E+03  0.89371798856E+03  0.00000000000E+00 0.  1.
         -2   -1    0    0    0  501 -0.00000000000E+00 -0.00000000000E+00 -0.21124464987E+02  0.21124464987E+02  0.00000000000E+00 0.  1.
         35    2    1    2    0    0  0.00000000000E+00  0.00000000000E+00  0.87259352357E+03  0.91484245354E+03  0.27480403460E+03 0.  0.
         25    1    3    3    0    0  0.50141542543E+02 -0.18298938267E+01  0.28884511203E+03  0.31677913685E+03  0.12000000000E+03 0.  0.
         25    1    3    3    0    0 -0.50141542543E+02  0.18298938267E+01  0.58374841154E+03  0.59806331669E+03  0.12000000000E+03 0.  0.
<mgrwt>
<rscale>  0 0.27480403E+03</rscale>
<asrwt>0</asrwt>
<pdfrwt beam="1">  1        2 0.13749505E+00 0.27480403E+03</pdfrwt>
<pdfrwt beam="2">  1       -2 0.32499184E-02 0.27480403E+03</pdfrwt>
<totfact> 0.11488574E+04</totfact>
</mgrwt>
</event>
<event>
 5    1  0.1122238E+001  0.2769853E+03  0.7818608E-02  0.1097347E+00
          1   -1    0    0  501    0  0.00000000000E+00  0.00000000000E+00  0.43869205267E+03  0.43869205267E+03  0.00000000000E+00 0.  1.
         -1   -1    0    0    0  501 -0.00000000000E+00 -0.00000000000E+00 -0.43721353450E+02  0.43721353450E+02  0.00000000000E+00 0.  1.
         35    2    1    2    0    0  0.00000000000E+00  0.00000000000E+00  0.39497069922E+03  0.48241340612E+03  0.27698527246E+03 0.  0.
         25    1    3    3    0    0 -0.61033844883E+02  0.17302946319E+02  0.14960757156E+03  0.20200729600E+03  0.12000000000E+03 0.  0.
         25    1    3    3    0    0  0.61033844883E+02 -0.17302946319E+02  0.24536312766E+03  0.28040611011E+03  0.12000000000E+03 0.  0.
<mgrwt>
<rscale>  0 0.27698527E+03</rscale>
<asrwt>0</asrwt>
<pdfrwt beam="1">  1        1 0.67491082E-01 0.27698527E+03</pdfrwt>
<pdfrwt beam="2">  1       -1 0.67263624E-02 0.27698527E+03</pdfrwt>
<totfact> 0.60013976E+03</totfact>
</mgrwt>
</event>
<event>
 5    1  0.1122238E+001  0.2753666E+03  0.7818608E-02  0.1098247E+00
          1   -1    0    0  501    0  0.00000000000E+00  0.00000000000E+00  0.34662572725E+02  0.34662572725E+02  0.00000000000E+00 0.  1.
         -1   -1    0    0    0  501 -0.00000000000E+00 -0.00000000000E+00 -0.54689228412E+03  0.54689228412E+03  0.00000000000E+00 0.  1.
         35    2    1    2    0    0  0.00000000000E+00  0.00000000000E+00 -0.51222971139E+03  0.58155485684E+03  0.27536661795E+03 0.  0.
         25    1    3    3    0    0 -0.17977442381E+02 -0.64380978713E+02 -0.23623636955E+03  0.27326858794E+03  0.12000000000E+03 0.  0.
         25    1    3    3    0    0  0.17977442381E+02  0.64380978713E+02 -0.27599334184E+03  0.30828626891E+03  0.12000000000E+03 0.  0.
<mgrwt>
<rscale>  0 0.27536662E+03</rscale>
<asrwt>0</asrwt>
<pdfrwt beam="1">  1        1 0.53327039E-02 0.27536662E+03</pdfrwt>
<pdfrwt beam="2">  1       -1 0.84137268E-01 0.27536662E+03</pdfrwt>
<totfact> 0.22294201E+03</totfact>
</mgrwt>
</event>
<event>
 5    1  0.1122238E+001  0.2745098E+03  0.7818608E-02  0.1098726E+00
         -1   -1    0    0    0  501 -0.00000000000E+00  0.00000000000E+00  0.13494931197E+02  0.13494931197E+02  0.00000000000E+00 0.  1.
          1   -1    0    0  501    0  0.00000000000E+00 -0.00000000000E+00 -0.13959983008E+04  0.13959983008E+04  0.00000000000E+00 0.  1.
         35    2    1    2    0    0  0.00000000000E+00  0.00000000000E+00 -0.13825033696E+04  0.14094932320E+04  0.27450975225E+03 0.  0.
         25    1    3    3    0    0  0.52621101471E+02  0.39481236773E+02 -0.74538506110E+03  0.75784341238E+03  0.12000000000E+03 0.  0.
         25    1    3    3    0    0 -0.52621101471E+02 -0.39481236773E+02 -0.63711830848E+03  0.65164981960E+03  0.12000000000E+03 0.  0.
<mgrwt>
<rscale>  0 0.27450975E+03</rscale>
<asrwt>0</asrwt>
<pdfrwt beam="1">  1        1 0.21476902E+00 0.27450975E+03</pdfrwt>
<pdfrwt beam="2">  1       -1 0.20761428E-02 0.27450975E+03</pdfrwt>
<totfact> 0.54513731E+03</totfact>
</mgrwt>
</event>
<event>
 5    1  0.1122238E+001  0.2752525E+03  0.7818608E-02  0.1098311E+00
         -3   -1    0    0    0  501 -0.00000000000E+00  0.00000000000E+00  0.31001444441E+02  0.31001444441E+02  0.00000000000E+00 0.  1.
          3   -1    0    0  501    0  0.00000000000E+00 -0.00000000000E+00 -0.61097094481E+03  0.61097094481E+03  0.00000000000E+00 0.  1.
         35    2    1    2    0    0  0.00000000000E+00  0.00000000000E+00 -0.57996950037E+03  0.64197238925E+03  0.27525247901E+03 0.  0.
         25    1    3    3    0    0  0.59442766207E+02  0.30599184941E+02 -0.30966878965E+03  0.33876911291E+03  0.12000000000E+03 0.  0.
         25    1    3    3    0    0 -0.59442766207E+02 -0.30599184941E+02 -0.27030071072E+03  0.30320327635E+03  0.12000000000E+03 0.  0.
<mgrwt>
<rscale>  0 0.27525248E+03</rscale>
<asrwt>0</asrwt>
<pdfrwt beam="1">  1        3 0.93995533E-01 0.27525248E+03</pdfrwt>
<pdfrwt beam="2">  1       -3 0.47694528E-02 0.27525248E+03</pdfrwt>
<totfact> 0.65117623E+02</totfact>
</mgrwt>
</event>
<event>
 5    1  0.1122238E+001  0.2749450E+03  0.7818608E-02  0.1098482E+00
          2   -1    0    0  501    0  0.00000000000E+00  0.00000000000E+00  0.43336469245E+04  0.43336469245E+04  0.00000000000E+00 0. -1.
         -2   -1    0    0    0  501 -0.00000000000E+00 -0.00000000000E+00 -0.43609195191E+01  0.43609195191E+01  0.00000000000E+00 0. -1.
         35    2    1    2    0    0  0.00000000000E+00  0.00000000000E+00  0.43292860050E+04  0.43380078440E+04  0.27494497968E+03 0.  0.
         25    1    3    3    0    0 -0.80765366269E+01 -0.51941484806E+02  0.28219397739E+04  0.28249791567E+04  0.12000000000E+03 0.  0.
         25    1    3    3    0    0  0.80765366269E+01  0.51941484806E+02  0.15073462311E+04  0.15130286873E+04  0.12000000000E+03 0.  0.
<mgrwt>
<rscale>  0 0.27494498E+03</rscale>
<asrwt>0</asrwt>
<pdfrwt beam="1">  1        2 0.66671147E+00 0.27494498E+03</pdfrwt>
<pdfrwt beam="2">  1       -2 0.67091416E-03 0.27494498E+03</pdfrwt>
<totfact> 0.90995010E+02</totfact>
</mgrwt>
</event>
<event>
 5    1  0.1122238E+001  0.2753239E+03  0.7818608E-02  0.1098271E+00
         -2   -1    0    0    0  501 -0.00000000000E+00  0.00000000000E+00  0.20849422938E+03  0.20849422938E+03  0.00000000000E+00 0. -1.
          2   -1    0    0  501    0  0.00000000000E+00 -0.00000000000E+00 -0.90893682657E+02  0.90893682657E+02  0.00000000000E+00 0. -1.
         35    2    1    2    0    0  0.00000000000E+00  0.00000000000E+00  0.11760054672E+03  0.29938791203E+03  0.27532386980E+03 0.  0.
         25    1    3    3    0    0  0.52912377252E+02 -0.41288993702E+02  0.51400527852E+02  0.14678731189E+03  0.12000000000E+03 0.  0.
         25    1    3    3    0    0 -0.52912377252E+02  0.41288993702E+02  0.66200018868E+02  0.15260060015E+03  0.12000000000E+03 0.  0.
<mgrwt>
<rscale>  0 0.27532387E+03</rscale>
<asrwt>0</asrwt>
<pdfrwt beam="1">  1        2 0.13983644E-01 0.27532387E+03</pdfrwt>
<pdfrwt beam="2">  1       -2 0.32076035E-01 0.27532387E+03</pdfrwt>
<totfact> 0.38132393E+03</totfact>
</mgrwt>
</event>
<event>
 5    1  0.1122238E+001  0.2834283E+03  0.7818608E-02  0.1093831E+00
         -2   -1    0    0    0  501 -0.00000000000E+00  0.00000000000E+00  0.12245857942E+02  0.12245857942E+02  0.00000000000E+00 0. -1.
          2   -1    0    0  501    0  0.00000000000E+00 -0.00000000000E+00 -0.16399745979E+04  0.16399745979E+04  0.00000000000E+00 0. -1.
         35    2    1    2    0    0  0.00000000000E+00  0.00000000000E+00 -0.16277287400E+04  0.16522204559E+04  0.28342826926E+03 0.  0.
         25    1    3    3    0    0 -0.21467090370E+02  0.25857514124E+02 -0.42049995843E+03  0.43857685991E+03  0.12000000000E+03 0.  0.
         25    1    3    3    0    0  0.21467090370E+02 -0.25857514124E+02 -0.12072287816E+04  0.12136435960E+04  0.12000000000E+03 0.  0.
<mgrwt>
<rscale>  0 0.28342827E+03</rscale>
<asrwt>0</asrwt>
<pdfrwt beam="1">  1        2 0.25230375E+00 0.28342827E+03</pdfrwt>
<pdfrwt beam="2">  1       -2 0.18839784E-02 0.28342827E+03</pdfrwt>
<totfact> 0.97083877E+03</totfact>
</mgrwt>
</event>
<event>
 5    1  0.1122238E+001  0.2743460E+03  0.7818608E-02  0.1098818E+00
         -2   -1    0    0    0  501 -0.00000000000E+00  0.00000000000E+00  0.23249820732E+03  0.23249820732E+03  0.00000000000E+00 0. -1.
          2   -1    0    0  501    0  0.00000000000E+00 -0.00000000000E+00 -0.80931511433E+02  0.80931511433E+02  0.00000000000E+00 0. -1.
         35    2    1    2    0    0  0.00000000000E+00  0.00000000000E+00  0.15156669589E+03  0.31342971875E+03  0.27434599559E+03 0.  0.
         25    1    3    3    0    0 -0.35724668600E+01  0.64828478787E+02  0.59588694505E+02  0.14888353399E+03  0.12000000000E+03 0.  0.
         25    1    3    3    0    0  0.35724668600E+01 -0.64828478787E+02  0.91978001383E+02  0.16454618476E+03  0.12000000000E+03 0.  0.
<mgrwt>
<rscale>  0 0.27434600E+03</rscale>
<asrwt>0</asrwt>
<pdfrwt beam="1">  1        2 0.12451002E-01 0.27434600E+03</pdfrwt>
<pdfrwt beam="2">  1       -2 0.35768955E-01 0.27434600E+03</pdfrwt>
<totfact> 0.35826346E+03</totfact>
</mgrwt>
</event>
<event>
 5    1  0.1122238E+001  0.2744601E+03  0.7818608E-02  0.1098754E+00
          2   -1    0    0  501    0  0.00000000000E+00  0.00000000000E+00  0.15546909067E+03  0.15546909067E+03  0.00000000000E+00 0. -1.
         -2   -1    0    0    0  501 -0.00000000000E+00 -0.00000000000E+00 -0.12113072910E+03  0.12113072910E+03  0.00000000000E+00 0. -1.
         35    2    1    2    0    0  0.00000000000E+00  0.00000000000E+00  0.34338361565E+02  0.27659981977E+03  0.27446008312E+03 0.  0.
         25    1    3    3    0    0  0.29445342370E+02  0.40491488893E+02 -0.27053386379E+02  0.13280991896E+03  0.12000000000E+03 0.  0.
         25    1    3    3    0    0 -0.29445342370E+02 -0.40491488893E+02  0.61391747944E+02  0.14378990081E+03  0.12000000000E+03 0.  0.
<mgrwt>
<rscale>  0 0.27446008E+03</rscale>
<asrwt>0</asrwt>
<pdfrwt beam="1">  1        2 0.23918322E-01 0.27446008E+03</pdfrwt>
<pdfrwt beam="2">  1       -2 0.18635497E-01 0.27446008E+03</pdfrwt>
<totfact> 0.53292461E+03</totfact>
</mgrwt>
</event>
<event>
 5    1  0.1122238E+001  0.2749726E+03  0.7818608E-02  0.1098467E+00
          1   -1    0    0  501    0  0.00000000000E+00  0.00000000000E+00  0.14140143183E+03  0.14140143183E+03  0.00000000000E+00 0.  1.
         -1   -1    0    0    0  501 -0.00000000000E+00 -0.00000000000E+00 -0.13367956748E+03  0.13367956748E+03  0.00000000000E+00 0.  1.
         35    2    1    2    0    0  0.00000000000E+00  0.00000000000E+00  0.77218643522E+01  0.27508099931E+03  0.27497259680E+03 0.  0.
         25    1    3    3    0    0  0.61150843262E+01  0.64387632051E+02 -0.14015662923E+02  0.13703868149E+03  0.12000000000E+03 0.  0.
         25    1    3    3    0    0 -0.61150843262E+01 -0.64387632051E+02  0.21737527276E+02  0.13804231782E+03  0.12000000000E+03 0.  0.
<mgrwt>
<rscale>  0 0.27497260E+03</rscale>
<asrwt>0</asrwt>
<pdfrwt beam="1">  1        1 0.21754066E-01 0.27497260E+03</pdfrwt>
<pdfrwt beam="2">  1       -1 0.20566087E-01 0.27497260E+03</pdfrwt>
<totfact> 0.43816074E+03</totfact>
</mgrwt>
</event>
<event>
 5    1  0.1122238E+001  0.2749003E+03  0.7818608E-02  0.1098507E+00
         -1   -1    0    0    0  501 -0.00000000000E+00  0.00000000000E+00  0.87840367170E+02  0.87840367170E+02  0.00000000000E+00 0. -1.
          1   -1    0    0  501    0  0.00000000000E+00 -0.00000000000E+00 -0.21507808157E+03  0.21507808157E+03  0.00000000000E+00 0. -1.
         35    2    1    2    0    0  0.00000000000E+00  0.00000000000E+00 -0.12723771440E+03  0.30291844874E+03  0.27490025577E+03 0.  0.
         25    1    3    3    0    0  0.51971989747E+02  0.31315673603E+02 -0.94995154999E+02  0.16463850888E+03  0.12000000000E+03 0.  0.
         25    1    3    3    0    0 -0.51971989747E+02 -0.31315673603E+02 -0.32242559398E+02  0.13827993986E+03  0.12000000000E+03 0.  0.
<mgrwt>
<rscale>  0 0.27490026E+03</rscale>
<asrwt>0</asrwt>
<pdfrwt beam="1">  1        1 0.33088935E-01 0.27490026E+03</pdfrwt>
<pdfrwt beam="2">  1       -1 0.13513903E-01 0.27490026E+03</pdfrwt>
<totfact> 0.50402269E+03</totfact>
</mgrwt>
</event>
<event>
 5    1  0.1122238E+001  0.2747887E+03  0.7818608E-02  0.1098570E+00
          1   -1    0    0  501    0  0.00000000000E+00  0.00000000000E+00  0.14252197475E+04  0.14252197475E+04  0.00000000000E+00 0. -1.
         -1   -1    0    0    0  501 -0.00000000000E+00 -0.00000000000E+00 -0.13245125087E+02  0.13245125087E+02  0.00000000000E+00 0. -1.
         35    2    1    2    0    0  0.00000000000E+00  0.00000000000E+00  0.14119746224E+04  0.14384648726E+04  0.27478874672E+03 0.  0.
         25    1    3    3    0    0 -0.18537914466E+02 -0.36437410253E+02  0.98327746811E+03  0.99141611770E+03  0.12000000000E+03 0.  0.
         25    1    3    3    0    0  0.18537914466E+02  0.36437410253E+02  0.42869715428E+03  0.44704875486E+03  0.12000000000E+03 0.  0.
<mgrwt>
<rscale>  0 0.27478875E+03</rscale>
<asrwt>0</asrwt>
<pdfrwt beam="1">  1        1 0.21926446E+00 0.27478875E+03</pdfrwt>
<pdfrwt beam="2">  1       -1 0.20377127E-02 0.27478875E+03</pdfrwt>
<totfact> 0.53553309E+03</totfact>
</mgrwt>
</event>
<event>
 5    1  0.1122238E+001  0.2723191E+03  0.7818608E-02  0.1099960E+00
         -2   -1    0    0    0  501 -0.00000000000E+00  0.00000000000E+00  0.12716828155E+02  0.12716828155E+02  0.00000000000E+00 0. -1.
          2   -1    0    0  501    0  0.00000000000E+00 -0.00000000000E+00 -0.14578653604E+04  0.14578653604E+04  0.00000000000E+00 0. -1.
         35    2    1    2    0    0  0.00000000000E+00  0.00000000000E+00 -0.14451485322E+04  0.14705821885E+04  0.27231910150E+03 0.  0.
         25    1    3    3    0    0 -0.30598549957E+02 -0.55353799589E+02 -0.78626681242E+03  0.79788208070E+03  0.12000000000E+03 0.  0.
         25    1    3    3    0    0  0.30598549957E+02  0.55353799589E+02 -0.65888171978E+03  0.67270010781E+03  0.12000000000E+03 0.  0.
<mgrwt>
<rscale>  0 0.27231910E+03</rscale>
<asrwt>0</asrwt>
<pdfrwt beam="1">  1        2 0.22428712E+00 0.27231910E+03</pdfrwt>
<pdfrwt beam="2">  1       -2 0.19564339E-02 0.27231910E+03</pdfrwt>
<totfact> 0.11475502E+04</totfact>
</mgrwt>
</event>
<event>
 5    1  0.1122238E+001  0.2736389E+03  0.7818608E-02  0.1099215E+00
         -2   -1    0    0    0  501 -0.00000000000E+00  0.00000000000E+00  0.30441327996E+03  0.30441327996E+03  0.00000000000E+00 0. -1.
          2   -1    0    0  501    0  0.00000000000E+00 -0.00000000000E+00 -0.61493899587E+02  0.61493899587E+02  0.00000000000E+00 0. -1.
         35    2    1    2    0    0  0.00000000000E+00  0.00000000000E+00  0.24291938038E+03  0.36590717955E+03  0.27363888372E+03 0.  0.
         25    1    3    3    0    0  0.22556048720E+02 -0.10838173987E+02  0.20272430686E+03  0.23690374826E+03  0.12000000000E+03 0.  0.
         25    1    3    3    0    0 -0.22556048720E+02  0.10838173987E+02  0.40195073518E+02  0.12900343129E+03  0.12000000000E+03 0.  0.
<mgrwt>
<rscale>  0 0.27363888E+03</rscale>
<asrwt>0</asrwt>
<pdfrwt beam="1">  1        2 0.94606001E-02 0.27363888E+03</pdfrwt>
<pdfrwt beam="2">  1       -2 0.46832811E-01 0.27363888E+03</pdfrwt>
<totfact> 0.29952292E+03</totfact>
</mgrwt>
</event>
<event>
 5    1  0.1122238E+001  0.2751885E+03  0.7818608E-02  0.1098346E+00
         -1   -1    0    0    0  501 -0.00000000000E+00  0.00000000000E+00  0.49070194791E+02  0.49070194791E+02  0.00000000000E+00 0. -1.
          1   -1    0    0  501    0  0.00000000000E+00 -0.00000000000E+00 -0.38581825442E+03  0.38581825442E+03  0.00000000000E+00 0. -1.
         35    2    1    2    0    0  0.00000000000E+00  0.00000000000E+00 -0.33674805963E+03  0.43488844921E+03  0.27518849466E+03 0.  0.
         25    1    3    3    0    0  0.44315075030E+02 -0.33762246243E+02 -0.22810257111E+03  0.26369394778E+03  0.12000000000E+03 0.  0.
         25    1    3    3    0    0 -0.44315075030E+02  0.33762246243E+02 -0.10864548852E+03  0.17119450143E+03  0.12000000000E+03 0.  0.
<mgrwt>
<rscale>  0 0.27518849E+03</rscale>
<asrwt>0</asrwt>
<pdfrwt beam="1">  1        1 0.59356652E-01 0.27518849E+03</pdfrwt>
<pdfrwt beam="2">  1       -1 0.75492610E-02 0.27518849E+03</pdfrwt>
<totfact> 0.59404764E+03</totfact>
</mgrwt>
</event>
<event>
 5    1  0.1122238E+001  0.2759835E+03  0.7818608E-02  0.1097903E+00
          2   -1    0    0  501    0  0.00000000000E+00  0.00000000000E+00  0.10385465971E+04  0.10385465971E+04  0.00000000000E+00 0.  1.
         -2   -1    0    0    0  501 -0.00000000000E+00 -0.00000000000E+00 -0.18334975802E+02  0.18334975802E+02  0.00000000000E+00 0.  1.
         35    2    1    2    0    0  0.00000000000E+00  0.00000000000E+00  0.10202116213E+04  0.10568815729E+04  0.27598352651E+03 0.  0.
         25    1    3    3    0    0  0.38299379576E+02 -0.46289516876E+02  0.38707391808E+03  0.40967765366E+03  0.12000000000E+03 0.  0.
         25    1    3    3    0    0 -0.38299379576E+02  0.46289516876E+02  0.63313770322E+03  0.64720391924E+03  0.12000000000E+03 0.  0.
<mgrwt>
<rscale>  0 0.27598353E+03</rscale>
<asrwt>0</asrwt>
<pdfrwt beam="1">  1        2 0.15977635E+00 0.27598353E+03</pdfrwt>
<pdfrwt beam="2">  1       -2 0.28207663E-02 0.27598353E+03</pdfrwt>
<totfact> 0.11523171E+04</totfact>
</mgrwt>
</event>
<event>
 5    1  0.1122238E+001  0.2811474E+03  0.7818608E-02  0.1095064E+00
         -4   -1    0    0    0  501 -0.00000000000E+00  0.00000000000E+00  0.66678586959E+03  0.66678586959E+03  0.00000000000E+00 0.  1.
          4   -1    0    0  501    0  0.00000000000E+00 -0.00000000000E+00 -0.29636139908E+02  0.29636139908E+02  0.00000000000E+00 0.  1.
         35    2    1    2    0    0  0.00000000000E+00  0.00000000000E+00  0.63714972969E+03  0.69642200950E+03  0.28114735866E+03 0.  0.
         25    1    3    3    0    0 -0.62532855450E+02 -0.13803090364E+01  0.22429322684E+03  0.26195365023E+03  0.12000000000E+03 0.  0.
         25    1    3    3    0    0  0.62532855450E+02  0.13803090364E+01  0.41285650284E+03  0.43446835927E+03  0.12000000000E+03 0.  0.
<mgrwt>
<rscale>  0 0.28114736E+03</rscale>
<asrwt>0</asrwt>
<pdfrwt beam="1">  1        4 0.45594066E-02 0.28114736E+03</pdfrwt>
<pdfrwt beam="2">  1       -4 0.10258243E+00 0.28114736E+03</pdfrwt>
<totfact> 0.41854036E+02</totfact>
</mgrwt>
</event>
<event>
 5    1  0.1122238E+001  0.2752017E+03  0.7818608E-02  0.1098339E+00
          2   -1    0    0  501    0  0.00000000000E+00  0.00000000000E+00  0.34673329316E+03  0.34673329316E+03  0.00000000000E+00 0. -1.
         -2   -1    0    0    0  501 -0.00000000000E+00 -0.00000000000E+00 -0.54606808167E+02  0.54606808167E+02  0.00000000000E+00 0. -1.
         35    2    1    2    0    0  0.00000000000E+00  0.00000000000E+00  0.29212648499E+03  0.40134010133E+03  0.27520173273E+03 0.  0.
         25    1    3    3    0    0  0.12937741615E+02 -0.55164135751E+02  0.93007974148E+02  0.16205230725E+03  0.12000000000E+03 0.  0.
         25    1    3    3    0    0 -0.12937741615E+02  0.55164135751E+02  0.19911851085E+03  0.23928779407E+03  0.12000000000E+03 0.  0.
<mgrwt>
<rscale>  0 0.27520173E+03</rscale>
<asrwt>0</asrwt>
<pdfrwt beam="1">  1        2 0.53343582E-01 0.27520173E+03</pdfrwt>
<pdfrwt beam="2">  1       -2 0.84010476E-02 0.27520173E+03</pdfrwt>
<totfact> 0.81153832E+03</totfact>
</mgrwt>
</event>
<event>
 5    1  0.1122238E+001  0.2746344E+03  0.7818608E-02  0.1098656E+00
          2   -1    0    0  501    0  0.00000000000E+00  0.00000000000E+00  0.51408546433E+03  0.51408546433E+03  0.00000000000E+00 0. -1.
         -2   -1    0    0    0  501 -0.00000000000E+00 -0.00000000000E+00 -0.36678739898E+02  0.36678739898E+02  0.00000000000E+00 0. -1.
         35    2    1    2    0    0  0.00000000000E+00  0.00000000000E+00  0.47740672444E+03  0.55076420423E+03  0.27463435351E+03 0.  0.
         25    1    3    3    0    0 -0.60894000305E+02  0.47188060887E+01  0.18468049565E+03  0.22855465840E+03  0.12000000000E+03 0.  0.
         25    1    3    3    0    0  0.60894000305E+02 -0.47188060887E+01  0.29272622879E+03  0.32220954583E+03  0.12000000000E+03 0.  0.
<mgrwt>
<rscale>  0 0.27463435E+03</rscale>
<asrwt>0</asrwt>
<pdfrwt beam="1">  1        2 0.79090066E-01 0.27463435E+03</pdfrwt>
<pdfrwt beam="2">  1       -2 0.56428834E-02 0.27463435E+03</pdfrwt>
<totfact> 0.97566572E+03</totfact>
</mgrwt>
</event>
<event>
 5    1  0.1122238E+001  0.2770607E+03  0.7818608E-02  0.1097305E+00
         -2   -1    0    0    0  501 -0.00000000000E+00  0.00000000000E+00  0.36178718516E+02  0.36178718516E+02  0.00000000000E+00 0. -1.
          2   -1    0    0  501    0  0.00000000000E+00 -0.00000000000E+00 -0.53044064992E+03  0.53044064992E+03  0.00000000000E+00 0. -1.
         35    2    1    2    0    0  0.00000000000E+00  0.00000000000E+00 -0.49426193141E+03  0.56661936844E+03  0.27706073676E+03 0.  0.
         25    1    3    3    0    0  0.39248501889E+02 -0.55736577707E+02 -0.27164259730E+03  0.30469117424E+03  0.12000000000E+03 0.  0.
         25    1    3    3    0    0 -0.39248501889E+02  0.55736577707E+02 -0.22261933411E+03  0.26192819419E+03  0.12000000000E+03 0.  0.
<mgrwt>
<rscale>  0 0.27706074E+03</rscale>
<asrwt>0</asrwt>
<pdfrwt beam="1">  1        2 0.81606247E-01 0.27706074E+03</pdfrwt>
<pdfrwt beam="2">  1       -2 0.55659572E-02 0.27706074E+03</pdfrwt>
<totfact> 0.96210181E+03</totfact>
</mgrwt>
</event>
<event>
 5    1  0.1122238E+001  0.2748119E+03  0.7818608E-02  0.1098557E+00
         -1   -1    0    0    0  501 -0.00000000000E+00  0.00000000000E+00  0.15140842095E+03  0.15140842095E+03  0.00000000000E+00 0.  1.
          1   -1    0    0  501    0  0.00000000000E+00 -0.00000000000E+00 -0.12469845679E+03  0.12469845679E+03  0.00000000000E+00 0.  1.
         35    2    1    2    0    0  0.00000000000E+00  0.00000000000E+00  0.26709964161E+02  0.27610687773E+03  0.27481190976E+03 0.  0.
         25    1    3    3    0    0 -0.39534215873E+02 -0.45634770473E+02 -0.15675984065E+02  0.13524504788E+03  0.12000000000E+03 0.  0.
         25    1    3    3    0    0  0.39534215873E+02  0.45634770473E+02  0.42385948226E+02  0.14086182985E+03  0.12000000000E+03 0.  0.
<mgrwt>
<rscale>  0 0.27481191E+03</rscale>
<asrwt>0</asrwt>
<pdfrwt beam="1">  1        1 0.19184378E-01 0.27481191E+03</pdfrwt>
<pdfrwt beam="2">  1       -1 0.23293603E-01 0.27481191E+03</pdfrwt>
<totfact> 0.41993125E+03</totfact>
</mgrwt>
</event>
<event>
 5    1  0.1122238E+001  0.2762705E+03  0.7818608E-02  0.1097744E+00
          1   -1    0    0  501    0  0.00000000000E+00  0.00000000000E+00  0.45339085951E+02  0.45339085951E+02  0.00000000000E+00 0. -1.
         -1   -1    0    0    0  501 -0.00000000000E+00 -0.00000000000E+00 -0.42085853268E+03  0.42085853268E+03  0.00000000000E+00 0. -1.
         35    2    1    2    0    0  0.00000000000E+00  0.00000000000E+00 -0.37551944673E+03  0.46619761863E+03  0.27627045580E+03 0.  0.
         25    1    3    3    0    0 -0.57718962950E+02  0.14961110552E+02 -0.24438497416E+03  0.27871011663E+03  0.12000000000E+03 0.  0.
         25    1    3    3    0    0  0.57718962950E+02 -0.14961110552E+02 -0.13113447256E+03  0.18748750200E+03  0.12000000000E+03 0.  0.
<mgrwt>
<rscale>  0 0.27627046E+03</rscale>
<asrwt>0</asrwt>
<pdfrwt beam="1">  1        1 0.69752443E-02 0.27627046E+03</pdfrwt>
<pdfrwt beam="2">  1       -1 0.64747464E-01 0.27627046E+03</pdfrwt>
<totfact> 0.26217552E+03</totfact>
</mgrwt>
</event>
<event>
 5    1  0.1122238E+001  0.2716607E+03  0.7818608E-02  0.1100333E+00
         -1   -1    0    0    0  501 -0.00000000000E+00  0.00000000000E+00  0.97736103243E+01  0.97736103243E+01  0.00000000000E+00 0.  1.
          1   -1    0    0  501    0  0.00000000000E+00 -0.00000000000E+00 -0.18877238660E+04  0.18877238660E+04  0.00000000000E+00 0.  1.
         35    2    1    2    0    0  0.00000000000E+00  0.00000000000E+00 -0.18779502557E+04  0.18974974763E+04  0.27166065203E+03 0.  0.
         25    1    3    3    0    0 -0.56617086417E+02 -0.67054731609E+01 -0.11364636546E+04  0.11442028212E+04  0.12000000000E+03 0.  0.
         25    1    3    3    0    0  0.56617086417E+02  0.67054731609E+01 -0.74148660109E+03  0.75329465513E+03  0.12000000000E+03 0.  0.
<mgrwt>
<rscale>  0 0.27166065E+03</rscale>
<asrwt>0</asrwt>
<pdfrwt beam="1">  1        1 0.29041875E+00 0.27166065E+03</pdfrwt>
<pdfrwt beam="2">  1       -1 0.15036339E-02 0.27166065E+03</pdfrwt>
<totfact> 0.41502267E+03</totfact>
</mgrwt>
</event>
<event>
 5    1  0.1122238E+001  0.2768152E+03  0.7818608E-02  0.1097441E+00
         -1   -1    0    0    0  501 -0.00000000000E+00  0.00000000000E+00  0.21660329501E+02  0.21660329501E+02  0.00000000000E+00 0. -1.
          1   -1    0    0  501    0  0.00000000000E+00 -0.00000000000E+00 -0.88441217216E+03  0.88441217216E+03  0.00000000000E+00 0. -1.
         35    2    1    2    0    0  0.00000000000E+00  0.00000000000E+00 -0.86275184266E+03  0.90607250167E+03  0.27681516623E+03 0.  0.
         25    1    3    3    0    0  0.11831918762E+02  0.30251717623E+02 -0.63051745578E+03  0.64265653561E+03  0.12000000000E+03 0.  0.
         25    1    3    3    0    0 -0.11831918762E+02 -0.30251717623E+02 -0.23223438689E+03  0.26341596606E+03  0.12000000000E+03 0.  0.
<mgrwt>
<rscale>  0 0.27681517E+03</rscale>
<asrwt>0</asrwt>
<pdfrwt beam="1">  1        1 0.13606342E+00 0.27681517E+03</pdfrwt>
<pdfrwt beam="2">  1       -1 0.33323582E-02 0.27681517E+03</pdfrwt>
<totfact> 0.63356828E+03</totfact>
</mgrwt>
</event>
<event>
 5    1  0.1122238E+001  0.2731614E+03  0.7818608E-02  0.1099484E+00
         -1   -1    0    0    0  501 -0.00000000000E+00  0.00000000000E+00  0.40084518047E+02  0.40084518047E+02  0.00000000000E+00 0.  1.
          1   -1    0    0  501    0  0.00000000000E+00 -0.00000000000E+00 -0.46537374933E+03  0.46537374933E+03  0.00000000000E+00 0.  1.
         35    2    1    2    0    0  0.00000000000E+00  0.00000000000E+00 -0.42528923128E+03  0.50545826737E+03  0.27316136223E+03 0.  0.
         25    1    3    3    0    0 -0.20851530262E+02 -0.52624677760E+02 -0.15268076452E+03  0.20227594736E+03  0.12000000000E+03 0.  0.
         25    1    3    3    0    0  0.20851530262E+02  0.52624677760E+02 -0.27260846676E+03  0.30318232002E+03  0.12000000000E+03 0.  0.
<mgrwt>
<rscale>  0 0.27316136E+03</rscale>
<asrwt>0</asrwt>
<pdfrwt beam="1">  1        1 0.71595959E-01 0.27316136E+03</pdfrwt>
<pdfrwt beam="2">  1       -1 0.61668491E-02 0.27316136E+03</pdfrwt>
<totfact> 0.63338989E+03</totfact>
</mgrwt>
</event>
<event>
 5    1  0.1122238E+001  0.2789173E+03  0.7818608E-02  0.1096282E+00
         -1   -1    0    0    0  501 -0.00000000000E+00  0.00000000000E+00  0.33793465145E+03  0.33793465145E+03  0.00000000000E+00 0. -1.
          1   -1    0    0  501    0  0.00000000000E+00 -0.00000000000E+00 -0.57551701844E+02  0.57551701844E+02  0.00000000000E+00 0. -1.
         35    2    1    2    0    0  0.00000000000E+00  0.00000000000E+00  0.28038294961E+03  0.39548635330E+03  0.27891729457E+03 0.  0.
         25    1    3    3    0    0 -0.13758512942E+02  0.30338655501E+01  0.41441617516E+02  0.12773374136E+03  0.12000000000E+03 0.  0.
         25    1    3    3    0    0  0.13758512942E+02 -0.30338655501E+01  0.23894133209E+03  0.26775261194E+03  0.12000000000E+03 0.  0.
<mgrwt>
<rscale>  0 0.27891729E+03</rscale>
<asrwt>0</asrwt>
<pdfrwt beam="1">  1        1 0.88541082E-02 0.27891729E+03</pdfrwt>
<pdfrwt beam="2">  1       -1 0.51989945E-01 0.27891729E+03</pdfrwt>
<totfact> 0.28824875E+03</totfact>
</mgrwt>
</event>
<event>
 5    1  0.1122238E+001  0.2747388E+03  0.7818608E-02  0.1098598E+00
          2   -1    0    0  501    0  0.00000000000E+00  0.00000000000E+00  0.28627987049E+04  0.28627987049E+04  0.00000000000E+00 0.  1.
         -2   -1    0    0    0  501 -0.00000000000E+00 -0.00000000000E+00 -0.65915748607E+01  0.65915748607E+01  0.00000000000E+00 0.  1.
         35    2    1    2    0    0  0.00000000000E+00  0.00000000000E+00  0.28562071300E+04  0.28693902797E+04  0.27473879940E+03 0.  0.
         25    1    3    3    0    0 -0.53887921743E+02 -0.26046139618E+02  0.17393371793E+04  0.17444988199E+04  0.12000000000E+03 0.  0.
         25    1    3    3    0    0  0.53887921743E+02  0.26046139618E+02  0.11168699507E+04  0.11248914598E+04  0.12000000000E+03 0.  0.
<mgrwt>
<rscale>  0 0.27473880E+03</rscale>
<asrwt>0</asrwt>
<pdfrwt beam="1">  1        2 0.44042958E+00 0.27473880E+03</pdfrwt>
<pdfrwt beam="2">  1       -2 0.10140907E-02 0.27473880E+03</pdfrwt>
<totfact> 0.52376403E+03</totfact>
</mgrwt>
</event>
<event>
 5    1  0.1122238E+001  0.2757346E+03  0.7818608E-02  0.1098042E+00
          2   -1    0    0  501    0  0.00000000000E+00  0.00000000000E+00  0.93051573731E+03  0.93051573731E+03  0.00000000000E+00 0.  1.
         -2   -1    0    0    0  501 -0.00000000000E+00 -0.00000000000E+00 -0.20426726967E+02  0.20426726967E+02  0.00000000000E+00 0.  1.
         35    2    1    2    0    0  0.00000000000E+00  0.00000000000E+00  0.91008901035E+03  0.95094246428E+03  0.27573458908E+03 0.  0.
         25    1    3    3    0    0  0.57990627685E+02 -0.86928142482E+01  0.33713356997E+03  0.36262587045E+03  0.12000000000E+03 0.  0.
         25    1    3    3    0    0 -0.57990627685E+02  0.86928142482E+01  0.57295544037E+03  0.58831659383E+03  0.12000000000E+03 0.  0.
<mgrwt>
<rscale>  0 0.27573459E+03</rscale>
<asrwt>0</asrwt>
<pdfrwt beam="1">  1        2 0.14315623E+00 0.27573459E+03</pdfrwt>
<pdfrwt beam="2">  1       -2 0.31425741E-02 0.27573459E+03</pdfrwt>
<totfact> 0.11441047E+04</totfact>
</mgrwt>
</event>
<event>
 5    1  0.1122238E+001  0.2747549E+03  0.7818608E-02  0.1098589E+00
          2   -1    0    0  501    0  0.00000000000E+00  0.00000000000E+00  0.32179645532E+03  0.32179645532E+03  0.00000000000E+00 0.  1.
         -2   -1    0    0    0  501 -0.00000000000E+00 -0.00000000000E+00 -0.58647508689E+02  0.58647508689E+02  0.00000000000E+00 0.  1.
         35    2    1    2    0    0  0.00000000000E+00  0.00000000000E+00  0.26314894663E+03  0.38044396400E+03  0.27475487555E+03 0.  0.
         25    1    3    3    0    0 -0.69084884891E+01  0.66473197466E+02  0.13500755768E+03  0.19259660907E+03  0.12000000000E+03 0.  0.
         25    1    3    3    0    0  0.69084884891E+01 -0.66473197466E+02  0.12814138895E+03  0.18784735494E+03  0.12000000000E+03 0.  0.
<mgrwt>
<rscale>  0 0.27475488E+03</rscale>
<asrwt>0</asrwt>
<pdfrwt beam="1">  1        2 0.49507146E-01 0.27475488E+03</pdfrwt>
<pdfrwt beam="2">  1       -2 0.90226939E-02 0.27475488E+03</pdfrwt>
<totfact> 0.78609584E+03</totfact>
</mgrwt>
</event>
<event>
 5    1  0.1122238E+001  0.2738501E+03  0.7818608E-02  0.1099096E+00
          2   -1    0    0  501    0  0.00000000000E+00  0.00000000000E+00  0.11333900527E+04  0.11333900527E+04  0.00000000000E+00 0. -1.
         -2   -1    0    0    0  501 -0.00000000000E+00 -0.00000000000E+00 -0.16541938947E+02  0.16541938947E+02  0.00000000000E+00 0. -1.
         35    2    1    2    0    0  0.00000000000E+00  0.00000000000E+00  0.11168481137E+04  0.11499319916E+04  0.27385009808E+03 0.  0.
         25    1    3    3    0    0 -0.20147049193E+02 -0.29177478091E+02  0.79189112762E+03  0.80171615103E+03  0.12000000000E+03 0.  0.
         25    1    3    3    0    0  0.20147049193E+02  0.29177478091E+02  0.32495698611E+03  0.34821584060E+03  0.12000000000E+03 0.  0.
<mgrwt>
<rscale>  0 0.27385010E+03</rscale>
<asrwt>0</asrwt>
<pdfrwt beam="1">  1        2 0.17436764E+00 0.27385010E+03</pdfrwt>
<pdfrwt beam="2">  1       -2 0.25449146E-02 0.27385010E+03</pdfrwt>
<totfact> 0.11795560E+04</totfact>
</mgrwt>
</event>
<event>
 5    1  0.1122238E+001  0.2757193E+03  0.7818608E-02  0.1098050E+00
         -2   -1    0    0    0  501 -0.00000000000E+00  0.00000000000E+00  0.19732732337E+03  0.19732732337E+03  0.00000000000E+00 0.  1.
          2   -1    0    0  501    0  0.00000000000E+00 -0.00000000000E+00 -0.96313463803E+02  0.96313463803E+02  0.00000000000E+00 0.  1.
         35    2    1    2    0    0  0.00000000000E+00  0.00000000000E+00  0.10101385957E+03  0.29364078718E+03  0.27571926314E+03 0.  0.
         25    1    3    3    0    0 -0.62635082576E+02  0.45058699481E+01  0.23108874747E+02  0.13739532934E+03  0.12000000000E+03 0.  0.
         25    1    3    3    0    0  0.62635082576E+02 -0.45058699481E+01  0.77904984824E+02  0.15624545783E+03  0.12000000000E+03 0.  0.
<mgrwt>
<rscale>  0 0.27571926E+03</rscale>
<asrwt>0</asrwt>
<pdfrwt beam="1">  1        2 0.14817456E-01 0.27571926E+03</pdfrwt>
<pdfrwt beam="2">  1       -2 0.30358050E-01 0.27571926E+03</pdfrwt>
<totfact> 0.39359768E+03</totfact>
</mgrwt>
</event>
<event>
 5    1  0.1122238E+001  0.2749216E+03  0.7818608E-02  0.1098495E+00
         -2   -1    0    0    0  501 -0.00000000000E+00  0.00000000000E+00  0.11173657518E+02  0.11173657518E+02  0.00000000000E+00 0. -1.
          2   -1    0    0  501    0  0.00000000000E+00 -0.00000000000E+00 -0.16910728353E+04  0.16910728353E+04  0.00000000000E+00 0. -1.
         35    2    1    2    0    0  0.00000000000E+00  0.00000000000E+00 -0.16798991777E+04  0.17022464928E+04  0.27492157936E+03 0.  0.
         25    1    3    3    0    0 -0.58967386336E+02 -0.22306639376E+01 -0.64284748914E+03  0.65660872885E+03  0.12000000000E+03 0.  0.
         25    1    3    3    0    0  0.58967386336E+02  0.22306639376E+01 -0.10370516886E+04  0.10456377639E+04  0.12000000000E+03 0.  0.
<mgrwt>
<rscale>  0 0.27492158E+03</rscale>
<asrwt>0</asrwt>
<pdfrwt beam="1">  1        2 0.26016487E+00 0.27492158E+03</pdfrwt>
<pdfrwt beam="2">  1       -2 0.17190254E-02 0.27492158E+03</pdfrwt>
<totfact> 0.10432684E+04</totfact>
</mgrwt>
</event>
<event>
 5    1  0.1122238E+001  0.2749874E+03  0.7818608E-02  0.1098459E+00
          3   -1    0    0  501    0  0.00000000000E+00  0.00000000000E+00  0.13358532013E+04  0.13358532013E+04  0.00000000000E+00 0. -1.
         -3   -1    0    0    0  501 -0.00000000000E+00 -0.00000000000E+00 -0.14151646254E+02  0.14151646254E+02  0.00000000000E+00 0. -1.
         35    2    1    2    0    0  0.00000000000E+00  0.00000000000E+00  0.13217015551E+04  0.13500048476E+04  0.27498743209E+03 0.  0.
         25    1    3    3    0    0  0.44775205141E+02 -0.40513529327E+01  0.41620588225E+03  0.43548658863E+03  0.12000000000E+03 0.  0.
         25    1    3    3    0    0 -0.44775205141E+02  0.40513529327E+01  0.90549567282E+03  0.91451825894E+03  0.12000000000E+03 0.  0.
<mgrwt>
<rscale>  0 0.27498743E+03</rscale>
<asrwt>0</asrwt>
<pdfrwt beam="1">  1        3 0.20551578E+00 0.27498743E+03</pdfrwt>
<pdfrwt beam="2">  1       -3 0.21771774E-02 0.27498743E+03</pdfrwt>
<totfact> 0.31482128E+02</totfact>
</mgrwt>
</event>
<event>
 5    1  0.1122238E+001  0.2743500E+03  0.7818608E-02  0.1098815E+00
         -3   -1    0    0    0  501 -0.00000000000E+00  0.00000000000E+00  0.16209935552E+03  0.16209935552E+03  0.00000000000E+00 0. -1.
          3   -1    0    0  501    0  0.00000000000E+00 -0.00000000000E+00 -0.11608300813E+03  0.11608300813E+03  0.00000000000E+00 0. -1.
         35    2    1    2    0    0  0.00000000000E+00  0.00000000000E+00  0.46016347389E+02  0.27818236366E+03  0.27435000132E+03 0.  0.
         25    1    3    3    0    0  0.42876975528E+02 -0.48037869071E+02  0.63189448022E+01  0.13633048433E+03  0.12000000000E+03 0.  0.
         25    1    3    3    0    0 -0.42876975528E+02  0.48037869071E+02  0.39697402586E+02  0.14185187932E+03  0.12000000000E+03 0.  0.
<mgrwt>
<rscale>  0 0.27435000E+03</rscale>
<asrwt>0</asrwt>
<pdfrwt beam="1">  1        3 0.17858924E-01 0.27435000E+03</pdfrwt>
<pdfrwt beam="2">  1       -3 0.24938362E-01 0.27435000E+03</pdfrwt>
<totfact> 0.10516241E+03</totfact>
</mgrwt>
</event>
<event>
 5    1  0.1122238E+001  0.2752020E+03  0.7818608E-02  0.1098339E+00
         -1   -1    0    0    0  501 -0.00000000000E+00  0.00000000000E+00  0.87318583082E+02  0.87318583082E+02  0.00000000000E+00 0.  1.
          1   -1    0    0  501    0  0.00000000000E+00 -0.00000000000E+00 -0.21683851763E+03  0.21683851763E+03  0.00000000000E+00 0.  1.
         35    2    1    2    0    0  0.00000000000E+00  0.00000000000E+00 -0.12951993455E+03  0.30415710071E+03  0.27520197759E+03 0.  0.
         25    1    3    3    0    0  0.28410188156E+02  0.38211134699E+02 -0.11738025905E+03  0.17448597313E+03  0.12000000000E+03 0.  0.
         25    1    3    3    0    0 -0.28410188156E+02 -0.38211134699E+02 -0.12139675499E+02  0.12967112758E+03  0.12000000000E+03 0.  0.
<mgrwt>
<rscale>  0 0.27520198E+03</rscale>
<asrwt>0</asrwt>
<pdfrwt beam="1">  1        1 0.33359772E-01 0.27520198E+03</pdfrwt>
<pdfrwt beam="2">  1       -1 0.13433628E-01 0.27520198E+03</pdfrwt>
<totfact> 0.50360004E+03</totfact>
</mgrwt>
</event>
<event>
 5    1  0.1122238E+001  0.2731053E+03  0.7818608E-02  0.1099515E+00
         -1   -1    0    0    0  501 -0.00000000000E+00  0.00000000000E+00  0.21740642117E+03  0.21740642117E+03  0.00000000000E+00 0. -1.
          1   -1    0    0  501    0  0.00000000000E+00 -0.00000000000E+00 -0.85768511841E+02  0.85768511841E+02  0.00000000000E+00 0. -1.
         35    2    1    2    0    0  0.00000000000E+00  0.00000000000E+00  0.13163790933E+03  0.30317493301E+03  0.27310529258E+03 0.  0.
         25    1    3    3    0    0 -0.27322303825E+02 -0.29090684344E+02  0.86314326565E+01  0.12675676641E+03  0.12000000000E+03 0.  0.
         25    1    3    3    0    0  0.27322303825E+02  0.29090684344E+02  0.12300647667E+03  0.17641816660E+03  0.12000000000E+03 0.  0.
<mgrwt>
<rscale>  0 0.27310529E+03</rscale>
<asrwt>0</asrwt>
<pdfrwt beam="1">  1        1 0.13195156E-01 0.27310529E+03</pdfrwt>
<pdfrwt beam="2">  1       -1 0.33447142E-01 0.27310529E+03</pdfrwt>
<totfact> 0.37205227E+03</totfact>
</mgrwt>
</event>
<event>
 5    1  0.1122238E+001  0.2750340E+03  0.7818608E-02  0.1098433E+00
          2   -1    0    0  501    0  0.00000000000E+00  0.00000000000E+00  0.65985258566E+03  0.65985258566E+03  0.00000000000E+00 0. -1.
         -2   -1    0    0    0  501 -0.00000000000E+00 -0.00000000000E+00 -0.28659325387E+02  0.28659325387E+02  0.00000000000E+00 0. -1.
         35    2    1    2    0    0  0.00000000000E+00  0.00000000000E+00  0.63119326027E+03  0.68851191104E+03  0.27503403396E+03 0.  0.
         25    1    3    3    0    0 -0.62290638704E+02  0.15871069114E+02  0.26686665626E+03  0.29958275439E+03  0.12000000000E+03 0.  0.
         25    1    3    3    0    0  0.62290638704E+02 -0.15871069114E+02  0.36432660401E+03  0.38892915666E+03  0.12000000000E+03 0.  0.
<mgrwt>
<rscale>  0 0.27503403E+03</rscale>
<asrwt>0</asrwt>
<pdfrwt beam="1">  1        2 0.10151577E+00 0.27503403E+03</pdfrwt>
<pdfrwt beam="2">  1       -2 0.44091275E-02 0.27503403E+03</pdfrwt>
<totfact> 0.10640259E+04</totfact>
</mgrwt>
</event>
<event>
 5    1  0.1122238E+001  0.2718232E+03  0.7818608E-02  0.1100241E+00
         -1   -1    0    0    0  501 -0.00000000000E+00  0.00000000000E+00  0.12223320317E+03  0.12223320317E+03  0.00000000000E+00 0. -1.
          1   -1    0    0  501    0  0.00000000000E+00 -0.00000000000E+00 -0.15112065528E+03  0.15112065528E+03  0.00000000000E+00 0. -1.
         35    2    1    2    0    0  0.00000000000E+00  0.00000000000E+00 -0.28887452104E+02  0.27335385845E+03  0.27182319077E+03 0.  0.
         25    1    3    3    0    0 -0.30630592832E+01 -0.48046564853E+02  0.27674177663E+02  0.13222599909E+03  0.12000000000E+03 0.  0.
         25    1    3    3    0    0  0.30630592832E+01  0.48046564853E+02 -0.56561629767E+02  0.14112785936E+03  0.12000000000E+03 0.  0.
<mgrwt>
<rscale>  0 0.27182319E+03</rscale>
<asrwt>0</asrwt>
<pdfrwt beam="1">  1        1 0.23249332E-01 0.27182319E+03</pdfrwt>
<pdfrwt beam="2">  1       -1 0.18805108E-01 0.27182319E+03</pdfrwt>
<totfact> 0.46518843E+03</totfact>
</mgrwt>
</event>
<event>
 5    1  0.1122238E+001  0.2754330E+03  0.7818608E-02  0.1098210E+00
          2   -1    0    0  501    0  0.00000000000E+00  0.00000000000E+00  0.91533981136E+03  0.91533981136E+03  0.00000000000E+00 0.  1.
         -2   -1    0    0    0  501 -0.00000000000E+00 -0.00000000000E+00 -0.20719987220E+02  0.20719987220E+02  0.00000000000E+00 0.  1.
         35    2    1    2    0    0  0.00000000000E+00  0.00000000000E+00  0.89461982414E+03  0.93605979858E+03  0.27543296239E+03 0.  0.
         25    1    3    3    0    0  0.55332822099E+02 -0.23780111244E+02  0.55142921794E+03  0.56753977595E+03  0.12000000000E+03 0.  0.
         25    1    3    3    0    0 -0.55332822099E+02  0.23780111244E+02  0.34319060620E+03  0.36852002263E+03  0.12000000000E+03 0.  0.
<mgrwt>
<rscale>  0 0.27543296E+03</rscale>
<asrwt>0</asrwt>
<pdfrwt beam="1">  1        2 0.14082148E+00 0.27543296E+03</pdfrwt>
<pdfrwt beam="2">  1       -2 0.31876911E-02 0.27543296E+03</pdfrwt>
<totfact> 0.11452342E+04</totfact>
</mgrwt>
</event>
<event>
 5    1  0.1122238E+001  0.2748774E+03  0.7818608E-02  0.1098520E+00
          2   -1    0    0  501    0  0.00000000000E+00  0.00000000000E+00  0.30476825316E+03  0.30476825316E+03  0.00000000000E+00 0. -1.
         -2   -1    0    0    0  501 -0.00000000000E+00 -0.00000000000E+00 -0.61979523547E+02  0.61979523547E+02  0.00000000000E+00 0. -1.
         35    2    1    2    0    0  0.00000000000E+00  0.00000000000E+00  0.24278872961E+03  0.36674777671E+03  0.27487736264E+03 0.  0.
         25    1    3    3    0    0  0.56613310666E+02  0.34385894996E+02  0.10792370376E+03  0.17445624824E+03  0.12000000000E+03 0.  0.
         25    1    3    3    0    0 -0.56613310666E+02 -0.34385894996E+02  0.13486502586E+03  0.19229152846E+03  0.12000000000E+03 0.  0.
<mgrwt>
<rscale>  0 0.27487736E+03</rscale>
<asrwt>0</asrwt>
<pdfrwt beam="1">  1        2 0.46887423E-01 0.27487736E+03</pdfrwt>
<pdfrwt beam="2">  1       -2 0.95353115E-02 0.27487736E+03</pdfrwt>
<totfact> 0.76378160E+03</totfact>
</mgrwt>
</event>
<event>
 5    1  0.1122238E+001  0.2755449E+03  0.7818608E-02  0.1098147E+00
          1   -1    0    0  501    0  0.00000000000E+00  0.00000000000E+00  0.13387086175E+04  0.13387086175E+04  0.00000000000E+00 0.  1.
         -1   -1    0    0    0  501 -0.00000000000E+00 -0.00000000000E+00 -0.14178774085E+02  0.14178774085E+02  0.00000000000E+00 0.  1.
         35    2    1    2    0    0  0.00000000000E+00  0.00000000000E+00  0.13245298434E+04  0.13528873916E+04  0.27554489328E+03 0.  0.
         25    1    3    3    0    0 -0.21235049877E+01  0.67460101565E+02  0.68723893178E+03  0.70089423163E+03  0.12000000000E+03 0.  0.
         25    1    3    3    0    0  0.21235049877E+01 -0.67460101565E+02  0.63729091162E+03  0.65199315994E+03  0.12000000000E+03 0.  0.
<mgrwt>
<rscale>  0 0.27554489E+03</rscale>
<asrwt>0</asrwt>
<pdfrwt beam="1">  1        1 0.20595507E+00 0.27554489E+03</pdfrwt>
<pdfrwt beam="2">  1       -1 0.21813509E-02 0.27554489E+03</pdfrwt>
<totfact> 0.55434704E+03</totfact>
</mgrwt>
</event>
<event>
 5    1  0.1122238E+001  0.2746812E+03  0.7818608E-02  0.1098630E+00
          2   -1    0    0  501    0  0.00000000000E+00  0.00000000000E+00  0.46081058110E+03  0.46081058110E+03  0.00000000000E+00 0. -1.
         -2   -1    0    0    0  501 -0.00000000000E+00 -0.00000000000E+00 -0.40933165190E+02  0.40933165190E+02  0.00000000000E+00 0. -1.
         35    2    1    2    0    0  0.00000000000E+00  0.00000000000E+00  0.41987741591E+03  0.50174374628E+03  0.27468116526E+03 0.  0.
         25    1    3    3    0    0  0.38619757730E+02 -0.47457383615E+02  0.16096747753E+03  0.20989096638E+03  0.12000000000E+03 0.  0.
         25    1    3    3    0    0 -0.38619757730E+02  0.47457383615E+02  0.25890993838E+03  0.29185277991E+03  0.12000000000E+03 0.  0.
<mgrwt>
<rscale>  0 0.27468117E+03</rscale>
<asrwt>0</asrwt>
<pdfrwt beam="1">  1        2 0.70893932E-01 0.27468117E+03</pdfrwt>
<pdfrwt beam="2">  1       -2 0.62974103E-02 0.27468117E+03</pdfrwt>
<totfact> 0.93140477E+03</totfact>
</mgrwt>
</event>
<event>
 5    1  0.1122238E+001  0.2755444E+03  0.7818608E-02  0.1098148E+00
         -2   -1    0    0    0  501 -0.00000000000E+00  0.00000000000E+00  0.34268525176E+02  0.34268525176E+02  0.00000000000E+00 0.  1.
          2   -1    0    0  501    0  0.00000000000E+00 -0.00000000000E+00 -0.55389534244E+03  0.55389534244E+03  0.00000000000E+00 0.  1.
         35    2    1    2    0    0  0.00000000000E+00  0.00000000000E+00 -0.51962681727E+03  0.58816386762E+03  0.27554438109E+03 0.  0.
         25    1    3    3    0    0 -0.25265532665E+02  0.10684056047E+02 -0.39189166694E+03  0.41076949109E+03  0.12000000000E+03 0.  0.
         25    1    3    3    0    0  0.25265532665E+02 -0.10684056047E+02 -0.12773515032E+03  0.17739437653E+03  0.12000000000E+03 0.  0.
<mgrwt>
<rscale>  0 0.27554438E+03</rscale>
<asrwt>0</asrwt>
<pdfrwt beam="1">  1        2 0.85214671E-01 0.27554438E+03</pdfrwt>
<pdfrwt beam="2">  1       -2 0.52720806E-02 0.27554438E+03</pdfrwt>
<totfact> 0.99480704E+03</totfact>
</mgrwt>
</event>
<event>
 5    1  0.1122238E+001  0.2754853E+03  0.7818608E-02  0.1098181E+00
          2   -1    0    0  501    0  0.00000000000E+00  0.00000000000E+00  0.37673891115E+03  0.37673891115E+03  0.00000000000E+00 0.  1.
         -2   -1    0    0    0  501 -0.00000000000E+00 -0.00000000000E+00 -0.50361229550E+02  0.50361229550E+02  0.00000000000E+00 0.  1.
         35    2    1    2    0    0  0.00000000000E+00  0.00000000000E+00  0.32637768160E+03  0.42710014070E+03  0.27548527935E+03 0.  0.
         25    1    3    3    0    0 -0.32520821417E+02  0.57529986343E+02  0.14095155122E+03  0.19655697124E+03  0.12000000000E+03 0.  0.
         25    1    3    3    0    0  0.32520821417E+02 -0.57529986343E+02  0.18542613039E+03  0.23054316946E+03  0.12000000000E+03 0.  0.
<mgrwt>
<rscale>  0 0.27548528E+03</rscale>
<asrwt>0</asrwt>
<pdfrwt beam="1">  1        2 0.57959831E-01 0.27548528E+03</pdfrwt>
<pdfrwt beam="2">  1       -2 0.77478817E-02 0.27548528E+03</pdfrwt>
<totfact> 0.84199981E+03</totfact>
</mgrwt>
</event>
<event>
 5    1  0.1122238E+001  0.2747035E+03  0.7818608E-02  0.1098617E+00
          3   -1    0    0  501    0  0.00000000000E+00  0.00000000000E+00  0.99177139706E+01  0.99177139706E+01  0.00000000000E+00 0. -1.
         -3   -1    0    0    0  501 -0.00000000000E+00 -0.00000000000E+00 -0.19022024211E+04  0.19022024211E+04  0.00000000000E+00 0. -1.
         35    2    1    2    0    0  0.00000000000E+00  0.00000000000E+00 -0.18922847071E+04  0.19121201350E+04  0.27470347305E+03 0.  0.
         25    1    3    3    0    0 -0.33388998013E+02  0.42939945554E+02 -0.12163414757E+04  0.12234562721E+04  0.12000000000E+03 0.  0.
         25    1    3    3    0    0  0.33388998013E+02 -0.42939945554E+02 -0.67594323136E+03  0.68866386295E+03  0.12000000000E+03 0.  0.
<mgrwt>
<rscale>  0 0.27470347E+03</rscale>
<asrwt>0</asrwt>
<pdfrwt beam="1">  1        3 0.15258035E-02 0.27470347E+03</pdfrwt>
<pdfrwt beam="2">  1       -3 0.29264626E+00 0.27470347E+03</pdfrwt>
<totfact> 0.17509039E+02</totfact>
</mgrwt>
</event>
<event>
 5    1  0.1122238E+001  0.2760518E+03  0.7818608E-02  0.1097865E+00
          1   -1    0    0  501    0  0.00000000000E+00  0.00000000000E+00  0.80773828120E+03  0.80773828120E+03  0.00000000000E+00 0.  1.
         -1   -1    0    0    0  501 -0.00000000000E+00 -0.00000000000E+00 -0.23585793762E+02  0.23585793762E+02  0.00000000000E+00 0.  1.
         35    2    1    2    0    0  0.00000000000E+00  0.00000000000E+00  0.78415248744E+03  0.83132407496E+03  0.27605179597E+03 0.  0.
         25    1    3    3    0    0  0.16364732637E+02 -0.50570050160E+02  0.52076240327E+03  0.53704619457E+03  0.12000000000E+03 0.  0.
         25    1    3    3    0    0 -0.16364732637E+02  0.50570050160E+02  0.26339008417E+03  0.29427788039E+03  0.12000000000E+03 0.  0.
<mgrwt>
<rscale>  0 0.27605180E+03</rscale>
<asrwt>0</asrwt>
<pdfrwt beam="1">  1        1 0.12426741E+00 0.27605180E+03</pdfrwt>
<pdfrwt beam="2">  1       -1 0.36285843E-02 0.27605180E+03</pdfrwt>
<totfact> 0.64443286E+03</totfact>
</mgrwt>
</event>
<event>
 5    1  0.1122238E+001  0.2746923E+03  0.7818608E-02  0.1098624E+00
         -1   -1    0    0    0  501 -0.00000000000E+00  0.00000000000E+00  0.26810051820E+02  0.26810051820E+02  0.00000000000E+00 0. -1.
          1   -1    0    0  501    0  0.00000000000E+00 -0.00000000000E+00 -0.70361552282E+03  0.70361552282E+03  0.00000000000E+00 0. -1.
         35    2    1    2    0    0  0.00000000000E+00  0.00000000000E+00 -0.67680547100E+03  0.73042557464E+03  0.27469232700E+03 0.  0.
         25    1    3    3    0    0  0.49819863603E+02  0.43324178915E+02 -0.36564557687E+03  0.39045574803E+03  0.12000000000E+03 0.  0.
         25    1    3    3    0    0 -0.49819863603E+02 -0.43324178915E+02 -0.31115989413E+03  0.33996982661E+03  0.12000000000E+03 0.  0.
<mgrwt>
<rscale>  0 0.27469233E+03</rscale>
<asrwt>0</asrwt>
<pdfrwt beam="1">  1        1 0.10824853E+00 0.27469233E+03</pdfrwt>
<pdfrwt beam="2">  1       -1 0.41246239E-02 0.27469233E+03</pdfrwt>
<totfact> 0.65537643E+03</totfact>
</mgrwt>
</event>
<event>
 5    1  0.1122238E+001  0.2749241E+03  0.7818608E-02  0.1098494E+00
         -2   -1    0    0    0  501 -0.00000000000E+00  0.00000000000E+00  0.68919765192E+02  0.68919765192E+02  0.00000000000E+00 0.  1.
          2   -1    0    0  501    0  0.00000000000E+00 -0.00000000000E+00 -0.27417115179E+03  0.27417115179E+03  0.00000000000E+00 0.  1.
         35    2    1    2    0    0  0.00000000000E+00  0.00000000000E+00 -0.20525138659E+03  0.34309091698E+03  0.27492407245E+03 0.  0.
         25    1    3    3    0    0  0.58471891551E+02  0.21460880001E+02 -0.71645404279E+02  0.15301174931E+03  0.12000000000E+03 0.  0.
         25    1    3    3    0    0 -0.58471891551E+02 -0.21460880001E+02 -0.13360598232E+03  0.19007916767E+03  0.12000000000E+03 0.  0.
<mgrwt>
<rscale>  0 0.27492407E+03</rscale>
<asrwt>0</asrwt>
<pdfrwt beam="1">  1        2 0.42180177E-01 0.27492407E+03</pdfrwt>
<pdfrwt beam="2">  1       -2 0.10603041E-01 0.27492407E+03</pdfrwt>
<totfact> 0.72292208E+03</totfact>
</mgrwt>
</event>
<event>
 5    1  0.1122238E+001  0.2747679E+03  0.7818608E-02  0.1098581E+00
         -1   -1    0    0    0  501 -0.00000000000E+00  0.00000000000E+00  0.32107288274E+02  0.32107288274E+02  0.00000000000E+00 0. -1.
          1   -1    0    0  501    0  0.00000000000E+00 -0.00000000000E+00 -0.58785255185E+03  0.58785255185E+03  0.00000000000E+00 0. -1.
         35    2    1    2    0    0  0.00000000000E+00  0.00000000000E+00 -0.55574526358E+03  0.61995984013E+03  0.27476791185E+03 0.  0.
         25    1    3    3    0    0 -0.60022812694E+02  0.26326101251E+02 -0.30802192253E+03  0.33700638927E+03  0.12000000000E+03 0.  0.
         25    1    3    3    0    0  0.60022812694E+02 -0.26326101251E+02 -0.24772334105E+03  0.28295345086E+03  0.12000000000E+03 0.  0.
<mgrwt>
<rscale>  0 0.27476791E+03</rscale>
<asrwt>0</asrwt>
<pdfrwt beam="1">  1        1 0.90438848E-01 0.27476791E+03</pdfrwt>
<pdfrwt beam="2">  1       -1 0.49395831E-02 0.27476791E+03</pdfrwt>
<totfact> 0.64622891E+03</totfact>
</mgrwt>
</event>
<event>
 5    1  0.1122238E+001  0.2749348E+03  0.7818608E-02  0.1098488E+00
         -1   -1    0    0    0  501 -0.00000000000E+00  0.00000000000E+00  0.46997394046E+02  0.46997394046E+02  0.00000000000E+00 0.  1.
          1   -1    0    0  501    0  0.00000000000E+00 -0.00000000000E+00 -0.40209209430E+03  0.40209209430E+03  0.00000000000E+00 0.  1.
         35    2    1    2    0    0  0.00000000000E+00  0.00000000000E+00 -0.35509470026E+03  0.44908948835E+03  0.27493476025E+03 0.  0.
         25    1    3    3    0    0 -0.25650771930E+02 -0.50395703200E+02 -0.11866207811E+03  0.17798420656E+03  0.12000000000E+03 0.  0.
         25    1    3    3    0    0  0.25650771930E+02  0.50395703200E+02 -0.23643262214E+03  0.27110528179E+03  0.12000000000E+03 0.  0.
<mgrwt>
<rscale>  0 0.27493476E+03</rscale>
<asrwt>0</asrwt>
<pdfrwt beam="1">  1        1 0.61860322E-01 0.27493476E+03</pdfrwt>
<pdfrwt beam="2">  1       -1 0.72303683E-02 0.27493476E+03</pdfrwt>
<totfact> 0.60166544E+03</totfact>
</mgrwt>
</event>
<event>
 5    1  0.1122238E+001  0.2744738E+03  0.7818608E-02  0.1098746E+00
         -2   -1    0    0    0  501 -0.00000000000E+00  0.00000000000E+00  0.38762533971E+02  0.38762533971E+02  0.00000000000E+00 0. -1.
          2   -1    0    0  501    0  0.00000000000E+00 -0.00000000000E+00 -0.48588053744E+03  0.48588053744E+03  0.00000000000E+00 0. -1.
         35    2    1    2    0    0  0.00000000000E+00  0.00000000000E+00 -0.44711800347E+03  0.52464307141E+03  0.27447375713E+03 0.  0.
         25    1    3    3    0    0  0.64493609973E+02 -0.15576506977E+02 -0.21276183559E+03  0.25311983719E+03  0.12000000000E+03 0.  0.
         25    1    3    3    0    0 -0.64493609973E+02  0.15576506977E+02 -0.23435616788E+03  0.27152323422E+03  0.12000000000E+03 0.  0.
<mgrwt>
<rscale>  0 0.27447376E+03</rscale>
<asrwt>0</asrwt>
<pdfrwt beam="1">  1        2 0.74750851E-01 0.27447376E+03</pdfrwt>
<pdfrwt beam="2">  1       -2 0.59634669E-02 0.27447376E+03</pdfrwt>
<totfact> 0.95490617E+03</totfact>
</mgrwt>
</event>
<event>
 5    1  0.1122238E+001  0.2802601E+03  0.7818608E-02  0.1095547E+00
          2   -1    0    0  501    0  0.00000000000E+00  0.00000000000E+00  0.12048565589E+04  0.12048565589E+04  0.00000000000E+00 0.  1.
         -2   -1    0    0    0  501 -0.00000000000E+00 -0.00000000000E+00 -0.16297732781E+02  0.16297732781E+02  0.00000000000E+00 0.  1.
         35    2    1    2    0    0  0.00000000000E+00  0.00000000000E+00  0.11885588261E+04  0.12211542917E+04  0.28026009517E+03 0.  0.
         25    1    3    3    0    0  0.27113467249E+02 -0.62171844420E+02  0.48439871583E+03  0.50362942154E+03  0.12000000000E+03 0.  0.
         25    1    3    3    0    0 -0.27113467249E+02  0.62171844420E+02  0.70416011029E+03  0.71752487014E+03  0.12000000000E+03 0.  0.
<mgrwt>
<rscale>  0 0.28026010E+03</rscale>
<asrwt>0</asrwt>
<pdfrwt beam="1">  1        2 0.18536248E+00 0.28026010E+03</pdfrwt>
<pdfrwt beam="2">  1       -2 0.25073444E-02 0.28026010E+03</pdfrwt>
<totfact> 0.10978597E+04</totfact>
</mgrwt>
</event>
<event>
 5    1  0.1122238E+001  0.2750021E+03  0.7818608E-02  0.1098450E+00
         -1   -1    0    0    0  501 -0.00000000000E+00  0.00000000000E+00  0.36038633064E+02  0.36038633064E+02  0.00000000000E+00 0. -1.
          1   -1    0    0  501    0  0.00000000000E+00 -0.00000000000E+00 -0.52461845655E+03  0.52461845655E+03  0.00000000000E+00 0. -1.
         35    2    1    2    0    0  0.00000000000E+00  0.00000000000E+00 -0.48857982348E+03  0.56065708961E+03  0.27500205130E+03 0.  0.
         25    1    3    3    0    0  0.42344892400E+02 -0.46913698765E+02 -0.19813390404E+03  0.24010628683E+03  0.12000000000E+03 0.  0.
         25    1    3    3    0    0 -0.42344892400E+02  0.46913698765E+02 -0.29044591945E+03  0.32055080279E+03  0.12000000000E+03 0.  0.
<mgrwt>
<rscale>  0 0.27500205E+03</rscale>
<asrwt>0</asrwt>
<pdfrwt beam="1">  1        1 0.80710532E-01 0.27500205E+03</pdfrwt>
<pdfrwt beam="2">  1       -1 0.55444050E-02 0.27500205E+03</pdfrwt>
<totfact> 0.63443639E+03</totfact>
</mgrwt>
</event>
<event>
 5    1  0.1122238E+001  0.2749158E+03  0.7818608E-02  0.1098499E+00
          1   -1    0    0  501    0  0.00000000000E+00  0.00000000000E+00  0.40977726639E+03  0.40977726639E+03  0.00000000000E+00 0.  1.
         -1   -1    0    0    0  501 -0.00000000000E+00 -0.00000000000E+00 -0.46109611103E+02  0.46109611103E+02  0.00000000000E+00 0.  1.
         35    2    1    2    0    0  0.00000000000E+00  0.00000000000E+00  0.36366765528E+03  0.45588687749E+03  0.27491577177E+03 0.  0.
         25    1    3    3    0    0  0.13007543947E+02  0.31460692363E+02  0.86059113409E+02  0.15154254308E+03  0.12000000000E+03 0.  0.
         25    1    3    3    0    0 -0.13007543947E+02 -0.31460692363E+02  0.27760854188E+03  0.30434433441E+03  0.12000000000E+03 0.  0.
<mgrwt>
<rscale>  0 0.27491577E+03</rscale>
<asrwt>0</asrwt>
<pdfrwt beam="1">  1        1 0.63042654E-01 0.27491577E+03</pdfrwt>
<pdfrwt beam="2">  1       -1 0.70937866E-02 0.27491577E+03</pdfrwt>
<totfact> 0.60446962E+03</totfact>
</mgrwt>
</event>
<event>
 5    1  0.1122238E+001  0.2742239E+03  0.7818608E-02  0.1098886E+00
         -2   -1    0    0    0  501 -0.00000000000E+00  0.00000000000E+00  0.45397277084E+02  0.45397277084E+02  0.00000000000E+00 0. -1.
          2   -1    0    0  501    0  0.00000000000E+00 -0.00000000000E+00 -0.41411471941E+03  0.41411471941E+03  0.00000000000E+00 0. -1.
         35    2    1    2    0    0  0.00000000000E+00  0.00000000000E+00 -0.36871744233E+03  0.45951199650E+03  0.27422385499E+03 0.  0.
         25    1    3    3    0    0  0.43672792675E+02  0.24977997797E+02 -0.11192606814E+03  0.17163524674E+03  0.12000000000E+03 0.  0.
         25    1    3    3    0    0 -0.43672792675E+02 -0.24977997797E+02 -0.25679137418E+03  0.28787674975E+03  0.12000000000E+03 0.  0.
<mgrwt>
<rscale>  0 0.27422385E+03</rscale>
<asrwt>0</asrwt>
<pdfrwt beam="1">  1        2 0.63709958E-01 0.27422385E+03</pdfrwt>
<pdfrwt beam="2">  1       -2 0.69841964E-02 0.27422385E+03</pdfrwt>
<totfact> 0.89255782E+03</totfact>
</mgrwt>
</event>
<event>
 5    1  0.1122238E+001  0.2753820E+03  0.7818608E-02  0.1098238E+00
         -1   -1    0    0    0  501 -0.00000000000E+00  0.00000000000E+00  0.68760112779E+01  0.68760112779E+01  0.00000000000E+00 0. -1.
          1   -1    0    0  501    0  0.00000000000E+00 -0.00000000000E+00 -0.27572400398E+04  0.27572400398E+04  0.00000000000E+00 0. -1.
         35    2    1    2    0    0  0.00000000000E+00  0.00000000000E+00 -0.27503640285E+04  0.27641160510E+04  0.27538201546E+03 0.  0.
         25    1    3    3    0    0  0.11309663143E+02  0.30229009020E+02 -0.77991227342E+03  0.78974986907E+03  0.12000000000E+03 0.  0.
         25    1    3    3    0    0 -0.11309663143E+02 -0.30229009020E+02 -0.19704517551E+04  0.19743661820E+04  0.12000000000E+03 0.  0.
<mgrwt>
<rscale>  0 0.27538202E+03</rscale>
<asrwt>0</asrwt>
<pdfrwt beam="1">  1        1 0.42419123E+00 0.27538202E+03</pdfrwt>
<pdfrwt beam="2">  1       -1 0.10578468E-02 0.27538202E+03</pdfrwt>
<totfact> 0.18456698E+03</totfact>
</mgrwt>
</event>
<event>
 5    1  0.1122238E+001  0.2748672E+03  0.7818608E-02  0.1098526E+00
         -1   -1    0    0    0  501 -0.00000000000E+00  0.00000000000E+00  0.55865855037E+02  0.55865855037E+02  0.00000000000E+00 0. -1.
          1   -1    0    0  501    0  0.00000000000E+00 -0.00000000000E+00 -0.33809543855E+03  0.33809543855E+03  0.00000000000E+00 0. -1.
         35    2    1    2    0    0  0.00000000000E+00  0.00000000000E+00 -0.28222958351E+03  0.39396129359E+03  0.27486717344E+03 0.  0.
         25    1    3    3    0    0 -0.34008106133E+02 -0.57681089884E+02 -0.13813186840E+03  0.19484371296E+03  0.12000000000E+03 0.  0.
         25    1    3    3    0    0  0.34008106133E+02  0.57681089884E+02 -0.14409771511E+03  0.19911758062E+03  0.12000000000E+03 0.  0.
<mgrwt>
<rscale>  0 0.27486717E+03</rscale>
<asrwt>0</asrwt>
<pdfrwt beam="1">  1        1 0.52014684E-01 0.27486717E+03</pdfrwt>
<pdfrwt beam="2">  1       -1 0.85947468E-02 0.27486717E+03</pdfrwt>
<totfact> 0.57627723E+03</totfact>
</mgrwt>
</event>
<event>
 5    1  0.1122238E+001  0.2745357E+03  0.7818608E-02  0.1098711E+00
          1   -1    0    0  501    0  0.00000000000E+00  0.00000000000E+00  0.50154869439E+02  0.50154869439E+02  0.00000000000E+00 0. -1.
         -1   -1    0    0    0  501 -0.00000000000E+00 -0.00000000000E+00 -0.37568564954E+03  0.37568564954E+03  0.00000000000E+00 0. -1.
         35    2    1    2    0    0  0.00000000000E+00  0.00000000000E+00 -0.32553078010E+03  0.42584051898E+03  0.27453571500E+03 0.  0.
         25    1    3    3    0    0  0.28303164771E+02  0.57684721952E+02 -0.13528506015E+03  0.19191311519E+03  0.12000000000E+03 0.  0.
         25    1    3    3    0    0 -0.28303164771E+02 -0.57684721952E+02 -0.19024571995E+03  0.23392740379E+03  0.12000000000E+03 0.  0.
<mgrwt>
<rscale>  0 0.27453571E+03</rscale>
<asrwt>0</asrwt>
<pdfrwt beam="1">  1        1 0.77161339E-02 0.27453571E+03</pdfrwt>
<pdfrwt beam="2">  1       -1 0.57797791E-01 0.27453571E+03</pdfrwt>
<totfact> 0.28445614E+03</totfact>
</mgrwt>
</event>
<event>
 5    1  0.1122238E+001  0.2762257E+03  0.7818608E-02  0.1097768E+00
         -1   -1    0    0    0  501 -0.00000000000E+00  0.00000000000E+00  0.43320913594E+02  0.43320913594E+02  0.00000000000E+00 0. -1.
          1   -1    0    0  501    0  0.00000000000E+00 -0.00000000000E+00 -0.44032223234E+03  0.44032223234E+03  0.00000000000E+00 0. -1.
         35    2    1    2    0    0  0.00000000000E+00  0.00000000000E+00 -0.39700131874E+03  0.48364314593E+03  0.27622571481E+03 0.  0.
         25    1    3    3    0    0 -0.91556862728E+01  0.56312186523E+02 -0.26448589335E+03  0.29598594008E+03  0.12000000000E+03 0.  0.
         25    1    3    3    0    0  0.91556862728E+01 -0.56312186523E+02 -0.13251542539E+03  0.18765720585E+03  0.12000000000E+03 0.  0.
<mgrwt>
<rscale>  0 0.27622571E+03</rscale>
<asrwt>0</asrwt>
<pdfrwt beam="1">  1        1 0.67741879E-01 0.27622571E+03</pdfrwt>
<pdfrwt beam="2">  1       -1 0.66647562E-02 0.27622571E+03</pdfrwt>
<totfact> 0.60558985E+03</totfact>
</mgrwt>
</event>
<event>
 5    1  0.1122238E+001  0.2747559E+03  0.7818608E-02  0.1098588E+00
         -2   -1    0    0    0  501 -0.00000000000E+00  0.00000000000E+00  0.19613639297E+03  0.19613639297E+03  0.00000000000E+00 0. -1.
          2   -1    0    0  501    0  0.00000000000E+00 -0.00000000000E+00 -0.96222352299E+02  0.96222352299E+02  0.00000000000E+00 0. -1.
         35    2    1    2    0    0  0.00000000000E+00  0.00000000000E+00  0.99914040674E+02  0.29235874527E+03  0.27475592880E+03 0.  0.
         25    1    3    3    0    0 -0.48343194634E+02  0.44610909806E+02  0.37121558475E+02  0.14179283425E+03  0.12000000000E+03 0.  0.
         25    1    3    3    0    0  0.48343194634E+02 -0.44610909806E+02  0.62792482199E+02  0.15056591102E+03  0.12000000000E+03 0.  0.
<mgrwt>
<rscale>  0 0.27475593E+03</rscale>
<asrwt>0</asrwt>
<pdfrwt beam="1">  1        2 0.14803439E-01 0.27475593E+03</pdfrwt>
<pdfrwt beam="2">  1       -2 0.30174830E-01 0.27475593E+03</pdfrwt>
<totfact> 0.39835772E+03</totfact>
</mgrwt>
</event>
<event>
 5    1  0.1122238E+001  0.2737650E+03  0.7818608E-02  0.1099144E+00
          2   -1    0    0  501    0  0.00000000000E+00  0.00000000000E+00  0.78372154940E+03  0.78372154940E+03  0.00000000000E+00 0. -1.
         -2   -1    0    0    0  501 -0.00000000000E+00 -0.00000000000E+00 -0.23907486329E+02  0.23907486329E+02  0.00000000000E+00 0. -1.
         35    2    1    2    0    0  0.00000000000E+00  0.00000000000E+00  0.75981406307E+03  0.80762903573E+03  0.27376495194E+03 0.  0.
         25    1    3    3    0    0 -0.57990962748E+02  0.22913568348E+02  0.31740783124E+03  0.34501552821E+03  0.12000000000E+03 0.  0.
         25    1    3    3    0    0  0.57990962748E+02 -0.22913568348E+02  0.44240623183E+03  0.46261350752E+03  0.12000000000E+03 0.  0.
<mgrwt>
<rscale>  0 0.27376495E+03</rscale>
<asrwt>0</asrwt>
<pdfrwt beam="1">  1        2 0.12057253E+00 0.27376495E+03</pdfrwt>
<pdfrwt beam="2">  1       -2 0.36780754E-02 0.27376495E+03</pdfrwt>
<totfact> 0.11318928E+04</totfact>
</mgrwt>
</event>
<event>
 5    1  0.1122238E+001  0.2748929E+03  0.7818608E-02  0.1098511E+00
          2   -1    0    0  501    0  0.00000000000E+00  0.00000000000E+00  0.12301157773E+03  0.12301157773E+03  0.00000000000E+00 0.  1.
         -2   -1    0    0    0  501 -0.00000000000E+00 -0.00000000000E+00 -0.15357524427E+03  0.15357524427E+03  0.00000000000E+00 0.  1.
         35    2    1    2    0    0  0.00000000000E+00  0.00000000000E+00 -0.30563666537E+02  0.27658682200E+03  0.27489294715E+03 0.  0.
         25    1    3    3    0    0 -0.62263150100E+02 -0.17030626833E+02  0.28511755145E+01  0.13628965959E+03  0.12000000000E+03 0.  0.
         25    1    3    3    0    0  0.62263150100E+02  0.17030626833E+02 -0.33414842052E+02  0.14029716241E+03  0.12000000000E+03 0.  0.
<mgrwt>
<rscale>  0 0.27489295E+03</rscale>
<asrwt>0</asrwt>
<pdfrwt beam="1">  1        2 0.18924858E-01 0.27489295E+03</pdfrwt>
<pdfrwt beam="2">  1       -2 0.23626960E-01 0.27489295E+03</pdfrwt>
<totfact> 0.46224701E+03</totfact>
</mgrwt>
</event>
<event>
 5    1  0.1122238E+001  0.2751744E+03  0.7818608E-02  0.1098354E+00
          1   -1    0    0  501    0  0.00000000000E+00  0.00000000000E+00  0.48455407475E+02  0.48455407475E+02  0.00000000000E+00 0. -1.
         -1   -1    0    0    0  501 -0.00000000000E+00 -0.00000000000E+00 -0.39067349620E+03  0.39067349620E+03  0.00000000000E+00 0. -1.
         35    2    1    2    0    0  0.00000000000E+00  0.00000000000E+00 -0.34221808872E+03  0.43912890367E+03  0.27517444248E+03 0.  0.
         25    1    3    3    0    0  0.22241517387E+01  0.34453963839E+01 -0.27831948570E+03  0.30311475339E+03  0.12000000000E+03 0.  0.
         25    1    3    3    0    0 -0.22241517387E+01 -0.34453963839E+01 -0.63898603025E+02  0.13601415028E+03  0.12000000000E+03 0.  0.
<mgrwt>
<rscale>  0 0.27517444E+03</rscale>
<asrwt>0</asrwt>
<pdfrwt beam="1">  1        1 0.74546781E-02 0.27517444E+03</pdfrwt>
<pdfrwt beam="2">  1       -1 0.60103615E-01 0.27517444E+03</pdfrwt>
<totfact> 0.27662128E+03</totfact>
</mgrwt>
</event>
<event>
 5    1  0.1122238E+001  0.2748401E+03  0.7818608E-02  0.1098541E+00
          2   -1    0    0  501    0  0.00000000000E+00  0.00000000000E+00  0.16639611844E+03  0.16639611844E+03  0.00000000000E+00 0.  1.
         -2   -1    0    0    0  501 -0.00000000000E+00 -0.00000000000E+00 -0.11348986816E+03  0.11348986816E+03  0.00000000000E+00 0.  1.
         35    2    1    2    0    0  0.00000000000E+00  0.00000000000E+00  0.52906250283E+02  0.27988598660E+03  0.27484012476E+03 0.  0.
         25    1    3    3    0    0  0.58971389006E+02  0.24276783334E+00  0.58762406544E+02  0.14605034776E+03  0.12000000000E+03 0.  0.
         25    1    3    3    0    0 -0.58971389006E+02 -0.24276783334E+00 -0.58561562619E+01  0.13383563884E+03  0.12000000000E+03 0.  0.
<mgrwt>
<rscale>  0 0.27484012E+03</rscale>
<asrwt>0</asrwt>
<pdfrwt beam="1">  1        2 0.25599403E-01 0.27484012E+03</pdfrwt>
<pdfrwt beam="2">  1       -2 0.17459980E-01 0.27484012E+03</pdfrwt>
<totfact> 0.55136474E+03</totfact>
</mgrwt>
</event>
<event>
 5    1  0.1122238E+001  0.2752851E+03  0.7818608E-02  0.1098292E+00
          2   -1    0    0  501    0  0.00000000000E+00  0.00000000000E+00  0.31569950888E+04  0.31569950888E+04  0.00000000000E+00 0. -1.
         -2   -1    0    0    0  501 -0.00000000000E+00 -0.00000000000E+00 -0.60011079777E+01  0.60011079777E+01  0.00000000000E+00 0. -1.
         35    2    1    2    0    0  0.00000000000E+00  0.00000000000E+00  0.31509939808E+04  0.31629961967E+04  0.27528507706E+03 0.  0.
         25    1    3    3    0    0 -0.18766900976E+02 -0.56344468347E+02  0.12087960513E+04  0.12161886323E+04  0.12000000000E+03 0.  0.
         25    1    3    3    0    0  0.18766900976E+02  0.56344468347E+02  0.19421979295E+04  0.19468075644E+04  0.12000000000E+03 0.  0.
<mgrwt>
<rscale>  0 0.27528508E+03</rscale>
<asrwt>0</asrwt>
<pdfrwt beam="1">  1        2 0.48569023E+00 0.27528508E+03</pdfrwt>
<pdfrwt beam="2">  1       -2 0.92324990E-03 0.27528508E+03</pdfrwt>
<totfact> 0.40128195E+03</totfact>
</mgrwt>
</event>
<event>
 5    1  0.1122238E+001  0.2754189E+03  0.7818608E-02  0.1098218E+00
         -1   -1    0    0    0  501 -0.00000000000E+00  0.00000000000E+00  0.88338077522E+02  0.88338077522E+02  0.00000000000E+00 0.  1.
          1   -1    0    0  501    0  0.00000000000E+00 -0.00000000000E+00 -0.21467399168E+03  0.21467399168E+03  0.00000000000E+00 0.  1.
         35    2    1    2    0    0  0.00000000000E+00  0.00000000000E+00 -0.12633591416E+03  0.30301206920E+03  0.27541886442E+03 0.  0.
         25    1    3    3    0    0 -0.20813456147E+02 -0.37814126790E+02 -0.12034356807E+03  0.17534446817E+03  0.12000000000E+03 0.  0.
         25    1    3    3    0    0  0.20813456147E+02  0.37814126790E+02 -0.59923460860E+01  0.12766760103E+03  0.12000000000E+03 0.  0.
<mgrwt>
<rscale>  0 0.27541886E+03</rscale>
<asrwt>0</asrwt>
<pdfrwt beam="1">  1        1 0.33026768E-01 0.27541886E+03</pdfrwt>
<pdfrwt beam="2">  1       -1 0.13590474E-01 0.27541886E+03</pdfrwt>
<totfact> 0.50077069E+03</totfact>
</mgrwt>
</event>
<event>
 5    1  0.1122238E+001  0.2741547E+03  0.7818608E-02  0.1098925E+00
          2   -1    0    0  501    0  0.00000000000E+00  0.00000000000E+00  0.32175945526E+04  0.32175945526E+04  0.00000000000E+00 0.  1.
         -2   -1    0    0    0  501 -0.00000000000E+00 -0.00000000000E+00 -0.58398267850E+01  0.58398267850E+01  0.00000000000E+00 0.  1.
         35    2    1    2    0    0  0.00000000000E+00  0.00000000000E+00  0.32117547258E+04  0.32234343794E+04  0.27415466330E+03 0.  0.
         25    1    3    3    0    0 -0.59488690939E+02  0.21205961337E+02  0.18415009740E+04  0.18464870523E+04  0.12000000000E+03 0.  0.
         25    1    3    3    0    0  0.59488690939E+02 -0.21205961337E+02  0.13702537518E+04  0.13769473271E+04  0.12000000000E+03 0.  0.
<mgrwt>
<rscale>  0 0.27415466E+03</rscale>
<asrwt>0</asrwt>
<pdfrwt beam="1">  1        2 0.49501313E+00 0.27415466E+03</pdfrwt>
<pdfrwt beam="2">  1       -2 0.89843746E-03 0.27415466E+03</pdfrwt>
<totfact> 0.38313622E+03</totfact>
</mgrwt>
</event>
<event>
 5    1  0.1122238E+001  0.2746846E+03  0.7818608E-02  0.1098628E+00
          2   -1    0    0  501    0  0.00000000000E+00  0.00000000000E+00  0.70574544775E+03  0.70574544775E+03  0.00000000000E+00 0.  1.
         -2   -1    0    0    0  501 -0.00000000000E+00 -0.00000000000E+00 -0.26727630696E+02  0.26727630696E+02  0.00000000000E+00 0.  1.
         35    2    1    2    0    0  0.00000000000E+00  0.00000000000E+00  0.67901781706E+03  0.73247307845E+03  0.27468457323E+03 0.  0.
         25    1    3    3    0    0  0.46702396263E+02  0.77258928689E+01  0.46521005594E+03  0.48276412396E+03  0.12000000000E+03 0.  0.
         25    1    3    3    0    0 -0.46702396263E+02 -0.77258928689E+01  0.21380776112E+03  0.24970895449E+03  0.12000000000E+03 0.  0.
<mgrwt>
<rscale>  0 0.27468457E+03</rscale>
<asrwt>0</asrwt>
<pdfrwt beam="1">  1        2 0.10857621E+00 0.27468457E+03</pdfrwt>
<pdfrwt beam="2">  1       -2 0.41119437E-02 0.27468457E+03</pdfrwt>
<totfact> 0.10901458E+04</totfact>
</mgrwt>
</event>
<event>
 5    1  0.1122238E+001  0.2756048E+03  0.7818608E-02  0.1098114E+00
          2   -1    0    0  501    0  0.00000000000E+00  0.00000000000E+00  0.15972911573E+03  0.15972911573E+03  0.00000000000E+00 0.  1.
         -2   -1    0    0    0  501 -0.00000000000E+00 -0.00000000000E+00 -0.11888564330E+03  0.11888564330E+03  0.00000000000E+00 0.  1.
         35    2    1    2    0    0  0.00000000000E+00  0.00000000000E+00  0.40843472426E+02  0.27861475904E+03  0.27560477992E+03 0.  0.
         25    1    3    3    0    0 -0.29606449960E+02 -0.57620492198E+02  0.40458281171E+02  0.14224463264E+03  0.12000000000E+03 0.  0.
         25    1    3    3    0    0  0.29606449960E+02  0.57620492198E+02  0.38519125531E+00  0.13637012639E+03  0.12000000000E+03 0.  0.
<mgrwt>
<rscale>  0 0.27560478E+03</rscale>
<asrwt>0</asrwt>
<pdfrwt beam="1">  1        2 0.24573710E-01 0.27560478E+03</pdfrwt>
<pdfrwt beam="2">  1       -2 0.18290099E-01 0.27560478E+03</pdfrwt>
<totfact> 0.53372652E+03</totfact>
</mgrwt>
</event>
<event>
 5    1  0.1122238E+001  0.2752213E+03  0.7818608E-02  0.1098328E+00
         -2   -1    0    0    0  501 -0.00000000000E+00  0.00000000000E+00  0.15229169573E+02  0.15229169573E+02  0.00000000000E+00 0. -1.
          2   -1    0    0  501    0  0.00000000000E+00 -0.00000000000E+00 -0.12434487958E+04  0.12434487958E+04  0.00000000000E+00 0. -1.
         35    2    1    2    0    0  0.00000000000E+00  0.00000000000E+00 -0.12282196262E+04  0.12586779653E+04  0.27522131143E+03 0.  0.
         25    1    3    3    0    0 -0.20918693991E+02  0.64015804629E+02 -0.61885719679E+03  0.63397148597E+03  0.12000000000E+03 0.  0.
         25    1    3    3    0    0  0.20918693991E+02 -0.64015804629E+02 -0.60936242941E+03  0.62470647938E+03  0.12000000000E+03 0.  0.
<mgrwt>
<rscale>  0 0.27522131E+03</rscale>
<asrwt>0</asrwt>
<pdfrwt beam="1">  1        2 0.19129980E+00 0.27522131E+03</pdfrwt>
<pdfrwt beam="2">  1       -2 0.23429493E-02 0.27522131E+03</pdfrwt>
<totfact> 0.11537356E+04</totfact>
</mgrwt>
</event>
<event>
 5    1  0.1122238E+001  0.2750325E+03  0.7818608E-02  0.1098433E+00
         -2   -1    0    0    0  501 -0.00000000000E+00  0.00000000000E+00  0.29551162253E+03  0.29551162253E+03  0.00000000000E+00 0. -1.
          2   -1    0    0  501    0  0.00000000000E+00 -0.00000000000E+00 -0.63993128792E+02  0.63993128792E+02  0.00000000000E+00 0. -1.
         35    2    1    2    0    0  0.00000000000E+00  0.00000000000E+00  0.23151849374E+03  0.35950475132E+03  0.27503245859E+03 0.  0.
         25    1    3    3    0    0 -0.19520848103E+02 -0.28753244680E+01  0.19967473693E+03  0.23379335228E+03  0.12000000000E+03 0.  0.
         25    1    3    3    0    0  0.19520848103E+02  0.28753244680E+01  0.31843756805E+02  0.12571139904E+03  0.12000000000E+03 0.  0.
<mgrwt>
<rscale>  0 0.27503246E+03</rscale>
<asrwt>0</asrwt>
<pdfrwt beam="1">  1        2 0.98450969E-02 0.27503246E+03</pdfrwt>
<pdfrwt beam="2">  1       -2 0.45463326E-01 0.27503246E+03</pdfrwt>
<totfact> 0.30215189E+03</totfact>
</mgrwt>
</event>
<event>
 5    1  0.1122238E+001  0.2843353E+03  0.7818608E-02  0.1093344E+00
         -1   -1    0    0    0  501 -0.00000000000E+00  0.00000000000E+00  0.15940333902E+02  0.15940333902E+02  0.00000000000E+00 0.  1.
          1   -1    0    0  501    0  0.00000000000E+00 -0.00000000000E+00 -0.12679558006E+04  0.12679558006E+04  0.00000000000E+00 0.  1.
         35    2    1    2    0    0  0.00000000000E+00  0.00000000000E+00 -0.12520154667E+04  0.12838961345E+04  0.28433528684E+03 0.  0.
         25    1    3    3    0    0 -0.39367911765E+02  0.23432867846E+02 -0.35087359966E+03  0.37364584128E+03  0.12000000000E+03 0.  0.
         25    1    3    3    0    0  0.39367911765E+02 -0.23432867846E+02 -0.90114186707E+03  0.91025029325E+03  0.12000000000E+03 0.  0.
<mgrwt>
<rscale>  0 0.28433529E+03</rscale>
<asrwt>0</asrwt>
<pdfrwt beam="1">  1        1 0.19507008E+00 0.28433529E+03</pdfrwt>
<pdfrwt beam="2">  1       -1 0.24523595E-02 0.28433529E+03</pdfrwt>
<totfact> 0.52203218E+03</totfact>
</mgrwt>
</event>
<event>
 5    1  0.1122238E+001  0.2759146E+03  0.7818608E-02  0.1097941E+00
         -2   -1    0    0    0  501 -0.00000000000E+00  0.00000000000E+00  0.58062262503E+02  0.58062262503E+02  0.00000000000E+00 0.  1.
          2   -1    0    0  501    0  0.00000000000E+00 -0.00000000000E+00 -0.32778985146E+03  0.32778985146E+03  0.00000000000E+00 0.  1.
         35    2    1    2    0    0  0.00000000000E+00  0.00000000000E+00 -0.26972758896E+03  0.38585211396E+03  0.27591462739E+03 0.  0.
         25    1    3    3    0    0 -0.32480986554E+00 -0.24122063989E+02 -0.22386309392E+03  0.25514047953E+03  0.12000000000E+03 0.  0.
         25    1    3    3    0    0  0.32480986554E+00  0.24122063989E+02 -0.45864495036E+02  0.13071163444E+03  0.12000000000E+03 0.  0.
<mgrwt>
<rscale>  0 0.27591463E+03</rscale>
<asrwt>0</asrwt>
<pdfrwt beam="1">  1        2 0.50429207E-01 0.27591463E+03</pdfrwt>
<pdfrwt beam="2">  1       -2 0.89326560E-02 0.27591463E+03</pdfrwt>
<totfact> 0.78303603E+03</totfact>
</mgrwt>
</event>
<event>
 5    1  0.1122238E+001  0.2753145E+03  0.7818608E-02  0.1098276E+00
          1   -1    0    0  501    0  0.00000000000E+00  0.00000000000E+00  0.12325612252E+04  0.12325612252E+04  0.00000000000E+00 0. -1.
         -1   -1    0    0    0  501 -0.00000000000E+00 -0.00000000000E+00 -0.15374098283E+02  0.15374098283E+02  0.00000000000E+00 0. -1.
         35    2    1    2    0    0  0.00000000000E+00  0.00000000000E+00  0.12171871269E+04  0.12479353234E+04  0.27531449228E+03 0.  0.
         25    1    3    3    0    0  0.34088396687E+02  0.56162091436E+02  0.53935672453E+03  0.55643676694E+03  0.12000000000E+03 0.  0.
         25    1    3    3    0    0 -0.34088396687E+02 -0.56162091436E+02  0.67783040234E+03  0.69149855650E+03  0.12000000000E+03 0.  0.
<mgrwt>
<rscale>  0 0.27531449E+03</rscale>
<asrwt>0</asrwt>
<pdfrwt beam="1">  1        1 0.18962473E+00 0.27531449E+03</pdfrwt>
<pdfrwt beam="2">  1       -1 0.23652468E-02 0.27531449E+03</pdfrwt>
<totfact> 0.58217965E+03</totfact>
</mgrwt>
</event>
<event>
 5    1  0.1122238E+001  0.2751280E+03  0.7818608E-02  0.1098380E+00
         -2   -1    0    0    0  501 -0.00000000000E+00  0.00000000000E+00  0.10073920036E+02  0.10073920036E+02  0.00000000000E+00 0. -1.
          2   -1    0    0  501    0  0.00000000000E+00 -0.00000000000E+00 -0.18785000614E+04  0.18785000614E+04  0.00000000000E+00 0. -1.
         35    2    1    2    0    0  0.00000000000E+00  0.00000000000E+00 -0.18684261414E+04  0.18885739815E+04  0.27512803861E+03 0.  0.
         25    1    3    3    0    0  0.41755371592E+02  0.26527316171E+02 -0.62140295616E+03  0.63481402275E+03  0.12000000000E+03 0.  0.
         25    1    3    3    0    0 -0.41755371592E+02 -0.26527316171E+02 -0.12470231853E+04  0.12537599587E+04  0.12000000000E+03 0.  0.
<mgrwt>
<rscale>  0 0.27512804E+03</rscale>
<asrwt>0</asrwt>
<pdfrwt beam="1">  1        2 0.28900004E+00 0.27512804E+03</pdfrwt>
<pdfrwt beam="2">  1       -2 0.15498337E-02 0.27512804E+03</pdfrwt>
<totfact> 0.96793787E+03</totfact>
</mgrwt>
</event>
<event>
 5    1  0.1122238E+001  0.2745906E+03  0.7818608E-02  0.1098681E+00
         -1   -1    0    0    0  501 -0.00000000000E+00  0.00000000000E+00  0.55184144321E+03  0.55184144321E+03  0.00000000000E+00 0.  1.
          1   -1    0    0  501    0  0.00000000000E+00 -0.00000000000E+00 -0.34158372216E+02  0.34158372216E+02  0.00000000000E+00 0.  1.
         35    2    1    2    0    0  0.00000000000E+00  0.00000000000E+00  0.51768307099E+03  0.58599981542E+03  0.27459064384E+03 0.  0.
         25    1    3    3    0    0 -0.53133717696E+02 -0.34776540304E+02  0.21524108902E+03  0.25448246720E+03  0.12000000000E+03 0.  0.
         25    1    3    3    0    0  0.53133717696E+02  0.34776540304E+02  0.30244198197E+03  0.33151734822E+03  0.12000000000E+03 0.  0.
<mgrwt>
<rscale>  0 0.27459064E+03</rscale>
<asrwt>0</asrwt>
<pdfrwt beam="1">  1        1 0.52551346E-02 0.27459064E+03</pdfrwt>
<pdfrwt beam="2">  1       -1 0.84898677E-01 0.27459064E+03</pdfrwt>
<totfact> 0.22321335E+03</totfact>
</mgrwt>
</event>
<event>
 5    1  0.1122238E+001  0.2742041E+03  0.7818608E-02  0.1098897E+00
         -1   -1    0    0    0  501 -0.00000000000E+00  0.00000000000E+00  0.19058770901E+03  0.19058770901E+03  0.00000000000E+00 0. -1.
          1   -1    0    0  501    0  0.00000000000E+00 -0.00000000000E+00 -0.98626328785E+02  0.98626328785E+02  0.00000000000E+00 0. -1.
         35    2    1    2    0    0  0.00000000000E+00  0.00000000000E+00  0.91961380226E+02  0.28921403780E+03  0.27420405578E+03 0.  0.
         25    1    3    3    0    0  0.19182957595E+02 -0.58688663266E+02  0.20478193540E+02  0.13649799071E+03  0.12000000000E+03 0.  0.
         25    1    3    3    0    0 -0.19182957595E+02  0.58688663266E+02  0.71483186686E+02  0.15271604708E+03  0.12000000000E+03 0.  0.
<mgrwt>
<rscale>  0 0.27420406E+03</rscale>
<asrwt>0</asrwt>
<pdfrwt beam="1">  1        1 0.15173281E-01 0.27420406E+03</pdfrwt>
<pdfrwt beam="2">  1       -1 0.29321186E-01 0.27420406E+03</pdfrwt>
<totfact> 0.38779118E+03</totfact>
</mgrwt>
</event>
<event>
 5    1  0.1122238E+001  0.2750278E+03  0.7818608E-02  0.1098436E+00
         -1   -1    0    0    0  501 -0.00000000000E+00  0.00000000000E+00  0.41578711216E+02  0.41578711216E+02  0.00000000000E+00 0. -1.
          1   -1    0    0  501    0  0.00000000000E+00 -0.00000000000E+00 -0.45480170978E+03  0.45480170978E+03  0.00000000000E+00 0. -1.
         35    2    1    2    0    0  0.00000000000E+00  0.00000000000E+00 -0.41322299857E+03  0.49638042100E+03  0.27502777279E+03 0.  0.
         25    1    3    3    0    0  0.66549789352E+01 -0.65908657804E+02 -0.18669039126E+03  0.23160643796E+03  0.12000000000E+03 0.  0.
         25    1    3    3    0    0 -0.66549789352E+01  0.65908657804E+02 -0.22653260731E+03  0.26477398304E+03  0.12000000000E+03 0.  0.
<mgrwt>
<rscale>  0 0.27502777E+03</rscale>
<asrwt>0</asrwt>
<pdfrwt beam="1">  1        1 0.69969493E-01 0.27502777E+03</pdfrwt>
<pdfrwt beam="2">  1       -1 0.63967248E-02 0.27502777E+03</pdfrwt>
<totfact> 0.61773353E+03</totfact>
</mgrwt>
</event>
<event>
 5    1  0.1122238E+001  0.2754571E+03  0.7818608E-02  0.1098196E+00
          4   -1    0    0  501    0  0.00000000000E+00  0.00000000000E+00  0.97091208216E+02  0.97091208216E+02  0.00000000000E+00 0.  1.
         -4   -1    0    0    0  501 -0.00000000000E+00 -0.00000000000E+00 -0.19537462668E+03  0.19537462668E+03  0.00000000000E+00 0.  1.
         35    2    1    2    0    0  0.00000000000E+00  0.00000000000E+00 -0.98283418461E+02  0.29246583489E+03  0.27545713684E+03 0.  0.
         25    1    3    3    0    0 -0.61038345066E+02 -0.28132130421E+02 -0.56802656759E+02  0.14880738606E+03  0.12000000000E+03 0.  0.
         25    1    3    3    0    0  0.61038345066E+02  0.28132130421E+02 -0.41480761703E+02  0.14365844884E+03  0.12000000000E+03 0.  0.
<mgrwt>
<rscale>  0 0.27545714E+03</rscale>
<asrwt>0</asrwt>
<pdfrwt beam="1">  1        4 0.14937109E-01 0.27545714E+03</pdfrwt>
<pdfrwt beam="2">  1       -4 0.30057635E-01 0.27545714E+03</pdfrwt>
<totfact> 0.75452985E+02</totfact>
</mgrwt>
</event>
<event>
 5    1  0.1122238E+001  0.2749074E+03  0.7818608E-02  0.1098503E+00
         -2   -1    0    0    0  501 -0.00000000000E+00  0.00000000000E+00  0.31143092972E+02  0.31143092972E+02  0.00000000000E+00 0. -1.
          2   -1    0    0  501    0  0.00000000000E+00 -0.00000000000E+00 -0.60666825600E+03  0.60666825600E+03  0.00000000000E+00 0. -1.
         35    2    1    2    0    0  0.00000000000E+00  0.00000000000E+00 -0.57552516303E+03  0.63781134897E+03  0.27490744551E+03 0.  0.
         25    1    3    3    0    0  0.55028211126E+02 -0.50437533002E+01 -0.19972170912E+03  0.23946253269E+03  0.12000000000E+03 0.  0.
         25    1    3    3    0    0 -0.55028211126E+02  0.50437533002E+01 -0.37580345391E+03  0.39834881628E+03  0.12000000000E+03 0.  0.
<mgrwt>
<rscale>  0 0.27490745E+03</rscale>
<asrwt>0</asrwt>
<pdfrwt beam="1">  1        2 0.93333577E-01 0.27490745E+03</pdfrwt>
<pdfrwt beam="2">  1       -2 0.47912451E-02 0.27490745E+03</pdfrwt>
<totfact> 0.10358529E+04</totfact>
</mgrwt>
</event>
<event>
 5    1  0.1122238E+001  0.2801156E+03  0.7818608E-02  0.1095626E+00
         -4   -1    0    0    0  501 -0.00000000000E+00  0.00000000000E+00  0.41910597710E+02  0.41910597710E+02  0.00000000000E+00 0. -1.
          4   -1    0    0  501    0  0.00000000000E+00 -0.00000000000E+00 -0.46804832135E+03  0.46804832135E+03  0.00000000000E+00 0. -1.
         35    2    1    2    0    0  0.00000000000E+00  0.00000000000E+00 -0.42613772364E+03  0.50995891906E+03  0.28011558261E+03 0.  0.
         25    1    3    3    0    0  0.90248483328E+01  0.42483101337E+02 -0.10801427326E+03  0.16719253875E+03  0.12000000000E+03 0.  0.
         25    1    3    3    0    0 -0.90248483328E+01 -0.42483101337E+02 -0.31812345038E+03  0.34276638031E+03  0.12000000000E+03 0.  0.
<mgrwt>
<rscale>  0 0.28011558E+03</rscale>
<asrwt>0</asrwt>
<pdfrwt beam="1">  1        4 0.72007432E-01 0.28011558E+03</pdfrwt>
<pdfrwt beam="2">  1       -4 0.64477845E-02 0.28011558E+03</pdfrwt>
<totfact> 0.53096505E+02</totfact>
</mgrwt>
</event>
<event>
 5    1  0.1122238E+001  0.2757033E+03  0.7818608E-02  0.1098059E+00
          2   -1    0    0  501    0  0.00000000000E+00  0.00000000000E+00  0.35379626491E+03  0.35379626491E+03  0.00000000000E+00 0. -1.
         -2   -1    0    0    0  501 -0.00000000000E+00 -0.00000000000E+00 -0.53711939247E+02  0.53711939247E+02  0.00000000000E+00 0. -1.
         35    2    1    2    0    0  0.00000000000E+00  0.00000000000E+00  0.30008432566E+03  0.40750820416E+03  0.27570334410E+03 0.  0.
         25    1    3    3    0    0 -0.25872318898E+01 -0.67791671053E+02  0.14882416541E+03  0.20285718287E+03  0.12000000000E+03 0.  0.
         25    1    3    3    0    0  0.25872318898E+01  0.67791671053E+02  0.15126016026E+03  0.20465102129E+03  0.12000000000E+03 0.  0.
<mgrwt>
<rscale>  0 0.27570334E+03</rscale>
<asrwt>0</asrwt>
<pdfrwt beam="1">  1        2 0.54430193E-01 0.27570334E+03</pdfrwt>
<pdfrwt beam="2">  1       -2 0.82633755E-02 0.27570334E+03</pdfrwt>
<totfact> 0.81494609E+03</totfact>
</mgrwt>
</event>
<event>
 5    1  0.1122238E+001  0.2750557E+03  0.7818608E-02  0.1098420E+00
         -1   -1    0    0    0  501 -0.00000000000E+00  0.00000000000E+00  0.20255794973E+02  0.20255794973E+02  0.00000000000E+00 0. -1.
          1   -1    0    0  501    0  0.00000000000E+00 -0.00000000000E+00 -0.93375327499E+03  0.93375327499E+03  0.00000000000E+00 0. -1.
         35    2    1    2    0    0  0.00000000000E+00  0.00000000000E+00 -0.91349748001E+03  0.95400906996E+03  0.27505573903E+03 0.  0.
         25    1    3    3    0    0 -0.44425963957E+02  0.15855232109E+01 -0.63147368195E+03  0.64430985648E+03  0.12000000000E+03 0.  0.
         25    1    3    3    0    0  0.44425963957E+02 -0.15855232109E+01 -0.28202379806E+03  0.30969921348E+03  0.12000000000E+03 0.  0.
<mgrwt>
<rscale>  0 0.27505574E+03</rscale>
<asrwt>0</asrwt>
<pdfrwt beam="1">  1        1 0.14365440E+00 0.27505574E+03</pdfrwt>
<pdfrwt beam="2">  1       -1 0.31162750E-02 0.27505574E+03</pdfrwt>
<totfact> 0.64000657E+03</totfact>
</mgrwt>
</event>
<event>
 5    1  0.1122238E+001  0.2757611E+03  0.7818608E-02  0.1098027E+00
         -1   -1    0    0    0  501 -0.00000000000E+00  0.00000000000E+00  0.32433057702E+02  0.32433057702E+02  0.00000000000E+00 0.  1.
          1   -1    0    0  501    0  0.00000000000E+00 -0.00000000000E+00 -0.58616241371E+03  0.58616241371E+03  0.00000000000E+00 0.  1.
         35    2    1    2    0    0  0.00000000000E+00  0.00000000000E+00 -0.55372935601E+03  0.61859547141E+03  0.27576105154E+03 0.  0.
         25    1    3    3    0    0 -0.51091582072E+02 -0.44012479754E+02 -0.29475311947E+03  0.32531038959E+03  0.12000000000E+03 0.  0.
         25    1    3    3    0    0  0.51091582072E+02  0.44012479754E+02 -0.25897623654E+03  0.29328508183E+03  0.12000000000E+03 0.  0.
<mgrwt>
<rscale>  0 0.27576105E+03</rscale>
<asrwt>0</asrwt>
<pdfrwt beam="1">  1        1 0.90178835E-01 0.27576105E+03</pdfrwt>
<pdfrwt beam="2">  1       -1 0.49897011E-02 0.27576105E+03</pdfrwt>
<totfact> 0.63913328E+03</totfact>
</mgrwt>
</event>
<event>
 5    1  0.1122238E+001  0.2755981E+03  0.7818608E-02  0.1098118E+00
         -1   -1    0    0    0  501 -0.00000000000E+00  0.00000000000E+00  0.44342127181E+02  0.44342127181E+02  0.00000000000E+00 0. -1.
          1   -1    0    0  501    0  0.00000000000E+00 -0.00000000000E+00 -0.42822885682E+03  0.42822885682E+03  0.00000000000E+00 0. -1.
         35    2    1    2    0    0  0.00000000000E+00  0.00000000000E+00 -0.38388672964E+03  0.47257098400E+03  0.27559810182E+03 0.  0.
         25    1    3    3    0    0 -0.73281806843E+01 -0.66691009091E+02 -0.20795416274E+03  0.24929164993E+03  0.12000000000E+03 0.  0.
         25    1    3    3    0    0  0.73281806843E+01  0.66691009091E+02 -0.17593256690E+03  0.22327933407E+03  0.12000000000E+03 0.  0.
<mgrwt>
<rscale>  0 0.27559810E+03</rscale>
<asrwt>0</asrwt>
<pdfrwt beam="1">  1        1 0.65881366E-01 0.27559810E+03</pdfrwt>
<pdfrwt beam="2">  1       -1 0.68218654E-02 0.27559810E+03</pdfrwt>
<totfact> 0.60602838E+03</totfact>
</mgrwt>
</event>
<event>
 5    1  0.1122238E+001  0.2747127E+03  0.7818608E-02  0.1098612E+00
         -1   -1    0    0    0  501 -0.00000000000E+00  0.00000000000E+00  0.12206807767E+03  0.12206807767E+03  0.00000000000E+00 0. -1.
          1   -1    0    0  501    0  0.00000000000E+00 -0.00000000000E+00 -0.15455942356E+03  0.15455942356E+03  0.00000000000E+00 0. -1.
         35    2    1    2    0    0  0.00000000000E+00  0.00000000000E+00 -0.32491345889E+02  0.27662750123E+03  0.27471273519E+03 0.  0.
         25    1    3    3    0    0 -0.41752405445E+02 -0.47760673461E+02 -0.37426216055E+02  0.14080151611E+03  0.12000000000E+03 0.  0.
         25    1    3    3    0    0  0.41752405445E+02  0.47760673461E+02  0.49348701663E+01  0.13582598512E+03  0.12000000000E+03 0.  0.
<mgrwt>
<rscale>  0 0.27471274E+03</rscale>
<asrwt>0</asrwt>
<pdfrwt beam="1">  1        1 0.23778373E-01 0.27471274E+03</pdfrwt>
<pdfrwt beam="2">  1       -1 0.18779704E-01 0.27471274E+03</pdfrwt>
<totfact> 0.45315667E+03</totfact>
</mgrwt>
</event>
<event>
 5    1  0.1122238E+001  0.2744439E+03  0.7818608E-02  0.1098763E+00
         -2   -1    0    0    0  501 -0.00000000000E+00  0.00000000000E+00  0.11964888484E+02  0.11964888484E+02  0.00000000000E+00 0. -1.
          2   -1    0    0  501    0  0.00000000000E+00 -0.00000000000E+00 -0.15737598691E+04  0.15737598691E+04  0.00000000000E+00 0. -1.
         35    2    1    2    0    0  0.00000000000E+00  0.00000000000E+00 -0.15617949806E+04  0.15857247576E+04  0.27444388376E+03 0.  0.
         25    1    3    3    0    0 -0.41311658222E+02 -0.30896622318E+02 -0.10238883373E+04  0.10321863115E+04  0.12000000000E+03 0.  0.
         25    1    3    3    0    0  0.41311658222E+02  0.30896622318E+02 -0.53790664331E+03  0.55353844609E+03  0.12000000000E+03 0.  0.
<mgrwt>
<rscale>  0 0.27444388E+03</rscale>
<asrwt>0</asrwt>
<pdfrwt beam="1">  1        2 0.24211687E+00 0.27444388E+03</pdfrwt>
<pdfrwt beam="2">  1       -2 0.18407524E-02 0.27444388E+03</pdfrwt>
<totfact> 0.10884552E+04</totfact>
</mgrwt>
</event>
<event>
 5    1  0.1122238E+001  0.2745738E+03  0.7818608E-02  0.1098690E+00
          2   -1    0    0  501    0  0.00000000000E+00  0.00000000000E+00  0.10187461744E+04  0.10187461744E+04  0.00000000000E+00 0.  1.
         -2   -1    0    0    0  501 -0.00000000000E+00 -0.00000000000E+00 -0.18500870599E+02  0.18500870599E+02  0.00000000000E+00 0.  1.
         35    2    1    2    0    0  0.00000000000E+00  0.00000000000E+00  0.10002453038E+04  0.10372470450E+04  0.27457378714E+03 0.  0.
         25    1    3    3    0    0  0.39772163139E+02 -0.54863226480E+01  0.70129040363E+03  0.71261501171E+03  0.12000000000E+03 0.  0.
         25    1    3    3    0    0 -0.39772163139E+02  0.54863226480E+01  0.29895490013E+03  0.32463203325E+03  0.12000000000E+03 0.  0.
<mgrwt>
<rscale>  0 0.27457379E+03</rscale>
<asrwt>0</asrwt>
<pdfrwt beam="1">  1        2 0.15673014E+00 0.27457379E+03</pdfrwt>
<pdfrwt beam="2">  1       -2 0.28462886E-02 0.27457379E+03</pdfrwt>
<totfact> 0.11685970E+04</totfact>
</mgrwt>
</event>
<event>
 5    1  0.1122238E+001  0.2746806E+03  0.7818608E-02  0.1098630E+00
         -1   -1    0    0    0  501 -0.00000000000E+00  0.00000000000E+00  0.21424593447E+03  0.21424593447E+03  0.00000000000E+00 0. -1.
          1   -1    0    0  501    0  0.00000000000E+00 -0.00000000000E+00 -0.88040668292E+02  0.88040668292E+02  0.00000000000E+00 0. -1.
         35    2    1    2    0    0  0.00000000000E+00  0.00000000000E+00  0.12620526618E+03  0.30228660277E+03  0.27468057995E+03 0.  0.
         25    1    3    3    0    0 -0.60987480185E+02  0.19231294674E+02  0.41847269506E+02  0.14226914423E+03  0.12000000000E+03 0.  0.
         25    1    3    3    0    0  0.60987480185E+02 -0.19231294674E+02  0.84357996675E+02  0.16001745854E+03  0.12000000000E+03 0.  0.
<mgrwt>
<rscale>  0 0.27468058E+03</rscale>
<asrwt>0</asrwt>
<pdfrwt beam="1">  1        1 0.13544718E-01 0.27468058E+03</pdfrwt>
<pdfrwt beam="2">  1       -1 0.32960913E-01 0.27468058E+03</pdfrwt>
<totfact> 0.36867190E+03</totfact>
</mgrwt>
</event>
<event>
 5    1  0.1122238E+001  0.2746932E+03  0.7818608E-02  0.1098623E+00
         -1   -1    0    0    0  501 -0.00000000000E+00  0.00000000000E+00  0.26541720233E+03  0.26541720233E+03  0.00000000000E+00 0.  1.
          1   -1    0    0  501    0  0.00000000000E+00 -0.00000000000E+00 -0.71073333302E+02  0.71073333302E+02  0.00000000000E+00 0.  1.
         35    2    1    2    0    0  0.00000000000E+00  0.00000000000E+00  0.19434386903E+03  0.33649053563E+03  0.27469317636E+03 0.  0.
         25    1    3    3    0    0 -0.59579413989E+02 -0.73031427819E+01  0.13311684090E+03  0.18900565017E+03  0.12000000000E+03 0.  0.
         25    1    3    3    0    0  0.59579413989E+02  0.73031427819E+01  0.61227028129E+02  0.14748488546E+03  0.12000000000E+03 0.  0.
<mgrwt>
<rscale>  0 0.27469318E+03</rscale>
<asrwt>0</asrwt>
<pdfrwt beam="1">  1        1 0.10934359E-01 0.27469318E+03</pdfrwt>
<pdfrwt beam="2">  1       -1 0.40833415E-01 0.27469318E+03</pdfrwt>
<totfact> 0.33678115E+03</totfact>
</mgrwt>
</event>
<event>
 5    1  0.1122238E+001  0.2757309E+03  0.7818608E-02  0.1098044E+00
          1   -1    0    0  501    0  0.00000000000E+00  0.00000000000E+00  0.15331240216E+03  0.15331240216E+03  0.00000000000E+00 0. -1.
         -1   -1    0    0    0  501 -0.00000000000E+00 -0.00000000000E+00 -0.12397481519E+03  0.12397481519E+03  0.00000000000E+00 0. -1.
         35    2    1    2    0    0  0.00000000000E+00  0.00000000000E+00  0.29337586969E+02  0.27728721736E+03  0.27573085954E+03 0.  0.
         25    1    3    3    0    0  0.37025836245E+02 -0.49398682049E+02 -0.13699194742E+02  0.13564221420E+03  0.12000000000E+03 0.  0.
         25    1    3    3    0    0 -0.37025836245E+02  0.49398682049E+02  0.43036781711E+02  0.14164500315E+03  0.12000000000E+03 0.  0.
<mgrwt>
<rscale>  0 0.27573086E+03</rscale>
<asrwt>0</asrwt>
<pdfrwt beam="1">  1        1 0.23586523E-01 0.27573086E+03</pdfrwt>
<pdfrwt beam="2">  1       -1 0.19073049E-01 0.27573086E+03</pdfrwt>
<totfact> 0.44658092E+03</totfact>
</mgrwt>
</event>
<event>
 5    1  0.1122238E+001  0.2747440E+03  0.7818608E-02  0.1098595E+00
         -1   -1    0    0    0  501 -0.00000000000E+00  0.00000000000E+00  0.61216941996E+01  0.61216941996E+01  0.00000000000E+00 0. -1.
          1   -1    0    0  501    0  0.00000000000E+00 -0.00000000000E+00 -0.30826537648E+04  0.30826537648E+04  0.00000000000E+00 0. -1.
         35    2    1    2    0    0  0.00000000000E+00  0.00000000000E+00 -0.30765320706E+04  0.30887754590E+04  0.27474398025E+03 0.  0.
         25    1    3    3    0    0 -0.50169178266E+02 -0.16969821207E+02 -0.10793701014E+04  0.10873107822E+04  0.12000000000E+03 0.  0.
         25    1    3    3    0    0  0.50169178266E+02  0.16969821207E+02 -0.19971619692E+04  0.20014646768E+04  0.12000000000E+03 0.  0.
<mgrwt>
<rscale>  0 0.27474398E+03</rscale>
<asrwt>0</asrwt>
<pdfrwt beam="1">  1        1 0.47425457E+00 0.27474398E+03</pdfrwt>
<pdfrwt beam="2">  1       -1 0.94179881E-03 0.27474398E+03</pdfrwt>
<totfact> 0.12987081E+03</totfact>
</mgrwt>
</event>
<event>
 5    1  0.1122238E+001  0.2750172E+03  0.7818608E-02  0.1098442E+00
         -2   -1    0    0    0  501 -0.00000000000E+00  0.00000000000E+00  0.48025205351E+02  0.48025205351E+02  0.00000000000E+00 0. -1.
          2   -1    0    0  501    0  0.00000000000E+00 -0.00000000000E+00 -0.39372270316E+03  0.39372270316E+03  0.00000000000E+00 0. -1.
         35    2    1    2    0    0  0.00000000000E+00  0.00000000000E+00 -0.34569749781E+03  0.44174790851E+03  0.27501718980E+03 0.  0.
         25    1    3    3    0    0  0.24327766728E+02  0.55275008249E+02 -0.21999301921E+03  0.25776752176E+03  0.12000000000E+03 0.  0.
         25    1    3    3    0    0 -0.24327766728E+02 -0.55275008249E+02 -0.12570447860E+03  0.18398038675E+03  0.12000000000E+03 0.  0.
<mgrwt>
<rscale>  0 0.27501719E+03</rscale>
<asrwt>0</asrwt>
<pdfrwt beam="1">  1        2 0.60572726E-01 0.27501719E+03</pdfrwt>
<pdfrwt beam="2">  1       -2 0.73884928E-02 0.27501719E+03</pdfrwt>
<totfact> 0.86424146E+03</totfact>
</mgrwt>
</event>
<event>
 5    1  0.1122238E+001  0.2756890E+03  0.7818608E-02  0.1098067E+00
          2   -1    0    0  501    0  0.00000000000E+00  0.00000000000E+00  0.38104808384E+03  0.38104808384E+03  0.00000000000E+00 0.  1.
         -2   -1    0    0    0  501 -0.00000000000E+00 -0.00000000000E+00 -0.49865388539E+02  0.49865388539E+02  0.00000000000E+00 0.  1.
         35    2    1    2    0    0  0.00000000000E+00  0.00000000000E+00  0.33118269530E+03  0.43091347238E+03  0.27568903317E+03 0.  0.
         25    1    3    3    0    0 -0.56279146969E+02  0.14628837822E+02  0.11100189371E+03  0.17350148612E+03  0.12000000000E+03 0.  0.
         25    1    3    3    0    0  0.56279146969E+02 -0.14628837822E+02  0.22018080159E+03  0.25741198626E+03  0.12000000000E+03 0.  0.
<mgrwt>
<rscale>  0 0.27568903E+03</rscale>
<asrwt>0</asrwt>
<pdfrwt beam="1">  1        2 0.58622780E-01 0.27568903E+03</pdfrwt>
<pdfrwt beam="2">  1       -2 0.76715985E-02 0.27568903E+03</pdfrwt>
<totfact> 0.84464563E+03</totfact>
</mgrwt>
</event>
<event>
 5    1  0.1122238E+001  0.2749529E+03  0.7818608E-02  0.1098478E+00
          2   -1    0    0  501    0  0.00000000000E+00  0.00000000000E+00  0.10913197021E+04  0.10913197021E+04  0.00000000000E+00 0. -1.
         -2   -1    0    0    0  501 -0.00000000000E+00 -0.00000000000E+00 -0.17318272692E+02  0.17318272692E+02  0.00000000000E+00 0. -1.
         35    2    1    2    0    0  0.00000000000E+00  0.00000000000E+00  0.10740014294E+04  0.11086379748E+04  0.27495288466E+03 0.  0.
         25    1    3    3    0    0  0.17968963375E+02 -0.21409082906E+02  0.29112384093E+03  0.31612390488E+03  0.12000000000E+03 0.  0.
         25    1    3    3    0    0 -0.17968963375E+02  0.21409082906E+02  0.78287758851E+03  0.79251406995E+03  0.12000000000E+03 0.  0.
<mgrwt>
<rscale>  0 0.27495288E+03</rscale>
<asrwt>0</asrwt>
<pdfrwt beam="1">  1        2 0.16789529E+00 0.27495288E+03</pdfrwt>
<pdfrwt beam="2">  1       -2 0.26643505E-02 0.27495288E+03</pdfrwt>
<totfact> 0.11664337E+04</totfact>
</mgrwt>
</event>
<event>
 5    1  0.1122238E+001  0.2747119E+03  0.7818608E-02  0.1098613E+00
          4   -1    0    0  501    0  0.00000000000E+00  0.00000000000E+00  0.24230246246E+03  0.24230246246E+03  0.00000000000E+00 0.  1.
         -4   -1    0    0    0  501 -0.00000000000E+00 -0.00000000000E+00 -0.77864068879E+02  0.77864068879E+02  0.00000000000E+00 0.  1.
         35    2    1    2    0    0  0.00000000000E+00  0.00000000000E+00  0.16443839358E+03  0.32016653134E+03  0.27471189000E+03 0.  0.
         25    1    3    3    0    0  0.51527824368E+02  0.23020829466E+02  0.40496593878E+02  0.13865442434E+03  0.12000000000E+03 0.  0.
         25    1    3    3    0    0 -0.51527824368E+02 -0.23020829466E+02  0.12394179970E+03  0.18151210700E+03  0.12000000000E+03 0.  0.
<mgrwt>
<rscale>  0 0.27471189E+03</rscale>
<asrwt>0</asrwt>
<pdfrwt beam="1">  1        4 0.37277302E-01 0.27471189E+03</pdfrwt>
<pdfrwt beam="2">  1       -4 0.11979088E-01 0.27471189E+03</pdfrwt>
<totfact> 0.73034088E+02</totfact>
</mgrwt>
</event>
<event>
 5    1  0.1122238E+001  0.2756222E+03  0.7818608E-02  0.1098104E+00
         -2   -1    0    0    0  501 -0.00000000000E+00  0.00000000000E+00  0.13987893960E+03  0.13987893960E+03  0.00000000000E+00 0. -1.
          2   -1    0    0  501    0  0.00000000000E+00 -0.00000000000E+00 -0.13577380045E+03  0.13577380045E+03  0.00000000000E+00 0. -1.
         35    2    1    2    0    0  0.00000000000E+00  0.00000000000E+00  0.41051391509E+01  0.27565274006E+03  0.27562217061E+03 0.  0.
         25    1    3    3    0    0 -0.34620786313E+02 -0.54864276730E+02 -0.17525288725E+02  0.13753480814E+03  0.12000000000E+03 0.  0.
         25    1    3    3    0    0  0.34620786313E+02  0.54864276730E+02  0.21630427876E+02  0.13811793191E+03  0.12000000000E+03 0.  0.
<mgrwt>
<rscale>  0 0.27562217E+03</rscale>
<asrwt>0</asrwt>
<pdfrwt beam="1">  1        2 0.20888277E-01 0.27562217E+03</pdfrwt>
<pdfrwt beam="2">  1       -2 0.21519837E-01 0.27562217E+03</pdfrwt>
<totfact> 0.48564934E+03</totfact>
</mgrwt>
</event>
<event>
 5    1  0.1122238E+001  0.2744559E+03  0.7818608E-02  0.1098756E+00
         -2   -1    0    0    0  501 -0.00000000000E+00  0.00000000000E+00  0.14236558085E+02  0.14236558085E+02  0.00000000000E+00 0.  1.
          2   -1    0    0  501    0  0.00000000000E+00 -0.00000000000E+00 -0.13227569485E+04  0.13227569485E+04  0.00000000000E+00 0.  1.
         35    2    1    2    0    0  0.00000000000E+00  0.00000000000E+00 -0.13085203905E+04  0.13369935066E+04  0.27445586990E+03 0.  0.
         25    1    3    3    0    0  0.17995838335E+02  0.30032309830E+02 -0.93007610708E+03  0.93843878585E+03  0.12000000000E+03 0.  0.
         25    1    3    3    0    0 -0.17995838335E+02 -0.30032309830E+02 -0.37844428338E+03  0.39855472078E+03  0.12000000000E+03 0.  0.
<mgrwt>
<rscale>  0 0.27445587E+03</rscale>
<asrwt>0</asrwt>
<pdfrwt beam="1">  1        2 0.20350108E+00 0.27445587E+03</pdfrwt>
<pdfrwt beam="2">  1       -2 0.21902396E-02 0.27445587E+03</pdfrwt>
<totfact> 0.11512714E+04</totfact>
</mgrwt>
</event>
<event>
 5    1  0.1122238E+001  0.2751582E+03  0.7818608E-02  0.1098363E+00
         -2   -1    0    0    0  501 -0.00000000000E+00  0.00000000000E+00  0.33488008029E+02  0.33488008029E+02  0.00000000000E+00 0.  1.
          2   -1    0    0  501    0  0.00000000000E+00 -0.00000000000E+00 -0.56521768461E+03  0.56521768461E+03  0.00000000000E+00 0.  1.
         35    2    1    2    0    0  0.00000000000E+00  0.00000000000E+00 -0.53172967659E+03  0.59870569264E+03  0.27515824073E+03 0.  0.
         25    1    3    3    0    0 -0.37839128458E+02  0.52958126545E+02 -0.30302375192E+03  0.33235486613E+03  0.12000000000E+03 0.  0.
         25    1    3    3    0    0  0.37839128458E+02 -0.52958126545E+02 -0.22870592466E+03  0.26635082652E+03  0.12000000000E+03 0.  0.
<mgrwt>
<rscale>  0 0.27515824E+03</rscale>
<asrwt>0</asrwt>
<pdfrwt beam="1">  1        2 0.86956565E-01 0.27515824E+03</pdfrwt>
<pdfrwt beam="2">  1       -2 0.51520014E-02 0.27515824E+03</pdfrwt>
<totfact> 0.10067229E+04</totfact>
</mgrwt>
</event>
<event>
 5    1  0.1122238E+001  0.2754194E+03  0.7818608E-02  0.1098217E+00
         -1   -1    0    0    0  501 -0.00000000000E+00  0.00000000000E+00  0.10056114081E+03  0.10056114081E+03  0.00000000000E+00 0.  1.
          1   -1    0    0  501    0  0.00000000000E+00 -0.00000000000E+00 -0.18858136236E+03  0.18858136236E+03  0.00000000000E+00 0.  1.
         35    2    1    2    0    0  0.00000000000E+00  0.00000000000E+00 -0.88020221556E+02  0.28914250317E+03  0.27541936703E+03 0.  0.
         25    1    3    3    0    0  0.57074141644E+02 -0.13710838994E+01 -0.60908921201E+01  0.13302795376E+03  0.12000000000E+03 0.  0.
         25    1    3    3    0    0 -0.57074141644E+02  0.13710838994E+01 -0.81929329436E+02  0.15611454941E+03  0.12000000000E+03 0.  0.
<mgrwt>
<rscale>  0 0.27541937E+03</rscale>
<asrwt>0</asrwt>
<pdfrwt beam="1">  1        1 0.29012517E-01 0.27541937E+03</pdfrwt>
<pdfrwt beam="2">  1       -1 0.15470945E-01 0.27541937E+03</pdfrwt>
<totfact> 0.48028651E+03</totfact>
</mgrwt>
</event>
<event>
 5    1  0.1122238E+001  0.2743021E+03  0.7818608E-02  0.1098842E+00
          2   -1    0    0  501    0  0.00000000000E+00  0.00000000000E+00  0.88542023195E+03  0.88542023195E+03  0.00000000000E+00 0.  1.
         -2   -1    0    0    0  501 -0.00000000000E+00 -0.00000000000E+00 -0.21244619686E+02  0.21244619686E+02  0.00000000000E+00 0.  1.
         35    2    1    2    0    0  0.00000000000E+00  0.00000000000E+00  0.86417561226E+03  0.90666485163E+03  0.27430214064E+03 0.  0.
         25    1    3    3    0    0 -0.54917897594E+02  0.23282434155E+01  0.30889883828E+03  0.33591649034E+03  0.12000000000E+03 0.  0.
         25    1    3    3    0    0  0.54917897594E+02 -0.23282434155E+01  0.55527677398E+03  0.57074836129E+03  0.12000000000E+03 0.  0.
<mgrwt>
<rscale>  0 0.27430214E+03</rscale>
<asrwt>0</asrwt>
<pdfrwt beam="1">  1        2 0.13621847E+00 0.27430214E+03</pdfrwt>
<pdfrwt beam="2">  1       -2 0.32684037E-02 0.27430214E+03</pdfrwt>
<totfact> 0.11533392E+04</totfact>
</mgrwt>
</event>
<event>
 5    1  0.1122238E+001  0.2762205E+03  0.7818608E-02  0.1097771E+00
          2   -1    0    0  501    0  0.00000000000E+00  0.00000000000E+00  0.64372713805E+03  0.64372713805E+03  0.00000000000E+00 0.  1.
         -2   -1    0    0    0  501 -0.00000000000E+00 -0.00000000000E+00 -0.29631241944E+02  0.29631241944E+02  0.00000000000E+00 0.  1.
         35    2    1    2    0    0  0.00000000000E+00  0.00000000000E+00  0.61409589611E+03  0.67335837999E+03  0.27622045234E+03 0.  0.
         25    1    3    3    0    0 -0.46465974478E+02 -0.45632006280E+02  0.35777835896E+03  0.38294480140E+03  0.12000000000E+03 0.  0.
         25    1    3    3    0    0  0.46465974478E+02  0.45632006280E+02  0.25631753714E+03  0.29041357859E+03  0.12000000000E+03 0.  0.
<mgrwt>
<rscale>  0 0.27622045E+03</rscale>
<asrwt>0</asrwt>
<pdfrwt beam="1">  1        2 0.99034934E-01 0.27622045E+03</pdfrwt>
<pdfrwt beam="2">  1       -2 0.45586531E-02 0.27622045E+03</pdfrwt>
<totfact> 0.10420383E+04</totfact>
</mgrwt>
</event>
<event>
 5    1  0.1122238E+001  0.2745930E+03  0.7818608E-02  0.1098679E+00
         -2   -1    0    0    0  501 -0.00000000000E+00  0.00000000000E+00  0.33914716397E+03  0.33914716397E+03  0.00000000000E+00 0. -1.
          2   -1    0    0  501    0  0.00000000000E+00 -0.00000000000E+00 -0.55581566304E+02  0.55581566304E+02  0.00000000000E+00 0. -1.
         35    2    1    2    0    0  0.00000000000E+00  0.00000000000E+00  0.28356559767E+03  0.39472873027E+03  0.27459301215E+03 0.  0.
         25    1    3    3    0    0  0.56406222824E+02  0.33713038405E+02  0.12526089505E+03  0.18549534431E+03  0.12000000000E+03 0.  0.
         25    1    3    3    0    0 -0.56406222824E+02 -0.33713038405E+02  0.15830470262E+03  0.20923338597E+03  0.12000000000E+03 0.  0.
<mgrwt>
<rscale>  0 0.27459301E+03</rscale>
<asrwt>0</asrwt>
<pdfrwt beam="1">  1        2 0.85510104E-02 0.27459301E+03</pdfrwt>
<pdfrwt beam="2">  1       -2 0.52176485E-01 0.27459301E+03</pdfrwt>
<totfact> 0.27430038E+03</totfact>
</mgrwt>
</event>
<event>
 5    1  0.1122238E+001  0.2752342E+03  0.7818608E-02  0.1098321E+00
          2   -1    0    0  501    0  0.00000000000E+00  0.00000000000E+00  0.11955054024E+04  0.11955054024E+04  0.00000000000E+00 0. -1.
         -2   -1    0    0    0  501 -0.00000000000E+00 -0.00000000000E+00 -0.15841393269E+02  0.15841393269E+02  0.00000000000E+00 0. -1.
         35    2    1    2    0    0  0.00000000000E+00  0.00000000000E+00  0.11796640091E+04  0.12113467957E+04  0.27523423649E+03 0.  0.
         25    1    3    3    0    0 -0.62494677666E+02 -0.17713899548E+02  0.66845187820E+03  0.68223696795E+03  0.12000000000E+03 0.  0.
         25    1    3    3    0    0  0.62494677666E+02  0.17713899548E+02  0.51121213094E+03  0.52910982772E+03  0.12000000000E+03 0.  0.
<mgrwt>
<rscale>  0 0.27523424E+03</rscale>
<asrwt>0</asrwt>
<pdfrwt beam="1">  1        2 0.18392384E+00 0.27523424E+03</pdfrwt>
<pdfrwt beam="2">  1       -2 0.24371384E-02 0.27523424E+03</pdfrwt>
<totfact> 0.11585206E+04</totfact>
</mgrwt>
</event>
<event>
 5    1  0.1122238E+001  0.2748549E+03  0.7818608E-02  0.1098533E+00
          2   -1    0    0  501    0  0.00000000000E+00  0.00000000000E+00  0.11458433801E+03  0.11458433801E+03  0.00000000000E+00 0. -1.
         -2   -1    0    0    0  501 -0.00000000000E+00 -0.00000000000E+00 -0.16482445561E+03  0.16482445561E+03  0.00000000000E+00 0. -1.
         35    2    1    2    0    0  0.00000000000E+00  0.00000000000E+00 -0.50240117604E+02  0.27940879362E+03  0.27485487904E+03 0.  0.
         25    1    3    3    0    0  0.14530758772E+02  0.49286045682E+02  0.18557426870E+02  0.13185080713E+03  0.12000000000E+03 0.  0.
         25    1    3    3    0    0 -0.14530758772E+02 -0.49286045682E+02 -0.68797544474E+02  0.14755798648E+03  0.12000000000E+03 0.  0.
<mgrwt>
<rscale>  0 0.27485488E+03</rscale>
<asrwt>0</asrwt>
<pdfrwt beam="1">  1        2 0.17628360E-01 0.27485488E+03</pdfrwt>
<pdfrwt beam="2">  1       -2 0.25357609E-01 0.27485488E+03</pdfrwt>
<totfact> 0.44315781E+03</totfact>
</mgrwt>
</event>
<event>
 5    1  0.1122238E+001  0.2762776E+03  0.7818608E-02  0.1097740E+00
         -2   -1    0    0    0  501 -0.00000000000E+00  0.00000000000E+00  0.27869664866E+02  0.27869664866E+02  0.00000000000E+00 0. -1.
          2   -1    0    0  501    0  0.00000000000E+00 -0.00000000000E+00 -0.68469877580E+03  0.68469877580E+03  0.00000000000E+00 0. -1.
         35    2    1    2    0    0  0.00000000000E+00  0.00000000000E+00 -0.65682911093E+03  0.71256844066E+03  0.27627758082E+03 0.  0.
         25    1    3    3    0    0 -0.68366580922E+02 -0.19102411039E+01 -0.32283076955E+03  0.35113721559E+03  0.12000000000E+03 0.  0.
         25    1    3    3    0    0  0.68366580922E+02  0.19102411039E+01 -0.33399834138E+03  0.36143122507E+03  0.12000000000E+03 0.  0.
<mgrwt>
<rscale>  0 0.27627758E+03</rscale>
<asrwt>0</asrwt>
<pdfrwt beam="1">  1        2 0.10533828E+00 0.27627758E+03</pdfrwt>
<pdfrwt beam="2">  1       -2 0.42876407E-02 0.27627758E+03</pdfrwt>
<totfact> 0.10619569E+04</totfact>
</mgrwt>
</event>
<event>
 5    1  0.1122238E+001  0.2743082E+03  0.7818608E-02  0.1098839E+00
          2   -1    0    0  501    0  0.00000000000E+00  0.00000000000E+00  0.56452232812E+03  0.56452232812E+03  0.00000000000E+00 0. -1.
         -2   -1    0    0    0  501 -0.00000000000E+00 -0.00000000000E+00 -0.33322414393E+02  0.33322414393E+02  0.00000000000E+00 0. -1.
         35    2    1    2    0    0  0.00000000000E+00  0.00000000000E+00  0.53119991373E+03  0.59784474251E+03  0.27430819858E+03 0.  0.
         25    1    3    3    0    0  0.59125024659E+02 -0.30212785113E+02  0.26915857869E+03  0.30208429520E+03  0.12000000000E+03 0.  0.
         25    1    3    3    0    0 -0.59125024659E+02  0.30212785113E+02  0.26204133504E+03  0.29576044731E+03  0.12000000000E+03 0.  0.
<mgrwt>
<rscale>  0 0.27430820E+03</rscale>
<asrwt>0</asrwt>
<pdfrwt beam="1">  1        2 0.86849582E-01 0.27430820E+03</pdfrwt>
<pdfrwt beam="2">  1       -2 0.51265257E-02 0.27430820E+03</pdfrwt>
<totfact> 0.10156561E+04</totfact>
</mgrwt>
</event>
<event>
 5    1  0.1122238E+001  0.2763244E+03  0.7818608E-02  0.1097714E+00
          2   -1    0    0  501    0  0.00000000000E+00  0.00000000000E+00  0.82055887499E+02  0.82055887499E+02  0.00000000000E+00 0.  1.
         -2   -1    0    0    0  501 -0.00000000000E+00 -0.00000000000E+00 -0.23263164677E+03  0.23263164677E+03  0.00000000000E+00 0.  1.
         35    2    1    2    0    0  0.00000000000E+00  0.00000000000E+00 -0.15057575927E+03  0.31468753427E+03  0.27632441974E+03 0.  0.
         25    1    3    3    0    0  0.51770086149E+02 -0.33342926339E+02 -0.10939406717E+03  0.17366333662E+03  0.12000000000E+03 0.  0.
         25    1    3    3    0    0 -0.51770086149E+02  0.33342926339E+02 -0.41181692106E+02  0.14102419764E+03  0.12000000000E+03 0.  0.
<mgrwt>
<rscale>  0 0.27632442E+03</rscale>
<asrwt>0</asrwt>
<pdfrwt beam="1">  1        2 0.12623983E-01 0.27632442E+03</pdfrwt>
<pdfrwt beam="2">  1       -2 0.35789484E-01 0.27632442E+03</pdfrwt>
<totfact> 0.35202712E+03</totfact>
</mgrwt>
</event>
<event>
 4    1  0.1122238E+001  0.2912565E+03  0.7818608E-02  0.1089695E+00
          1   -1    0    0  501    0  0.00000000000E+00  0.00000000000E+00  0.43012587817E+03  0.43012587817E+03  0.00000000000E+00 0.  1.
         -1   -1    0    0    0  501 -0.00000000000E+00 -0.00000000000E+00 -0.49305534454E+02  0.49305534454E+02  0.00000000000E+00 0.  1.
         25    1    1    2    0    0 -0.21960155733E+02  0.45380751392E+02  0.29792230784E+03  0.32511438379E+03  0.12000000000E+03 0.  0.
         25    1    1    2    0    0  0.21960155733E+02 -0.45380751392E+02  0.82898035874E+02  0.15431702883E+03  0.12000000000E+03 0.  0.
<mgrwt>
<rscale>  0 0.29125649E+03</rscale>
<asrwt>0</asrwt>
<pdfrwt beam="1">  1        1 0.66173209E-01 0.29125649E+03</pdfrwt>
<pdfrwt beam="2">  1       -1 0.75854671E-02 0.29125649E+03</pdfrwt>
<totfact> 0.51355128E+03</totfact>
</mgrwt>
</event>
<event>
 5    1  0.1122238E+001  0.2749230E+03  0.7818608E-02  0.1098495E+00
         -2   -1    0    0    0  501 -0.00000000000E+00  0.00000000000E+00  0.31206443928E+02  0.31206443928E+02  0.00000000000E+00 0. -1.
          2   -1    0    0  501    0  0.00000000000E+00 -0.00000000000E+00 -0.60550538918E+03  0.60550538918E+03  0.00000000000E+00 0. -1.
         35    2    1    2    0    0  0.00000000000E+00  0.00000000000E+00 -0.57429894525E+03  0.63671183311E+03  0.27492304360E+03 0.  0.
         25    1    3    3    0    0 -0.35321830099E+02 -0.43085900765E+02 -0.20075304850E+03  0.24042839476E+03  0.12000000000E+03 0.  0.
         25    1    3    3    0    0  0.35321830099E+02  0.43085900765E+02 -0.37354589675E+03  0.39628343835E+03  0.12000000000E+03 0.  0.
<mgrwt>
<rscale>  0 0.27492304E+03</rscale>
<asrwt>0</asrwt>
<pdfrwt beam="1">  1        2 0.93154670E-01 0.27492304E+03</pdfrwt>
<pdfrwt beam="2">  1       -2 0.48009916E-02 0.27492304E+03</pdfrwt>
<totfact> 0.10349773E+04</totfact>
</mgrwt>
</event>
<event>
 5    1  0.1122238E+001  0.2679022E+03  0.7818608E-02  0.1102486E+00
          1   -1    0    0  501    0  0.00000000000E+00  0.00000000000E+00  0.24526604594E+03  0.24526604594E+03  0.00000000000E+00 0. -1.
         -1   -1    0    0    0  501 -0.00000000000E+00 -0.00000000000E+00 -0.73156881162E+02  0.73156881162E+02  0.00000000000E+00 0. -1.
         35    2    1    2    0    0  0.00000000000E+00  0.00000000000E+00  0.17210916477E+03  0.31842292710E+03  0.26790221332E+03 0.  0.
         25    1    3    3    0    0  0.28642755510E+02  0.34727969214E+02  0.13233992293E+03  0.18422891872E+03  0.12000000000E+03 0.  0.
         25    1    3    3    0    0 -0.28642755510E+02 -0.34727969214E+02  0.39769241840E+02  0.13419400838E+03  0.12000000000E+03 0.  0.
<mgrwt>
<rscale>  0 0.26790221E+03</rscale>
<asrwt>0</asrwt>
<pdfrwt beam="1">  1        1 0.37733238E-01 0.26790221E+03</pdfrwt>
<pdfrwt beam="2">  1       -1 0.11254905E-01 0.26790221E+03</pdfrwt>
<totfact> 0.56847527E+03</totfact>
</mgrwt>
</event>
<event>
 5    1  0.1122238E+001  0.2746596E+03  0.7818608E-02  0.1098642E+00
          3   -1    0    0  501    0  0.00000000000E+00  0.00000000000E+00  0.96539488078E+02  0.96539488078E+02  0.00000000000E+00 0.  1.
         -3   -1    0    0    0  501 -0.00000000000E+00 -0.00000000000E+00 -0.19535495584E+03  0.19535495584E+03  0.00000000000E+00 0.  1.
         35    2    1    2    0    0  0.00000000000E+00  0.00000000000E+00 -0.98815467767E+02  0.29189444392E+03  0.27465955240E+03 0.  0.
         25    1    3    3    0    0  0.55488369030E+02  0.36646593708E+02 -0.55918802008E+02  0.14815142371E+03  0.12000000000E+03 0.  0.
         25    1    3    3    0    0 -0.55488369030E+02 -0.36646593708E+02 -0.42896665758E+02  0.14374302022E+03  0.12000000000E+03 0.  0.
<mgrwt>
<rscale>  0 0.27465955E+03</rscale>
<asrwt>0</asrwt>
<pdfrwt beam="1">  1        3 0.14852229E-01 0.27465955E+03</pdfrwt>
<pdfrwt beam="2">  1       -3 0.30054609E-01 0.27465955E+03</pdfrwt>
<totfact> 0.10272868E+03</totfact>
</mgrwt>
</event>
<event>
 4    1  0.1122238E+001  0.2459893E+03  0.7818608E-02  0.1115866E+00
          4   -1    0    0  501    0  0.00000000000E+00  0.00000000000E+00  0.80527969631E+03  0.80527969631E+03  0.00000000000E+00 0.  1.
         -4   -1    0    0    0  501 -0.00000000000E+00 -0.00000000000E+00 -0.18785627230E+02  0.18785627230E+02  0.00000000000E+00 0.  1.
         25    1    1    2    0    0  0.13915266687E+02 -0.23083935482E+02  0.39688833163E+03  0.41550794278E+03  0.12000000000E+03 0.  0.
         25    1    1    2    0    0 -0.13915266687E+02  0.23083935482E+02  0.38960573744E+03  0.40855738076E+03  0.12000000000E+03 0.  0.
<mgrwt>
<rscale>  0 0.24598930E+03</rscale>
<asrwt>0</asrwt>
<pdfrwt beam="1">  1        4 0.12388916E+00 0.24598930E+03</pdfrwt>
<pdfrwt beam="2">  1       -4 0.28900971E-02 0.24598930E+03</pdfrwt>
<totfact> 0.54060215E+02</totfact>
</mgrwt>
</event>
<event>
 5    1  0.1122238E+001  0.2749033E+03  0.7818608E-02  0.1098506E+00
         -1   -1    0    0    0  501 -0.00000000000E+00  0.00000000000E+00  0.38389896236E+02  0.38389896236E+02  0.00000000000E+00 0. -1.
          1   -1    0    0  501    0  0.00000000000E+00 -0.00000000000E+00 -0.49213352899E+03  0.49213352899E+03  0.00000000000E+00 0. -1.
         35    2    1    2    0    0  0.00000000000E+00  0.00000000000E+00 -0.45374363276E+03  0.53052342523E+03  0.27490329290E+03 0.  0.
         25    1    3    3    0    0 -0.26201731571E+02 -0.18061025818E+02 -0.11302308272E+03  0.16788969182E+03  0.12000000000E+03 0.  0.
         25    1    3    3    0    0  0.26201731571E+02  0.18061025818E+02 -0.34072055004E+03  0.36263373341E+03  0.12000000000E+03 0.  0.
<mgrwt>
<rscale>  0 0.27490329E+03</rscale>
<asrwt>0</asrwt>
<pdfrwt beam="1">  1        1 0.75712853E-01 0.27490329E+03</pdfrwt>
<pdfrwt beam="2">  1       -1 0.59061377E-02 0.27490329E+03</pdfrwt>
<totfact> 0.62815710E+03</totfact>
</mgrwt>
</event>
<event>
 5    1  0.1122238E+001  0.2728337E+03  0.7818608E-02  0.1099669E+00
         -2   -1    0    0    0  501 -0.00000000000E+00  0.00000000000E+00  0.15211867987E+02  0.15211867987E+02  0.00000000000E+00 0. -1.
          2   -1    0    0  501    0  0.00000000000E+00 -0.00000000000E+00 -0.12233575645E+04  0.12233575645E+04  0.00000000000E+00 0. -1.
         35    2    1    2    0    0  0.00000000000E+00  0.00000000000E+00 -0.12081456965E+04  0.12385694325E+04  0.27283367660E+03 0.  0.
         25    1    3    3    0    0 -0.69167294408E+00  0.61685991297E+02 -0.69530895576E+03  0.70827973562E+03  0.12000000000E+03 0.  0.
         25    1    3    3    0    0  0.69167294408E+00 -0.61685991297E+02 -0.51283674074E+03  0.53028969686E+03  0.12000000000E+03 0.  0.
<mgrwt>
<rscale>  0 0.27283368E+03</rscale>
<asrwt>0</asrwt>
<pdfrwt beam="1">  1        2 0.18820896E+00 0.27283368E+03</pdfrwt>
<pdfrwt beam="2">  1       -2 0.23402861E-02 0.27283368E+03</pdfrwt>
<totfact> 0.11858849E+04</totfact>
</mgrwt>
</event>
<event>
 5    1  0.1122238E+001  0.2753618E+03  0.7818608E-02  0.1098250E+00
          2   -1    0    0  501    0  0.00000000000E+00  0.00000000000E+00  0.51844036311E+03  0.51844036311E+03  0.00000000000E+00 0.  1.
         -2   -1    0    0    0  501 -0.00000000000E+00 -0.00000000000E+00 -0.36563575940E+02  0.36563575940E+02  0.00000000000E+00 0.  1.
         35    2    1    2    0    0  0.00000000000E+00  0.00000000000E+00  0.48187678718E+03  0.55500393905E+03  0.27536182442E+03 0.  0.
         25    1    3    3    0    0  0.36954215162E+02 -0.55282450091E+01  0.12763938139E+03  0.17913120106E+03  0.12000000000E+03 0.  0.
         25    1    3    3    0    0 -0.36954215162E+02  0.55282450091E+01  0.35423740578E+03  0.37587273800E+03  0.12000000000E+03 0.  0.
<mgrwt>
<rscale>  0 0.27536182E+03</rscale>
<asrwt>0</asrwt>
<pdfrwt beam="1">  1        2 0.79760050E-01 0.27536182E+03</pdfrwt>
<pdfrwt beam="2">  1       -2 0.56251659E-02 0.27536182E+03</pdfrwt>
<totfact> 0.97120588E+03</totfact>
</mgrwt>
</event>
<event>
 5    1  0.1122238E+001  0.2749607E+03  0.7818608E-02  0.1098474E+00
          2   -1    0    0  501    0  0.00000000000E+00  0.00000000000E+00  0.96895331034E+02  0.96895331034E+02  0.00000000000E+00 0. -1.
         -2   -1    0    0    0  501 -0.00000000000E+00 -0.00000000000E+00 -0.19506452797E+03  0.19506452797E+03  0.00000000000E+00 0. -1.
         35    2    1    2    0    0  0.00000000000E+00  0.00000000000E+00 -0.98169196934E+02  0.29195985900E+03  0.27496066635E+03 0.  0.
         25    1    3    3    0    0  0.51511245299E+02 -0.42973224294E+02 -0.48173894990E+02  0.14567371265E+03  0.12000000000E+03 0.  0.
         25    1    3    3    0    0 -0.51511245299E+02  0.42973224294E+02 -0.49995301944E+02  0.14628614635E+03  0.12000000000E+03 0.  0.
<mgrwt>
<rscale>  0 0.27496067E+03</rscale>
<asrwt>0</asrwt>
<pdfrwt beam="1">  1        2 0.14906974E-01 0.27496067E+03</pdfrwt>
<pdfrwt beam="2">  1       -2 0.30009927E-01 0.27496067E+03</pdfrwt>
<totfact> 0.39903947E+03</totfact>
</mgrwt>
</event>
<event>
 5    1  0.1122238E+001  0.2751786E+03  0.7818608E-02  0.1098352E+00
         -1   -1    0    0    0  501 -0.00000000000E+00  0.00000000000E+00  0.21376262096E+02  0.21376262096E+02  0.00000000000E+00 0. -1.
          1   -1    0    0  501    0  0.00000000000E+00 -0.00000000000E+00 -0.88559991858E+03  0.88559991858E+03  0.00000000000E+00 0. -1.
         35    2    1    2    0    0  0.00000000000E+00  0.00000000000E+00 -0.86422365648E+03  0.90697618068E+03  0.27517860361E+03 0.  0.
         25    1    3    3    0    0 -0.48382525586E+02  0.20882535227E+02 -0.29407990584E+03  0.32196263771E+03  0.12000000000E+03 0.  0.
         25    1    3    3    0    0  0.48382525586E+02 -0.20882535227E+02 -0.57014375064E+03  0.58501354297E+03  0.12000000000E+03 0.  0.
<mgrwt>
<rscale>  0 0.27517860E+03</rscale>
<asrwt>0</asrwt>
<pdfrwt beam="1">  1        1 0.13624612E+00 0.27517860E+03</pdfrwt>
<pdfrwt beam="2">  1       -1 0.32886562E-02 0.27517860E+03</pdfrwt>
<totfact> 0.64457724E+03</totfact>
</mgrwt>
</event>
<event>
 5    1  0.1122238E+001  0.2703187E+03  0.7818608E-02  0.1101097E+00
          1   -1    0    0  501    0  0.00000000000E+00  0.00000000000E+00  0.18046763367E+03  0.18046763367E+03  0.00000000000E+00 0.  1.
         -1   -1    0    0    0  501 -0.00000000000E+00 -0.00000000000E+00 -0.10122616027E+03  0.10122616027E+03  0.00000000000E+00 0.  1.
         35    2    1    2    0    0  0.00000000000E+00  0.00000000000E+00  0.79241473400E+02  0.28169379394E+03  0.27031866831E+03 0.  0.
         25    1    3    3    0    0 -0.17241739203E+02  0.49224024698E+02  0.74925022606E+02  0.15077811907E+03  0.12000000000E+03 0.  0.
         25    1    3    3    0    0  0.17241739203E+02 -0.49224024698E+02  0.43164507938E+01  0.13091567487E+03  0.12000000000E+03 0.  0.
<mgrwt>
<rscale>  0 0.27031867E+03</rscale>
<asrwt>0</asrwt>
<pdfrwt beam="1">  1        1 0.27764251E-01 0.27031867E+03</pdfrwt>
<pdfrwt beam="2">  1       -1 0.15573255E-01 0.27031867E+03</pdfrwt>
<totfact> 0.50214567E+03</totfact>
</mgrwt>
</event>
<event>
 5    1  0.1122238E+001  0.2774180E+03  0.7818608E-02  0.1097108E+00
         -2   -1    0    0    0  501 -0.00000000000E+00  0.00000000000E+00  0.14424799237E+02  0.14424799237E+02  0.00000000000E+00 0.  1.
          2   -1    0    0  501    0  0.00000000000E+00 -0.00000000000E+00 -0.13338272618E+04  0.13338272618E+04  0.00000000000E+00 0.  1.
         35    2    1    2    0    0  0.00000000000E+00  0.00000000000E+00 -0.13194024626E+04  0.13482520611E+04  0.27741802731E+03 0.  0.
         25    1    3    3    0    0  0.51053128680E+02 -0.12792886799E+02 -0.43857860448E+03  0.45773493663E+03  0.12000000000E+03 0.  0.
         25    1    3    3    0    0 -0.51053128680E+02  0.12792886799E+02 -0.88082385811E+03  0.89051712444E+03  0.12000000000E+03 0.  0.
<mgrwt>
<rscale>  0 0.27741803E+03</rscale>
<asrwt>0</asrwt>
<pdfrwt beam="1">  1        2 0.20520422E+00 0.27741803E+03</pdfrwt>
<pdfrwt beam="2">  1       -2 0.22191996E-02 0.27741803E+03</pdfrwt>
<totfact> 0.11137368E+04</totfact>
</mgrwt>
</event>
<event>
 5    1  0.1122238E+001  0.2748233E+03  0.7818608E-02  0.1098550E+00
         -2   -1    0    0    0  501 -0.00000000000E+00  0.00000000000E+00  0.17580381639E+02  0.17580381639E+02  0.00000000000E+00 0. -1.
          2   -1    0    0  501    0  0.00000000000E+00 -0.00000000000E+00 -0.10740361899E+04  0.10740361899E+04  0.00000000000E+00 0. -1.
         35    2    1    2    0    0  0.00000000000E+00  0.00000000000E+00 -0.10564558083E+04  0.10916165715E+04  0.27482333317E+03 0.  0.
         25    1    3    3    0    0 -0.24748525752E+02 -0.56570995200E+02 -0.42547498052E+03  0.44636501439E+03  0.12000000000E+03 0.  0.
         25    1    3    3    0    0  0.24748525752E+02  0.56570995200E+02 -0.63098082775E+03  0.64525155716E+03  0.12000000000E+03 0.  0.
<mgrwt>
<rscale>  0 0.27482333E+03</rscale>
<asrwt>0</asrwt>
<pdfrwt beam="1">  1        2 0.16523636E+00 0.27482333E+03</pdfrwt>
<pdfrwt beam="2">  1       -2 0.27046738E-02 0.27482333E+03</pdfrwt>
<totfact> 0.11678814E+04</totfact>
</mgrwt>
</event>
<event>
 5    1  0.1122238E+001  0.2751406E+03  0.7818608E-02  0.1098373E+00
          2   -1    0    0  501    0  0.00000000000E+00  0.00000000000E+00  0.72950343493E+03  0.72950343493E+03  0.00000000000E+00 0. -1.
         -2   -1    0    0    0  501 -0.00000000000E+00 -0.00000000000E+00 -0.25943114730E+02  0.25943114730E+02  0.00000000000E+00 0. -1.
         35    2    1    2    0    0  0.00000000000E+00  0.00000000000E+00  0.70356032020E+03  0.75544654966E+03  0.27514062811E+03 0.  0.
         25    1    3    3    0    0 -0.52610137943E+02 -0.29304343380E+02  0.43410553770E+03  0.45439431006E+03  0.12000000000E+03 0.  0.
         25    1    3    3    0    0  0.52610137943E+02  0.29304343380E+02  0.26945478250E+03  0.30105223960E+03  0.12000000000E+03 0.  0.
<mgrwt>
<rscale>  0 0.27514063E+03</rscale>
<asrwt>0</asrwt>
<pdfrwt beam="1">  1        2 0.11223128E+00 0.27514063E+03</pdfrwt>
<pdfrwt beam="2">  1       -2 0.39912490E-02 0.27514063E+03</pdfrwt>
<totfact> 0.10949417E+04</totfact>
</mgrwt>
</event>
<event>
 5    1  0.1122238E+001  0.2758071E+03  0.7818608E-02  0.1098001E+00
          1   -1    0    0  501    0  0.00000000000E+00  0.00000000000E+00  0.17180380883E+04  0.17180380883E+04  0.00000000000E+00 0.  1.
         -1   -1    0    0    0  501 -0.00000000000E+00 -0.00000000000E+00 -0.11069249985E+02  0.11069249985E+02  0.00000000000E+00 0.  1.
         35    2    1    2    0    0  0.00000000000E+00  0.00000000000E+00  0.17069688383E+04  0.17291073383E+04  0.27580712886E+03 0.  0.
         25    1    3    3    0    0  0.48493672203E+01 -0.26021898693E+02  0.12458389753E+04  0.12518847423E+04  0.12000000000E+03 0.  0.
         25    1    3    3    0    0 -0.48493672203E+01  0.26021898693E+02  0.46112986303E+03  0.47722259602E+03  0.12000000000E+03 0.  0.
<mgrwt>
<rscale>  0 0.27580713E+03</rscale>
<asrwt>0</asrwt>
<pdfrwt beam="1">  1        1 0.26431334E+00 0.27580713E+03</pdfrwt>
<pdfrwt beam="2">  1       -1 0.17029629E-02 0.27580713E+03</pdfrwt>
<totfact> 0.44631192E+03</totfact>
</mgrwt>
</event>
<event>
 5    1  0.1122238E+001  0.2767388E+03  0.7818608E-02  0.1097484E+00
          2   -1    0    0  501    0  0.00000000000E+00  0.00000000000E+00  0.72008189731E+03  0.72008189731E+03  0.00000000000E+00 0.  1.
         -2   -1    0    0    0  501 -0.00000000000E+00 -0.00000000000E+00 -0.26588771244E+02  0.26588771244E+02  0.00000000000E+00 0.  1.
         35    2    1    2    0    0  0.00000000000E+00  0.00000000000E+00  0.69349312606E+03  0.74667066855E+03  0.27673881437E+03 0.  0.
         25    1    3    3    0    0 -0.50029020103E+02  0.30279906315E+02  0.44500791310E+03  0.46459855606E+03  0.12000000000E+03 0.  0.
         25    1    3    3    0    0  0.50029020103E+02 -0.30279906315E+02  0.24848521296E+03  0.28207211248E+03  0.12000000000E+03 0.  0.
<mgrwt>
<rscale>  0 0.27673881E+03</rscale>
<asrwt>0</asrwt>
<pdfrwt beam="1">  1        2 0.11078182E+00 0.27673881E+03</pdfrwt>
<pdfrwt beam="2">  1       -2 0.40905807E-02 0.27673881E+03</pdfrwt>
<totfact> 0.10723717E+04</totfact>
</mgrwt>
</event>
<event>
 5    1  0.1122238E+001  0.2757791E+03  0.7818608E-02  0.1098017E+00
          2   -1    0    0  501    0  0.00000000000E+00  0.00000000000E+00  0.12160501620E+04  0.12160501620E+04  0.00000000000E+00 0. -1.
         -2   -1    0    0    0  501 -0.00000000000E+00 -0.00000000000E+00 -0.15635478040E+02  0.15635478040E+02  0.00000000000E+00 0. -1.
         35    2    1    2    0    0  0.00000000000E+00  0.00000000000E+00  0.12004146840E+04  0.12316856401E+04  0.27577908263E+03 0.  0.
         25    1    3    3    0    0 -0.38996541174E+01  0.66759063140E+02  0.65334311893E+03  0.66762954613E+03  0.12000000000E+03 0.  0.
         25    1    3    3    0    0  0.38996541174E+01 -0.66759063140E+02  0.54707156506E+03  0.56405609394E+03  0.12000000000E+03 0.  0.
<mgrwt>
<rscale>  0 0.27577908E+03</rscale>
<asrwt>0</asrwt>
<pdfrwt beam="1">  1        2 0.18708457E+00 0.27577908E+03</pdfrwt>
<pdfrwt beam="2">  1       -2 0.24054591E-02 0.27577908E+03</pdfrwt>
<totfact> 0.11499334E+04</totfact>
</mgrwt>
</event>
<event>
 5    1  0.1122238E+001  0.2742397E+03  0.7818608E-02  0.1098877E+00
         -1   -1    0    0    0  501 -0.00000000000E+00  0.00000000000E+00  0.20512499974E+02  0.20512499974E+02  0.00000000000E+00 0.  1.
          1   -1    0    0  501    0  0.00000000000E+00 -0.00000000000E+00 -0.91660468241E+03  0.91660468241E+03  0.00000000000E+00 0.  1.
         35    2    1    2    0    0  0.00000000000E+00  0.00000000000E+00 -0.89609218244E+03  0.93711718239E+03  0.27423970190E+03 0.  0.
         25    1    3    3    0    0 -0.41583012943E+01  0.15483550801E+02 -0.22804922235E+03  0.25819271800E+03  0.12000000000E+03 0.  0.
         25    1    3    3    0    0  0.41583012943E+01 -0.15483550801E+02 -0.66804296009E+03  0.67892446438E+03  0.12000000000E+03 0.  0.
<mgrwt>
<rscale>  0 0.27423970E+03</rscale>
<asrwt>0</asrwt>
<pdfrwt beam="1">  1        1 0.14101613E+00 0.27423970E+03</pdfrwt>
<pdfrwt beam="2">  1       -1 0.31557687E-02 0.27423970E+03</pdfrwt>
<totfact> 0.64769701E+03</totfact>
</mgrwt>
</event>
<event>
 5    1  0.1122238E+001  0.2875933E+03  0.7818608E-02  0.1091612E+00
         -4   -1    0    0    0  501 -0.00000000000E+00  0.00000000000E+00  0.36746456392E+03  0.36746456392E+03  0.00000000000E+00 0. -1.
          4   -1    0    0  501    0  0.00000000000E+00 -0.00000000000E+00 -0.56270686769E+02  0.56270686769E+02  0.00000000000E+00 0. -1.
         35    2    1    2    0    0  0.00000000000E+00  0.00000000000E+00  0.31119387715E+03  0.42373525068E+03  0.28759334745E+03 0.  0.
         25    1    3    3    0    0 -0.65464605652E+01 -0.71827951222E+02  0.20391341474E+03  0.24735155434E+03  0.12000000000E+03 0.  0.
         25    1    3    3    0    0  0.65464605652E+01  0.71827951222E+02  0.10728046241E+03  0.17638369635E+03  0.12000000000E+03 0.  0.
<mgrwt>
<rscale>  0 0.28759335E+03</rscale>
<asrwt>0</asrwt>
<pdfrwt beam="1">  1        4 0.86570290E-02 0.28759335E+03</pdfrwt>
<pdfrwt beam="2">  1       -4 0.56533008E-01 0.28759335E+03</pdfrwt>
<totfact> 0.54835535E+02</totfact>
</mgrwt>
</event>
<event>
 5    1  0.1122238E+001  0.2748740E+03  0.7818608E-02  0.1098522E+00
         -2   -1    0    0    0  501 -0.00000000000E+00  0.00000000000E+00  0.18717827734E+02  0.18717827734E+02  0.00000000000E+00 0.  1.
          2   -1    0    0  501    0  0.00000000000E+00 -0.00000000000E+00 -0.10091412734E+04  0.10091412734E+04  0.00000000000E+00 0.  1.
         35    2    1    2    0    0  0.00000000000E+00  0.00000000000E+00 -0.99042344571E+03  0.10278591012E+04  0.27487402580E+03 0.  0.
         25    1    3    3    0    0  0.37201918514E+02  0.10167480181E+02 -0.70007979186E+03  0.71133611982E+03  0.12000000000E+03 0.  0.
         25    1    3    3    0    0 -0.37201918514E+02 -0.10167480181E+02 -0.29034365385E+03  0.31652298135E+03  0.12000000000E+03 0.  0.
<mgrwt>
<rscale>  0 0.27487403E+03</rscale>
<asrwt>0</asrwt>
<pdfrwt beam="1">  1        2 0.15525250E+00 0.27487403E+03</pdfrwt>
<pdfrwt beam="2">  1       -2 0.28796660E-02 0.27487403E+03</pdfrwt>
<totfact> 0.11641314E+04</totfact>
</mgrwt>
</event>
<event>
 5    1  0.1122238E+001  0.2722448E+03  0.7818608E-02  0.1100002E+00
         -1   -1    0    0    0  501 -0.00000000000E+00  0.00000000000E+00  0.14462952151E+03  0.14462952151E+03  0.00000000000E+00 0.  1.
          1   -1    0    0  501    0  0.00000000000E+00 -0.00000000000E+00 -0.12811567847E+03  0.12811567847E+03  0.00000000000E+00 0.  1.
         35    2    1    2    0    0  0.00000000000E+00  0.00000000000E+00  0.16513843036E+02  0.27274519998E+03  0.27224481097E+03 0.  0.
         25    1    3    3    0    0  0.31218288901E+02  0.25419104694E+02 -0.41921031435E+02  0.13333448662E+03  0.12000000000E+03 0.  0.
         25    1    3    3    0    0 -0.31218288901E+02 -0.25419104694E+02  0.58434874471E+02  0.13941071336E+03  0.12000000000E+03 0.  0.
<mgrwt>
<rscale>  0 0.27224481E+03</rscale>
<asrwt>0</asrwt>
<pdfrwt beam="1">  1        1 0.19710105E-01 0.27224481E+03</pdfrwt>
<pdfrwt beam="2">  1       -1 0.22250695E-01 0.27224481E+03</pdfrwt>
<totfact> 0.43717271E+03</totfact>
</mgrwt>
</event>
<event>
 5    1  0.1122238E+001  0.2755770E+03  0.7818608E-02  0.1098130E+00
         -1   -1    0    0    0  501 -0.00000000000E+00  0.00000000000E+00  0.15844031113E+02  0.15844031113E+02  0.00000000000E+00 0.  1.
          1   -1    0    0  501    0  0.00000000000E+00 -0.00000000000E+00 -0.11982854218E+04  0.11982854218E+04  0.00000000000E+00 0.  1.
         35    2    1    2    0    0  0.00000000000E+00  0.00000000000E+00 -0.11824413907E+04  0.12141294529E+04  0.27557700562E+03 0.  0.
         25    1    3    3    0    0 -0.18240713329E+02  0.26396295352E+02 -0.85395337635E+03  0.86294023954E+03  0.12000000000E+03 0.  0.
         25    1    3    3    0    0  0.18240713329E+02 -0.26396295352E+02 -0.32848801437E+03  0.35118921341E+03  0.12000000000E+03 0.  0.
<mgrwt>
<rscale>  0 0.27557701E+03</rscale>
<asrwt>0</asrwt>
<pdfrwt beam="1">  1        1 0.18435162E+00 0.27557701E+03</pdfrwt>
<pdfrwt beam="2">  1       -1 0.24375431E-02 0.27557701E+03</pdfrwt>
<totfact> 0.58851918E+03</totfact>
</mgrwt>
</event>
<event>
 5    1  0.1122238E+001  0.2739061E+03  0.7818608E-02  0.1099065E+00
         -2   -1    0    0    0  501 -0.00000000000E+00  0.00000000000E+00  0.14055653552E+03  0.14055653552E+03  0.00000000000E+00 0. -1.
          2   -1    0    0  501    0  0.00000000000E+00 -0.00000000000E+00 -0.13344195198E+03  0.13344195198E+03  0.00000000000E+00 0. -1.
         35    2    1    2    0    0  0.00000000000E+00  0.00000000000E+00  0.71145835362E+01  0.27399848750E+03  0.27390610408E+03 0.  0.
         25    1    3    3    0    0  0.59117495824E+02  0.24733354833E+02  0.19358863056E+02  0.13740954382E+03  0.12000000000E+03 0.  0.
         25    1    3    3    0    0 -0.59117495824E+02 -0.24733354833E+02 -0.12244279519E+02  0.13658894368E+03  0.12000000000E+03 0.  0.
<mgrwt>
<rscale>  0 0.27390610E+03</rscale>
<asrwt>0</asrwt>
<pdfrwt beam="1">  1        2 0.20529531E-01 0.27390610E+03</pdfrwt>
<pdfrwt beam="2">  1       -2 0.21624082E-01 0.27390610E+03</pdfrwt>
<totfact> 0.49111464E+03</totfact>
</mgrwt>
</event>
<event>
 5    1  0.1122238E+001  0.2746190E+03  0.7818608E-02  0.1098665E+00
         -2   -1    0    0    0  501 -0.00000000000E+00  0.00000000000E+00  0.12481496933E+02  0.12481496933E+02  0.00000000000E+00 0.  1.
          2   -1    0    0  501    0  0.00000000000E+00 -0.00000000000E+00 -0.15105477040E+04  0.15105477040E+04  0.00000000000E+00 0.  1.
         35    2    1    2    0    0  0.00000000000E+00  0.00000000000E+00 -0.14980662071E+04  0.15230292009E+04  0.27461898357E+03 0.  0.
         25    1    3    3    0    0  0.15106205045E+02 -0.63219810418E+02 -0.83295058318E+03  0.84405664258E+03  0.12000000000E+03 0.  0.
         25    1    3    3    0    0 -0.15106205045E+02  0.63219810418E+02 -0.66511562389E+03  0.67897255836E+03  0.12000000000E+03 0.  0.
<mgrwt>
<rscale>  0 0.27461898E+03</rscale>
<asrwt>0</asrwt>
<pdfrwt beam="1">  1        2 0.23239195E+00 0.27461898E+03</pdfrwt>
<pdfrwt beam="2">  1       -2 0.19202304E-02 0.27461898E+03</pdfrwt>
<totfact> 0.11054119E+04</totfact>
</mgrwt>
</event>
<event>
 5    1  0.1122238E+001  0.2751437E+03  0.7818608E-02  0.1098371E+00
          4   -1    0    0  501    0  0.00000000000E+00  0.00000000000E+00  0.17556984110E+02  0.17556984110E+02  0.00000000000E+00 0.  1.
         -4   -1    0    0    0  501 -0.00000000000E+00 -0.00000000000E+00 -0.10779765390E+04  0.10779765390E+04  0.00000000000E+00 0.  1.
         35    2    1    2    0    0  0.00000000000E+00  0.00000000000E+00 -0.10604195549E+04  0.10955335231E+04  0.27514372219E+03 0.  0.
         25    1    3    3    0    0  0.32274997858E+02 -0.11872205161E+02 -0.29998093643E+03  0.32491720016E+03  0.12000000000E+03 0.  0.
         25    1    3    3    0    0 -0.32274997858E+02  0.11872205161E+02 -0.76043861844E+03  0.77061632292E+03  0.12000000000E+03 0.  0.
<mgrwt>
<rscale>  0 0.27514372E+03</rscale>
<asrwt>0</asrwt>
<pdfrwt beam="1">  1        4 0.27010746E-02 0.27514372E+03</pdfrwt>
<pdfrwt beam="2">  1       -4 0.16584254E+00 0.27514372E+03</pdfrwt>
<totfact> 0.28904675E+02</totfact>
</mgrwt>
</event>
<event>
 5    1  0.1122238E+001  0.2808248E+03  0.7818608E-02  0.1095239E+00
         -2   -1    0    0    0  501 -0.00000000000E+00  0.00000000000E+00  0.46576078639E+03  0.46576078639E+03  0.00000000000E+00 0.  1.
          2   -1    0    0  501    0  0.00000000000E+00 -0.00000000000E+00 -0.42329981237E+02  0.42329981237E+02  0.00000000000E+00 0.  1.
         35    2    1    2    0    0  0.00000000000E+00  0.00000000000E+00  0.42343080515E+03  0.50809076763E+03  0.28082482332E+03 0.  0.
         25    1    3    3    0    0  0.23391629060E+01  0.59121490491E+02  0.13463873141E+03  0.18981151260E+03  0.12000000000E+03 0.  0.
         25    1    3    3    0    0 -0.23391629060E+01 -0.59121490491E+02  0.28879207375E+03  0.31827925503E+03  0.12000000000E+03 0.  0.
<mgrwt>
<rscale>  0 0.28082482E+03</rscale>
<asrwt>0</asrwt>
<pdfrwt beam="1">  1        2 0.65123051E-02 0.28082482E+03</pdfrwt>
<pdfrwt beam="2">  1       -2 0.71655502E-01 0.28082482E+03</pdfrwt>
<totfact> 0.20099078E+03</totfact>
</mgrwt>
</event>
<event>
 5    1  0.1122238E+001  0.2754999E+03  0.7818608E-02  0.1098173E+00
         -1   -1    0    0    0  501 -0.00000000000E+00  0.00000000000E+00  0.23246242083E+02  0.23246242083E+02  0.00000000000E+00 0.  1.
          1   -1    0    0  501    0  0.00000000000E+00 -0.00000000000E+00 -0.81626277178E+03  0.81626277178E+03  0.00000000000E+00 0.  1.
         35    2    1    2    0    0  0.00000000000E+00  0.00000000000E+00 -0.79301652970E+03  0.83950901386E+03  0.27549985115E+03 0.  0.
         25    1    3    3    0    0  0.12833742749E+02 -0.28247097777E+02 -0.57965712778E+03  0.59276048221E+03  0.12000000000E+03 0.  0.
         25    1    3    3    0    0 -0.12833742749E+02  0.28247097777E+02 -0.21335940192E+03  0.24674853165E+03  0.12000000000E+03 0.  0.
<mgrwt>
<rscale>  0 0.27549985E+03</rscale>
<asrwt>0</asrwt>
<pdfrwt beam="1">  1        1 0.12557887E+00 0.27549985E+03</pdfrwt>
<pdfrwt beam="2">  1       -1 0.35763455E-02 0.27549985E+03</pdfrwt>
<totfact> 0.64777749E+03</totfact>
</mgrwt>
</event>
<event>
 5    1  0.1122238E+001  0.2746973E+03  0.7818608E-02  0.1098621E+00
         -1   -1    0    0    0  501 -0.00000000000E+00  0.00000000000E+00  0.10318201483E+03  0.10318201483E+03  0.00000000000E+00 0.  1.
          1   -1    0    0  501    0  0.00000000000E+00 -0.00000000000E+00 -0.18282889983E+03  0.18282889983E+03  0.00000000000E+00 0.  1.
         35    2    1    2    0    0  0.00000000000E+00  0.00000000000E+00 -0.79646884994E+02  0.28601091466E+03  0.27469731891E+03 0.  0.
         25    1    3    3    0    0  0.22032160233E+02  0.61025215758E+02 -0.56455099270E+02  0.14763695769E+03  0.12000000000E+03 0.  0.
         25    1    3    3    0    0 -0.22032160233E+02 -0.61025215758E+02 -0.23191785723E+02  0.13837395697E+03  0.12000000000E+03 0.  0.
<mgrwt>
<rscale>  0 0.27469732E+03</rscale>
<asrwt>0</asrwt>
<pdfrwt beam="1">  1        1 0.28127523E-01 0.27469732E+03</pdfrwt>
<pdfrwt beam="2">  1       -1 0.15874156E-01 0.27469732E+03</pdfrwt>
<totfact> 0.47938365E+03</totfact>
</mgrwt>
</event>
<event>
 5    1  0.1122238E+001  0.2752031E+03  0.7818608E-02  0.1098338E+00
         -3   -1    0    0    0  501 -0.00000000000E+00  0.00000000000E+00  0.30985468211E+03  0.30985468211E+03  0.00000000000E+00 0. -1.
          3   -1    0    0  501    0  0.00000000000E+00 -0.00000000000E+00 -0.61106660027E+02  0.61106660027E+02  0.00000000000E+00 0. -1.
         35    2    1    2    0    0  0.00000000000E+00  0.00000000000E+00  0.24874802208E+03  0.37096134213E+03  0.27520308659E+03 0.  0.
         25    1    3    3    0    0 -0.56897868830E+02  0.29806537892E+02  0.97133729335E+02  0.16721470794E+03  0.12000000000E+03 0.  0.
         25    1    3    3    0    0  0.56897868830E+02 -0.29806537892E+02  0.15161429274E+03  0.20374663419E+03  0.12000000000E+03 0.  0.
<mgrwt>
<rscale>  0 0.27520309E+03</rscale>
<asrwt>0</asrwt>
<pdfrwt beam="1">  1        3 0.94010248E-02 0.27520309E+03</pdfrwt>
<pdfrwt beam="2">  1       -3 0.47669950E-01 0.27520309E+03</pdfrwt>
<totfact> 0.91380987E+02</totfact>
</mgrwt>
</event>
<event>
 5    1  0.1122238E+001  0.2755070E+03  0.7818608E-02  0.1098169E+00
          1   -1    0    0  501    0  0.00000000000E+00  0.00000000000E+00  0.63564528903E+02  0.63564528903E+02  0.00000000000E+00 0.  1.
         -1   -1    0    0    0  501 -0.00000000000E+00 -0.00000000000E+00 -0.29853167859E+03  0.29853167859E+03  0.00000000000E+00 0.  1.
         35    2    1    2    0    0  0.00000000000E+00  0.00000000000E+00 -0.23496714969E+03  0.36209620749E+03  0.27550699092E+03 0.  0.
         25    1    3    3    0    0  0.38355725003E+02  0.40716937920E+02 -0.67488773894E+02  0.14860607415E+03  0.12000000000E+03 0.  0.
         25    1    3    3    0    0 -0.38355725003E+02 -0.40716937920E+02 -0.16747837579E+03  0.21349013334E+03  0.12000000000E+03 0.  0.
<mgrwt>
<rscale>  0 0.27550699E+03</rscale>
<asrwt>0</asrwt>
<pdfrwt beam="1">  1        1 0.97791582E-02 0.27550699E+03</pdfrwt>
<pdfrwt beam="2">  1       -1 0.45927951E-01 0.27550699E+03</pdfrwt>
<totfact> 0.31660744E+03</totfact>
</mgrwt>
</event>
<event>
 5    1  0.1122238E+001  0.2761888E+03  0.7818608E-02  0.1097789E+00
         -1   -1    0    0    0  501 -0.00000000000E+00  0.00000000000E+00  0.46676980556E+02  0.46676980556E+02  0.00000000000E+00 0.  1.
          1   -1    0    0  501    0  0.00000000000E+00 -0.00000000000E+00 -0.40855380346E+03  0.40855380346E+03  0.00000000000E+00 0.  1.
         35    2    1    2    0    0  0.00000000000E+00  0.00000000000E+00 -0.36187682290E+03  0.45523078401E+03  0.27618876110E+03 0.  0.
         25    1    3    3    0    0 -0.51649759517E+02  0.40149648125E+02 -0.21350420264E+03  0.25350293183E+03  0.12000000000E+03 0.  0.
         25    1    3    3    0    0  0.51649759517E+02 -0.40149648125E+02 -0.14837262026E+03  0.20172785218E+03  0.12000000000E+03 0.  0.
<mgrwt>
<rscale>  0 0.27618876E+03</rscale>
<asrwt>0</asrwt>
<pdfrwt beam="1">  1        1 0.62854432E-01 0.27618876E+03</pdfrwt>
<pdfrwt beam="2">  1       -1 0.71810739E-02 0.27618876E+03</pdfrwt>
<totfact> 0.59571386E+03</totfact>
</mgrwt>
</event>
<event>
 5    1  0.1122238E+001  0.2746985E+03  0.7818608E-02  0.1098620E+00
         -3   -1    0    0    0  501 -0.00000000000E+00  0.00000000000E+00  0.91306431250E+03  0.91306431250E+03  0.00000000000E+00 0.  1.
          3   -1    0    0  501    0  0.00000000000E+00 -0.00000000000E+00 -0.20660989537E+02  0.20660989537E+02  0.00000000000E+00 0.  1.
         35    2    1    2    0    0  0.00000000000E+00  0.00000000000E+00  0.89240332296E+03  0.93372530204E+03  0.27469846892E+03 0.  0.
         25    1    3    3    0    0  0.66564045324E+02 -0.47503328751E+01  0.45771571272E+03  0.47786714834E+03  0.12000000000E+03 0.  0.
         25    1    3    3    0    0 -0.66564045324E+02  0.47503328751E+01  0.43468761025E+03  0.45585815370E+03  0.12000000000E+03 0.  0.
<mgrwt>
<rscale>  0 0.27469847E+03</rscale>
<asrwt>0</asrwt>
<pdfrwt beam="1">  1        3 0.31786145E-02 0.27469847E+03</pdfrwt>
<pdfrwt beam="2">  1       -3 0.14047140E+00 0.27469847E+03</pdfrwt>
<totfact> 0.47574190E+02</totfact>
</mgrwt>
</event>
<event>
 5    1  0.1122238E+001  0.2750026E+03  0.7818608E-02  0.1098450E+00
          2   -1    0    0  501    0  0.00000000000E+00  0.00000000000E+00  0.13983506045E+03  0.13983506045E+03  0.00000000000E+00 0. -1.
         -2   -1    0    0    0  501 -0.00000000000E+00 -0.00000000000E+00 -0.13520649151E+03  0.13520649151E+03  0.00000000000E+00 0. -1.
         35    2    1    2    0    0  0.00000000000E+00  0.00000000000E+00  0.46285689428E+01  0.27504155196E+03  0.27500260300E+03 0.  0.
         25    1    3    3    0    0  0.50704333554E+02 -0.22375156792E+02  0.40201450506E+02  0.13815836459E+03  0.12000000000E+03 0.  0.
         25    1    3    3    0    0 -0.50704333554E+02  0.22375156792E+02 -0.35572881564E+02  0.13688318737E+03  0.12000000000E+03 0.  0.
<mgrwt>
<rscale>  0 0.27500260E+03</rscale>
<asrwt>0</asrwt>
<pdfrwt beam="1">  1        2 0.21513086E-01 0.27500260E+03</pdfrwt>
<pdfrwt beam="2">  1       -2 0.20800999E-01 0.27500260E+03</pdfrwt>
<totfact> 0.49791829E+03</totfact>
</mgrwt>
</event>
<event>
 5    1  0.1122238E+001  0.2775860E+03  0.7818608E-02  0.1097015E+00
         -2   -1    0    0    0  501 -0.00000000000E+00  0.00000000000E+00  0.43084834623E+02  0.43084834623E+02  0.00000000000E+00 0.  1.
          2   -1    0    0  501    0  0.00000000000E+00 -0.00000000000E+00 -0.44710632041E+03  0.44710632041E+03  0.00000000000E+00 0.  1.
         35    2    1    2    0    0  0.00000000000E+00  0.00000000000E+00 -0.40402148578E+03  0.49019115503E+03  0.27758603620E+03 0.  0.
         25    1    3    3    0    0 -0.65371743474E+02  0.20331564488E+02 -0.22548233324E+03  0.26444114650E+03  0.12000000000E+03 0.  0.
         25    1    3    3    0    0  0.65371743474E+02 -0.20331564488E+02 -0.17853915255E+03  0.22575000853E+03  0.12000000000E+03 0.  0.
<mgrwt>
<rscale>  0 0.27758604E+03</rscale>
<asrwt>0</asrwt>
<pdfrwt beam="1">  1        2 0.68785587E-01 0.27758604E+03</pdfrwt>
<pdfrwt beam="2">  1       -2 0.66284362E-02 0.27758604E+03</pdfrwt>
<totfact> 0.89018373E+03</totfact>
</mgrwt>
</event>
<event>
 5    1  0.1122238E+001  0.2752147E+03  0.7818608E-02  0.1098332E+00
          1   -1    0    0  501    0  0.00000000000E+00  0.00000000000E+00  0.84390884818E+03  0.84390884818E+03  0.00000000000E+00 0.  1.
         -1   -1    0    0    0  501 -0.00000000000E+00 -0.00000000000E+00 -0.22438181230E+02  0.22438181230E+02  0.00000000000E+00 0.  1.
         35    2    1    2    0    0  0.00000000000E+00  0.00000000000E+00  0.82147066695E+03  0.86634702942E+03  0.27521467750E+03 0.  0.
         25    1    3    3    0    0  0.65939211579E+02 -0.13452566378E+02  0.41896123163E+03  0.44097331526E+03  0.12000000000E+03 0.  0.
         25    1    3    3    0    0 -0.65939211579E+02  0.13452566378E+02  0.40250943533E+03  0.42537371415E+03  0.12000000000E+03 0.  0.
<mgrwt>
<rscale>  0 0.27521468E+03</rscale>
<asrwt>0</asrwt>
<pdfrwt beam="1">  1        1 0.12983211E+00 0.27521468E+03</pdfrwt>
<pdfrwt beam="2">  1       -1 0.34520285E-02 0.27521468E+03</pdfrwt>
<totfact> 0.64793829E+03</totfact>
</mgrwt>
</event>
<event>
 5    1  0.1122238E+001  0.2740921E+03  0.7818608E-02  0.1098960E+00
          2   -1    0    0  501    0  0.00000000000E+00  0.00000000000E+00  0.97498029447E+03  0.97498029447E+03  0.00000000000E+00 0. -1.
         -2   -1    0    0    0  501 -0.00000000000E+00 -0.00000000000E+00 -0.19263586893E+02  0.19263586893E+02  0.00000000000E+00 0. -1.
         35    2    1    2    0    0  0.00000000000E+00  0.00000000000E+00  0.95571670758E+03  0.99424388137E+03  0.27409208395E+03 0.  0.
         25    1    3    3    0    0 -0.29733629639E+02  0.87508689147E+01  0.26569524396E+03  0.29318019903E+03  0.12000000000E+03 0.  0.
         25    1    3    3    0    0  0.29733629639E+02 -0.87508689147E+01  0.69002146362E+03  0.70106368234E+03  0.12000000000E+03 0.  0.
<mgrwt>
<rscale>  0 0.27409208E+03</rscale>
<asrwt>0</asrwt>
<pdfrwt beam="1">  1        2 0.14999693E+00 0.27409208E+03</pdfrwt>
<pdfrwt beam="2">  1       -2 0.29636295E-02 0.27409208E+03</pdfrwt>
<totfact> 0.11706005E+04</totfact>
</mgrwt>
</event>
<event>
 5    1  0.1122238E+001  0.2751989E+03  0.7818608E-02  0.1098340E+00
         -2   -1    0    0    0  501 -0.00000000000E+00  0.00000000000E+00  0.11040214069E+02  0.11040214069E+02  0.00000000000E+00 0. -1.
          2   -1    0    0  501    0  0.00000000000E+00 -0.00000000000E+00 -0.17149670812E+04  0.17149670812E+04  0.00000000000E+00 0. -1.
         35    2    1    2    0    0  0.00000000000E+00  0.00000000000E+00 -0.17039268672E+04  0.17260072953E+04  0.27519886408E+03 0.  0.
         25    1    3    3    0    0  0.64411699100E+02 -0.15060285587E+01 -0.72930599803E+03  0.74191534144E+03  0.12000000000E+03 0.  0.
         25    1    3    3    0    0 -0.64411699100E+02  0.15060285587E+01 -0.97462086915E+03  0.98409195388E+03  0.12000000000E+03 0.  0.
<mgrwt>
<rscale>  0 0.27519886E+03</rscale>
<asrwt>0</asrwt>
<pdfrwt beam="1">  1        2 0.26384123E+00 0.27519886E+03</pdfrwt>
<pdfrwt beam="2">  1       -2 0.16984936E-02 0.27519886E+03</pdfrwt>
<totfact> 0.10315050E+04</totfact>
</mgrwt>
</event>
<event>
 5    1  0.1122238E+001  0.2757766E+03  0.7818608E-02  0.1098018E+00
          2   -1    0    0  501    0  0.00000000000E+00  0.00000000000E+00  0.17304100352E+04  0.17304100352E+04  0.00000000000E+00 0. -1.
         -2   -1    0    0    0  501 -0.00000000000E+00 -0.00000000000E+00 -0.10987672522E+02  0.10987672522E+02  0.00000000000E+00 0. -1.
         35    2    1    2    0    0  0.00000000000E+00  0.00000000000E+00  0.17194223627E+04  0.17413977078E+04  0.27577656750E+03 0.  0.
         25    1    3    3    0    0 -0.16098664680E+02  0.60582359654E+02  0.10248319940E+04  0.10337359456E+04  0.12000000000E+03 0.  0.
         25    1    3    3    0    0  0.16098664680E+02 -0.60582359654E+02  0.69459036870E+03  0.70766176214E+03  0.12000000000E+03 0.  0.
<mgrwt>
<rscale>  0 0.27577657E+03</rscale>
<asrwt>0</asrwt>
<pdfrwt beam="1">  1        2 0.26621671E+00 0.27577657E+03</pdfrwt>
<pdfrwt beam="2">  1       -2 0.16904125E-02 0.27577657E+03</pdfrwt>
<totfact> 0.10195249E+04</totfact>
</mgrwt>
</event>
<event>
 5    1  0.1122238E+001  0.2658966E+03  0.7818608E-02  0.1103651E+00
         -2   -1    0    0    0  501 -0.00000000000E+00  0.00000000000E+00  0.20526958539E+02  0.20526958539E+02  0.00000000000E+00 0. -1.
          2   -1    0    0  501    0  0.00000000000E+00 -0.00000000000E+00 -0.86107502780E+03  0.86107502780E+03  0.00000000000E+00 0. -1.
         35    2    1    2    0    0  0.00000000000E+00  0.00000000000E+00 -0.84054806926E+03  0.88160198634E+03  0.26589660694E+03 0.  0.
         25    1    3    3    0    0  0.36370632636E+02  0.17319698758E+02 -0.55505382731E+03  0.56930444061E+03  0.12000000000E+03 0.  0.
         25    1    3    3    0    0 -0.36370632636E+02 -0.17319698758E+02 -0.28549424195E+03  0.31229754573E+03  0.12000000000E+03 0.  0.
<mgrwt>
<rscale>  0 0.26589661E+03</rscale>
<asrwt>0</asrwt>
<pdfrwt beam="1">  1        2 0.13247308E+00 0.26589661E+03</pdfrwt>
<pdfrwt beam="2">  1       -2 0.31579936E-02 0.26589661E+03</pdfrwt>
<totfact> 0.12580941E+04</totfact>
</mgrwt>
</event>
<event>
 5    1  0.1122238E+001  0.2655945E+03  0.7818608E-02  0.1103828E+00
          2   -1    0    0  501    0  0.00000000000E+00  0.00000000000E+00  0.92877218207E+03  0.92877218207E+03  0.00000000000E+00 0. -1.
         -2   -1    0    0    0  501 -0.00000000000E+00 -0.00000000000E+00 -0.18987550756E+02  0.18987550756E+02  0.00000000000E+00 0. -1.
         35    2    1    2    0    0  0.00000000000E+00  0.00000000000E+00  0.90978463131E+03  0.94775973283E+03  0.26559449504E+03 0.  0.
         25    1    3    3    0    0 -0.33766260673E+02  0.28396001829E+01  0.61790765394E+03  0.63036346062E+03  0.12000000000E+03 0.  0.
         25    1    3    3    0    0  0.33766260673E+02 -0.28396001829E+01  0.29187697738E+03  0.31739627221E+03  0.12000000000E+03 0.  0.
<mgrwt>
<rscale>  0 0.26559450E+03</rscale>
<asrwt>0</asrwt>
<pdfrwt beam="1">  1        2 0.14288799E+00 0.26559450E+03</pdfrwt>
<pdfrwt beam="2">  1       -2 0.29211624E-02 0.26559450E+03</pdfrwt>
<totfact> 0.12771444E+04</totfact>
</mgrwt>
</event>
<event>
 5    1  0.1122238E+001  0.2749080E+03  0.7818608E-02  0.1098503E+00
         -3   -1    0    0    0  501 -0.00000000000E+00  0.00000000000E+00  0.15827560784E+02  0.15827560784E+02  0.00000000000E+00 0.  1.
          3   -1    0    0  501    0  0.00000000000E+00 -0.00000000000E+00 -0.11937153385E+04  0.11937153385E+04  0.00000000000E+00 0.  1.
         35    2    1    2    0    0  0.00000000000E+00  0.00000000000E+00 -0.11778877777E+04  0.12095428993E+04  0.27490799973E+03 0.  0.
         25    1    3    3    0    0 -0.28739021693E+01  0.43647522689E+02 -0.81243675132E+03  0.82241524819E+03  0.12000000000E+03 0.  0.
         25    1    3    3    0    0  0.28739021693E+01 -0.43647522689E+02 -0.36545102637E+03  0.38712765107E+03  0.12000000000E+03 0.  0.
<mgrwt>
<rscale>  0 0.27490800E+03</rscale>
<asrwt>0</asrwt>
<pdfrwt beam="1">  1        3 0.18364854E+00 0.27490800E+03</pdfrwt>
<pdfrwt beam="2">  1       -3 0.24350090E-02 0.27490800E+03</pdfrwt>
<totfact> 0.36159971E+02</totfact>
</mgrwt>
</event>
<event>
 5    1  0.1122238E+001  0.2748225E+03  0.7818608E-02  0.1098551E+00
         -1   -1    0    0    0  501 -0.00000000000E+00  0.00000000000E+00  0.12880015195E+03  0.12880015195E+03  0.00000000000E+00 0. -1.
          1   -1    0    0  501    0  0.00000000000E+00 -0.00000000000E+00 -0.14659805667E+03  0.14659805667E+03  0.00000000000E+00 0. -1.
         35    2    1    2    0    0  0.00000000000E+00  0.00000000000E+00 -0.17797904721E+02  0.27539820862E+03  0.27482250253E+03 0.  0.
         25    1    3    3    0    0  0.38603313779E+02  0.53950797440E+02 -0.17914887860E+02  0.13828176881E+03  0.12000000000E+03 0.  0.
         25    1    3    3    0    0 -0.38603313779E+02 -0.53950797440E+02  0.11698313924E+00  0.13711643980E+03  0.12000000000E+03 0.  0.
<mgrwt>
<rscale>  0 0.27482250E+03</rscale>
<asrwt>0</asrwt>
<pdfrwt beam="1">  1        1 0.22553547E-01 0.27482250E+03</pdfrwt>
<pdfrwt beam="2">  1       -1 0.19815408E-01 0.27482250E+03</pdfrwt>
<totfact> 0.44445196E+03</totfact>
</mgrwt>
</event>
<event>
 5    1  0.1122238E+001  0.2751455E+03  0.7818608E-02  0.1098370E+00
          1   -1    0    0  501    0  0.00000000000E+00  0.00000000000E+00  0.56605683202E+03  0.56605683202E+03  0.00000000000E+00 0. -1.
         -1   -1    0    0    0  501 -0.00000000000E+00 -0.00000000000E+00 -0.33435260148E+02  0.33435260148E+02  0.00000000000E+00 0. -1.
         35    2    1    2    0    0  0.00000000000E+00  0.00000000000E+00  0.53262157187E+03  0.59949209216E+03  0.27514547016E+03 0.  0.
         25    1    3    3    0    0  0.47378461191E+02 -0.72573937438E+01  0.16344679454E+03  0.20835604862E+03  0.12000000000E+03 0.  0.
         25    1    3    3    0    0 -0.47378461191E+02  0.72573937438E+01  0.36917477733E+03  0.39113604355E+03  0.12000000000E+03 0.  0.
<mgrwt>
<rscale>  0 0.27514547E+03</rscale>
<asrwt>0</asrwt>
<pdfrwt beam="1">  1        1 0.87085660E-01 0.27514547E+03</pdfrwt>
<pdfrwt beam="2">  1       -1 0.51438866E-02 0.27514547E+03</pdfrwt>
<totfact> 0.64057924E+03</totfact>
</mgrwt>
</event>
<event>
 5    1  0.1122238E+001  0.2753987E+03  0.7818608E-02  0.1098229E+00
          2   -1    0    0  501    0  0.00000000000E+00  0.00000000000E+00  0.11974804605E+02  0.11974804605E+02  0.00000000000E+00 0. -1.
         -2   -1    0    0    0  501 -0.00000000000E+00 -0.00000000000E+00 -0.15834169943E+04  0.15834169943E+04  0.00000000000E+00 0. -1.
         35    2    1    2    0    0  0.00000000000E+00  0.00000000000E+00 -0.15714421897E+04  0.15953917989E+04  0.27539868638E+03 0.  0.
         25    1    3    3    0    0  0.15284777475E+02  0.43559676959E+02 -0.50015138926E+03  0.51641309245E+03  0.12000000000E+03 0.  0.
         25    1    3    3    0    0 -0.15284777475E+02 -0.43559676959E+02 -0.10712908004E+04  0.10789787064E+04  0.12000000000E+03 0.  0.
<mgrwt>
<rscale>  0 0.27539869E+03</rscale>
<asrwt>0</asrwt>
<pdfrwt beam="1">  1        2 0.18422774E-02 0.27539869E+03</pdfrwt>
<pdfrwt beam="2">  1       -2 0.24360264E+00 0.27539869E+03</pdfrwt>
<totfact> 0.48024356E+02</totfact>
</mgrwt>
</event>
<event>
 5    1  0.1122238E+001  0.2745856E+03  0.7818608E-02  0.1098683E+00
          2   -1    0    0  501    0  0.00000000000E+00  0.00000000000E+00  0.11461042579E+03  0.11461042579E+03  0.00000000000E+00 0.  1.
         -2   -1    0    0    0  501 -0.00000000000E+00 -0.00000000000E+00 -0.16446416505E+03  0.16446416505E+03  0.00000000000E+00 0.  1.
         35    2    1    2    0    0  0.00000000000E+00  0.00000000000E+00 -0.49853739265E+02  0.27907459084E+03  0.27458556395E+03 0.  0.
         25    1    3    3    0    0  0.47426709198E+02 -0.25175549921E+02 -0.65149194143E+02  0.14672259048E+03  0.12000000000E+03 0.  0.
         25    1    3    3    0    0 -0.47426709198E+02  0.25175549921E+02  0.15295454877E+02  0.13235200036E+03  0.12000000000E+03 0.  0.
<mgrwt>
<rscale>  0 0.27458556E+03</rscale>
<asrwt>0</asrwt>
<pdfrwt beam="1">  1        2 0.17632373E-01 0.27458556E+03</pdfrwt>
<pdfrwt beam="2">  1       -2 0.25302179E-01 0.27458556E+03</pdfrwt>
<totfact> 0.44474309E+03</totfact>
</mgrwt>
</event>
<event>
 5    1  0.1122238E+001  0.2746772E+03  0.7818608E-02  0.1098632E+00
          2   -1    0    0  501    0  0.00000000000E+00  0.00000000000E+00  0.14649986649E+03  0.14649986649E+03  0.00000000000E+00 0.  1.
         -2   -1    0    0    0  501 -0.00000000000E+00 -0.00000000000E+00 -0.12875021414E+03  0.12875021414E+03  0.00000000000E+00 0.  1.
         35    2    1    2    0    0  0.00000000000E+00  0.00000000000E+00  0.17749652351E+02  0.27525008063E+03  0.27467718640E+03 0.  0.
         25    1    3    3    0    0 -0.63973374205E+01 -0.65696471407E+02 -0.13904108268E+01  0.13696308088E+03  0.12000000000E+03 0.  0.
         25    1    3    3    0    0  0.63973374205E+01  0.65696471407E+02  0.19140063178E+02  0.13828699975E+03  0.12000000000E+03 0.  0.
<mgrwt>
<rscale>  0 0.27467719E+03</rscale>
<asrwt>0</asrwt>
<pdfrwt beam="1">  1        2 0.22538441E-01 0.27467719E+03</pdfrwt>
<pdfrwt beam="2">  1       -2 0.19807725E-01 0.27467719E+03</pdfrwt>
<totfact> 0.51363763E+03</totfact>
</mgrwt>
</event>
<event>
 5    1  0.1122238E+001  0.2743340E+03  0.7818608E-02  0.1098824E+00
          2   -1    0    0  501    0  0.00000000000E+00  0.00000000000E+00  0.40796833729E+03  0.40796833729E+03  0.00000000000E+00 0.  1.
         -2   -1    0    0    0  501 -0.00000000000E+00 -0.00000000000E+00 -0.46118245685E+02  0.46118245685E+02  0.00000000000E+00 0.  1.
         35    2    1    2    0    0  0.00000000000E+00  0.00000000000E+00  0.36185009160E+03  0.45408658297E+03  0.27433398631E+03 0.  0.
         25    1    3    3    0    0  0.22200291357E+01  0.58641767469E+02  0.12934658769E+03  0.18594172520E+03  0.12000000000E+03 0.  0.
         25    1    3    3    0    0 -0.22200291357E+01 -0.58641767469E+02  0.23250350391E+03  0.26814485777E+03  0.12000000000E+03 0.  0.
<mgrwt>
<rscale>  0 0.27433399E+03</rscale>
<asrwt>0</asrwt>
<pdfrwt beam="1">  1        2 0.62764357E-01 0.27433399E+03</pdfrwt>
<pdfrwt beam="2">  1       -2 0.70951150E-02 0.27433399E+03</pdfrwt>
<totfact> 0.88535914E+03</totfact>
</mgrwt>
</event>
<event>
 5    1  0.1122238E+001  0.2748689E+03  0.7818608E-02  0.1098525E+00
          2   -1    0    0  501    0  0.00000000000E+00  0.00000000000E+00  0.58772285064E+02  0.58772285064E+02  0.00000000000E+00 0.  1.
         -2   -1    0    0    0  501 -0.00000000000E+00 -0.00000000000E+00 -0.32137978050E+03  0.32137978050E+03  0.00000000000E+00 0.  1.
         35    2    1    2    0    0  0.00000000000E+00  0.00000000000E+00 -0.26260749543E+03  0.38015206556E+03  0.27486887109E+03 0.  0.
         25    1    3    3    0    0 -0.21618092929E+02  0.47775984305E+02 -0.73640534448E+02  0.15024252039E+03  0.12000000000E+03 0.  0.
         25    1    3    3    0    0  0.21618092929E+02 -0.47775984305E+02 -0.18896696099E+03  0.22990954518E+03  0.12000000000E+03 0.  0.
<mgrwt>
<rscale>  0 0.27486887E+03</rscale>
<asrwt>0</asrwt>
<pdfrwt beam="1">  1        2 0.90418899E-02 0.27486887E+03</pdfrwt>
<pdfrwt beam="2">  1       -2 0.49443044E-01 0.27486887E+03</pdfrwt>
<totfact> 0.28476354E+03</totfact>
</mgrwt>
</event>
<event>
 5    1  0.1122238E+001  0.2699831E+03  0.7818608E-02  0.1101289E+00
          1   -1    0    0  501    0  0.00000000000E+00  0.00000000000E+00  0.14344349432E+04  0.14344349432E+04  0.00000000000E+00 0. -1.
         -1   -1    0    0    0  501 -0.00000000000E+00 -0.00000000000E+00 -0.12703765117E+02  0.12703765117E+02  0.00000000000E+00 0. -1.
         35    2    1    2    0    0  0.00000000000E+00  0.00000000000E+00  0.14217311780E+04  0.14471387083E+04  0.26998314461E+03 0.  0.
         25    1    3    3    0    0 -0.53319452376E+02  0.11973675989E+02  0.86588224341E+03  0.87586436871E+03  0.12000000000E+03 0.  0.
         25    1    3    3    0    0  0.53319452376E+02 -0.11973675989E+02  0.55584893463E+03  0.57127433957E+03  0.12000000000E+03 0.  0.
<mgrwt>
<rscale>  0 0.26998314E+03</rscale>
<asrwt>0</asrwt>
<pdfrwt beam="1">  1        1 0.22068217E+00 0.26998314E+03</pdfrwt>
<pdfrwt beam="2">  1       -1 0.19544265E-02 0.26998314E+03</pdfrwt>
<totfact> 0.56109393E+03</totfact>
</mgrwt>
</event>
<event>
 5    1  0.1122238E+001  0.2752037E+03  0.7818608E-02  0.1098338E+00
         -1   -1    0    0    0  501 -0.00000000000E+00  0.00000000000E+00  0.12222746957E+02  0.12222746957E+02  0.00000000000E+00 0. -1.
          1   -1    0    0  501    0  0.00000000000E+00 -0.00000000000E+00 -0.15491005746E+04  0.15491005746E+04  0.00000000000E+00 0. -1.
         35    2    1    2    0    0  0.00000000000E+00  0.00000000000E+00 -0.15368778277E+04  0.15613233216E+04  0.27520366520E+03 0.  0.
         25    1    3    3    0    0  0.56028404545E+02 -0.29343727778E+02 -0.89954431694E+03  0.90971435881E+03  0.12000000000E+03 0.  0.
         25    1    3    3    0    0 -0.56028404545E+02  0.29343727778E+02 -0.63733351071E+03  0.65160896276E+03  0.12000000000E+03 0.  0.
<mgrwt>
<rscale>  0 0.27520367E+03</rscale>
<asrwt>0</asrwt>
<pdfrwt beam="1">  1        1 0.23832321E+00 0.27520367E+03</pdfrwt>
<pdfrwt beam="2">  1       -1 0.18804222E-02 0.27520367E+03</pdfrwt>
<totfact> 0.49833012E+03</totfact>
</mgrwt>
</event>
<event>
 5    1  0.1122238E+001  0.2761419E+03  0.7818608E-02  0.1097815E+00
          1   -1    0    0  501    0  0.00000000000E+00  0.00000000000E+00  0.77977530710E+01  0.77977530710E+01  0.00000000000E+00 0.  1.
         -1   -1    0    0    0  501 -0.00000000000E+00 -0.00000000000E+00 -0.24447530454E+04  0.24447530454E+04  0.00000000000E+00 0.  1.
         35    2    1    2    0    0  0.00000000000E+00  0.00000000000E+00 -0.24369552923E+04  0.24525507984E+04  0.27614185172E+03 0.  0.
         25    1    3    3    0    0 -0.26751701020E+02  0.23124960789E+02 -0.17373545131E+04  0.17418527842E+04  0.12000000000E+03 0.  0.
         25    1    3    3    0    0  0.26751701020E+02 -0.23124960789E+02 -0.69960077916E+03  0.71069801429E+03  0.12000000000E+03 0.  0.
<mgrwt>
<rscale>  0 0.27614185E+03</rscale>
<asrwt>0</asrwt>
<pdfrwt beam="1">  1        1 0.11996535E-02 0.27614185E+03</pdfrwt>
<pdfrwt beam="2">  1       -1 0.37611613E+00 0.27614185E+03</pdfrwt>
<totfact> 0.15796988E+02</totfact>
</mgrwt>
</event>
<event>
 5    1  0.1122238E+001  0.2739464E+03  0.7818608E-02  0.1099042E+00
          2   -1    0    0  501    0  0.00000000000E+00  0.00000000000E+00  0.21201022423E+03  0.21201022423E+03  0.00000000000E+00 0. -1.
         -2   -1    0    0    0  501 -0.00000000000E+00 -0.00000000000E+00 -0.88494112760E+02  0.88494112760E+02  0.00000000000E+00 0. -1.
         35    2    1    2    0    0  0.00000000000E+00  0.00000000000E+00  0.12351611147E+03  0.30050433699E+03  0.27394639395E+03 0.  0.
         25    1    3    3    0    0  0.16064693522E+02  0.59590872917E+02  0.35973758616E+02  0.13965406482E+03  0.12000000000E+03 0.  0.
         25    1    3    3    0    0 -0.16064693522E+02 -0.59590872917E+02  0.87542352856E+02  0.16085027217E+03  0.12000000000E+03 0.  0.
<mgrwt>
<rscale>  0 0.27394639E+03</rscale>
<asrwt>0</asrwt>
<pdfrwt beam="1">  1        2 0.32616957E-01 0.27394639E+03</pdfrwt>
<pdfrwt beam="2">  1       -2 0.13614479E-01 0.27394639E+03</pdfrwt>
<totfact> 0.63759847E+03</totfact>
</mgrwt>
</event>
<event>
 5    1  0.1122238E+001  0.2749895E+03  0.7818608E-02  0.1098457E+00
         -1   -1    0    0    0  501 -0.00000000000E+00  0.00000000000E+00  0.31096429688E+02  0.31096429688E+02  0.00000000000E+00 0. -1.
          1   -1    0    0  501    0  0.00000000000E+00 -0.00000000000E+00 -0.60794125017E+03  0.60794125017E+03  0.00000000000E+00 0. -1.
         35    2    1    2    0    0  0.00000000000E+00  0.00000000000E+00 -0.57684482048E+03  0.63903767986E+03  0.27498947136E+03 0.  0.
         25    1    3    3    0    0 -0.43438095810E+02  0.50753081857E+02 -0.30349330790E+03  0.33312299744E+03  0.12000000000E+03 0.  0.
         25    1    3    3    0    0  0.43438095810E+02 -0.50753081857E+02 -0.27335151259E+03  0.30591468242E+03  0.12000000000E+03 0.  0.
<mgrwt>
<rscale>  0 0.27498947E+03</rscale>
<asrwt>0</asrwt>
<pdfrwt beam="1">  1        1 0.93529432E-01 0.27498947E+03</pdfrwt>
<pdfrwt beam="2">  1       -1 0.47840656E-02 0.27498947E+03</pdfrwt>
<totfact> 0.64705887E+03</totfact>
</mgrwt>
</event>
<event>
 5    1  0.1122238E+001  0.2779003E+03  0.7818608E-02  0.1096841E+00
          1   -1    0    0  501    0  0.00000000000E+00  0.00000000000E+00  0.86567595517E+03  0.86567595517E+03  0.00000000000E+00 0. -1.
         -1   -1    0    0    0  501 -0.00000000000E+00 -0.00000000000E+00 -0.22302966202E+02  0.22302966202E+02  0.00000000000E+00 0. -1.
         35    2    1    2    0    0  0.00000000000E+00  0.00000000000E+00  0.84337298897E+03  0.88797892137E+03  0.27790028118E+03 0.  0.
         25    1    3    3    0    0 -0.67131891947E+02 -0.23882364222E+00  0.35774876010E+03  0.38326351680E+03  0.12000000000E+03 0.  0.
         25    1    3    3    0    0  0.67131891947E+02  0.23882364222E+00  0.48562422886E+03  0.50471540457E+03  0.12000000000E+03 0.  0.
<mgrwt>
<rscale>  0 0.27790028E+03</rscale>
<asrwt>0</asrwt>
<pdfrwt beam="1">  1        1 0.13318089E+00 0.27790028E+03</pdfrwt>
<pdfrwt beam="2">  1       -1 0.34312262E-02 0.27790028E+03</pdfrwt>
<totfact> 0.62800774E+03</totfact>
</mgrwt>
</event>
<event>
 5    1  0.1122238E+001  0.2756764E+03  0.7818608E-02  0.1098074E+00
         -1   -1    0    0    0  501 -0.00000000000E+00  0.00000000000E+00  0.58655735285E+02  0.58655735285E+02  0.00000000000E+00 0.  1.
          1   -1    0    0  501    0  0.00000000000E+00 -0.00000000000E+00 -0.32391314907E+03  0.32391314907E+03  0.00000000000E+00 0.  1.
         35    2    1    2    0    0  0.00000000000E+00  0.00000000000E+00 -0.26525741378E+03  0.38256888435E+03  0.27567636045E+03 0.  0.
         25    1    3    3    0    0 -0.85230147357E+01  0.53786167781E+02 -0.76536100966E+02  0.15239215326E+03  0.12000000000E+03 0.  0.
         25    1    3    3    0    0  0.85230147357E+01 -0.53786167781E+02 -0.18872131282E+03  0.23017673109E+03  0.12000000000E+03 0.  0.
<mgrwt>
<rscale>  0 0.27567636E+03</rscale>
<asrwt>0</asrwt>
<pdfrwt beam="1">  1        1 0.49832792E-01 0.27567636E+03</pdfrwt>
<pdfrwt beam="2">  1       -1 0.90239594E-02 0.27567636E+03</pdfrwt>
<totfact> 0.56455306E+03</totfact>
</mgrwt>
</event>
<event>
 5    1  0.1122238E+001  0.2748535E+03  0.7818608E-02  0.1098534E+00
         -2   -1    0    0    0  501 -0.00000000000E+00  0.00000000000E+00  0.25102948423E+03  0.25102948423E+03  0.00000000000E+00 0.  1.
          2   -1    0    0  501    0  0.00000000000E+00 -0.00000000000E+00 -0.75234611802E+02  0.75234611802E+02  0.00000000000E+00 0.  1.
         35    2    1    2    0    0  0.00000000000E+00  0.00000000000E+00  0.17579487242E+03  0.32626409603E+03  0.27485345766E+03 0.  0.
         25    1    3    3    0    0  0.20032561010E+01 -0.30443230689E+02  0.17118121009E+02  0.12499533350E+03  0.12000000000E+03 0.  0.
         25    1    3    3    0    0 -0.20032561010E+01  0.30443230689E+02  0.15867675142E+03  0.20126876253E+03  0.12000000000E+03 0.  0.
<mgrwt>
<rscale>  0 0.27485346E+03</rscale>
<asrwt>0</asrwt>
<pdfrwt beam="1">  1        2 0.11574556E-01 0.27485346E+03</pdfrwt>
<pdfrwt beam="2">  1       -2 0.38619920E-01 0.27485346E+03</pdfrwt>
<totfact> 0.33888931E+03</totfact>
</mgrwt>
</event>
<event>
 5    1  0.1122238E+001  0.2767237E+03  0.7818608E-02  0.1097492E+00
         -2   -1    0    0    0  501 -0.00000000000E+00  0.00000000000E+00  0.41141755128E+03  0.41141755128E+03  0.00000000000E+00 0.  1.
          2   -1    0    0  501    0  0.00000000000E+00 -0.00000000000E+00 -0.46531800931E+02  0.46531800931E+02  0.00000000000E+00 0.  1.
         35    2    1    2    0    0  0.00000000000E+00  0.00000000000E+00  0.36488575035E+03  0.45794935222E+03  0.27672368598E+03 0.  0.
         25    1    3    3    0    0  0.87565691579E+01 -0.52162017950E+02  0.25545454687E+03  0.28714905387E+03  0.12000000000E+03 0.  0.
         25    1    3    3    0    0 -0.87565691579E+01  0.52162017950E+02  0.10943120348E+03  0.17080029835E+03  0.12000000000E+03 0.  0.
<mgrwt>
<rscale>  0 0.27672369E+03</rscale>
<asrwt>0</asrwt>
<pdfrwt beam="1">  1        2 0.71587389E-02 0.27672369E+03</pdfrwt>
<pdfrwt beam="2">  1       -2 0.63295005E-01 0.27672369E+03</pdfrwt>
<totfact> 0.23142118E+03</totfact>
</mgrwt>
</event>
<event>
 5    1  0.1122238E+001  0.2741797E+03  0.7818608E-02  0.1098911E+00
          1   -1    0    0  501    0  0.00000000000E+00  0.00000000000E+00  0.15144911109E+03  0.15144911109E+03  0.00000000000E+00 0. -1.
         -1   -1    0    0    0  501 -0.00000000000E+00 -0.00000000000E+00 -0.12409201506E+03  0.12409201506E+03  0.00000000000E+00 0. -1.
         35    2    1    2    0    0  0.00000000000E+00  0.00000000000E+00  0.27357096030E+02  0.27554112615E+03  0.27417968834E+03 0.  0.
         25    1    3    3    0    0 -0.32401385820E+02 -0.82979111562E+01  0.71189626840E+02  0.14348054956E+03  0.12000000000E+03 0.  0.
         25    1    3    3    0    0  0.32401385820E+02  0.82979111562E+01 -0.43832530810E+02  0.13206057659E+03  0.12000000000E+03 0.  0.
<mgrwt>
<rscale>  0 0.27417969E+03</rscale>
<asrwt>0</asrwt>
<pdfrwt beam="1">  1        1 0.23299863E-01 0.27417969E+03</pdfrwt>
<pdfrwt beam="2">  1       -1 0.19091079E-01 0.27417969E+03</pdfrwt>
<totfact> 0.45283631E+03</totfact>
</mgrwt>
</event>
<event>
 5    1  0.1122238E+001  0.2753549E+03  0.7818608E-02  0.1098253E+00
         -2   -1    0    0    0  501 -0.00000000000E+00  0.00000000000E+00  0.12216670289E+02  0.12216670289E+02  0.00000000000E+00 0. -1.
          2   -1    0    0  501    0  0.00000000000E+00 -0.00000000000E+00 -0.15515750467E+04  0.15515750467E+04  0.00000000000E+00 0. -1.
         35    2    1    2    0    0  0.00000000000E+00  0.00000000000E+00 -0.15393583764E+04  0.15637917169E+04  0.27535490388E+03 0.  0.
         25    1    3    3    0    0 -0.39079383805E+02  0.13092690794E+02 -0.10732083826E+04  0.10806825849E+04  0.12000000000E+03 0.  0.
         25    1    3    3    0    0  0.39079383805E+02 -0.13092690794E+02 -0.46614999379E+03  0.48310913209E+03  0.12000000000E+03 0.  0.
<mgrwt>
<rscale>  0 0.27535490E+03</rscale>
<asrwt>0</asrwt>
<pdfrwt beam="1">  1        2 0.23870403E+00 0.27535490E+03</pdfrwt>
<pdfrwt beam="2">  1       -2 0.18794864E-02 0.27535490E+03</pdfrwt>
<totfact> 0.10848007E+04</totfact>
</mgrwt>
</event>
<event>
 5    1  0.1122238E+001  0.2755786E+03  0.7818608E-02  0.1098129E+00
          2   -1    0    0  501    0  0.00000000000E+00  0.00000000000E+00  0.14584402805E+03  0.14584402805E+03  0.00000000000E+00 0. -1.
         -2   -1    0    0    0  501 -0.00000000000E+00 -0.00000000000E+00 -0.13017944873E+03  0.13017944873E+03  0.00000000000E+00 0. -1.
         35    2    1    2    0    0  0.00000000000E+00  0.00000000000E+00  0.15664579319E+02  0.27602347677E+03  0.27557862886E+03 0.  0.
         25    1    3    3    0    0  0.88746021747E+01 -0.35868159237E+02  0.64674332051E+02  0.14123757516E+03  0.12000000000E+03 0.  0.
         25    1    3    3    0    0 -0.88746021747E+01  0.35868159237E+02 -0.49009752732E+02  0.13478590161E+03  0.12000000000E+03 0.  0.
<mgrwt>
<rscale>  0 0.27557863E+03</rscale>
<asrwt>0</asrwt>
<pdfrwt beam="1">  1        2 0.22437543E-01 0.27557863E+03</pdfrwt>
<pdfrwt beam="2">  1       -2 0.20027607E-01 0.27557863E+03</pdfrwt>
<totfact> 0.50665402E+03</totfact>
</mgrwt>
</event>
<event>
 5    1  0.1122238E+001  0.2746954E+03  0.7818608E-02  0.1098622E+00
         -2   -1    0    0    0  501 -0.00000000000E+00  0.00000000000E+00  0.36839059694E+03  0.36839059694E+03  0.00000000000E+00 0. -1.
          2   -1    0    0  501    0  0.00000000000E+00 -0.00000000000E+00 -0.51207583002E+02  0.51207583002E+02  0.00000000000E+00 0. -1.
         35    2    1    2    0    0  0.00000000000E+00  0.00000000000E+00  0.31718301394E+03  0.41959817995E+03  0.27469541001E+03 0.  0.
         25    1    3    3    0    0  0.45697574194E+02  0.23781818745E+02  0.22358761025E+03  0.25893099978E+03  0.12000000000E+03 0.  0.
         25    1    3    3    0    0 -0.45697574194E+02 -0.23781818745E+02  0.93595403690E+02  0.16066718016E+03  0.12000000000E+03 0.  0.
<mgrwt>
<rscale>  0 0.27469541E+03</rscale>
<asrwt>0</asrwt>
<pdfrwt beam="1">  1        2 0.78780900E-02 0.27469541E+03</pdfrwt>
<pdfrwt beam="2">  1       -2 0.56675475E-01 0.27469541E+03</pdfrwt>
<totfact> 0.25731052E+03</totfact>
</mgrwt>
</event>
<event>
 5    1  0.1122238E+001  0.2772428E+03  0.7818608E-02  0.1097204E+00
         -2   -1    0    0    0  501 -0.00000000000E+00  0.00000000000E+00  0.25326503129E+03  0.25326503129E+03  0.00000000000E+00 0. -1.
          2   -1    0    0  501    0  0.00000000000E+00 -0.00000000000E+00 -0.75872647620E+02  0.75872647620E+02  0.00000000000E+00 0. -1.
         35    2    1    2    0    0  0.00000000000E+00  0.00000000000E+00  0.17739238367E+03  0.32913767891E+03  0.27724277068E+03 0.  0.
         25    1    3    3    0    0 -0.67600380083E+02 -0.15650498900E+02  0.87429200634E+02  0.16388598057E+03  0.12000000000E+03 0.  0.
         25    1    3    3    0    0  0.67600380083E+02  0.15650498900E+02  0.89963183039E+02  0.16525169834E+03  0.12000000000E+03 0.  0.
<mgrwt>
<rscale>  0 0.27724277E+03</rscale>
<asrwt>0</asrwt>
<pdfrwt beam="1">  1        2 0.11672715E-01 0.27724277E+03</pdfrwt>
<pdfrwt beam="2">  1       -2 0.38963851E-01 0.27724277E+03</pdfrwt>
<totfact> 0.32989772E+03</totfact>
</mgrwt>
</event>
<event>
 5    1  0.1122238E+001  0.2769654E+03  0.7818608E-02  0.1097358E+00
         -2   -1    0    0    0  501 -0.00000000000E+00  0.00000000000E+00  0.63642042060E+02  0.63642042060E+02  0.00000000000E+00 0.  1.
          2   -1    0    0  501    0  0.00000000000E+00 -0.00000000000E+00 -0.30133319760E+03  0.30133319760E+03  0.00000000000E+00 0.  1.
         35    2    1    2    0    0  0.00000000000E+00  0.00000000000E+00 -0.23769115554E+03  0.36497523965E+03  0.27696541326E+03 0.  0.
         25    1    3    3    0    0 -0.90962098205E+01 -0.68265232814E+02 -0.11109683110E+03  0.17744122668E+03  0.12000000000E+03 0.  0.
         25    1    3    3    0    0  0.90962098205E+01  0.68265232814E+02 -0.12659432444E+03  0.18753401298E+03  0.12000000000E+03 0.  0.
<mgrwt>
<rscale>  0 0.27696541E+03</rscale>
<asrwt>0</asrwt>
<pdfrwt beam="1">  1        2 0.46358954E-01 0.27696541E+03</pdfrwt>
<pdfrwt beam="2">  1       -2 0.97910834E-02 0.27696541E+03</pdfrwt>
<totfact> 0.74159466E+03</totfact>
</mgrwt>
</event>
<event>
 5    1  0.1122238E+001  0.2755328E+03  0.7818608E-02  0.1098154E+00
         -2   -1    0    0    0  501 -0.00000000000E+00  0.00000000000E+00  0.90227102357E+02  0.90227102357E+02  0.00000000000E+00 0. -1.
          2   -1    0    0  501    0  0.00000000000E+00 -0.00000000000E+00 -0.21035346655E+03  0.21035346655E+03  0.00000000000E+00 0. -1.
         35    2    1    2    0    0  0.00000000000E+00  0.00000000000E+00 -0.12012636420E+03  0.30058056891E+03  0.27553282024E+03 0.  0.
         25    1    3    3    0    0 -0.48532916370E+02 -0.32677449252E+02 -0.97159205143E+02  0.16511562859E+03  0.12000000000E+03 0.  0.
         25    1    3    3    0    0  0.48532916370E+02  0.32677449252E+02 -0.22967159053E+02  0.13546494032E+03  0.12000000000E+03 0.  0.
<mgrwt>
<rscale>  0 0.27553282E+03</rscale>
<asrwt>0</asrwt>
<pdfrwt beam="1">  1        2 0.32362071E-01 0.27553282E+03</pdfrwt>
<pdfrwt beam="2">  1       -2 0.13881093E-01 0.27553282E+03</pdfrwt>
<totfact> 0.62311595E+03</totfact>
</mgrwt>
</event>
<event>
 5    1  0.1122238E+001  0.2751703E+03  0.7818608E-02  0.1098356E+00
          2   -1    0    0  501    0  0.00000000000E+00  0.00000000000E+00  0.66523783367E+02  0.66523783367E+02  0.00000000000E+00 0. -1.
         -2   -1    0    0    0  501 -0.00000000000E+00 -0.00000000000E+00 -0.28455487350E+03  0.28455487350E+03  0.00000000000E+00 0. -1.
         35    2    1    2    0    0  0.00000000000E+00  0.00000000000E+00 -0.21803109013E+03  0.35107865687E+03  0.27517025101E+03 0.  0.
         25    1    3    3    0    0  0.15557840741E+02 -0.54340896988E+02 -0.15562700510E+03  0.20448653797E+03  0.12000000000E+03 0.  0.
         25    1    3    3    0    0 -0.15557840741E+02  0.54340896988E+02 -0.62404085030E+02  0.14659211890E+03  0.12000000000E+03 0.  0.
<mgrwt>
<rscale>  0 0.27517025E+03</rscale>
<asrwt>0</asrwt>
<pdfrwt beam="1">  1        2 0.10234428E-01 0.27517025E+03</pdfrwt>
<pdfrwt beam="2">  1       -2 0.43777673E-01 0.27517025E+03</pdfrwt>
<totfact> 0.30996786E+03</totfact>
</mgrwt>
</event>
<event>
 5    1  0.1122238E+001  0.2753146E+03  0.7818608E-02  0.1098276E+00
         -1   -1    0    0    0  501 -0.00000000000E+00  0.00000000000E+00  0.14529924241E+02  0.14529924241E+02  0.00000000000E+00 0. -1.
          1   -1    0    0  501    0  0.00000000000E+00 -0.00000000000E+00 -0.13041727935E+04  0.13041727935E+04  0.00000000000E+00 0. -1.
         35    2    1    2    0    0  0.00000000000E+00  0.00000000000E+00 -0.12896428692E+04  0.13187027177E+04  0.27531459741E+03 0.  0.
         25    1    3    3    0    0  0.67032138013E+02 -0.64775950088E+01 -0.62673073285E+03  0.64165931635E+03  0.12000000000E+03 0.  0.
         25    1    3    3    0    0 -0.67032138013E+02  0.64775950088E+01 -0.66291213640E+03  0.67704340138E+03  0.12000000000E+03 0.  0.
<mgrwt>
<rscale>  0 0.27531460E+03</rscale>
<asrwt>0</asrwt>
<pdfrwt beam="1">  1        1 0.20064200E+00 0.27531460E+03</pdfrwt>
<pdfrwt beam="2">  1       -1 0.22353726E-02 0.27531460E+03</pdfrwt>
<totfact> 0.56457943E+03</totfact>
</mgrwt>
</event>
<event>
 5    1  0.1122238E+001  0.2753486E+03  0.7818608E-02  0.1098257E+00
         -2   -1    0    0    0  501 -0.00000000000E+00  0.00000000000E+00  0.18752653551E+03  0.18752653551E+03  0.00000000000E+00 0.  1.
          2   -1    0    0  501    0  0.00000000000E+00 -0.00000000000E+00 -0.10107479942E+03  0.10107479942E+03  0.00000000000E+00 0.  1.
         35    2    1    2    0    0  0.00000000000E+00  0.00000000000E+00  0.86451736082E+02  0.28860133493E+03  0.27534855702E+03 0.  0.
         25    1    3    3    0    0  0.38627746340E+02  0.40325435490E+02  0.82943854217E+02  0.15619835622E+03  0.12000000000E+03 0.  0.
         25    1    3    3    0    0 -0.38627746340E+02 -0.40325435490E+02  0.35078818650E+01  0.13240297870E+03  0.12000000000E+03 0.  0.
<mgrwt>
<rscale>  0 0.27534856E+03</rscale>
<asrwt>0</asrwt>
<pdfrwt beam="1">  1        2 0.15549969E-01 0.27534856E+03</pdfrwt>
<pdfrwt beam="2">  1       -2 0.28850236E-01 0.27534856E+03</pdfrwt>
<totfact> 0.40768113E+03</totfact>
</mgrwt>
</event>
<event>
 5    1  0.1122238E+001  0.2758910E+03  0.7818608E-02  0.1097955E+00
         -2   -1    0    0    0  501 -0.00000000000E+00  0.00000000000E+00  0.16891050325E+02  0.16891050325E+02  0.00000000000E+00 0. -1.
          2   -1    0    0  501    0  0.00000000000E+00 -0.00000000000E+00 -0.11265704775E+04  0.11265704775E+04  0.00000000000E+00 0. -1.
         35    2    1    2    0    0  0.00000000000E+00  0.00000000000E+00 -0.11096794272E+04  0.11434615279E+04  0.27589098304E+03 0.  0.
         25    1    3    3    0    0 -0.47171881235E+02 -0.28427959258E+01 -0.75770111895E+03  0.76859888988E+03  0.12000000000E+03 0.  0.
         25    1    3    3    0    0  0.47171881235E+02  0.28427959258E+01 -0.35197830826E+03  0.37486263798E+03  0.12000000000E+03 0.  0.
<mgrwt>
<rscale>  0 0.27589098E+03</rscale>
<asrwt>0</asrwt>
<pdfrwt beam="1">  1        2 0.17331853E+00 0.27589098E+03</pdfrwt>
<pdfrwt beam="2">  1       -2 0.25986233E-02 0.27589098E+03</pdfrwt>
<totfact> 0.11543600E+04</totfact>
</mgrwt>
</event>
<event>
 5    1  0.1122238E+001  0.2763619E+03  0.7818608E-02  0.1097693E+00
          2   -1    0    0  501    0  0.00000000000E+00  0.00000000000E+00  0.57188574346E+03  0.57188574346E+03  0.00000000000E+00 0.  1.
         -2   -1    0    0    0  501 -0.00000000000E+00 -0.00000000000E+00 -0.33387742869E+02  0.33387742869E+02  0.00000000000E+00 0.  1.
         35    2    1    2    0    0  0.00000000000E+00  0.00000000000E+00  0.53849800059E+03  0.60527348633E+03  0.27636189429E+03 0.  0.
         25    1    3    3    0    0  0.27038514146E+02  0.50590108929E+02  0.35130019802E+03  0.37563582031E+03  0.12000000000E+03 0.  0.
         25    1    3    3    0    0 -0.27038514146E+02 -0.50590108929E+02  0.18719780257E+03  0.22963766602E+03  0.12000000000E+03 0.  0.
<mgrwt>
<rscale>  0 0.27636189E+03</rscale>
<asrwt>0</asrwt>
<pdfrwt beam="1">  1        2 0.87982415E-01 0.27636189E+03</pdfrwt>
<pdfrwt beam="2">  1       -2 0.51365762E-02 0.27636189E+03</pdfrwt>
<totfact> 0.99797981E+03</totfact>
</mgrwt>
</event>
<event>
 5    1  0.1122238E+001  0.2735688E+03  0.7818608E-02  0.1099254E+00
         -2   -1    0    0    0  501 -0.00000000000E+00  0.00000000000E+00  0.23434004747E+03  0.23434004747E+03  0.00000000000E+00 0. -1.
          2   -1    0    0  501    0  0.00000000000E+00 -0.00000000000E+00 -0.79841097566E+02  0.79841097566E+02  0.00000000000E+00 0. -1.
         35    2    1    2    0    0  0.00000000000E+00  0.00000000000E+00  0.15449894991E+03  0.31418114504E+03  0.27356875987E+03 0.  0.
         25    1    3    3    0    0 -0.28435217266E+02 -0.59056223275E+02  0.81510766449E+02  0.15918606766E+03  0.12000000000E+03 0.  0.
         25    1    3    3    0    0  0.28435217266E+02  0.59056223275E+02  0.72988183458E+02  0.15499507738E+03  0.12000000000E+03 0.  0.
<mgrwt>
<rscale>  0 0.27356876E+03</rscale>
<asrwt>0</asrwt>
<pdfrwt beam="1">  1        2 0.12283246E-01 0.27356876E+03</pdfrwt>
<pdfrwt beam="2">  1       -2 0.36052315E-01 0.27356876E+03</pdfrwt>
<totfact> 0.35883303E+03</totfact>
</mgrwt>
</event>
<event>
 5    1  0.1122238E+001  0.2730952E+03  0.7818608E-02  0.1099521E+00
         -3   -1    0    0    0  501 -0.00000000000E+00  0.00000000000E+00  0.14879780107E+02  0.14879780107E+02  0.00000000000E+00 0.  1.
          3   -1    0    0  501    0  0.00000000000E+00 -0.00000000000E+00 -0.12530591287E+04  0.12530591287E+04  0.00000000000E+00 0.  1.
         35    2    1    2    0    0  0.00000000000E+00  0.00000000000E+00 -0.12381793486E+04  0.12679389088E+04  0.27309517971E+03 0.  0.
         25    1    3    3    0    0 -0.55985264905E+02 -0.13984865710E+02 -0.47862397628E+03  0.49680060087E+03  0.12000000000E+03 0.  0.
         25    1    3    3    0    0  0.55985264905E+02  0.13984865710E+02 -0.75955537227E+03  0.77113830790E+03  0.12000000000E+03 0.  0.
<mgrwt>
<rscale>  0 0.27309518E+03</rscale>
<asrwt>0</asrwt>
<pdfrwt beam="1">  1        3 0.19277834E+00 0.27309518E+03</pdfrwt>
<pdfrwt beam="2">  1       -3 0.22891968E-02 0.27309518E+03</pdfrwt>
<totfact> 0.34829940E+02</totfact>
</mgrwt>
</event>
<event>
 5    1  0.1122238E+001  0.2752323E+03  0.7818608E-02  0.1098322E+00
          3   -1    0    0  501    0  0.00000000000E+00  0.00000000000E+00  0.22303486130E+03  0.22303486130E+03  0.00000000000E+00 0. -1.
         -3   -1    0    0    0  501 -0.00000000000E+00 -0.00000000000E+00 -0.84911385761E+02  0.84911385761E+02  0.00000000000E+00 0. -1.
         35    2    1    2    0    0  0.00000000000E+00  0.00000000000E+00  0.13812347553E+03  0.30794624706E+03  0.27523225934E+03 0.  0.
         25    1    3    3    0    0 -0.13154606596E+02  0.28371022190E+02  0.13582157251E+03  0.18391698707E+03  0.12000000000E+03 0.  0.
         25    1    3    3    0    0  0.13154606596E+02 -0.28371022190E+02  0.23019030246E+01  0.12402925998E+03  0.12000000000E+03 0.  0.
<mgrwt>
<rscale>  0 0.27523226E+03</rscale>
<asrwt>0</asrwt>
<pdfrwt beam="1">  1        3 0.34313055E-01 0.27523226E+03</pdfrwt>
<pdfrwt beam="2">  1       -3 0.13063290E-01 0.27523226E+03</pdfrwt>
<totfact> 0.99771811E+02</totfact>
</mgrwt>
</event>
<event>
 5    1  0.1122238E+001  0.2751294E+03  0.7818608E-02  0.1098379E+00
         -2   -1    0    0    0  501 -0.00000000000E+00  0.00000000000E+00  0.14756736630E+02  0.14756736630E+02  0.00000000000E+00 0. -1.
          2   -1    0    0  501    0  0.00000000000E+00 -0.00000000000E+00 -0.12824007712E+04  0.12824007712E+04  0.00000000000E+00 0. -1.
         35    2    1    2    0    0  0.00000000000E+00  0.00000000000E+00 -0.12676440345E+04  0.12971575078E+04  0.27512942725E+03 0.  0.
         25    1    3    3    0    0 -0.30032234831E+02  0.18624019398E+01 -0.91743673574E+03  0.92574055100E+03  0.12000000000E+03 0.  0.
         25    1    3    3    0    0  0.30032234831E+02 -0.18624019398E+01 -0.35020729879E+03  0.37141695680E+03  0.12000000000E+03 0.  0.
<mgrwt>
<rscale>  0 0.27512943E+03</rscale>
<asrwt>0</asrwt>
<pdfrwt beam="1">  1        2 0.19729237E+00 0.27512943E+03</pdfrwt>
<pdfrwt beam="2">  1       -2 0.22702678E-02 0.27512943E+03</pdfrwt>
<totfact> 0.11496053E+04</totfact>
</mgrwt>
</event>
<event>
 5    1  0.1122238E+001  0.2748377E+03  0.7818608E-02  0.1098542E+00
         -1   -1    0    0    0  501 -0.00000000000E+00  0.00000000000E+00  0.17453822601E+02  0.17453822601E+02  0.00000000000E+00 0.  1.
          1   -1    0    0  501    0  0.00000000000E+00 -0.00000000000E+00 -0.10819374268E+04  0.10819374268E+04  0.00000000000E+00 0.  1.
         35    2    1    2    0    0  0.00000000000E+00  0.00000000000E+00 -0.10644836042E+04  0.10993912494E+04  0.27483772603E+03 0.  0.
         25    1    3    3    0    0  0.57692930657E+02  0.33777237517E+02 -0.51697407966E+03  0.53491267984E+03  0.12000000000E+03 0.  0.
         25    1    3    3    0    0 -0.57692930657E+02 -0.33777237517E+02 -0.54750952450E+03  0.56447856952E+03  0.12000000000E+03 0.  0.
<mgrwt>
<rscale>  0 0.27483773E+03</rscale>
<asrwt>0</asrwt>
<pdfrwt beam="1">  1        1 0.16645191E+00 0.27483773E+03</pdfrwt>
<pdfrwt beam="2">  1       -1 0.26852036E-02 0.27483773E+03</pdfrwt>
<totfact> 0.61774370E+03</totfact>
</mgrwt>
</event>
<event>
 5    1  0.1122238E+001  0.2744160E+03  0.7818608E-02  0.1098778E+00
         -2   -1    0    0    0  501 -0.00000000000E+00  0.00000000000E+00  0.18171177202E+03  0.18171177202E+03  0.00000000000E+00 0.  1.
          2   -1    0    0  501    0  0.00000000000E+00 -0.00000000000E+00 -0.10360384393E+03  0.10360384393E+03  0.00000000000E+00 0.  1.
         35    2    1    2    0    0  0.00000000000E+00  0.00000000000E+00  0.78107928094E+02  0.28531561595E+03  0.27441602044E+03 0.  0.
         25    1    3    3    0    0  0.65014052661E+02  0.13293706090E+02  0.43984514269E+02  0.14400759411E+03  0.12000000000E+03 0.  0.
         25    1    3    3    0    0 -0.65014052661E+02 -0.13293706090E+02  0.34123413825E+02  0.14130802184E+03  0.12000000000E+03 0.  0.
<mgrwt>
<rscale>  0 0.27441602E+03</rscale>
<asrwt>0</asrwt>
<pdfrwt beam="1">  1        2 0.15939053E-01 0.27441602E+03</pdfrwt>
<pdfrwt beam="2">  1       -2 0.27955657E-01 0.27441602E+03</pdfrwt>
<totfact> 0.41903289E+03</totfact>
</mgrwt>
</event>
<event>
 5    1  0.1122238E+001  0.2762746E+03  0.7818608E-02  0.1097741E+00
          1   -1    0    0  501    0  0.00000000000E+00  0.00000000000E+00  0.92618159467E+03  0.92618159467E+03  0.00000000000E+00 0.  1.
         -1   -1    0    0    0  501 -0.00000000000E+00 -0.00000000000E+00 -0.20602772347E+02  0.20602772347E+02  0.00000000000E+00 0.  1.
         35    2    1    2    0    0  0.00000000000E+00  0.00000000000E+00  0.90557882232E+03  0.94678436701E+03  0.27627456305E+03 0.  0.
         25    1    3    3    0    0  0.93507146439E+01 -0.49687236495E+02  0.29478974110E+03  0.32226890758E+03  0.12000000000E+03 0.  0.
         25    1    3    3    0    0 -0.93507146439E+01  0.49687236495E+02  0.61078908122E+03  0.62451545943E+03  0.12000000000E+03 0.  0.
<mgrwt>
<rscale>  0 0.27627456E+03</rscale>
<asrwt>0</asrwt>
<pdfrwt beam="1">  1        1 0.14248944E+00 0.27627456E+03</pdfrwt>
<pdfrwt beam="2">  1       -1 0.31696580E-02 0.27627456E+03</pdfrwt>
<totfact> 0.63268294E+03</totfact>
</mgrwt>
</event>
<event>
 5    1  0.1122238E+001  0.2754659E+03  0.7818608E-02  0.1098191E+00
          2   -1    0    0  501    0  0.00000000000E+00  0.00000000000E+00  0.13413458921E+04  0.13413458921E+04  0.00000000000E+00 0.  1.
         -2   -1    0    0    0  501 -0.00000000000E+00 -0.00000000000E+00 -0.14142785053E+02  0.14142785053E+02  0.00000000000E+00 0.  1.
         35    2    1    2    0    0  0.00000000000E+00  0.00000000000E+00  0.13272031070E+04  0.13554886772E+04  0.27546590812E+03 0.  0.
         25    1    3    3    0    0  0.52682511629E+01 -0.40086577867E+02  0.39698796657E+03  0.41669429297E+03  0.12000000000E+03 0.  0.
         25    1    3    3    0    0 -0.52682511629E+01  0.40086577867E+02  0.93021514048E+03  0.93879438418E+03  0.12000000000E+03 0.  0.
<mgrwt>
<rscale>  0 0.27546591E+03</rscale>
<asrwt>0</asrwt>
<pdfrwt beam="1">  1        2 0.20636081E+00 0.27546591E+03</pdfrwt>
<pdfrwt beam="2">  1       -2 0.21758141E-02 0.27546591E+03</pdfrwt>
<totfact> 0.11355985E+04</totfact>
</mgrwt>
</event>
<event>
 5    1  0.1122238E+001  0.2757560E+03  0.7818608E-02  0.1098030E+00
         -1   -1    0    0    0  501 -0.00000000000E+00  0.00000000000E+00  0.35898978649E+02  0.35898978649E+02  0.00000000000E+00 0.  1.
          1   -1    0    0  501    0  0.00000000000E+00 -0.00000000000E+00 -0.52955116865E+03  0.52955116865E+03  0.00000000000E+00 0.  1.
         35    2    1    2    0    0  0.00000000000E+00  0.00000000000E+00 -0.49365219000E+03  0.56545014730E+03  0.27575602330E+03 0.  0.
         25    1    3    3    0    0 -0.41231374063E+02 -0.50747971420E+02 -0.20929701495E+03  0.24996124355E+03  0.12000000000E+03 0.  0.
         25    1    3    3    0    0  0.41231374063E+02  0.50747971420E+02 -0.28435517506E+03  0.31548890375E+03  0.12000000000E+03 0.  0.
<mgrwt>
<rscale>  0 0.27575602E+03</rscale>
<asrwt>0</asrwt>
<pdfrwt beam="1">  1        1 0.81469409E-01 0.27575602E+03</pdfrwt>
<pdfrwt beam="2">  1       -1 0.55229199E-02 0.27575602E+03</pdfrwt>
<totfact> 0.63022847E+03</totfact>
</mgrwt>
</event>
<event>
 5    1  0.1122238E+001  0.2750534E+03  0.7818608E-02  0.1098422E+00
          2   -1    0    0  501    0  0.00000000000E+00  0.00000000000E+00  0.29441142433E+03  0.29441142433E+03  0.00000000000E+00 0. -1.
         -2   -1    0    0    0  501 -0.00000000000E+00 -0.00000000000E+00 -0.64242038153E+02  0.64242038153E+02  0.00000000000E+00 0. -1.
         35    2    1    2    0    0  0.00000000000E+00  0.00000000000E+00  0.23016938618E+03  0.35865346248E+03  0.27505337631E+03 0.  0.
         25    1    3    3    0    0 -0.16085369431E+01 -0.61026396707E+02  0.15165975826E+03  0.20279913896E+03  0.12000000000E+03 0.  0.
         25    1    3    3    0    0  0.16085369431E+01  0.61026396707E+02  0.78509627916E+02  0.15585432353E+03  0.12000000000E+03 0.  0.
<mgrwt>
<rscale>  0 0.27505338E+03</rscale>
<asrwt>0</asrwt>
<pdfrwt beam="1">  1        2 0.45294065E-01 0.27505338E+03</pdfrwt>
<pdfrwt beam="2">  1       -2 0.98833906E-02 0.27505338E+03</pdfrwt>
<totfact> 0.74892290E+03</totfact>
</mgrwt>
</event>
<event>
 5    1  0.1122238E+001  0.2747609E+03  0.7818608E-02  0.1098585E+00
          3   -1    0    0  501    0  0.00000000000E+00  0.00000000000E+00  0.26182943202E+03  0.26182943202E+03  0.00000000000E+00 0.  1.
         -3   -1    0    0    0  501 -0.00000000000E+00 -0.00000000000E+00 -0.72082750733E+02  0.72082750733E+02  0.00000000000E+00 0.  1.
         35    2    1    2    0    0  0.00000000000E+00  0.00000000000E+00  0.18974668129E+03  0.33391218276E+03  0.27476088283E+03 0.  0.
         25    1    3    3    0    0  0.37212925781E+02  0.26624097388E+02  0.35588694347E+02  0.13326739876E+03  0.12000000000E+03 0.  0.
         25    1    3    3    0    0 -0.37212925781E+02 -0.26624097388E+02  0.15415798694E+03  0.20064478400E+03  0.12000000000E+03 0.  0.
<mgrwt>
<rscale>  0 0.27476088E+03</rscale>
<asrwt>0</asrwt>
<pdfrwt beam="1">  1        3 0.40281450E-01 0.27476088E+03</pdfrwt>
<pdfrwt beam="2">  1       -3 0.11089654E-01 0.27476088E+03</pdfrwt>
<totfact> 0.96690446E+02</totfact>
</mgrwt>
</event>
<event>
 5    1  0.1122238E+001  0.2746223E+03  0.7818608E-02  0.1098663E+00
         -3   -1    0    0    0  501 -0.00000000000E+00  0.00000000000E+00  0.74173417595E+01  0.74173417595E+01  0.00000000000E+00 0.  1.
          3   -1    0    0  501    0  0.00000000000E+00 -0.00000000000E+00 -0.25419283343E+04  0.25419283343E+04  0.00000000000E+00 0.  1.
         35    2    1    2    0    0  0.00000000000E+00  0.00000000000E+00 -0.25345109926E+04  0.25493456761E+04  0.27462229468E+03 0.  0.
         25    1    3    3    0    0 -0.62584456854E+02 -0.21655128278E+02 -0.11903724081E+04  0.11982371338E+04  0.12000000000E+03 0.  0.
         25    1    3    3    0    0  0.62584456854E+02  0.21655128278E+02 -0.13441385845E+04  0.13511085423E+04  0.12000000000E+03 0.  0.
<mgrwt>
<rscale>  0 0.27462229E+03</rscale>
<asrwt>0</asrwt>
<pdfrwt beam="1">  1        3 0.39106540E+00 0.27462229E+03</pdfrwt>
<pdfrwt beam="2">  1       -3 0.11411310E-02 0.27462229E+03</pdfrwt>
<totfact> 0.84696586E+01</totfact>
</mgrwt>
</event>
<event>
 5    1  0.1122238E+001  0.2747371E+03  0.7818608E-02  0.1098599E+00
          1   -1    0    0  501    0  0.00000000000E+00  0.00000000000E+00  0.29837053880E+03  0.29837053880E+03  0.00000000000E+00 0.  1.
         -1   -1    0    0    0  501 -0.00000000000E+00 -0.00000000000E+00 -0.63243884003E+02  0.63243884003E+02  0.00000000000E+00 0.  1.
         35    2    1    2    0    0  0.00000000000E+00  0.00000000000E+00  0.23512665480E+03  0.36161442280E+03  0.27473705062E+03 0.  0.
         25    1    3    3    0    0 -0.40745020326E+02 -0.83469920339E+01  0.18646443503E+03  0.22560765610E+03  0.12000000000E+03 0.  0.
         25    1    3    3    0    0  0.40745020326E+02  0.83469920339E+01  0.48662219764E+02  0.13600676671E+03  0.12000000000E+03 0.  0.
<mgrwt>
<rscale>  0 0.27473705E+03</rscale>
<asrwt>0</asrwt>
<pdfrwt beam="1">  1        1 0.45903159E-01 0.27473705E+03</pdfrwt>
<pdfrwt beam="2">  1       -1 0.97298284E-02 0.27473705E+03</pdfrwt>
<totfact> 0.55746315E+03</totfact>
</mgrwt>
</event>
<event>
 5    1  0.1122238E+001  0.2746313E+03  0.7818608E-02  0.1098658E+00
         -2   -1    0    0    0  501 -0.00000000000E+00  0.00000000000E+00  0.55636342430E+02  0.55636342430E+02  0.00000000000E+00 0.  1.
          2   -1    0    0  501    0  0.00000000000E+00 -0.00000000000E+00 -0.33890768846E+03  0.33890768846E+03  0.00000000000E+00 0.  1.
         35    2    1    2    0    0  0.00000000000E+00  0.00000000000E+00 -0.28327134603E+03  0.39454403089E+03  0.27463127431E+03 0.  0.
         25    1    3    3    0    0  0.16977350301E+02 -0.32040216414E+02 -0.61123021928E+02  0.13946623140E+03  0.12000000000E+03 0.  0.
         25    1    3    3    0    0 -0.16977350301E+02  0.32040216414E+02 -0.22214832410E+03  0.25507779949E+03  0.12000000000E+03 0.  0.
<mgrwt>
<rscale>  0 0.27463127E+03</rscale>
<asrwt>0</asrwt>
<pdfrwt beam="1">  1        2 0.52139643E-01 0.27463127E+03</pdfrwt>
<pdfrwt beam="2">  1       -2 0.85594375E-02 0.27463127E+03</pdfrwt>
<totfact> 0.80768299E+03</totfact>
</mgrwt>
</event>
<event>
 5    1  0.1122238E+001  0.2863574E+03  0.7818608E-02  0.1092266E+00
          4   -1    0    0  501    0  0.00000000000E+00  0.00000000000E+00  0.27651742920E+03  0.27651742920E+03  0.00000000000E+00 0. -1.
         -4   -1    0    0    0  501 -0.00000000000E+00 -0.00000000000E+00 -0.74136863405E+02  0.74136863405E+02  0.00000000000E+00 0. -1.
         35    2    1    2    0    0  0.00000000000E+00  0.00000000000E+00  0.20238056579E+03  0.35065429260E+03  0.28635736329E+03 0.  0.
         25    1    3    3    0    0 -0.19028518012E+02  0.73545109627E+02  0.78973605887E+02  0.16250476324E+03  0.12000000000E+03 0.  0.
         25    1    3    3    0    0  0.19028518012E+02 -0.73545109627E+02  0.12340695991E+03  0.18814952937E+03  0.12000000000E+03 0.  0.
<mgrwt>
<rscale>  0 0.28635736E+03</rscale>
<asrwt>0</asrwt>
<pdfrwt beam="1">  1        4 0.42541142E-01 0.28635736E+03</pdfrwt>
<pdfrwt beam="2">  1       -4 0.11405671E-01 0.28635736E+03</pdfrwt>
<totfact> 0.61475753E+02</totfact>
</mgrwt>
</event>
<event>
 5    1  0.1122238E+001  0.2750058E+03  0.7818608E-02  0.1098448E+00
         -3   -1    0    0    0  501 -0.00000000000E+00  0.00000000000E+00  0.17906803451E+03  0.17906803451E+03  0.00000000000E+00 0.  1.
          3   -1    0    0  501    0  0.00000000000E+00 -0.00000000000E+00 -0.10558583788E+03  0.10558583788E+03  0.00000000000E+00 0.  1.
         35    2    1    2    0    0  0.00000000000E+00  0.00000000000E+00  0.73482196626E+02  0.28465387239E+03  0.27500580693E+03 0.  0.
         25    1    3    3    0    0 -0.18421294269E+02 -0.39083740299E+02  0.89926300904E+02  0.15605647193E+03  0.12000000000E+03 0.  0.
         25    1    3    3    0    0  0.18421294269E+02  0.39083740299E+02 -0.16444104278E+02  0.12859740046E+03  0.12000000000E+03 0.  0.
<mgrwt>
<rscale>  0 0.27500581E+03</rscale>
<asrwt>0</asrwt>
<pdfrwt beam="1">  1        3 0.16243975E-01 0.27500581E+03</pdfrwt>
<pdfrwt beam="2">  1       -3 0.27548928E-01 0.27500581E+03</pdfrwt>
<totfact> 0.10341488E+03</totfact>
</mgrwt>
</event>
<event>
 5    1  0.1122238E+001  0.2748079E+03  0.7818608E-02  0.1098559E+00
          4   -1    0    0  501    0  0.00000000000E+00  0.00000000000E+00  0.23916382351E+04  0.23916382351E+04  0.00000000000E+00 0.  1.
         -4   -1    0    0    0  501 -0.00000000000E+00 -0.00000000000E+00 -0.78941075021E+01  0.78941075021E+01  0.00000000000E+00 0.  1.
         35    2    1    2    0    0  0.00000000000E+00  0.00000000000E+00  0.23837441276E+04  0.23995323426E+04  0.27480792808E+03 0.  0.
         25    1    3    3    0    0 -0.45349817799E+01  0.49067859999E+02  0.79637187035E+03  0.80686825246E+03  0.12000000000E+03 0.  0.
         25    1    3    3    0    0  0.45349817799E+01 -0.49067859999E+02  0.15873722572E+04  0.15926640901E+04  0.12000000000E+03 0.  0.
<mgrwt>
<rscale>  0 0.27480793E+03</rscale>
<asrwt>0</asrwt>
<pdfrwt beam="1">  1        4 0.36794377E+00 0.27480793E+03</pdfrwt>
<pdfrwt beam="2">  1       -4 0.12144800E-02 0.27480793E+03</pdfrwt>
<totfact> 0.56903000E+01</totfact>
</mgrwt>
</event>
<event>
 5    1  0.1122238E+001  0.2759421E+03  0.7818608E-02  0.1097926E+00
          1   -1    0    0  501    0  0.00000000000E+00  0.00000000000E+00  0.71908399551E+02  0.71908399551E+02  0.00000000000E+00 0. -1.
         -1   -1    0    0    0  501 -0.00000000000E+00 -0.00000000000E+00 -0.26472583335E+03  0.26472583335E+03  0.00000000000E+00 0. -1.
         35    2    1    2    0    0  0.00000000000E+00  0.00000000000E+00 -0.19281743380E+03  0.33663423290E+03  0.27594210259E+03 0.  0.
         25    1    3    3    0    0 -0.67669124008E+02 -0.72498463863E+01 -0.93867134761E+02  0.16686134845E+03  0.12000000000E+03 0.  0.
         25    1    3    3    0    0  0.67669124008E+02  0.72498463863E+01 -0.98950299035E+02  0.16977288445E+03  0.12000000000E+03 0.  0.
<mgrwt>
<rscale>  0 0.27594210E+03</rscale>
<asrwt>0</asrwt>
<pdfrwt beam="1">  1        1 0.11062831E-01 0.27594210E+03</pdfrwt>
<pdfrwt beam="2">  1       -1 0.40727051E-01 0.27594210E+03</pdfrwt>
<totfact> 0.33314827E+03</totfact>
</mgrwt>
</event>
<event>
 4    1  0.1122238E+001  0.2954714E+03  0.7818608E-02  0.1087527E+00
          1   -1    0    0  501    0  0.00000000000E+00  0.00000000000E+00  0.46459473684E+03  0.46459473684E+03  0.00000000000E+00 0. -1.
         -1   -1    0    0    0  501 -0.00000000000E+00 -0.00000000000E+00 -0.46978217939E+02  0.46978217939E+02  0.00000000000E+00 0. -1.
         25    1    1    2    0    0  0.39514754127E+02  0.28202907474E+02  0.33207725928E+03  0.35641566452E+03  0.12000000000E+03 0.  0.
         25    1    1    2    0    0 -0.39514754127E+02 -0.28202907474E+02  0.85539259616E+02  0.15515729026E+03  0.12000000000E+03 0.  0.
<mgrwt>
<rscale>  0 0.29547137E+03</rscale>
<asrwt>0</asrwt>
<pdfrwt beam="1">  1        1 0.71476110E-01 0.29547137E+03</pdfrwt>
<pdfrwt beam="2">  1       -1 0.72274184E-02 0.29547137E+03</pdfrwt>
<totfact> 0.50009382E+03</totfact>
</mgrwt>
</event>
<event>
 5    1  0.1122238E+001  0.2756074E+03  0.7818608E-02  0.1098113E+00
         -2   -1    0    0    0  501 -0.00000000000E+00  0.00000000000E+00  0.24171671012E+02  0.24171671012E+02  0.00000000000E+00 0. -1.
          2   -1    0    0  501    0  0.00000000000E+00 -0.00000000000E+00 -0.78562475518E+03  0.78562475518E+03  0.00000000000E+00 0. -1.
         35    2    1    2    0    0  0.00000000000E+00  0.00000000000E+00 -0.76145308417E+03  0.80979642620E+03  0.27560742458E+03 0.  0.
         25    1    3    3    0    0  0.21535551891E+02 -0.42127209179E+02 -0.23824897859E+03  0.27092629542E+03  0.12000000000E+03 0.  0.
         25    1    3    3    0    0 -0.21535551891E+02  0.42127209179E+02 -0.52320410558E+03  0.53887013078E+03  0.12000000000E+03 0.  0.
<mgrwt>
<rscale>  0 0.27560742E+03</rscale>
<asrwt>0</asrwt>
<pdfrwt beam="1">  1        2 0.12086536E+00 0.27560742E+03</pdfrwt>
<pdfrwt beam="2">  1       -2 0.37187182E-02 0.27560742E+03</pdfrwt>
<totfact> 0.11102509E+04</totfact>
</mgrwt>
</event>
<event>
 5    1  0.1122238E+001  0.2753688E+03  0.7818608E-02  0.1098246E+00
         -2   -1    0    0    0  501 -0.00000000000E+00  0.00000000000E+00  0.95504263609E+01  0.95504263609E+01  0.00000000000E+00 0. -1.
          2   -1    0    0  501    0  0.00000000000E+00 -0.00000000000E+00 -0.19849374479E+04  0.19849374479E+04  0.00000000000E+00 0. -1.
         35    2    1    2    0    0  0.00000000000E+00  0.00000000000E+00 -0.19753870215E+04  0.19944878743E+04  0.27536883576E+03 0.  0.
         25    1    3    3    0    0  0.46937084403E+02 -0.48305784718E+02 -0.95493142629E+03  0.96479560926E+03  0.12000000000E+03 0.  0.
         25    1    3    3    0    0 -0.46937084403E+02  0.48305784718E+02 -0.10204555953E+04  0.10296922650E+04  0.12000000000E+03 0.  0.
<mgrwt>
<rscale>  0 0.27536884E+03</rscale>
<asrwt>0</asrwt>
<pdfrwt beam="1">  1        2 0.30537495E+00 0.27536884E+03</pdfrwt>
<pdfrwt beam="2">  1       -2 0.14692966E-02 0.27536884E+03</pdfrwt>
<totfact> 0.92013329E+03</totfact>
</mgrwt>
</event>
<event>
 5    1  0.1122238E+001  0.2757648E+03  0.7818608E-02  0.1098025E+00
         -4   -1    0    0    0  501 -0.00000000000E+00  0.00000000000E+00  0.22221836606E+03  0.22221836606E+03  0.00000000000E+00 0.  1.
          4   -1    0    0  501    0  0.00000000000E+00 -0.00000000000E+00 -0.85553470158E+02  0.85553470158E+02  0.00000000000E+00 0.  1.
         35    2    1    2    0    0  0.00000000000E+00  0.00000000000E+00  0.13666489590E+03  0.30777183622E+03  0.27576477186E+03 0.  0.
         25    1    3    3    0    0 -0.23772373368E+02 -0.63253206754E+02  0.75857290163E+02  0.15722729525E+03  0.12000000000E+03 0.  0.
         25    1    3    3    0    0  0.23772373368E+02  0.63253206754E+02  0.60807605740E+02  0.15054454097E+03  0.12000000000E+03 0.  0.
<mgrwt>
<rscale>  0 0.27576477E+03</rscale>
<asrwt>0</asrwt>
<pdfrwt beam="1">  1        4 0.13162072E-01 0.27576477E+03</pdfrwt>
<pdfrwt beam="2">  1       -4 0.34187441E-01 0.27576477E+03</pdfrwt>
<totfact> 0.73503851E+02</totfact>
</mgrwt>
</event>
<event>
 5    1  0.1122238E+001  0.2739955E+03  0.7818608E-02  0.1099014E+00
          2   -1    0    0  501    0  0.00000000000E+00  0.00000000000E+00  0.13357545669E+04  0.13357545669E+04  0.00000000000E+00 0. -1.
         -2   -1    0    0    0  501 -0.00000000000E+00 -0.00000000000E+00 -0.14050771886E+02  0.14050771886E+02  0.00000000000E+00 0. -1.
         35    2    1    2    0    0  0.00000000000E+00  0.00000000000E+00  0.13217037951E+04  0.13498053388E+04  0.27399549424E+03 0.  0.
         25    1    3    3    0    0  0.64464632637E+02 -0.10835959024E+02  0.70893795029E+03  0.72198762055E+03  0.12000000000E+03 0.  0.
         25    1    3    3    0    0 -0.64464632637E+02  0.10835959024E+02  0.61276584477E+03  0.62781771828E+03  0.12000000000E+03 0.  0.
<mgrwt>
<rscale>  0 0.27399549E+03</rscale>
<asrwt>0</asrwt>
<pdfrwt beam="1">  1        2 0.20550060E+00 0.27399549E+03</pdfrwt>
<pdfrwt beam="2">  1       -2 0.21616583E-02 0.27399549E+03</pdfrwt>
<totfact> 0.11545638E+04</totfact>
</mgrwt>
</event>
<event>
 5    1  0.1122238E+001  0.2756249E+03  0.7818608E-02  0.1098103E+00
          3   -1    0    0  501    0  0.00000000000E+00  0.00000000000E+00  0.56508874659E+02  0.56508874659E+02  0.00000000000E+00 0.  1.
         -3   -1    0    0    0  501 -0.00000000000E+00 -0.00000000000E+00 -0.33609353337E+03  0.33609353337E+03  0.00000000000E+00 0.  1.
         35    2    1    2    0    0  0.00000000000E+00  0.00000000000E+00 -0.27958465871E+03  0.39260240803E+03  0.27562487080E+03 0.  0.
         25    1    3    3    0    0 -0.29236443269E+02 -0.64390032814E+01 -0.53195356800E+02  0.13463274625E+03  0.12000000000E+03 0.  0.
         25    1    3    3    0    0  0.29236443269E+02  0.64390032814E+01 -0.22638930191E+03  0.25796966178E+03  0.12000000000E+03 0.  0.
<mgrwt>
<rscale>  0 0.27562487E+03</rscale>
<asrwt>0</asrwt>
<pdfrwt beam="1">  1        3 0.86936730E-02 0.27562487E+03</pdfrwt>
<pdfrwt beam="2">  1       -3 0.51706698E-01 0.27562487E+03</pdfrwt>
<totfact> 0.88328202E+02</totfact>
</mgrwt>
</event>
<event>
 5    1  0.1122238E+001  0.2749483E+03  0.7818608E-02  0.1098481E+00
         -1   -1    0    0    0  501 -0.00000000000E+00  0.00000000000E+00  0.75279567246E+01  0.75279567246E+01  0.00000000000E+00 0.  1.
          1   -1    0    0  501    0  0.00000000000E+00 -0.00000000000E+00 -0.25105269461E+04  0.25105269461E+04  0.00000000000E+00 0.  1.
         35    2    1    2    0    0  0.00000000000E+00  0.00000000000E+00 -0.25029989894E+04  0.25180549028E+04  0.27494827300E+03 0.  0.
         25    1    3    3    0    0  0.13122412409E+01 -0.25490010308E+02 -0.18195846277E+04  0.18237158989E+04  0.12000000000E+03 0.  0.
         25    1    3    3    0    0 -0.13122412409E+01  0.25490010308E+02 -0.68341436169E+03  0.69433900392E+03  0.12000000000E+03 0.  0.
<mgrwt>
<rscale>  0 0.27494827E+03</rscale>
<asrwt>0</asrwt>
<pdfrwt beam="1">  1        1 0.38623446E+00 0.27494827E+03</pdfrwt>
<pdfrwt beam="2">  1       -1 0.11581486E-02 0.27494827E+03</pdfrwt>
<totfact> 0.23723046E+03</totfact>
</mgrwt>
</event>
<event>
 5    1  0.1122238E+001  0.2777777E+03  0.7818608E-02  0.1096909E+00
         -1   -1    0    0    0  501 -0.00000000000E+00  0.00000000000E+00  0.96735731546E+01  0.96735731546E+01  0.00000000000E+00 0. -1.
          1   -1    0    0  501    0  0.00000000000E+00 -0.00000000000E+00 -0.19941045237E+04  0.19941045237E+04  0.00000000000E+00 0. -1.
         35    2    1    2    0    0  0.00000000000E+00  0.00000000000E+00 -0.19844309506E+04  0.20037780969E+04  0.27777772400E+03 0.  0.
         25    1    3    3    0    0 -0.99982700073E+01 -0.69176115617E+02 -0.10080453694E+04  0.10175660996E+04  0.12000000000E+03 0.  0.
         25    1    3    3    0    0  0.99982700073E+01  0.69176115617E+02 -0.97638558121E+03  0.98621199728E+03  0.12000000000E+03 0.  0.
<mgrwt>
<rscale>  0 0.27777772E+03</rscale>
<asrwt>0</asrwt>
<pdfrwt beam="1">  1        1 0.30678561E+00 0.27777772E+03</pdfrwt>
<pdfrwt beam="2">  1       -1 0.14882406E-02 0.27777772E+03</pdfrwt>
<totfact> 0.35933509E+03</totfact>
</mgrwt>
</event>
<event>
 5    1  0.1122238E+001  0.2741640E+03  0.7818608E-02  0.1098920E+00
         -2   -1    0    0    0  501 -0.00000000000E+00  0.00000000000E+00  0.66548924258E+02  0.66548924258E+02  0.00000000000E+00 0. -1.
          2   -1    0    0  501    0  0.00000000000E+00 -0.00000000000E+00 -0.28237075756E+03  0.28237075756E+03  0.00000000000E+00 0. -1.
         35    2    1    2    0    0  0.00000000000E+00  0.00000000000E+00 -0.21582183330E+03  0.34891968181E+03  0.27416396669E+03 0.  0.
         25    1    3    3    0    0  0.48308353710E+02  0.19002698902E+01 -0.50229960863E+02  0.13878168839E+03  0.12000000000E+03 0.  0.
         25    1    3    3    0    0 -0.48308353710E+02 -0.19002698902E+01 -0.16559187244E+03  0.21013799342E+03  0.12000000000E+03 0.  0.
<mgrwt>
<rscale>  0 0.27416397E+03</rscale>
<asrwt>0</asrwt>
<pdfrwt beam="1">  1        2 0.43441655E-01 0.27416397E+03</pdfrwt>
<pdfrwt beam="2">  1       -2 0.10238296E-01 0.27416397E+03</pdfrwt>
<totfact> 0.74049493E+03</totfact>
</mgrwt>
</event>
<event>
 5    1  0.1122238E+001  0.2772925E+03  0.7818608E-02  0.1097177E+00
          1   -1    0    0  501    0  0.00000000000E+00  0.00000000000E+00  0.89103653790E+03  0.89103653790E+03  0.00000000000E+00 0. -1.
         -1   -1    0    0    0  501 -0.00000000000E+00 -0.00000000000E+00 -0.21573503877E+02  0.21573503877E+02  0.00000000000E+00 0. -1.
         35    2    1    2    0    0  0.00000000000E+00  0.00000000000E+00  0.86946303403E+03  0.91261004178E+03  0.27729248245E+03 0.  0.
         25    1    3    3    0    0 -0.32176298371E+02 -0.71139816680E+01  0.63591874361E+03  0.64798037886E+03  0.12000000000E+03 0.  0.
         25    1    3    3    0    0  0.32176298371E+02  0.71139816680E+01  0.23354429042E+03  0.26462966292E+03  0.12000000000E+03 0.  0.
<mgrwt>
<rscale>  0 0.27729248E+03</rscale>
<asrwt>0</asrwt>
<pdfrwt beam="1">  1        1 0.13708252E+00 0.27729248E+03</pdfrwt>
<pdfrwt beam="2">  1       -1 0.33190013E-02 0.27729248E+03</pdfrwt>
<totfact> 0.62972479E+03</totfact>
</mgrwt>
</event>
<event>
 5    1  0.1122238E+001  0.2758860E+03  0.7818608E-02  0.1097957E+00
         -2   -1    0    0    0  501 -0.00000000000E+00  0.00000000000E+00  0.27944644351E+02  0.27944644351E+02  0.00000000000E+00 0.  1.
          2   -1    0    0  501    0  0.00000000000E+00 -0.00000000000E+00 -0.68092711739E+03  0.68092711739E+03  0.00000000000E+00 0.  1.
         35    2    1    2    0    0  0.00000000000E+00  0.00000000000E+00 -0.65298247304E+03  0.70887176175E+03  0.27588596285E+03 0.  0.
         25    1    3    3    0    0 -0.31795094291E+02  0.56475331619E+02 -0.27334206004E+03  0.30547712335E+03  0.12000000000E+03 0.  0.
         25    1    3    3    0    0  0.31795094291E+02 -0.56475331619E+02 -0.37964041300E+03  0.40339463839E+03  0.12000000000E+03 0.  0.
<mgrwt>
<rscale>  0 0.27588596E+03</rscale>
<asrwt>0</asrwt>
<pdfrwt beam="1">  1        2 0.10475802E+00 0.27588596E+03</pdfrwt>
<pdfrwt beam="2">  1       -2 0.42991760E-02 0.27588596E+03</pdfrwt>
<totfact> 0.10646637E+04</totfact>
</mgrwt>
</event>
<event>
 5    1  0.1122238E+001  0.2770595E+03  0.7818608E-02  0.1097306E+00
          1   -1    0    0  501    0  0.00000000000E+00  0.00000000000E+00  0.21084711843E+03  0.21084711843E+03  0.00000000000E+00 0. -1.
         -1   -1    0    0    0  501 -0.00000000000E+00 -0.00000000000E+00 -0.91016139360E+02  0.91016139360E+02  0.00000000000E+00 0. -1.
         35    2    1    2    0    0  0.00000000000E+00  0.00000000000E+00  0.11983097907E+03  0.30186325779E+03  0.27705949336E+03 0.  0.
         25    1    3    3    0    0 -0.44185805631E+02 -0.39981484946E+02  0.98275222741E+02  0.16615933306E+03  0.12000000000E+03 0.  0.
         25    1    3    3    0    0  0.44185805631E+02  0.39981484946E+02  0.21555756334E+02  0.13570392474E+03  0.12000000000E+03 0.  0.
<mgrwt>
<rscale>  0 0.27705949E+03</rscale>
<asrwt>0</asrwt>
<pdfrwt beam="1">  1        1 0.32438018E-01 0.27705949E+03</pdfrwt>
<pdfrwt beam="2">  1       -1 0.14002483E-01 0.27705949E+03</pdfrwt>
<totfact> 0.48875966E+03</totfact>
</mgrwt>
</event>
<event>
 5    1  0.1122238E+001  0.2750038E+03  0.7818608E-02  0.1098449E+00
          2   -1    0    0  501    0  0.00000000000E+00  0.00000000000E+00  0.97809066313E+02  0.97809066313E+02  0.00000000000E+00 0. -1.
         -2   -1    0    0    0  501 -0.00000000000E+00 -0.00000000000E+00 -0.19330290865E+03  0.19330290865E+03  0.00000000000E+00 0. -1.
         35    2    1    2    0    0  0.00000000000E+00  0.00000000000E+00 -0.95493842335E+02  0.29111197496E+03  0.27500383278E+03 0.  0.
         25    1    3    3    0    0 -0.63863255779E+02  0.20605456311E+02 -0.49776719530E+02  0.14622182490E+03  0.12000000000E+03 0.  0.
         25    1    3    3    0    0  0.63863255779E+02 -0.20605456311E+02 -0.45717122805E+02  0.14489015007E+03  0.12000000000E+03 0.  0.
<mgrwt>
<rscale>  0 0.27500383E+03</rscale>
<asrwt>0</asrwt>
<pdfrwt beam="1">  1        2 0.15047549E-01 0.27500383E+03</pdfrwt>
<pdfrwt beam="2">  1       -2 0.29738909E-01 0.27500383E+03</pdfrwt>
<totfact> 0.40117669E+03</totfact>
</mgrwt>
</event>
<event>
 5    1  0.1122238E+001  0.2753516E+03  0.7818608E-02  0.1098255E+00
         -2   -1    0    0    0  501 -0.00000000000E+00  0.00000000000E+00  0.58766424932E+01  0.58766424932E+01  0.00000000000E+00 0.  1.
          2   -1    0    0  501    0  0.00000000000E+00 -0.00000000000E+00 -0.32254166841E+04  0.32254166841E+04  0.00000000000E+00 0.  1.
         35    2    1    2    0    0  0.00000000000E+00  0.00000000000E+00 -0.32195400416E+04  0.32312933266E+04  0.27535156251E+03 0.  0.
         25    1    3    3    0    0  0.20722779104E+01  0.40081902041E+02 -0.22464784425E+04  0.22500391654E+04  0.12000000000E+03 0.  0.
         25    1    3    3    0    0 -0.20722779104E+01 -0.40081902041E+02 -0.97306159909E+03  0.98125416118E+03  0.12000000000E+03 0.  0.
<mgrwt>
<rscale>  0 0.27535156E+03</rscale>
<asrwt>0</asrwt>
<pdfrwt beam="1">  1        2 0.49621612E+00 0.27535156E+03</pdfrwt>
<pdfrwt beam="2">  1       -2 0.90410218E-03 0.27535156E+03</pdfrwt>
<totfact> 0.37539572E+03</totfact>
</mgrwt>
</event>
<event>
 5    1  0.1122238E+001  0.2725713E+03  0.7818608E-02  0.1099817E+00
          2   -1    0    0  501    0  0.00000000000E+00  0.00000000000E+00  0.37501018653E+04  0.37501018653E+04  0.00000000000E+00 0.  1.
         -2   -1    0    0    0  501 -0.00000000000E+00 -0.00000000000E+00 -0.49528718677E+01  0.49528718677E+01  0.00000000000E+00 0.  1.
         35    2    1    2    0    0  0.00000000000E+00  0.00000000000E+00  0.37451489934E+04  0.37550547371E+04  0.27257126796E+03 0.  0.
         25    1    3    3    0    0  0.14505878254E+02  0.59480419579E+02  0.15884217273E+04  0.15941241873E+04  0.12000000000E+03 0.  0.
         25    1    3    3    0    0 -0.14505878254E+02 -0.59480419579E+02  0.21567272661E+04  0.21609305498E+04  0.12000000000E+03 0.  0.
<mgrwt>
<rscale>  0 0.27257127E+03</rscale>
<asrwt>0</asrwt>
<pdfrwt beam="1">  1        2 0.57693648E+00 0.27257127E+03</pdfrwt>
<pdfrwt beam="2">  1       -2 0.76198328E-03 0.27257127E+03</pdfrwt>
<totfact> 0.21626047E+03</totfact>
</mgrwt>
</event>
<event>
 5    1  0.1122238E+001  0.2758855E+03  0.7818608E-02  0.1097958E+00
          2   -1    0    0  501    0  0.00000000000E+00  0.00000000000E+00  0.23377727054E+03  0.23377727054E+03  0.00000000000E+00 0.  1.
         -2   -1    0    0    0  501 -0.00000000000E+00 -0.00000000000E+00 -0.81394585539E+02  0.81394585539E+02  0.00000000000E+00 0.  1.
         35    2    1    2    0    0  0.00000000000E+00  0.00000000000E+00  0.15238268500E+03  0.31517185608E+03  0.27588551280E+03 0.  0.
         25    1    3    3    0    0 -0.58666954224E+02 -0.34000004150E+02  0.82489302746E+02  0.16063093372E+03  0.12000000000E+03 0.  0.
         25    1    3    3    0    0  0.58666954224E+02  0.34000004150E+02  0.69893382252E+02  0.15454092236E+03  0.12000000000E+03 0.  0.
<mgrwt>
<rscale>  0 0.27588551E+03</rscale>
<asrwt>0</asrwt>
<pdfrwt beam="1">  1        2 0.35965734E-01 0.27588551E+03</pdfrwt>
<pdfrwt beam="2">  1       -2 0.12522244E-01 0.27588551E+03</pdfrwt>
<totfact> 0.65712506E+03</totfact>
</mgrwt>
</event>
<event>
 5    1  0.1122238E+001  0.2754599E+03  0.7818608E-02  0.1098195E+00
         -1   -1    0    0    0  501 -0.00000000000E+00  0.00000000000E+00  0.54250929641E+01  0.54250929641E+01  0.00000000000E+00 0.  1.
          1   -1    0    0  501    0  0.00000000000E+00 -0.00000000000E+00 -0.34966285982E+04  0.34966285982E+04  0.00000000000E+00 0.  1.
         35    2    1    2    0    0  0.00000000000E+00  0.00000000000E+00 -0.34912035052E+04  0.35020536912E+04  0.27545987153E+03 0.  0.
         25    1    3    3    0    0  0.33440737085E+02  0.34589784943E+02 -0.23492978727E+04  0.23528525731E+04  0.12000000000E+03 0.  0.
         25    1    3    3    0    0 -0.33440737085E+02 -0.34589784943E+02 -0.11419056326E+04  0.11492011181E+04  0.12000000000E+03 0.  0.
<mgrwt>
<rscale>  0 0.27545987E+03</rscale>
<asrwt>0</asrwt>
<pdfrwt beam="1">  1        1 0.53794161E+00 0.27545987E+03</pdfrwt>
<pdfrwt beam="2">  1       -1 0.83463162E-03 0.27545987E+03</pdfrwt>
<totfact> 0.77087135E+02</totfact>
</mgrwt>
</event>
<event>
 5    1  0.1122238E+001  0.2747999E+03  0.7818608E-02  0.1098563E+00
         -2   -1    0    0    0  501 -0.00000000000E+00  0.00000000000E+00  0.10596660903E+02  0.10596660903E+02  0.00000000000E+00 0.  1.
          2   -1    0    0  501    0  0.00000000000E+00 -0.00000000000E+00 -0.17815751890E+04  0.17815751890E+04  0.00000000000E+00 0.  1.
         35    2    1    2    0    0  0.00000000000E+00  0.00000000000E+00 -0.17709785281E+04  0.17921718499E+04  0.27479991377E+03 0.  0.
         25    1    3    3    0    0  0.31505556114E+02  0.21402556617E+02 -0.12443670983E+04  0.12507198506E+04  0.12000000000E+03 0.  0.
         25    1    3    3    0    0 -0.31505556114E+02 -0.21402556617E+02 -0.52661142981E+03  0.54145199926E+03  0.12000000000E+03 0.  0.
<mgrwt>
<rscale>  0 0.27479991E+03</rscale>
<asrwt>0</asrwt>
<pdfrwt beam="1">  1        2 0.27408887E+00 0.27479991E+03</pdfrwt>
<pdfrwt beam="2">  1       -2 0.16302533E-02 0.27479991E+03</pdfrwt>
<totfact> 0.10105219E+04</totfact>
</mgrwt>
</event>
<event>
 5    1  0.1122238E+001  0.2806378E+03  0.7818608E-02  0.1095341E+00
         -2   -1    0    0    0  501 -0.00000000000E+00  0.00000000000E+00  0.26958398452E+02  0.26958398452E+02  0.00000000000E+00 0.  1.
          2   -1    0    0  501    0  0.00000000000E+00 -0.00000000000E+00 -0.73036213680E+03  0.73036213680E+03  0.00000000000E+00 0.  1.
         35    2    1    2    0    0  0.00000000000E+00  0.00000000000E+00 -0.70340373835E+03  0.75732053525E+03  0.28063779858E+03 0.  0.
         25    1    3    3    0    0 -0.13412440321E+02 -0.70092298513E+02 -0.31386703971E+03  0.34351905694E+03  0.12000000000E+03 0.  0.
         25    1    3    3    0    0  0.13412440321E+02  0.70092298513E+02 -0.38953669864E+03  0.41380147831E+03  0.12000000000E+03 0.  0.
<mgrwt>
<rscale>  0 0.28063780E+03</rscale>
<asrwt>0</asrwt>
<pdfrwt beam="1">  1        2 0.11236340E+00 0.28063780E+03</pdfrwt>
<pdfrwt beam="2">  1       -2 0.41474462E-02 0.28063780E+03</pdfrwt>
<totfact> 0.10326768E+04</totfact>
</mgrwt>
</event>
<event>
 5    1  0.1122238E+001  0.2742209E+03  0.7818608E-02  0.1098888E+00
          1   -1    0    0  501    0  0.00000000000E+00  0.00000000000E+00  0.18889342379E+03  0.18889342379E+03  0.00000000000E+00 0. -1.
         -1   -1    0    0    0  501 -0.00000000000E+00 -0.00000000000E+00 -0.99523210315E+02  0.99523210315E+02  0.00000000000E+00 0. -1.
         35    2    1    2    0    0  0.00000000000E+00  0.00000000000E+00  0.89370213470E+02  0.28841663410E+03  0.27422093241E+03 0.  0.
         25    1    3    3    0    0  0.54015906481E+02  0.12963502043E+02  0.65665635603E+01  0.13239671558E+03  0.12000000000E+03 0.  0.
         25    1    3    3    0    0 -0.54015906481E+02 -0.12963502043E+02  0.82803649909E+02  0.15601991852E+03  0.12000000000E+03 0.  0.
<mgrwt>
<rscale>  0 0.27422093E+03</rscale>
<asrwt>0</asrwt>
<pdfrwt beam="1">  1        1 0.29060527E-01 0.27422093E+03</pdfrwt>
<pdfrwt beam="2">  1       -1 0.15311263E-01 0.27422093E+03</pdfrwt>
<totfact> 0.48718709E+03</totfact>
</mgrwt>
</event>
<event>
 5    1  0.1122238E+001  0.2749918E+03  0.7818608E-02  0.1098456E+00
         -1   -1    0    0    0  501 -0.00000000000E+00  0.00000000000E+00  0.11889681021E+02  0.11889681021E+02  0.00000000000E+00 0. -1.
          1   -1    0    0  501    0  0.00000000000E+00 -0.00000000000E+00 -0.15900442677E+04  0.15900442677E+04  0.00000000000E+00 0. -1.
         35    2    1    2    0    0  0.00000000000E+00  0.00000000000E+00 -0.15781545867E+04  0.16019339487E+04  0.27499177553E+03 0.  0.
         25    1    3    3    0    0 -0.65570356708E+02  0.12931892715E+02 -0.75297227719E+03  0.76539790681E+03  0.12000000000E+03 0.  0.
         25    1    3    3    0    0  0.65570356708E+02 -0.12931892715E+02 -0.82518230950E+03  0.83653604192E+03  0.12000000000E+03 0.  0.
<mgrwt>
<rscale>  0 0.27499178E+03</rscale>
<asrwt>0</asrwt>
<pdfrwt beam="1">  1        1 0.24462226E+00 0.27499178E+03</pdfrwt>
<pdfrwt beam="2">  1       -1 0.18291812E-02 0.27499178E+03</pdfrwt>
<totfact> 0.48761698E+03</totfact>
</mgrwt>
</event>
<event>
 5    1  0.1122238E+001  0.2743626E+03  0.7818608E-02  0.1098808E+00
         -2   -1    0    0    0  501 -0.00000000000E+00  0.00000000000E+00  0.81955792456E+03  0.81955792456E+03  0.00000000000E+00 0.  1.
          2   -1    0    0  501    0  0.00000000000E+00 -0.00000000000E+00 -0.22962027304E+02  0.22962027304E+02  0.00000000000E+00 0.  1.
         35    2    1    2    0    0  0.00000000000E+00  0.00000000000E+00  0.79659589726E+03  0.84251995186E+03  0.27436261729E+03 0.  0.
         25    1    3    3    0    0 -0.55359140565E+02 -0.18105485456E+02  0.49667317259E+03  0.51427296587E+03  0.12000000000E+03 0.  0.
         25    1    3    3    0    0  0.55359140565E+02  0.18105485456E+02  0.29992272466E+03  0.32824698600E+03  0.12000000000E+03 0.  0.
<mgrwt>
<rscale>  0 0.27436262E+03</rscale>
<asrwt>0</asrwt>
<pdfrwt beam="1">  1        2 0.35326202E-02 0.27436262E+03</pdfrwt>
<pdfrwt beam="2">  1       -2 0.12608581E+00 0.27436262E+03</pdfrwt>
<totfact> 0.12330559E+03</totfact>
</mgrwt>
</event>
<event>
 5    1  0.1122238E+001  0.2746896E+03  0.7818608E-02  0.1098625E+00
         -4   -1    0    0    0  501 -0.00000000000E+00  0.00000000000E+00  0.16988735331E+02  0.16988735331E+02  0.00000000000E+00 0.  1.
          4   -1    0    0  501    0  0.00000000000E+00 -0.00000000000E+00 -0.11103587679E+04  0.11103587679E+04  0.00000000000E+00 0.  1.
         35    2    1    2    0    0  0.00000000000E+00  0.00000000000E+00 -0.10933700326E+04  0.11273475033E+04  0.27468957920E+03 0.  0.
         25    1    3    3    0    0  0.53182997499E+02 -0.21592284432E+02 -0.68700207783E+03  0.69976175440E+03  0.12000000000E+03 0.  0.
         25    1    3    3    0    0 -0.53182997499E+02  0.21592284432E+02 -0.40636795476E+03  0.42758574886E+03  0.12000000000E+03 0.  0.
<mgrwt>
<rscale>  0 0.27468958E+03</rscale>
<asrwt>0</asrwt>
<pdfrwt beam="1">  1        4 0.17082440E+00 0.27468958E+03</pdfrwt>
<pdfrwt beam="2">  1       -4 0.26136520E-02 0.27468958E+03</pdfrwt>
<totfact> 0.28094343E+02</totfact>
</mgrwt>
</event>
<event>
 5    1  0.1122238E+001  0.2762159E+03  0.7818608E-02  0.1097774E+00
         -2   -1    0    0    0  501 -0.00000000000E+00  0.00000000000E+00  0.90036315228E+01  0.90036315228E+01  0.00000000000E+00 0. -1.
          2   -1    0    0  501    0  0.00000000000E+00 -0.00000000000E+00 -0.21184570858E+04  0.21184570858E+04  0.00000000000E+00 0. -1.
         35    2    1    2    0    0  0.00000000000E+00  0.00000000000E+00 -0.21094534543E+04  0.21274607173E+04  0.27621590828E+03 0.  0.
         25    1    3    3    0    0  0.57603286909E+02  0.26365975763E+02 -0.12526744342E+04  0.12600025958E+04  0.12000000000E+03 0.  0.
         25    1    3    3    0    0 -0.57603286909E+02 -0.26365975763E+02 -0.85677902011E+03  0.86745812155E+03  0.12000000000E+03 0.  0.
<mgrwt>
<rscale>  0 0.27621591E+03</rscale>
<asrwt>0</asrwt>
<pdfrwt beam="1">  1        2 0.32591672E+00 0.27621591E+03</pdfrwt>
<pdfrwt beam="2">  1       -2 0.13851730E-02 0.27621591E+03</pdfrwt>
<totfact> 0.85285078E+03</totfact>
</mgrwt>
</event>
<event>
 5    1  0.1122238E+001  0.2750347E+03  0.7818608E-02  0.1098432E+00
          2   -1    0    0  501    0  0.00000000000E+00  0.00000000000E+00  0.63526054490E+03  0.63526054490E+03  0.00000000000E+00 0. -1.
         -2   -1    0    0    0  501 -0.00000000000E+00 -0.00000000000E+00 -0.29768912405E+02  0.29768912405E+02  0.00000000000E+00 0. -1.
         35    2    1    2    0    0  0.00000000000E+00  0.00000000000E+00  0.60549163249E+03  0.66502945730E+03  0.27503465611E+03 0.  0.
         25    1    3    3    0    0 -0.65911033409E+02 -0.84953175496E+00  0.33390213037E+03  0.36088172397E+03  0.12000000000E+03 0.  0.
         25    1    3    3    0    0  0.65911033409E+02  0.84953175496E+00  0.27158950213E+03  0.30414773334E+03  0.12000000000E+03 0.  0.
<mgrwt>
<rscale>  0 0.27503466E+03</rscale>
<asrwt>0</asrwt>
<pdfrwt beam="1">  1        2 0.97732381E-01 0.27503466E+03</pdfrwt>
<pdfrwt beam="2">  1       -2 0.45798332E-02 0.27503466E+03</pdfrwt>
<totfact> 0.10508971E+04</totfact>
</mgrwt>
</event>
<event>
 5    1  0.1122238E+001  0.2749145E+03  0.7818608E-02  0.1098499E+00
         -1   -1    0    0    0  501 -0.00000000000E+00  0.00000000000E+00  0.52510251182E+02  0.52510251182E+02  0.00000000000E+00 0.  1.
          1   -1    0    0  501    0  0.00000000000E+00 -0.00000000000E+00 -0.35982497631E+03  0.35982497631E+03  0.00000000000E+00 0.  1.
         35    2    1    2    0    0  0.00000000000E+00  0.00000000000E+00 -0.30731472513E+03  0.41233522750E+03  0.27491453136E+03 0.  0.
         25    1    3    3    0    0 -0.51964053238E+02  0.40934909611E+02 -0.16998940810E+03  0.21833993799E+03  0.12000000000E+03 0.  0.
         25    1    3    3    0    0  0.51964053238E+02 -0.40934909611E+02 -0.13732531703E+03  0.19399528951E+03  0.12000000000E+03 0.  0.
<mgrwt>
<rscale>  0 0.27491453E+03</rscale>
<asrwt>0</asrwt>
<pdfrwt beam="1">  1        1 0.55357689E-01 0.27491453E+03</pdfrwt>
<pdfrwt beam="2">  1       -1 0.80785001E-02 0.27491453E+03</pdfrwt>
<totfact> 0.58547407E+03</totfact>
</mgrwt>
</event>
<event>
 5    1  0.1122238E+001  0.2752415E+03  0.7818608E-02  0.1098317E+00
         -4   -1    0    0    0  501 -0.00000000000E+00  0.00000000000E+00  0.26498091943E+03  0.26498091943E+03  0.00000000000E+00 0. -1.
          4   -1    0    0  501    0  0.00000000000E+00 -0.00000000000E+00 -0.71474856346E+02  0.71474856346E+02  0.00000000000E+00 0. -1.
         35    2    1    2    0    0  0.00000000000E+00  0.00000000000E+00  0.19350606309E+03  0.33645577578E+03  0.27524151686E+03 0.  0.
         25    1    3    3    0    0  0.53907078486E+02  0.72526853595E+01  0.14535636454E+03  0.19618115931E+03  0.12000000000E+03 0.  0.
         25    1    3    3    0    0 -0.53907078486E+02 -0.72526853595E+01  0.48149698549E+02  0.14027461647E+03  0.12000000000E+03 0.  0.
<mgrwt>
<rscale>  0 0.27524152E+03</rscale>
<asrwt>0</asrwt>
<pdfrwt beam="1">  1        4 0.10996132E-01 0.27524152E+03</pdfrwt>
<pdfrwt beam="2">  1       -4 0.40766295E-01 0.27524152E+03</pdfrwt>
<totfact> 0.70903623E+02</totfact>
</mgrwt>
</event>
<event>
 5    1  0.1122238E+001  0.2763132E+03  0.7818608E-02  0.1097720E+00
         -3   -1    0    0    0  501 -0.00000000000E+00  0.00000000000E+00  0.45836845762E+03  0.45836845762E+03  0.00000000000E+00 0.  1.
          3   -1    0    0  501    0  0.00000000000E+00 -0.00000000000E+00 -0.41641711832E+02  0.41641711832E+02  0.00000000000E+00 0.  1.
         35    2    1    2    0    0  0.00000000000E+00  0.00000000000E+00  0.41672674579E+03  0.50001016945E+03  0.27631320797E+03 0.  0.
         25    1    3    3    0    0 -0.14247877007E+02 -0.10637770366E+02  0.88724662722E+02  0.15029381202E+03  0.12000000000E+03 0.  0.
         25    1    3    3    0    0  0.14247877007E+02  0.10637770366E+02  0.32800208307E+03  0.34971635743E+03  0.12000000000E+03 0.  0.
<mgrwt>
<rscale>  0 0.27631321E+03</rscale>
<asrwt>0</asrwt>
<pdfrwt beam="1">  1        3 0.64064175E-02 0.27631321E+03</pdfrwt>
<pdfrwt beam="2">  1       -3 0.70518221E-01 0.27631321E+03</pdfrwt>
<totfact> 0.76242509E+02</totfact>
</mgrwt>
</event>
<event>
 5    1  0.1122238E+001  0.2749283E+03  0.7818608E-02  0.1098492E+00
         -1   -1    0    0    0  501 -0.00000000000E+00  0.00000000000E+00  0.40576268464E+02  0.40576268464E+02  0.00000000000E+00 0. -1.
          1   -1    0    0  501    0  0.00000000000E+00 -0.00000000000E+00 -0.46570044299E+03  0.46570044299E+03  0.00000000000E+00 0. -1.
         35    2    1    2    0    0  0.00000000000E+00  0.00000000000E+00 -0.42512417452E+03  0.50627671145E+03  0.27492825390E+03 0.  0.
         25    1    3    3    0    0 -0.61786384613E+02  0.24938867064E+02 -0.22645058212E+03  0.26480062416E+03  0.12000000000E+03 0.  0.
         25    1    3    3    0    0  0.61786384613E+02 -0.24938867064E+02 -0.19867359240E+03  0.24147608729E+03  0.12000000000E+03 0.  0.
<mgrwt>
<rscale>  0 0.27492825E+03</rscale>
<asrwt>0</asrwt>
<pdfrwt beam="1">  1        1 0.71646220E-01 0.27492825E+03</pdfrwt>
<pdfrwt beam="2">  1       -1 0.62425030E-02 0.27492825E+03</pdfrwt>
<totfact> 0.62138547E+03</totfact>
</mgrwt>
</event>
<event>
 5    1  0.1122238E+001  0.2746283E+03  0.7818608E-02  0.1098660E+00
         -1   -1    0    0    0  501 -0.00000000000E+00  0.00000000000E+00  0.17527530705E+02  0.17527530705E+02  0.00000000000E+00 0. -1.
          1   -1    0    0  501    0  0.00000000000E+00 -0.00000000000E+00 -0.10757460226E+04  0.10757460226E+04  0.00000000000E+00 0. -1.
         35    2    1    2    0    0  0.00000000000E+00  0.00000000000E+00 -0.10582184919E+04  0.10932735533E+04  0.27462826833E+03 0.  0.
         25    1    3    3    0    0 -0.33573716931E+02 -0.27367535925E+02 -0.32694290539E+03  0.35095276018E+03  0.12000000000E+03 0.  0.
         25    1    3    3    0    0  0.33573716931E+02  0.27367535925E+02 -0.73127558652E+03  0.74232079314E+03  0.12000000000E+03 0.  0.
<mgrwt>
<rscale>  0 0.27462827E+03</rscale>
<asrwt>0</asrwt>
<pdfrwt beam="1">  1        1 0.16549942E+00 0.27462827E+03</pdfrwt>
<pdfrwt beam="2">  1       -1 0.26965427E-02 0.27462827E+03</pdfrwt>
<totfact> 0.62030329E+03</totfact>
</mgrwt>
</event>
<event>
 5    1  0.1122238E+001  0.2742223E+03  0.7818608E-02  0.1098887E+00
         -2   -1    0    0    0  501 -0.00000000000E+00  0.00000000000E+00  0.12669009867E+02  0.12669009867E+02  0.00000000000E+00 0.  1.
          2   -1    0    0  501    0  0.00000000000E+00 -0.00000000000E+00 -0.14838937413E+04  0.14838937413E+04  0.00000000000E+00 0.  1.
         35    2    1    2    0    0  0.00000000000E+00  0.00000000000E+00 -0.14712247314E+04  0.14965627511E+04  0.27422227809E+03 0.  0.
         25    1    3    3    0    0 -0.31843476524E+02  0.53183315099E+02 -0.86441265860E+03  0.87490097517E+03  0.12000000000E+03 0.  0.
         25    1    3    3    0    0  0.31843476524E+02 -0.53183315099E+02 -0.60681207280E+03  0.62166177597E+03  0.12000000000E+03 0.  0.
<mgrwt>
<rscale>  0 0.27422228E+03</rscale>
<asrwt>0</asrwt>
<pdfrwt beam="1">  1        2 0.22829121E+00 0.27422228E+03</pdfrwt>
<pdfrwt beam="2">  1       -2 0.19490796E-02 0.27422228E+03</pdfrwt>
<totfact> 0.11175381E+04</totfact>
</mgrwt>
</event>
<event>
 5    1  0.1122238E+001  0.2754004E+03  0.7818608E-02  0.1098228E+00
          2   -1    0    0  501    0  0.00000000000E+00  0.00000000000E+00  0.14666621615E+04  0.14666621615E+04  0.00000000000E+00 0. -1.
         -2   -1    0    0    0  501 -0.00000000000E+00 -0.00000000000E+00 -0.12928230763E+02  0.12928230763E+02  0.00000000000E+00 0. -1.
         35    2    1    2    0    0  0.00000000000E+00  0.00000000000E+00  0.14537339307E+04  0.14795903922E+04  0.27540041303E+03 0.  0.
         25    1    3    3    0    0  0.52913258520E+01 -0.30446998956E+02  0.10495005604E+04  0.10567906340E+04  0.12000000000E+03 0.  0.
         25    1    3    3    0    0 -0.52913258520E+01  0.30446998956E+02  0.40423337034E+03  0.42279975824E+03  0.12000000000E+03 0.  0.
<mgrwt>
<rscale>  0 0.27540041E+03</rscale>
<asrwt>0</asrwt>
<pdfrwt beam="1">  1        2 0.22564020E+00 0.27540041E+03</pdfrwt>
<pdfrwt beam="2">  1       -2 0.19889597E-02 0.27540041E+03</pdfrwt>
<totfact> 0.11082027E+04</totfact>
</mgrwt>
</event>
<event>
 5    1  0.1122238E+001  0.2745880E+03  0.7818608E-02  0.1098682E+00
          2   -1    0    0  501    0  0.00000000000E+00  0.00000000000E+00  0.13263590868E+04  0.13263590868E+04  0.00000000000E+00 0.  1.
         -2   -1    0    0    0  501 -0.00000000000E+00 -0.00000000000E+00 -0.14211562937E+02  0.14211562937E+02  0.00000000000E+00 0.  1.
         35    2    1    2    0    0  0.00000000000E+00  0.00000000000E+00  0.13121475239E+04  0.13405706498E+04  0.27458795049E+03 0.  0.
         25    1    3    3    0    0 -0.16328593803E+02  0.54345683534E+02  0.82726556996E+03  0.83784747988E+03  0.12000000000E+03 0.  0.
         25    1    3    3    0    0  0.16328593803E+02 -0.54345683534E+02  0.48488195393E+03  0.50272316989E+03  0.12000000000E+03 0.  0.
<mgrwt>
<rscale>  0 0.27458795E+03</rscale>
<asrwt>0</asrwt>
<pdfrwt beam="1">  1        2 0.20405515E+00 0.27458795E+03</pdfrwt>
<pdfrwt beam="2">  1       -2 0.21863953E-02 0.27458795E+03</pdfrwt>
<totfact> 0.11490108E+04</totfact>
</mgrwt>
</event>
<event>
 5    1  0.1122238E+001  0.2735722E+03  0.7818608E-02  0.1099252E+00
         -2   -1    0    0    0  501 -0.00000000000E+00  0.00000000000E+00  0.83695174059E+02  0.83695174059E+02  0.00000000000E+00 0.  1.
          2   -1    0    0  501    0  0.00000000000E+00 -0.00000000000E+00 -0.22355452029E+03  0.22355452029E+03  0.00000000000E+00 0.  1.
         35    2    1    2    0    0  0.00000000000E+00  0.00000000000E+00 -0.13985934623E+03  0.30724969435E+03  0.27357218051E+03 0.  0.
         25    1    3    3    0    0  0.65293285634E+02  0.30263352282E+01 -0.76858647309E+02  0.15677890011E+03  0.12000000000E+03 0.  0.
         25    1    3    3    0    0 -0.65293285634E+02 -0.30263352282E+01 -0.63000698921E+02  0.15047079424E+03  0.12000000000E+03 0.  0.
<mgrwt>
<rscale>  0 0.27357218E+03</rscale>
<asrwt>0</asrwt>
<pdfrwt beam="1">  1        2 0.34393003E-01 0.27357218E+03</pdfrwt>
<pdfrwt beam="2">  1       -2 0.12876181E-01 0.27357218E+03</pdfrwt>
<totfact> 0.65908479E+03</totfact>
</mgrwt>
</event>
<event>
 5    1  0.1122238E+001  0.2651116E+03  0.7818608E-02  0.1104110E+00
         -1   -1    0    0    0  501 -0.00000000000E+00  0.00000000000E+00  0.80048480569E+02  0.80048480569E+02  0.00000000000E+00 0.  1.
          1   -1    0    0  501    0  0.00000000000E+00 -0.00000000000E+00 -0.21950491257E+03  0.21950491257E+03  0.00000000000E+00 0.  1.
         35    2    1    2    0    0  0.00000000000E+00  0.00000000000E+00 -0.13945643201E+03  0.29955339314E+03  0.26511155938E+03 0.  0.
         25    1    3    3    0    0  0.50622344114E+02  0.22580297487E+02 -0.80944754351E+02  0.15499853165E+03  0.12000000000E+03 0.  0.
         25    1    3    3    0    0 -0.50622344114E+02 -0.22580297487E+02 -0.58511677654E+02  0.14455486149E+03  0.12000000000E+03 0.  0.
<mgrwt>
<rscale>  0 0.26511156E+03</rscale>
<asrwt>0</asrwt>
<pdfrwt beam="1">  1        1 0.33769986E-01 0.26511156E+03</pdfrwt>
<pdfrwt beam="2">  1       -1 0.12315151E-01 0.26511156E+03</pdfrwt>
<totfact> 0.56766664E+03</totfact>
</mgrwt>
</event>
<event>
 5    1  0.1122238E+001  0.2742594E+03  0.7818608E-02  0.1098866E+00
          2   -1    0    0  501    0  0.00000000000E+00  0.00000000000E+00  0.54988303118E+03  0.54988303118E+03  0.00000000000E+00 0.  1.
         -2   -1    0    0    0  501 -0.00000000000E+00 -0.00000000000E+00 -0.34197375525E+02  0.34197375525E+02  0.00000000000E+00 0.  1.
         35    2    1    2    0    0  0.00000000000E+00  0.00000000000E+00  0.51568565565E+03  0.58408040670E+03  0.27425941378E+03 0.  0.
         25    1    3    3    0    0 -0.16304994757E+02 -0.27844482720E+02  0.13433354269E+03  0.18299363039E+03  0.12000000000E+03 0.  0.
         25    1    3    3    0    0  0.16304994757E+02  0.27844482720E+02  0.38135211296E+03  0.40108677631E+03  0.12000000000E+03 0.  0.
<mgrwt>
<rscale>  0 0.27425941E+03</rscale>
<asrwt>0</asrwt>
<pdfrwt beam="1">  1        2 0.84597383E-01 0.27425941E+03</pdfrwt>
<pdfrwt beam="2">  1       -2 0.52611351E-02 0.27425941E+03</pdfrwt>
<totfact> 0.10060828E+04</totfact>
</mgrwt>
</event>
<event>
 5    1  0.1122238E+001  0.2745949E+03  0.7818608E-02  0.1098678E+00
          2   -1    0    0  501    0  0.00000000000E+00  0.00000000000E+00  0.11613375259E+04  0.11613375259E+04  0.00000000000E+00 0. -1.
         -2   -1    0    0    0  501 -0.00000000000E+00 -0.00000000000E+00 -0.16231789728E+02  0.16231789728E+02  0.00000000000E+00 0. -1.
         35    2    1    2    0    0  0.00000000000E+00  0.00000000000E+00  0.11451057362E+04  0.11775693157E+04  0.27459487632E+03 0.  0.
         25    1    3    3    0    0 -0.61050925280E+02  0.19739213785E+02  0.49421087895E+03  0.51260242382E+03  0.12000000000E+03 0.  0.
         25    1    3    3    0    0  0.61050925280E+02 -0.19739213785E+02  0.65089485726E+03  0.66496689184E+03  0.12000000000E+03 0.  0.
<mgrwt>
<rscale>  0 0.27459488E+03</rscale>
<asrwt>0</asrwt>
<pdfrwt beam="1">  1        2 0.17866725E+00 0.27459488E+03</pdfrwt>
<pdfrwt beam="2">  1       -2 0.24971993E-02 0.27459488E+03</pdfrwt>
<totfact> 0.11688993E+04</totfact>
</mgrwt>
</event>
<event>
 5    1  0.1122238E+001  0.2736232E+03  0.7818608E-02  0.1099224E+00
          1   -1    0    0  501    0  0.00000000000E+00  0.00000000000E+00  0.35673247077E+03  0.35673247077E+03  0.00000000000E+00 0.  1.
         -1   -1    0    0    0  501 -0.00000000000E+00 -0.00000000000E+00 -0.52469058336E+02  0.52469058336E+02  0.00000000000E+00 0.  1.
         35    2    1    2    0    0  0.00000000000E+00  0.00000000000E+00  0.30426341243E+03  0.40920152911E+03  0.27362322138E+03 0.  0.
         25    1    3    3    0    0 -0.37820585420E+02  0.69679193971E+01  0.72455927693E+02  0.14535752488E+03  0.12000000000E+03 0.  0.
         25    1    3    3    0    0  0.37820585420E+02 -0.69679193971E+01  0.23180748474E+03  0.26384400422E+03  0.12000000000E+03 0.  0.
<mgrwt>
<rscale>  0 0.27362322E+03</rscale>
<asrwt>0</asrwt>
<pdfrwt beam="1">  1        1 0.54881917E-01 0.27362322E+03</pdfrwt>
<pdfrwt beam="2">  1       -1 0.80721630E-02 0.27362322E+03</pdfrwt>
<totfact> 0.59254882E+03</totfact>
</mgrwt>
</event>
<event>
 5    1  0.1122238E+001  0.2745260E+03  0.7818608E-02  0.1098717E+00
         -1   -1    0    0    0  501 -0.00000000000E+00  0.00000000000E+00  0.34858423484E+02  0.34858423484E+02  0.00000000000E+00 0.  1.
          1   -1    0    0  501    0  0.00000000000E+00 -0.00000000000E+00 -0.54050426585E+03  0.54050426585E+03  0.00000000000E+00 0.  1.
         35    2    1    2    0    0  0.00000000000E+00  0.00000000000E+00 -0.50564584236E+03  0.57536268933E+03  0.27452596667E+03 0.  0.
         25    1    3    3    0    0  0.62753749096E+02  0.21676923325E+02 -0.26489986795E+03  0.29829492465E+03  0.12000000000E+03 0.  0.
         25    1    3    3    0    0 -0.62753749096E+02 -0.21676923325E+02 -0.24074597441E+03  0.27706776468E+03  0.12000000000E+03 0.  0.
<mgrwt>
<rscale>  0 0.27452597E+03</rscale>
<asrwt>0</asrwt>
<pdfrwt beam="1">  1        1 0.83154500E-01 0.27452597E+03</pdfrwt>
<pdfrwt beam="2">  1       -1 0.53628345E-02 0.27452597E+03</pdfrwt>
<totfact> 0.64068943E+03</totfact>
</mgrwt>
</event>
<event>
 5    1  0.1122238E+001  0.2749407E+03  0.7818608E-02  0.1098485E+00
          2   -1    0    0  501    0  0.00000000000E+00  0.00000000000E+00  0.67193215141E+03  0.67193215141E+03  0.00000000000E+00 0. -1.
         -2   -1    0    0    0  501 -0.00000000000E+00 -0.00000000000E+00 -0.28125017909E+02  0.28125017909E+02  0.00000000000E+00 0. -1.
         35    2    1    2    0    0  0.00000000000E+00  0.00000000000E+00  0.64380713350E+03  0.70005716932E+03  0.27494074847E+03 0.  0.
         25    1    3    3    0    0 -0.16875891268E+02 -0.58040037423E+02  0.24790285249E+03  0.28197387454E+03  0.12000000000E+03 0.  0.
         25    1    3    3    0    0  0.16875891268E+02  0.58040037423E+02  0.39590428101E+03  0.41808329478E+03  0.12000000000E+03 0.  0.
<mgrwt>
<rscale>  0 0.27494075E+03</rscale>
<asrwt>0</asrwt>
<pdfrwt beam="1">  1        2 0.10337417E+00 0.27494075E+03</pdfrwt>
<pdfrwt beam="2">  1       -2 0.43269263E-02 0.27494075E+03</pdfrwt>
<totfact> 0.10712097E+04</totfact>
</mgrwt>
</event>
<event>
 5    1  0.1122238E+001  0.2748068E+03  0.7818608E-02  0.1098560E+00
          4   -1    0    0  501    0  0.00000000000E+00  0.00000000000E+00  0.24079579790E+03  0.24079579790E+03  0.00000000000E+00 0.  1.
         -4   -1    0    0    0  501 -0.00000000000E+00 -0.00000000000E+00 -0.78405397271E+02  0.78405397271E+02  0.00000000000E+00 0.  1.
         35    2    1    2    0    0  0.00000000000E+00  0.00000000000E+00  0.16239040062E+03  0.31920119517E+03  0.27480676990E+03 0.  0.
         25    1    3    3    0    0  0.28343827131E+01  0.55820716859E+02  0.12396325792E+03  0.18135841715E+03  0.12000000000E+03 0.  0.
         25    1    3    3    0    0 -0.28343827131E+01 -0.55820716859E+02  0.38427142707E+02  0.13784277802E+03  0.12000000000E+03 0.  0.
<mgrwt>
<rscale>  0 0.27480677E+03</rscale>
<asrwt>0</asrwt>
<pdfrwt beam="1">  1        4 0.37045507E-01 0.27480677E+03</pdfrwt>
<pdfrwt beam="2">  1       -4 0.12062369E-01 0.27480677E+03</pdfrwt>
<totfact> 0.73059482E+02</totfact>
</mgrwt>
</event>
<event>
 5    1  0.1122238E+001  0.2746844E+03  0.7818608E-02  0.1098628E+00
         -2   -1    0    0    0  501 -0.00000000000E+00  0.00000000000E+00  0.12297932649E+02  0.12297932649E+02  0.00000000000E+00 0. -1.
          2   -1    0    0  501    0  0.00000000000E+00 -0.00000000000E+00 -0.15338257343E+04  0.15338257343E+04  0.00000000000E+00 0. -1.
         35    2    1    2    0    0  0.00000000000E+00  0.00000000000E+00 -0.15215278017E+04  0.15461236670E+04  0.27468444133E+03 0.  0.
         25    1    3    3    0    0  0.15718705902E+02 -0.37387787234E+02 -0.10595618924E+04  0.10671065214E+04  0.12000000000E+03 0.  0.
         25    1    3    3    0    0 -0.15718705902E+02  0.37387787234E+02 -0.46196590929E+03  0.47901714551E+03  0.12000000000E+03 0.  0.
<mgrwt>
<rscale>  0 0.27468444E+03</rscale>
<asrwt>0</asrwt>
<pdfrwt beam="1">  1        2 0.23597317E+00 0.27468444E+03</pdfrwt>
<pdfrwt beam="2">  1       -2 0.18919898E-02 0.27468444E+03</pdfrwt>
<totfact> 0.10978789E+04</totfact>
</mgrwt>
</event>
<event>
 5    1  0.1122238E+001  0.2733286E+03  0.7818608E-02  0.1099390E+00
          2   -1    0    0  501    0  0.00000000000E+00  0.00000000000E+00  0.20910201952E+04  0.20910201952E+04  0.00000000000E+00 0.  1.
         -2   -1    0    0    0  501 -0.00000000000E+00 -0.00000000000E+00 -0.89320694637E+01  0.89320694637E+01  0.00000000000E+00 0.  1.
         35    2    1    2    0    0  0.00000000000E+00  0.00000000000E+00  0.20820881258E+04  0.20999522647E+04  0.27332864931E+03 0.  0.
         25    1    3    3    0    0 -0.51808629155E+01  0.25580526161E+02  0.58033149303E+03  0.59318281032E+03  0.12000000000E+03 0.  0.
         25    1    3    3    0    0  0.51808629155E+01 -0.25580526161E+02  0.15017566327E+04  0.15067694544E+04  0.12000000000E+03 0.  0.
<mgrwt>
<rscale>  0 0.27332865E+03</rscale>
<asrwt>0</asrwt>
<pdfrwt beam="1">  1        2 0.32169503E+00 0.27332865E+03</pdfrwt>
<pdfrwt beam="2">  1       -2 0.13741662E-02 0.27332865E+03</pdfrwt>
<totfact> 0.89209079E+03</totfact>
</mgrwt>
</event>
<event>
 5    1  0.1122238E+001  0.2735636E+03  0.7818608E-02  0.1099257E+00
         -1   -1    0    0    0  501 -0.00000000000E+00  0.00000000000E+00  0.16181613012E+03  0.16181613012E+03  0.00000000000E+00 0. -1.
          1   -1    0    0  501    0  0.00000000000E+00 -0.00000000000E+00 -0.11562051205E+03  0.11562051205E+03  0.00000000000E+00 0. -1.
         35    2    1    2    0    0  0.00000000000E+00  0.00000000000E+00  0.46195618073E+02  0.27743664216E+03  0.27356362201E+03 0.  0.
         25    1    3    3    0    0  0.31153340863E+02 -0.57638599272E+02  0.27220462647E+02  0.13940477883E+03  0.12000000000E+03 0.  0.
         25    1    3    3    0    0 -0.31153340863E+02  0.57638599272E+02  0.18975155426E+02  0.13803186334E+03  0.12000000000E+03 0.  0.
<mgrwt>
<rscale>  0 0.27356362E+03</rscale>
<asrwt>0</asrwt>
<pdfrwt beam="1">  1        1 0.17787771E-01 0.27356362E+03</pdfrwt>
<pdfrwt beam="2">  1       -1 0.24894789E-01 0.27356362E+03</pdfrwt>
<totfact> 0.41476937E+03</totfact>
</mgrwt>
</event>
<event>
 5    1  0.1122238E+001  0.2739186E+03  0.7818608E-02  0.1099058E+00
         -1   -1    0    0    0  501 -0.00000000000E+00  0.00000000000E+00  0.22256697497E+03  0.22256697497E+03  0.00000000000E+00 0.  1.
          1   -1    0    0  501    0  0.00000000000E+00 -0.00000000000E+00 -0.84279573277E+02  0.84279573277E+02  0.00000000000E+00 0.  1.
         35    2    1    2    0    0  0.00000000000E+00  0.00000000000E+00  0.13828740169E+03  0.30684654825E+03  0.27391859868E+03 0.  0.
         25    1    3    3    0    0  0.28723754505E+01  0.51389022540E+02  0.22837280647E+02  0.13255422877E+03  0.12000000000E+03 0.  0.
         25    1    3    3    0    0 -0.28723754505E+01 -0.51389022540E+02  0.11545012105E+03  0.17429231947E+03  0.12000000000E+03 0.  0.
<mgrwt>
<rscale>  0 0.27391860E+03</rscale>
<asrwt>0</asrwt>
<pdfrwt beam="1">  1        1 0.12966088E-01 0.27391860E+03</pdfrwt>
<pdfrwt beam="2">  1       -1 0.34241073E-01 0.27391860E+03</pdfrwt>
<totfact> 0.36566763E+03</totfact>
</mgrwt>
</event>
<event>
 5    1  0.1122238E+001  0.2749172E+03  0.7818608E-02  0.1098498E+00
          2   -1    0    0  501    0  0.00000000000E+00  0.00000000000E+00  0.21425124238E+04  0.21425124238E+04  0.00000000000E+00 0.  1.
         -2   -1    0    0    0  501 -0.00000000000E+00 -0.00000000000E+00 -0.88190234167E+01  0.88190234167E+01  0.00000000000E+00 0.  1.
         35    2    1    2    0    0  0.00000000000E+00  0.00000000000E+00  0.21336934003E+04  0.21513314472E+04  0.27491720380E+03 0.  0.
         25    1    3    3    0    0  0.44155347720E+02  0.24075378317E+02  0.71991234517E+03  0.73157576730E+03  0.12000000000E+03 0.  0.
         25    1    3    3    0    0 -0.44155347720E+02 -0.24075378317E+02  0.14137810552E+04  0.14197556799E+04  0.12000000000E+03 0.  0.
<mgrwt>
<rscale>  0 0.27491720E+03</rscale>
<asrwt>0</asrwt>
<pdfrwt beam="1">  1        2 0.32961688E+00 0.27491720E+03</pdfrwt>
<pdfrwt beam="2">  1       -2 0.13567745E-02 0.27491720E+03</pdfrwt>
<totfact> 0.85362103E+03</totfact>
</mgrwt>
</event>
<event>
 5    1  0.1122238E+001  0.2749450E+03  0.7818608E-02  0.1098482E+00
         -1   -1    0    0    0  501 -0.00000000000E+00  0.00000000000E+00  0.53193374580E+02  0.53193374580E+02  0.00000000000E+00 0.  1.
          1   -1    0    0  501    0  0.00000000000E+00 -0.00000000000E+00 -0.35528263226E+03  0.35528263226E+03  0.00000000000E+00 0.  1.
         35    2    1    2    0    0  0.00000000000E+00  0.00000000000E+00 -0.30208925768E+03  0.40847600684E+03  0.27494495550E+03 0.  0.
         25    1    3    3    0    0  0.21137852086E+01  0.16642755124E+02 -0.24752402604E+03  0.27558953691E+03  0.12000000000E+03 0.  0.
         25    1    3    3    0    0 -0.21137852086E+01 -0.16642755124E+02 -0.54565231632E+02  0.13288646992E+03  0.12000000000E+03 0.  0.
<mgrwt>
<rscale>  0 0.27494496E+03</rscale>
<asrwt>0</asrwt>
<pdfrwt beam="1">  1        1 0.54658865E-01 0.27494496E+03</pdfrwt>
<pdfrwt beam="2">  1       -1 0.81835963E-02 0.27494496E+03</pdfrwt>
<totfact> 0.58336011E+03</totfact>
</mgrwt>
</event>
<event>
 5    1  0.1122238E+001  0.2753755E+03  0.7818608E-02  0.1098242E+00
         -2   -1    0    0    0  501 -0.00000000000E+00  0.00000000000E+00  0.99721369491E+01  0.99721369491E+01  0.00000000000E+00 0. -1.
          2   -1    0    0  501    0  0.00000000000E+00 -0.00000000000E+00 -0.19010880760E+04  0.19010880760E+04  0.00000000000E+00 0. -1.
         35    2    1    2    0    0  0.00000000000E+00  0.00000000000E+00 -0.18911159391E+04  0.19110602130E+04  0.27537545749E+03 0.  0.
         25    1    3    3    0    0  0.37534057697E+02  0.31432542330E+02 -0.12681744992E+04  0.12747797342E+04  0.12000000000E+03 0.  0.
         25    1    3    3    0    0 -0.37534057697E+02 -0.31432542330E+02 -0.62294143985E+03  0.63628047879E+03  0.12000000000E+03 0.  0.
<mgrwt>
<rscale>  0 0.27537546E+03</rscale>
<asrwt>0</asrwt>
<pdfrwt beam="1">  1        2 0.29247492E+00 0.27537546E+03</pdfrwt>
<pdfrwt beam="2">  1       -2 0.15341758E-02 0.27537546E+03</pdfrwt>
<totfact> 0.95598423E+03</totfact>
</mgrwt>
</event>
<event>
 5    1  0.1122238E+001  0.2714394E+03  0.7818608E-02  0.1100459E+00
         -2   -1    0    0    0  501 -0.00000000000E+00  0.00000000000E+00  0.91522888041E+01  0.91522888041E+01  0.00000000000E+00 0.  1.
          2   -1    0    0  501    0  0.00000000000E+00 -0.00000000000E+00 -0.20125942420E+04  0.20125942420E+04  0.00000000000E+00 0.  1.
         35    2    1    2    0    0  0.00000000000E+00  0.00000000000E+00 -0.20034419532E+04  0.20217465308E+04  0.27143944996E+03 0.  0.
         25    1    3    3    0    0  0.31799456997E+02 -0.35080599143E+02 -0.13157851361E+04  0.13220939370E+04  0.12000000000E+03 0.  0.
         25    1    3    3    0    0 -0.31799456997E+02  0.35080599143E+02 -0.68765681707E+03  0.69965259377E+03  0.12000000000E+03 0.  0.
<mgrwt>
<rscale>  0 0.27143945E+03</rscale>
<asrwt>0</asrwt>
<pdfrwt beam="1">  1        2 0.30962999E+00 0.27143945E+03</pdfrwt>
<pdfrwt beam="2">  1       -2 0.14080439E-02 0.27143945E+03</pdfrwt>
<totfact> 0.94682561E+03</totfact>
</mgrwt>
</event>
<event>
 5    1  0.1122238E+001  0.2753632E+03  0.7818608E-02  0.1098249E+00
         -2   -1    0    0    0  501 -0.00000000000E+00  0.00000000000E+00  0.30314785251E+03  0.30314785251E+03  0.00000000000E+00 0. -1.
          2   -1    0    0  501    0  0.00000000000E+00 -0.00000000000E+00 -0.62531301584E+02  0.62531301584E+02  0.00000000000E+00 0. -1.
         35    2    1    2    0    0  0.00000000000E+00  0.00000000000E+00  0.24061655093E+03  0.36567915410E+03  0.27536324947E+03 0.  0.
         25    1    3    3    0    0 -0.30862383326E+02  0.50721731813E+02  0.16294991356E+03  0.21089773614E+03  0.12000000000E+03 0.  0.
         25    1    3    3    0    0  0.30862383326E+02 -0.50721731813E+02  0.77666637372E+02  0.15478141795E+03  0.12000000000E+03 0.  0.
<mgrwt>
<rscale>  0 0.27536325E+03</rscale>
<asrwt>0</asrwt>
<pdfrwt beam="1">  1        2 0.96202005E-02 0.27536325E+03</pdfrwt>
<pdfrwt beam="2">  1       -2 0.46638130E-01 0.27536325E+03</pdfrwt>
<totfact> 0.29580240E+03</totfact>
</mgrwt>
</event>
<event>
 5    1  0.1122238E+001  0.2749468E+03  0.7818608E-02  0.1098481E+00
         -2   -1    0    0    0  501 -0.00000000000E+00  0.00000000000E+00  0.51850420823E+01  0.51850420823E+01  0.00000000000E+00 0. -1.
          2   -1    0    0  501    0  0.00000000000E+00 -0.00000000000E+00 -0.36448965340E+04  0.36448965340E+04  0.00000000000E+00 0. -1.
         35    2    1    2    0    0  0.00000000000E+00  0.00000000000E+00 -0.36397114919E+04  0.36500815761E+04  0.27494684515E+03 0.  0.
         25    1    3    3    0    0 -0.62964092073E+02 -0.76620998164E+01 -0.15302904323E+04  0.15362981455E+04  0.12000000000E+03 0.  0.
         25    1    3    3    0    0  0.62964092073E+02  0.76620998164E+01 -0.21094210597E+04  0.21137834306E+04  0.12000000000E+03 0.  0.
<mgrwt>
<rscale>  0 0.27494685E+03</rscale>
<asrwt>0</asrwt>
<pdfrwt beam="1">  1        2 0.56075273E+00 0.27494685E+03</pdfrwt>
<pdfrwt beam="2">  1       -2 0.79769961E-03 0.27494685E+03</pdfrwt>
<totfact> 0.23960605E+03</totfact>
</mgrwt>
</event>
<event>
 5    1  0.1122238E+001  0.2734987E+03  0.7818608E-02  0.1099294E+00
         -2   -1    0    0    0  501 -0.00000000000E+00  0.00000000000E+00  0.18998903367E+03  0.18998903367E+03  0.00000000000E+00 0. -1.
          2   -1    0    0  501    0  0.00000000000E+00 -0.00000000000E+00 -0.98428773813E+02  0.98428773813E+02  0.00000000000E+00 0. -1.
         35    2    1    2    0    0  0.00000000000E+00  0.00000000000E+00  0.91560259862E+02  0.28841780749E+03  0.27349872119E+03 0.  0.
         25    1    3    3    0    0  0.26558118461E+02  0.53011660654E+02  0.16237361277E+02  0.13483034422E+03  0.12000000000E+03 0.  0.
         25    1    3    3    0    0 -0.26558118461E+02 -0.53011660654E+02  0.75322898585E+02  0.15358746327E+03  0.12000000000E+03 0.  0.
<mgrwt>
<rscale>  0 0.27349872E+03</rscale>
<asrwt>0</asrwt>
<pdfrwt beam="1">  1        2 0.15142888E-01 0.27349872E+03</pdfrwt>
<pdfrwt beam="2">  1       -2 0.29229082E-01 0.27349872E+03</pdfrwt>
<totfact> 0.41077958E+03</totfact>
</mgrwt>
</event>
<event>
 5    1  0.1122238E+001  0.2743268E+03  0.7818608E-02  0.1098829E+00
          2   -1    0    0  501    0  0.00000000000E+00  0.00000000000E+00  0.12102984035E+04  0.12102984035E+04  0.00000000000E+00 0. -1.
         -2   -1    0    0    0  501 -0.00000000000E+00 -0.00000000000E+00 -0.15544758138E+02  0.15544758138E+02  0.00000000000E+00 0. -1.
         35    2    1    2    0    0  0.00000000000E+00  0.00000000000E+00  0.11947536453E+04  0.12258431616E+04  0.27432678292E+03 0.  0.
         25    1    3    3    0    0 -0.92978132736E+01  0.64370435618E+02  0.53679644980E+03  0.55387763164E+03  0.12000000000E+03 0.  0.
         25    1    3    3    0    0  0.92978132736E+01 -0.64370435618E+02  0.65795719552E+03  0.67196552995E+03  0.12000000000E+03 0.  0.
<mgrwt>
<rscale>  0 0.27432678E+03</rscale>
<asrwt>0</asrwt>
<pdfrwt beam="1">  1        2 0.18619968E+00 0.27432678E+03</pdfrwt>
<pdfrwt beam="2">  1       -2 0.23915022E-02 0.27432678E+03</pdfrwt>
<totfact> 0.11684284E+04</totfact>
</mgrwt>
</event>
<event>
 5    1  0.1122238E+001  0.2735002E+03  0.7818608E-02  0.1099293E+00
         -1   -1    0    0    0  501 -0.00000000000E+00  0.00000000000E+00  0.43972819841E+02  0.43972819841E+02  0.00000000000E+00 0.  1.
          1   -1    0    0  501    0  0.00000000000E+00 -0.00000000000E+00 -0.42527622496E+03  0.42527622496E+03  0.00000000000E+00 0.  1.
         35    2    1    2    0    0  0.00000000000E+00  0.00000000000E+00 -0.38130340512E+03  0.46924904480E+03  0.27350023636E+03 0.  0.
         25    1    3    3    0    0  0.13165762177E+01 -0.61886765601E+02 -0.15349980210E+03  0.20443555066E+03  0.12000000000E+03 0.  0.
         25    1    3    3    0    0 -0.13165762177E+01  0.61886765601E+02 -0.22780360302E+03  0.26481349414E+03  0.12000000000E+03 0.  0.
<mgrwt>
<rscale>  0 0.27350024E+03</rscale>
<asrwt>0</asrwt>
<pdfrwt beam="1">  1        1 0.65427111E-01 0.27350024E+03</pdfrwt>
<pdfrwt beam="2">  1       -1 0.67650493E-02 0.27350024E+03</pdfrwt>
<totfact> 0.61912903E+03</totfact>
</mgrwt>
</event>
<event>
 5    1  0.1122238E+001  0.2752287E+03  0.7818608E-02  0.1098324E+00
          2   -1    0    0  501    0  0.00000000000E+00  0.00000000000E+00  0.90157708853E+03  0.90157708853E+03  0.00000000000E+00 0. -1.
         -2   -1    0    0    0  501 -0.00000000000E+00 -0.00000000000E+00 -0.21005091866E+02  0.21005091866E+02  0.00000000000E+00 0. -1.
         35    2    1    2    0    0  0.00000000000E+00  0.00000000000E+00  0.88057199667E+03  0.92258218040E+03  0.27522870177E+03 0.  0.
         25    1    3    3    0    0  0.44762616252E+02 -0.42868215417E+02  0.35183146450E+03  0.37686437231E+03  0.12000000000E+03 0.  0.
         25    1    3    3    0    0 -0.44762616252E+02  0.42868215417E+02  0.52874053217E+03  0.54571780809E+03  0.12000000000E+03 0.  0.
<mgrwt>
<rscale>  0 0.27522870E+03</rscale>
<asrwt>0</asrwt>
<pdfrwt beam="1">  1        2 0.13870414E+00 0.27522870E+03</pdfrwt>
<pdfrwt beam="2">  1       -2 0.32315533E-02 0.27522870E+03</pdfrwt>
<totfact> 0.11451882E+04</totfact>
</mgrwt>
</event>
<event>
 5    1  0.1122238E+001  0.2749563E+03  0.7818608E-02  0.1098476E+00
          2   -1    0    0  501    0  0.00000000000E+00  0.00000000000E+00  0.33278445451E+04  0.33278445451E+04  0.00000000000E+00 0. -1.
         -2   -1    0    0    0  501 -0.00000000000E+00 -0.00000000000E+00 -0.56794230330E+01  0.56794230330E+01  0.00000000000E+00 0. -1.
         35    2    1    2    0    0  0.00000000000E+00  0.00000000000E+00  0.33221651220E+04  0.33335239681E+04  0.27495626532E+03 0.  0.
         25    1    3    3    0    0 -0.35723317564E+02 -0.56564100354E+02  0.16009697475E+04  0.16068540025E+04  0.12000000000E+03 0.  0.
         25    1    3    3    0    0  0.35723317564E+02  0.56564100354E+02  0.17211953745E+04  0.17266699656E+04  0.12000000000E+03 0.  0.
<mgrwt>
<rscale>  0 0.27495627E+03</rscale>
<asrwt>0</asrwt>
<pdfrwt beam="1">  1        2 0.51197452E+00 0.27495627E+03</pdfrwt>
<pdfrwt beam="2">  1       -2 0.87376005E-03 0.27495627E+03</pdfrwt>
<totfact> 0.34016384E+03</totfact>
</mgrwt>
</event>
<event>
 5    1  0.1122238E+001  0.2759863E+03  0.7818608E-02  0.1097902E+00
         -2   -1    0    0    0  501 -0.00000000000E+00  0.00000000000E+00  0.26956909293E+02  0.26956909293E+02  0.00000000000E+00 0. -1.
          2   -1    0    0  501    0  0.00000000000E+00 -0.00000000000E+00 -0.70639092463E+03  0.70639092463E+03  0.00000000000E+00 0. -1.
         35    2    1    2    0    0  0.00000000000E+00  0.00000000000E+00 -0.67943401533E+03  0.73334783392E+03  0.27598634807E+03 0.  0.
         25    1    3    3    0    0 -0.44829648397E+01  0.57699676145E+02 -0.43525639570E+03  0.45518949856E+03  0.12000000000E+03 0.  0.
         25    1    3    3    0    0  0.44829648397E+01 -0.57699676145E+02 -0.24417761964E+03  0.27815833536E+03  0.12000000000E+03 0.  0.
<mgrwt>
<rscale>  0 0.27598635E+03</rscale>
<asrwt>0</asrwt>
<pdfrwt beam="1">  1        2 0.10867552E+00 0.27598635E+03</pdfrwt>
<pdfrwt beam="2">  1       -2 0.41472172E-02 0.27598635E+03</pdfrwt>
<totfact> 0.10751984E+04</totfact>
</mgrwt>
</event>
<event>
 5    1  0.1122238E+001  0.2755504E+03  0.7818608E-02  0.1098144E+00
          2   -1    0    0  501    0  0.00000000000E+00  0.00000000000E+00  0.12124783996E+04  0.12124783996E+04  0.00000000000E+00 0. -1.
         -2   -1    0    0    0  501 -0.00000000000E+00 -0.00000000000E+00 -0.15655540616E+02  0.15655540616E+02  0.00000000000E+00 0. -1.
         35    2    1    2    0    0  0.00000000000E+00  0.00000000000E+00  0.11968228590E+04  0.12281339402E+04  0.27555039344E+03 0.  0.
         25    1    3    3    0    0 -0.34412328301E+02 -0.28602395827E+02  0.82478684121E+03  0.83467097638E+03  0.12000000000E+03 0.  0.
         25    1    3    3    0    0  0.34412328301E+02  0.28602395827E+02  0.37203601781E+03  0.39346296386E+03  0.12000000000E+03 0.  0.
<mgrwt>
<rscale>  0 0.27555039E+03</rscale>
<asrwt>0</asrwt>
<pdfrwt beam="1">  1        2 0.18653507E+00 0.27555039E+03</pdfrwt>
<pdfrwt beam="2">  1       -2 0.24085457E-02 0.27555039E+03</pdfrwt>
<totfact> 0.11530848E+04</totfact>
</mgrwt>
</event>
<event>
 5    1  0.1122238E+001  0.2746962E+03  0.7818608E-02  0.1098622E+00
          2   -1    0    0  501    0  0.00000000000E+00  0.00000000000E+00  0.48444072369E+03  0.48444072369E+03  0.00000000000E+00 0. -1.
         -2   -1    0    0    0  501 -0.00000000000E+00 -0.00000000000E+00 -0.38940774295E+02  0.38940774295E+02  0.00000000000E+00 0. -1.
         35    2    1    2    0    0  0.00000000000E+00  0.00000000000E+00  0.44549994939E+03  0.52338149798E+03  0.27469617311E+03 0.  0.
         25    1    3    3    0    0 -0.33586141285E+02  0.50872746697E+02  0.17062548388E+03  0.21732261961E+03  0.12000000000E+03 0.  0.
         25    1    3    3    0    0  0.33586141285E+02 -0.50872746697E+02  0.27487446551E+03  0.30605887838E+03  0.12000000000E+03 0.  0.
<mgrwt>
<rscale>  0 0.27469617E+03</rscale>
<asrwt>0</asrwt>
<pdfrwt beam="1">  1        2 0.74529338E-01 0.27469617E+03</pdfrwt>
<pdfrwt beam="2">  1       -2 0.59908887E-02 0.27469617E+03</pdfrwt>
<totfact> 0.95137827E+03</totfact>
</mgrwt>
</event>
<event>
 5    1  0.1122238E+001  0.2753059E+03  0.7818608E-02  0.1098281E+00
         -1   -1    0    0    0  501 -0.00000000000E+00  0.00000000000E+00  0.17045373058E+03  0.17045373058E+03  0.00000000000E+00 0.  1.
          1   -1    0    0  501    0  0.00000000000E+00 -0.00000000000E+00 -0.11116411478E+03  0.11116411478E+03  0.00000000000E+00 0.  1.
         35    2    1    2    0    0  0.00000000000E+00  0.00000000000E+00  0.59289615803E+02  0.28161784536E+03  0.27530592490E+03 0.  0.
         25    1    3    3    0    0  0.31893095765E+02  0.59416376357E+02  0.30594938128E+02  0.14100895566E+03  0.12000000000E+03 0.  0.
         25    1    3    3    0    0 -0.31893095765E+02 -0.59416376357E+02  0.28694677676E+02  0.14060888970E+03  0.12000000000E+03 0.  0.
<mgrwt>
<rscale>  0 0.27530592E+03</rscale>
<asrwt>0</asrwt>
<pdfrwt beam="1">  1        1 0.17102172E-01 0.27530592E+03</pdfrwt>
<pdfrwt beam="2">  1       -1 0.26223651E-01 0.27530592E+03</pdfrwt>
<totfact> 0.40033292E+03</totfact>
</mgrwt>
</event>
<event>
 5    1  0.1122238E+001  0.2764654E+03  0.7818608E-02  0.1097635E+00
          2   -1    0    0  501    0  0.00000000000E+00  0.00000000000E+00  0.87509188762E+03  0.87509188762E+03  0.00000000000E+00 0. -1.
         -2   -1    0    0    0  501 -0.00000000000E+00 -0.00000000000E+00 -0.21835740191E+02  0.21835740191E+02  0.00000000000E+00 0. -1.
         35    2    1    2    0    0  0.00000000000E+00  0.00000000000E+00  0.85325614743E+03  0.89692762781E+03  0.27646539820E+03 0.  0.
         25    1    3    3    0    0 -0.90878691591E+01  0.33284523738E+02  0.61904977731E+03  0.63151648884E+03  0.12000000000E+03 0.  0.
         25    1    3    3    0    0  0.90878691591E+01 -0.33284523738E+02  0.23420637012E+03  0.26541113897E+03  0.12000000000E+03 0.  0.
<mgrwt>
<rscale>  0 0.27646540E+03</rscale>
<asrwt>0</asrwt>
<pdfrwt beam="1">  1        2 0.13462949E+00 0.27646540E+03</pdfrwt>
<pdfrwt beam="2">  1       -2 0.33593453E-02 0.27646540E+03</pdfrwt>
<totfact> 0.11246686E+04</totfact>
</mgrwt>
</event>
<event>
 5    1  0.1122238E+001  0.2746889E+03  0.7818608E-02  0.1098626E+00
          1   -1    0    0  501    0  0.00000000000E+00  0.00000000000E+00  0.18997858652E+03  0.18997858652E+03  0.00000000000E+00 0. -1.
         -1   -1    0    0    0  501 -0.00000000000E+00 -0.00000000000E+00 -0.99292788688E+02  0.99292788688E+02  0.00000000000E+00 0. -1.
         35    2    1    2    0    0  0.00000000000E+00  0.00000000000E+00  0.90685797830E+02  0.28927137521E+03  0.27468894151E+03 0.  0.
         25    1    3    3    0    0  0.28839925929E+02  0.17465100888E+02 -0.15396883166E+02  0.12559392934E+03  0.12000000000E+03 0.  0.
         25    1    3    3    0    0 -0.28839925929E+02 -0.17465100888E+02  0.10608268100E+03  0.16367744586E+03  0.12000000000E+03 0.  0.
<mgrwt>
<rscale>  0 0.27468894E+03</rscale>
<asrwt>0</asrwt>
<pdfrwt beam="1">  1        1 0.29227475E-01 0.27468894E+03</pdfrwt>
<pdfrwt beam="2">  1       -1 0.15275814E-01 0.27468894E+03</pdfrwt>
<totfact> 0.48548611E+03</totfact>
</mgrwt>
</event>
<event>
 5    1  0.1122238E+001  0.2728282E+03  0.7818608E-02  0.1099672E+00
         -1   -1    0    0    0  501 -0.00000000000E+00  0.00000000000E+00  0.10500935179E+04  0.10500935179E+04  0.00000000000E+00 0.  1.
          1   -1    0    0  501    0  0.00000000000E+00 -0.00000000000E+00 -0.17721092162E+02  0.17721092162E+02  0.00000000000E+00 0.  1.
         35    2    1    2    0    0  0.00000000000E+00  0.00000000000E+00  0.10323724257E+04  0.10678146100E+04  0.27282818043E+03 0.  0.
         25    1    3    3    0    0 -0.11832546173E+02  0.16393378489E+02  0.27491728075E+03  0.30064640903E+03  0.12000000000E+03 0.  0.
         25    1    3    3    0    0  0.11832546173E+02 -0.16393378489E+02  0.75745514496E+03  0.76716820101E+03  0.12000000000E+03 0.  0.
<mgrwt>
<rscale>  0 0.27282818E+03</rscale>
<asrwt>0</asrwt>
<pdfrwt beam="1">  1        1 0.27263227E-02 0.27282818E+03</pdfrwt>
<pdfrwt beam="2">  1       -1 0.16155280E+00 0.27282818E+03</pdfrwt>
<totfact> 0.12084680E+03</totfact>
</mgrwt>
</event>
<event>
 5    1  0.1122238E+001  0.2747690E+03  0.7818608E-02  0.1098581E+00
          2   -1    0    0  501    0  0.00000000000E+00  0.00000000000E+00  0.97898225885E+03  0.97898225885E+03  0.00000000000E+00 0.  1.
         -2   -1    0    0    0  501 -0.00000000000E+00 -0.00000000000E+00 -0.19279716311E+02  0.19279716311E+02  0.00000000000E+00 0.  1.
         35    2    1    2    0    0  0.00000000000E+00  0.00000000000E+00  0.95970254254E+03  0.99826197516E+03  0.27476899552E+03 0.  0.
         25    1    3    3    0    0 -0.39024995298E+02  0.45394758649E+01  0.67654046413E+03  0.68822275224E+03  0.12000000000E+03 0.  0.
         25    1    3    3    0    0  0.39024995298E+02 -0.45394758649E+01  0.28316207841E+03  0.31003922292E+03  0.12000000000E+03 0.  0.
<mgrwt>
<rscale>  0 0.27476900E+03</rscale>
<asrwt>0</asrwt>
<pdfrwt beam="1">  1        2 0.15061262E+00 0.27476900E+03</pdfrwt>
<pdfrwt beam="2">  1       -2 0.29661110E-02 0.27476900E+03</pdfrwt>
<totfact> 0.11625820E+04</totfact>
</mgrwt>
</event>
<event>
 5    1  0.1122238E+001  0.2750012E+03  0.7818608E-02  0.1098451E+00
          1   -1    0    0  501    0  0.00000000000E+00  0.00000000000E+00  0.68928966515E+03  0.68928966515E+03  0.00000000000E+00 0. -1.
         -1   -1    0    0    0  501 -0.00000000000E+00 -0.00000000000E+00 -0.27428844839E+02  0.27428844839E+02  0.00000000000E+00 0. -1.
         35    2    1    2    0    0  0.00000000000E+00  0.00000000000E+00  0.66186082031E+03  0.71671850999E+03  0.27500123109E+03 0.  0.
         25    1    3    3    0    0 -0.15906608892E+02 -0.19145938455E+02  0.49341488593E+03  0.50840715654E+03  0.12000000000E+03 0.  0.
         25    1    3    3    0    0  0.15906608892E+02  0.19145938455E+02  0.16844593439E+03  0.20831135345E+03  0.12000000000E+03 0.  0.
<mgrwt>
<rscale>  0 0.27500123E+03</rscale>
<asrwt>0</asrwt>
<pdfrwt beam="1">  1        1 0.10604455E+00 0.27500123E+03</pdfrwt>
<pdfrwt beam="2">  1       -1 0.42198228E-02 0.27500123E+03</pdfrwt>
<totfact> 0.65277551E+03</totfact>
</mgrwt>
</event>
<event>
 5    1  0.1122238E+001  0.2763494E+03  0.7818608E-02  0.1097700E+00
         -3   -1    0    0    0  501 -0.00000000000E+00  0.00000000000E+00  0.35633476053E+03  0.35633476053E+03  0.00000000000E+00 0.  1.
          3   -1    0    0  501    0  0.00000000000E+00 -0.00000000000E+00 -0.53579532241E+02  0.53579532241E+02  0.00000000000E+00 0.  1.
         35    2    1    2    0    0  0.00000000000E+00  0.00000000000E+00  0.30275522829E+03  0.40991429278E+03  0.27634941498E+03 0.  0.
         25    1    3    3    0    0 -0.21661086177E+02 -0.39806456115E+02  0.22757016271E+03  0.26123157458E+03  0.12000000000E+03 0.  0.
         25    1    3    3    0    0  0.21661086177E+02  0.39806456115E+02  0.75185065588E+02  0.14868271820E+03  0.12000000000E+03 0.  0.
<mgrwt>
<rscale>  0 0.27634941E+03</rscale>
<asrwt>0</asrwt>
<pdfrwt beam="1">  1        3 0.82430052E-02 0.27634941E+03</pdfrwt>
<pdfrwt beam="2">  1       -3 0.54820731E-01 0.27634941E+03</pdfrwt>
<totfact> 0.85619406E+02</totfact>
</mgrwt>
</event>
<event>
 5    1  0.1122238E+001  0.2752585E+03  0.7818608E-02  0.1098307E+00
          2   -1    0    0  501    0  0.00000000000E+00  0.00000000000E+00  0.41710532451E+03  0.41710532451E+03  0.00000000000E+00 0. -1.
         -2   -1    0    0    0  501 -0.00000000000E+00 -0.00000000000E+00 -0.45412520819E+02  0.45412520819E+02  0.00000000000E+00 0. -1.
         35    2    1    2    0    0  0.00000000000E+00  0.00000000000E+00  0.37169280369E+03  0.46251784533E+03  0.27525845479E+03 0.  0.
         25    1    3    3    0    0 -0.25755780785E+02 -0.49682547772E+02  0.24894373468E+03  0.28196577600E+03  0.12000000000E+03 0.  0.
         25    1    3    3    0    0  0.25755780785E+02  0.49682547772E+02  0.12274906901E+03  0.18055206933E+03  0.12000000000E+03 0.  0.
<mgrwt>
<rscale>  0 0.27525845E+03</rscale>
<asrwt>0</asrwt>
<pdfrwt beam="1">  1        2 0.64170047E-01 0.27525845E+03</pdfrwt>
<pdfrwt beam="2">  1       -2 0.69865420E-02 0.27525845E+03</pdfrwt>
<totfact> 0.88524764E+03</totfact>
</mgrwt>
</event>
<event>
 5    1  0.1122238E+001  0.2782814E+03  0.7818608E-02  0.1096631E+00
         -2   -1    0    0    0  501 -0.00000000000E+00  0.00000000000E+00  0.17035492033E+03  0.17035492033E+03  0.00000000000E+00 0. -1.
          2   -1    0    0  501    0  0.00000000000E+00 -0.00000000000E+00 -0.11364584130E+03  0.11364584130E+03  0.00000000000E+00 0. -1.
         35    2    1    2    0    0  0.00000000000E+00  0.00000000000E+00  0.56709079025E+02  0.28400076163E+03  0.27828135576E+03 0.  0.
         25    1    3    3    0    0 -0.68497996218E+01 -0.39223776225E+01  0.99777353485E+02  0.15626203976E+03  0.12000000000E+03 0.  0.
         25    1    3    3    0    0  0.68497996218E+01  0.39223776225E+01 -0.43068274460E+02  0.12773872187E+03  0.12000000000E+03 0.  0.
<mgrwt>
<rscale>  0 0.27828136E+03</rscale>
<asrwt>0</asrwt>
<pdfrwt beam="1">  1        2 0.17483976E-01 0.27828136E+03</pdfrwt>
<pdfrwt beam="2">  1       -2 0.26208449E-01 0.27828136E+03</pdfrwt>
<totfact> 0.42216687E+03</totfact>
</mgrwt>
</event>
<event>
 5    1  0.1122238E+001  0.2745169E+03  0.7818608E-02  0.1098722E+00
         -1   -1    0    0    0  501 -0.00000000000E+00  0.00000000000E+00  0.16546385963E+03  0.16546385963E+03  0.00000000000E+00 0.  1.
          1   -1    0    0  501    0  0.00000000000E+00 -0.00000000000E+00 -0.11386100327E+03  0.11386100327E+03  0.00000000000E+00 0.  1.
         35    2    1    2    0    0  0.00000000000E+00  0.00000000000E+00  0.51602856361E+02  0.27932486290E+03  0.27451689247E+03 0.  0.
         25    1    3    3    0    0 -0.17528148794E+02  0.27822121171E+02  0.84769648681E+02  0.15055630098E+03  0.12000000000E+03 0.  0.
         25    1    3    3    0    0  0.17528148794E+02 -0.27822121171E+02 -0.33166792320E+02  0.12876856192E+03  0.12000000000E+03 0.  0.
<mgrwt>
<rscale>  0 0.27451689E+03</rscale>
<asrwt>0</asrwt>
<pdfrwt beam="1">  1        1 0.17517077E-01 0.27451689E+03</pdfrwt>
<pdfrwt beam="2">  1       -1 0.25455979E-01 0.27451689E+03</pdfrwt>
<totfact> 0.40774429E+03</totfact>
</mgrwt>
</event>
<event>
 5    1  0.1122238E+001  0.2751588E+03  0.7818608E-02  0.1098363E+00
         -2   -1    0    0    0  501 -0.00000000000E+00  0.00000000000E+00  0.10330120985E+02  0.10330120985E+02  0.00000000000E+00 0.  1.
          2   -1    0    0  501    0  0.00000000000E+00 -0.00000000000E+00 -0.18323204950E+04  0.18323204950E+04  0.00000000000E+00 0.  1.
         35    2    1    2    0    0  0.00000000000E+00  0.00000000000E+00 -0.18219903740E+04  0.18426506159E+04  0.27515880794E+03 0.  0.
         25    1    3    3    0    0 -0.52302028160E+02 -0.40312582005E+02 -0.99766119755E+03  0.10070195984E+04  0.12000000000E+03 0.  0.
         25    1    3    3    0    0  0.52302028160E+02  0.40312582005E+02 -0.82432917643E+03  0.83563101758E+03  0.12000000000E+03 0.  0.
<mgrwt>
<rscale>  0 0.27515881E+03</rscale>
<asrwt>0</asrwt>
<pdfrwt beam="1">  1        2 0.28189556E+00 0.27515881E+03</pdfrwt>
<pdfrwt beam="2">  1       -2 0.15892488E-02 0.27515881E+03</pdfrwt>
<totfact> 0.98654380E+03</totfact>
</mgrwt>
</event>
<event>
 5    1  0.1122238E+001  0.2751727E+03  0.7818608E-02  0.1098355E+00
          3   -1    0    0  501    0  0.00000000000E+00  0.00000000000E+00  0.13376250490E+03  0.13376250490E+03  0.00000000000E+00 0. -1.
         -3   -1    0    0    0  501 -0.00000000000E+00 -0.00000000000E+00 -0.14151947375E+03  0.14151947375E+03  0.00000000000E+00 0. -1.
         35    2    1    2    0    0  0.00000000000E+00  0.00000000000E+00 -0.77569688550E+01  0.27528197865E+03  0.27517266798E+03 0.  0.
         25    1    3    3    0    0  0.41147983002E+02 -0.43429033678E+02 -0.34725159267E+02  0.13851019514E+03  0.12000000000E+03 0.  0.
         25    1    3    3    0    0 -0.41147983002E+02  0.43429033678E+02  0.26968190412E+02  0.13677178351E+03  0.12000000000E+03 0.  0.
<mgrwt>
<rscale>  0 0.27517267E+03</rscale>
<asrwt>0</asrwt>
<pdfrwt beam="1">  1        3 0.20578847E-01 0.27517267E+03</pdfrwt>
<pdfrwt beam="2">  1       -3 0.21772227E-01 0.27517267E+03</pdfrwt>
<totfact> 0.10464406E+03</totfact>
</mgrwt>
</event>
<event>
 5    1  0.1122238E+001  0.2742740E+03  0.7818608E-02  0.1098858E+00
          1   -1    0    0  501    0  0.00000000000E+00  0.00000000000E+00  0.36842952738E+03  0.36842952738E+03  0.00000000000E+00 0.  1.
         -1   -1    0    0    0  501 -0.00000000000E+00 -0.00000000000E+00 -0.51045185683E+02  0.51045185683E+02  0.00000000000E+00 0.  1.
         35    2    1    2    0    0  0.00000000000E+00  0.00000000000E+00  0.31738434169E+03  0.41947471306E+03  0.27427397716E+03 0.  0.
         25    1    3    3    0    0 -0.51266117649E+02  0.12326153057E+02  0.22037091195E+03  0.25640492917E+03  0.12000000000E+03 0.  0.
         25    1    3    3    0    0  0.51266117649E+02 -0.12326153057E+02  0.97013429741E+02  0.16306978389E+03  0.12000000000E+03 0.  0.
<mgrwt>
<rscale>  0 0.27427398E+03</rscale>
<asrwt>0</asrwt>
<pdfrwt beam="1">  1        1 0.56681464E-01 0.27427398E+03</pdfrwt>
<pdfrwt beam="2">  1       -1 0.78531057E-02 0.27427398E+03</pdfrwt>
<totfact> 0.59317900E+03</totfact>
</mgrwt>
</event>
<event>
 5    1  0.1122238E+001  0.2759949E+03  0.7818608E-02  0.1097897E+00
         -2   -1    0    0    0  501 -0.00000000000E+00  0.00000000000E+00  0.88945833708E+01  0.88945833708E+01  0.00000000000E+00 0.  1.
          2   -1    0    0  501    0  0.00000000000E+00 -0.00000000000E+00 -0.21409998785E+04  0.21409998785E+04  0.00000000000E+00 0.  1.
         35    2    1    2    0    0  0.00000000000E+00  0.00000000000E+00 -0.21321052951E+04  0.21498944618E+04  0.27599494137E+03 0.  0.
         25    1    3    3    0    0  0.20765975191E+02 -0.58657114261E+02 -0.12824048014E+04  0.12895091925E+04  0.12000000000E+03 0.  0.
         25    1    3    3    0    0 -0.20765975191E+02  0.58657114261E+02 -0.84970049370E+03  0.86038526938E+03  0.12000000000E+03 0.  0.
<mgrwt>
<rscale>  0 0.27599494E+03</rscale>
<asrwt>0</asrwt>
<pdfrwt beam="1">  1        2 0.32938493E+00 0.27599494E+03</pdfrwt>
<pdfrwt beam="2">  1       -2 0.13683961E-02 0.27599494E+03</pdfrwt>
<totfact> 0.84462541E+03</totfact>
</mgrwt>
</event>
<event>
 5    1  0.1122238E+001  0.2750847E+03  0.7818608E-02  0.1098404E+00
         -2   -1    0    0    0  501 -0.00000000000E+00  0.00000000000E+00  0.79908972204E+01  0.79908972204E+01  0.00000000000E+00 0. -1.
          2   -1    0    0  501    0  0.00000000000E+00 -0.00000000000E+00 -0.23674312155E+04  0.23674312155E+04  0.00000000000E+00 0. -1.
         35    2    1    2    0    0  0.00000000000E+00  0.00000000000E+00 -0.23594403183E+04  0.23754221127E+04  0.27508471073E+03 0.  0.
         25    1    3    3    0    0  0.24977140083E+01  0.14124032992E+02 -0.61266877903E+03  0.62447478706E+03  0.12000000000E+03 0.  0.
         25    1    3    3    0    0 -0.24977140083E+01 -0.14124032992E+02 -0.17467715393E+04  0.17509473257E+04  0.12000000000E+03 0.  0.
<mgrwt>
<rscale>  0 0.27508471E+03</rscale>
<asrwt>0</asrwt>
<pdfrwt beam="1">  1        2 0.36422027E+00 0.27508471E+03</pdfrwt>
<pdfrwt beam="2">  1       -2 0.12293685E-02 0.27508471E+03</pdfrwt>
<totfact> 0.74734936E+03</totfact>
</mgrwt>
</event>
<event>
 5    1  0.1122238E+001  0.2748594E+03  0.7818608E-02  0.1098530E+00
          2   -1    0    0  501    0  0.00000000000E+00  0.00000000000E+00  0.10516711721E+04  0.10516711721E+04  0.00000000000E+00 0.  1.
         -2   -1    0    0    0  501 -0.00000000000E+00 -0.00000000000E+00 -0.17958959105E+02  0.17958959105E+02  0.00000000000E+00 0.  1.
         35    2    1    2    0    0  0.00000000000E+00  0.00000000000E+00  0.10337122130E+04  0.10696301312E+04  0.27485937911E+03 0.  0.
         25    1    3    3    0    0 -0.29015405407E+02 -0.46738833011E+02  0.66557800975E+03  0.67854292371E+03  0.12000000000E+03 0.  0.
         25    1    3    3    0    0  0.29015405407E+02  0.46738833011E+02  0.36813420322E+03  0.39108720747E+03  0.12000000000E+03 0.  0.
<mgrwt>
<rscale>  0 0.27485938E+03</rscale>
<asrwt>0</asrwt>
<pdfrwt beam="1">  1        2 0.16179552E+00 0.27485938E+03</pdfrwt>
<pdfrwt beam="2">  1       -2 0.27629176E-02 0.27485938E+03</pdfrwt>
<totfact> 0.11668088E+04</totfact>
</mgrwt>
</event>
<event>
 5    1  0.1122238E+001  0.2749829E+03  0.7818608E-02  0.1098461E+00
          2   -1    0    0  501    0  0.00000000000E+00  0.00000000000E+00  0.66155424114E+03  0.66155424114E+03  0.00000000000E+00 0.  1.
         -2   -1    0    0    0  501 -0.00000000000E+00 -0.00000000000E+00 -0.28574972778E+02  0.28574972778E+02  0.00000000000E+00 0.  1.
         35    2    1    2    0    0  0.00000000000E+00  0.00000000000E+00  0.63297926837E+03  0.69012921392E+03  0.27498286806E+03 0.  0.
         25    1    3    3    0    0  0.37095232269E+02 -0.75234432347E+01  0.17740429054E+03  0.21749699022E+03  0.12000000000E+03 0.  0.
         25    1    3    3    0    0 -0.37095232269E+02  0.75234432347E+01  0.45557497783E+03  0.47263222370E+03  0.12000000000E+03 0.  0.
<mgrwt>
<rscale>  0 0.27498287E+03</rscale>
<asrwt>0</asrwt>
<pdfrwt beam="1">  1        2 0.10177756E+00 0.27498287E+03</pdfrwt>
<pdfrwt beam="2">  1       -2 0.43961501E-02 0.27498287E+03</pdfrwt>
<totfact> 0.10654903E+04</totfact>
</mgrwt>
</event>
<event>
 5    1  0.1122238E+001  0.2756001E+03  0.7818608E-02  0.1098117E+00
         -2   -1    0    0    0  501 -0.00000000000E+00  0.00000000000E+00  0.32593184316E+03  0.32593184316E+03  0.00000000000E+00 0.  1.
          2   -1    0    0  501    0  0.00000000000E+00 -0.00000000000E+00 -0.58260180788E+02  0.58260180788E+02  0.00000000000E+00 0.  1.
         35    2    1    2    0    0  0.00000000000E+00  0.00000000000E+00  0.26767166237E+03  0.38419202394E+03  0.27560005883E+03 0.  0.
         25    1    3    3    0    0 -0.23283721886E+02  0.27772170304E+02  0.21361742956E+03  0.24768090633E+03  0.12000000000E+03 0.  0.
         25    1    3    3    0    0  0.23283721886E+02 -0.27772170304E+02  0.54054232813E+02  0.13651111762E+03  0.12000000000E+03 0.  0.
<mgrwt>
<rscale>  0 0.27560006E+03</rscale>
<asrwt>0</asrwt>
<pdfrwt beam="1">  1        2 0.89631049E-02 0.27560006E+03</pdfrwt>
<pdfrwt beam="2">  1       -2 0.50143359E-01 0.27560006E+03</pdfrwt>
<totfact> 0.27997371E+03</totfact>
</mgrwt>
</event>
<event>
 5    1  0.1122238E+001  0.2745043E+03  0.7818608E-02  0.1098729E+00
         -2   -1    0    0    0  501 -0.00000000000E+00  0.00000000000E+00  0.45352954547E+02  0.45352954547E+02  0.00000000000E+00 0. -1.
          2   -1    0    0  501    0  0.00000000000E+00 -0.00000000000E+00 -0.41536770795E+03  0.41536770795E+03  0.00000000000E+00 0. -1.
         35    2    1    2    0    0  0.00000000000E+00  0.00000000000E+00 -0.37001475341E+03  0.46072066250E+03  0.27450430072E+03 0.  0.
         25    1    3    3    0    0  0.42958267713E+02  0.49764590651E+02 -0.20310157340E+03  0.24489217294E+03  0.12000000000E+03 0.  0.
         25    1    3    3    0    0 -0.42958267713E+02 -0.49764590651E+02 -0.16691318001E+03  0.21582848956E+03  0.12000000000E+03 0.  0.
<mgrwt>
<rscale>  0 0.27450430E+03</rscale>
<asrwt>0</asrwt>
<pdfrwt beam="1">  1        2 0.63902723E-01 0.27450430E+03</pdfrwt>
<pdfrwt beam="2">  1       -2 0.69773778E-02 0.27450430E+03</pdfrwt>
<totfact> 0.89100350E+03</totfact>
</mgrwt>
</event>
<event>
 5    1  0.1122238E+001  0.2756174E+03  0.7818608E-02  0.1098107E+00
          2   -1    0    0  501    0  0.00000000000E+00  0.00000000000E+00  0.32083502313E+02  0.32083502313E+02  0.00000000000E+00 0. -1.
         -2   -1    0    0    0  501 -0.00000000000E+00 -0.00000000000E+00 -0.59193173141E+03  0.59193173141E+03  0.00000000000E+00 0. -1.
         35    2    1    2    0    0  0.00000000000E+00  0.00000000000E+00 -0.55984822910E+03  0.62401523372E+03  0.27561743830E+03 0.  0.
         25    1    3    3    0    0  0.44279795873E+01 -0.61321224674E+02 -0.34441389139E+03  0.36986595975E+03  0.12000000000E+03 0.  0.
         25    1    3    3    0    0 -0.44279795873E+01  0.61321224674E+02 -0.21543433771E+03  0.25414927398E+03  0.12000000000E+03 0.  0.
<mgrwt>
<rscale>  0 0.27561744E+03</rscale>
<asrwt>0</asrwt>
<pdfrwt beam="1">  1        2 0.49359238E-02 0.27561744E+03</pdfrwt>
<pdfrwt beam="2">  1       -2 0.91066414E-01 0.27561744E+03</pdfrwt>
<totfact> 0.17001048E+03</totfact>
</mgrwt>
</event>
<event>
 5    1  0.1122238E+001  0.2830012E+03  0.7818608E-02  0.1094061E+00
         -2   -1    0    0    0  501 -0.00000000000E+00  0.00000000000E+00  0.67240897478E+02  0.67240897478E+02  0.00000000000E+00 0. -1.
          2   -1    0    0  501    0  0.00000000000E+00 -0.00000000000E+00 -0.29777134938E+03  0.29777134938E+03  0.00000000000E+00 0. -1.
         35    2    1    2    0    0  0.00000000000E+00  0.00000000000E+00 -0.23053045190E+03  0.36501224685E+03  0.28300115035E+03 0.  0.
         25    1    3    3    0    0 -0.31484700532E+02 -0.50657640509E+02 -0.17387524845E+03  0.21952240189E+03  0.12000000000E+03 0.  0.
         25    1    3    3    0    0  0.31484700532E+02  0.50657640509E+02 -0.56655203453E+02  0.14548984496E+03  0.12000000000E+03 0.  0.
<mgrwt>
<rscale>  0 0.28300115E+03</rscale>
<asrwt>0</asrwt>
<pdfrwt beam="1">  1        2 0.45810976E-01 0.28300115E+03</pdfrwt>
<pdfrwt beam="2">  1       -2 0.10344754E-01 0.28300115E+03</pdfrwt>
<totfact> 0.68874176E+03</totfact>
</mgrwt>
</event>
<event>
 5    1  0.1122238E+001  0.2744767E+03  0.7818608E-02  0.1098744E+00
         -2   -1    0    0    0  501 -0.00000000000E+00  0.00000000000E+00  0.95222750829E+03  0.95222750829E+03  0.00000000000E+00 0. -1.
          2   -1    0    0  501    0  0.00000000000E+00 -0.00000000000E+00 -0.19779266519E+02  0.19779266519E+02  0.00000000000E+00 0. -1.
         35    2    1    2    0    0  0.00000000000E+00  0.00000000000E+00  0.93244824177E+03  0.97200677481E+03  0.27447667787E+03 0.  0.
         25    1    3    3    0    0 -0.52688182067E+02  0.29677468848E+02  0.56497300379E+03  0.58073340846E+03  0.12000000000E+03 0.  0.
         25    1    3    3    0    0  0.52688182067E+02 -0.29677468848E+02  0.36747523798E+03  0.39127336635E+03  0.12000000000E+03 0.  0.
<mgrwt>
<rscale>  0 0.27447668E+03</rscale>
<asrwt>0</asrwt>
<pdfrwt beam="1">  1        2 0.30429648E-02 0.27447668E+03</pdfrwt>
<pdfrwt beam="2">  1       -2 0.14649650E+00 0.27447668E+03</pdfrwt>
<totfact> 0.10357766E+03</totfact>
</mgrwt>
</event>
<event>
 5    1  0.1122238E+001  0.2734064E+03  0.7818608E-02  0.1099346E+00
          2   -1    0    0  501    0  0.00000000000E+00  0.00000000000E+00  0.19721440079E+03  0.19721440079E+03  0.00000000000E+00 0. -1.
         -2   -1    0    0    0  501 -0.00000000000E+00 -0.00000000000E+00 -0.94758648411E+02  0.94758648411E+02  0.00000000000E+00 0. -1.
         35    2    1    2    0    0  0.00000000000E+00  0.00000000000E+00  0.10245575238E+03  0.29197304920E+03  0.27340643786E+03 0.  0.
         25    1    3    3    0    0  0.25956674835E+02  0.56154956242E+02  0.28307814124E+02  0.13794368568E+03  0.12000000000E+03 0.  0.
         25    1    3    3    0    0 -0.25956674835E+02 -0.56154956242E+02  0.74147938259E+02  0.15402936352E+03  0.12000000000E+03 0.  0.
<mgrwt>
<rscale>  0 0.27340644E+03</rscale>
<asrwt>0</asrwt>
<pdfrwt beam="1">  1        2 0.30340677E-01 0.27340644E+03</pdfrwt>
<pdfrwt beam="2">  1       -2 0.14578254E-01 0.27340644E+03</pdfrwt>
<totfact> 0.61676788E+03</totfact>
</mgrwt>
</event>
<event>
 5    1  0.1122238E+001  0.2617254E+03  0.7818608E-02  0.1106111E+00
         -1   -1    0    0    0  501 -0.00000000000E+00  0.00000000000E+00  0.17872517010E+02  0.17872517010E+02  0.00000000000E+00 0. -1.
          1   -1    0    0  501    0  0.00000000000E+00 -0.00000000000E+00 -0.95817737418E+03  0.95817737418E+03  0.00000000000E+00 0. -1.
         35    2    1    2    0    0  0.00000000000E+00  0.00000000000E+00 -0.94030485717E+03  0.97604989119E+03  0.26172536307E+03 0.  0.
         25    1    3    3    0    0 -0.20506792436E+02 -0.45658206627E+02 -0.41485809839E+03  0.43475561201E+03  0.12000000000E+03 0.  0.
         25    1    3    3    0    0  0.20506792436E+02  0.45658206627E+02 -0.52544675878E+03  0.54129427919E+03  0.12000000000E+03 0.  0.
<mgrwt>
<rscale>  0 0.26172536E+03</rscale>
<asrwt>0</asrwt>
<pdfrwt beam="1">  1        1 0.14741190E+00 0.26172536E+03</pdfrwt>
<pdfrwt beam="2">  1       -1 0.27496180E-02 0.26172536E+03</pdfrwt>
<totfact> 0.73630060E+03</totfact>
</mgrwt>
</event>
<event>
 5    1  0.1122238E+001  0.2754928E+03  0.7818608E-02  0.1098176E+00
         -2   -1    0    0    0  501 -0.00000000000E+00  0.00000000000E+00  0.10545022125E+02  0.10545022125E+02  0.00000000000E+00 0.  1.
          2   -1    0    0  501    0  0.00000000000E+00 -0.00000000000E+00 -0.17993396522E+04  0.17993396522E+04  0.00000000000E+00 0.  1.
         35    2    1    2    0    0  0.00000000000E+00  0.00000000000E+00 -0.17887946301E+04  0.18098846744E+04  0.27549284160E+03 0.  0.
         25    1    3    3    0    0 -0.63729742976E+02  0.21130046727E+02 -0.94781666071E+03  0.95773920320E+03  0.12000000000E+03 0.  0.
         25    1    3    3    0    0  0.63729742976E+02 -0.21130046727E+02 -0.84097796940E+03  0.85214547117E+03  0.12000000000E+03 0.  0.
<mgrwt>
<rscale>  0 0.27549284E+03</rscale>
<asrwt>0</asrwt>
<pdfrwt beam="1">  1        2 0.27682118E+00 0.27549284E+03</pdfrwt>
<pdfrwt beam="2">  1       -2 0.16223129E-02 0.27549284E+03</pdfrwt>
<totfact> 0.99618774E+03</totfact>
</mgrwt>
</event>
<event>
 5    1  0.1122238E+001  0.2751330E+03  0.7818608E-02  0.1098377E+00
         -1   -1    0    0    0  501 -0.00000000000E+00  0.00000000000E+00  0.63994241288E+02  0.63994241288E+02  0.00000000000E+00 0.  1.
          1   -1    0    0  501    0  0.00000000000E+00 -0.00000000000E+00 -0.29572249493E+03  0.29572249493E+03  0.00000000000E+00 0.  1.
         35    2    1    2    0    0  0.00000000000E+00  0.00000000000E+00 -0.23172825364E+03  0.35971673622E+03  0.27513296200E+03 0.  0.
         25    1    3    3    0    0 -0.62082042047E+02  0.22241877924E+02 -0.98536102811E+02  0.16869571611E+03  0.12000000000E+03 0.  0.
         25    1    3    3    0    0  0.62082042047E+02 -0.22241877924E+02 -0.13319215083E+03  0.19102102010E+03  0.12000000000E+03 0.  0.
<mgrwt>
<rscale>  0 0.27513296E+03</rscale>
<asrwt>0</asrwt>
<pdfrwt beam="1">  1        1 0.45495769E-01 0.27513296E+03</pdfrwt>
<pdfrwt beam="2">  1       -1 0.98452679E-02 0.27513296E+03</pdfrwt>
<totfact> 0.55360143E+03</totfact>
</mgrwt>
</event>
<event>
 5    1  0.1122238E+001  0.2732334E+03  0.7818608E-02  0.1099443E+00
         -1   -1    0    0    0  501 -0.00000000000E+00  0.00000000000E+00  0.36563995114E+02  0.36563995114E+02  0.00000000000E+00 0.  1.
          1   -1    0    0  501    0  0.00000000000E+00 -0.00000000000E+00 -0.51045070203E+03  0.51045070203E+03  0.00000000000E+00 0.  1.
         35    2    1    2    0    0  0.00000000000E+00  0.00000000000E+00 -0.47388670691E+03  0.54701469714E+03  0.27323335795E+03 0.  0.
         25    1    3    3    0    0  0.46771141023E+02  0.45552191217E+02 -0.23443068303E+03  0.27133058600E+03  0.12000000000E+03 0.  0.
         25    1    3    3    0    0 -0.46771141023E+02 -0.45552191217E+02 -0.23945602389E+03  0.27568411114E+03  0.12000000000E+03 0.  0.
<mgrwt>
<rscale>  0 0.27323336E+03</rscale>
<asrwt>0</asrwt>
<pdfrwt beam="1">  1        1 0.78530875E-01 0.27323336E+03</pdfrwt>
<pdfrwt beam="2">  1       -1 0.56252302E-02 0.27323336E+03</pdfrwt>
<totfact> 0.64381177E+03</totfact>
</mgrwt>
</event>
<event>
 5    1  0.1122238E+001  0.2711544E+03  0.7818608E-02  0.1100621E+00
          1   -1    0    0  501    0  0.00000000000E+00  0.00000000000E+00  0.19660491347E+04  0.19660491347E+04  0.00000000000E+00 0.  1.
         -1   -1    0    0    0  501 -0.00000000000E+00 -0.00000000000E+00 -0.93492998748E+01  0.93492998748E+01  0.00000000000E+00 0.  1.
         35    2    1    2    0    0  0.00000000000E+00  0.00000000000E+00  0.19566998349E+04  0.19753984346E+04  0.27115444255E+03 0.  0.
         25    1    3    3    0    0 -0.59094463899E+02 -0.18616398847E+02  0.89139786920E+03  0.90157023419E+03  0.12000000000E+03 0.  0.
         25    1    3    3    0    0  0.59094463899E+02  0.18616398847E+02  0.10653019657E+04  0.10738282004E+04  0.12000000000E+03 0.  0.
<mgrwt>
<rscale>  0 0.27115444E+03</rscale>
<asrwt>0</asrwt>
<pdfrwt beam="1">  1        1 0.30246877E+00 0.27115444E+03</pdfrwt>
<pdfrwt beam="2">  1       -1 0.14383554E-02 0.27115444E+03</pdfrwt>
<totfact> 0.39381536E+03</totfact>
</mgrwt>
</event>
<event>
 5    1  0.1122238E+001  0.2752137E+03  0.7818608E-02  0.1098332E+00
         -1   -1    0    0    0  501 -0.00000000000E+00  0.00000000000E+00  0.59322341642E+03  0.59322341642E+03  0.00000000000E+00 0. -1.
          1   -1    0    0  501    0  0.00000000000E+00 -0.00000000000E+00 -0.31919928103E+02  0.31919928103E+02  0.00000000000E+00 0. -1.
         35    2    1    2    0    0  0.00000000000E+00  0.00000000000E+00  0.56130348832E+03  0.62514334453E+03  0.27521372641E+03 0.  0.
         25    1    3    3    0    0  0.18481295666E+02 -0.26347112596E+02  0.41503296752E+03  0.43322983826E+03  0.12000000000E+03 0.  0.
         25    1    3    3    0    0 -0.18481295666E+02  0.26347112596E+02  0.14627052080E+03  0.19191350627E+03  0.12000000000E+03 0.  0.
<mgrwt>
<rscale>  0 0.27521373E+03</rscale>
<asrwt>0</asrwt>
<pdfrwt beam="1">  1        1 0.49107586E-02 0.27521373E+03</pdfrwt>
<pdfrwt beam="2">  1       -1 0.91265133E-01 0.27521373E+03</pdfrwt>
<totfact> 0.21012727E+03</totfact>
</mgrwt>
</event>
<event>
 5    1  0.1122238E+001  0.2749834E+03  0.7818608E-02  0.1098461E+00
         -2   -1    0    0    0  501 -0.00000000000E+00  0.00000000000E+00  0.20088230679E+03  0.20088230679E+03  0.00000000000E+00 0.  1.
          2   -1    0    0  501    0  0.00000000000E+00 -0.00000000000E+00 -0.94104721034E+02  0.94104721034E+02  0.00000000000E+00 0.  1.
         35    2    1    2    0    0  0.00000000000E+00  0.00000000000E+00  0.10677758576E+03  0.29498702783E+03  0.27498344271E+03 0.  0.
         25    1    3    3    0    0 -0.29163626190E+02  0.58404477447E+02  0.70089652196E+02  0.15353878801E+03  0.12000000000E+03 0.  0.
         25    1    3    3    0    0  0.29163626190E+02 -0.58404477447E+02  0.36687933563E+02  0.14144823982E+03  0.12000000000E+03 0.  0.
<mgrwt>
<rscale>  0 0.27498344E+03</rscale>
<asrwt>0</asrwt>
<pdfrwt beam="1">  1        2 0.14477649E-01 0.27498344E+03</pdfrwt>
<pdfrwt beam="2">  1       -2 0.30904970E-01 0.27498344E+03</pdfrwt>
<totfact> 0.39161694E+03</totfact>
</mgrwt>
</event>
<event>
 5    1  0.1122238E+001  0.2758815E+03  0.7818608E-02  0.1097960E+00
          2   -1    0    0  501    0  0.00000000000E+00  0.00000000000E+00  0.20373007045E+04  0.20373007045E+04  0.00000000000E+00 0. -1.
         -2   -1    0    0    0  501 -0.00000000000E+00 -0.00000000000E+00 -0.93396373152E+01  0.93396373152E+01  0.00000000000E+00 0. -1.
         35    2    1    2    0    0  0.00000000000E+00  0.00000000000E+00  0.20279610672E+04  0.20466403418E+04  0.27588149399E+03 0.  0.
         25    1    3    3    0    0  0.24967531084E+02  0.60648550185E+02  0.11479311456E+04  0.11560482426E+04  0.12000000000E+03 0.  0.
         25    1    3    3    0    0 -0.24967531084E+02 -0.60648550185E+02  0.88002992160E+03  0.89059209920E+03  0.12000000000E+03 0.  0.
<mgrwt>
<rscale>  0 0.27588149E+03</rscale>
<asrwt>0</asrwt>
<pdfrwt beam="1">  1        2 0.31343052E+00 0.27588149E+03</pdfrwt>
<pdfrwt beam="2">  1       -2 0.14368689E-02 0.27588149E+03</pdfrwt>
<totfact> 0.89220817E+03</totfact>
</mgrwt>
</event>
<event>
 5    1  0.1122238E+001  0.2747791E+03  0.7818608E-02  0.1098575E+00
          2   -1    0    0  501    0  0.00000000000E+00  0.00000000000E+00  0.14497920834E+03  0.14497920834E+03  0.00000000000E+00 0. -1.
         -2   -1    0    0    0  501 -0.00000000000E+00 -0.00000000000E+00 -0.13019721558E+03  0.13019721558E+03  0.00000000000E+00 0. -1.
         35    2    1    2    0    0  0.00000000000E+00  0.00000000000E+00  0.14781992761E+02  0.27517642392E+03  0.27477910578E+03 0.  0.
         25    1    3    3    0    0  0.48887390447E+02  0.43458731448E+02 -0.66739175394E+01  0.13683266956E+03  0.12000000000E+03 0.  0.
         25    1    3    3    0    0 -0.48887390447E+02 -0.43458731448E+02  0.21455910300E+02  0.13834375436E+03  0.12000000000E+03 0.  0.
<mgrwt>
<rscale>  0 0.27477911E+03</rscale>
<asrwt>0</asrwt>
<pdfrwt beam="1">  1        2 0.22304493E-01 0.27477911E+03</pdfrwt>
<pdfrwt beam="2">  1       -2 0.20030341E-01 0.27477911E+03</pdfrwt>
<totfact> 0.50990182E+03</totfact>
</mgrwt>
</event>
<event>
 5    1  0.1122238E+001  0.2774275E+03  0.7818608E-02  0.1097102E+00
          2   -1    0    0  501    0  0.00000000000E+00  0.00000000000E+00  0.23406517251E+02  0.23406517251E+02  0.00000000000E+00 0. -1.
         -2   -1    0    0    0  501 -0.00000000000E+00 -0.00000000000E+00 -0.82205732623E+03  0.82205732623E+03  0.00000000000E+00 0. -1.
         35    2    1    2    0    0  0.00000000000E+00  0.00000000000E+00 -0.79865080898E+03  0.84546384348E+03  0.27742746070E+03 0.  0.
         25    1    3    3    0    0  0.39109445045E+02 -0.22062460196E+02 -0.23734217658E+03  0.26971764797E+03  0.12000000000E+03 0.  0.
         25    1    3    3    0    0 -0.39109445045E+02  0.22062460196E+02 -0.56130863240E+03  0.57574619551E+03  0.12000000000E+03 0.  0.
<mgrwt>
<rscale>  0 0.27742746E+03</rscale>
<asrwt>0</asrwt>
<pdfrwt beam="1">  1        2 0.36010024E-02 0.27742746E+03</pdfrwt>
<pdfrwt beam="2">  1       -2 0.12647037E+00 0.27742746E+03</pdfrwt>
<totfact> 0.11929058E+03</totfact>
</mgrwt>
</event>
<event>
 5    1  0.1122238E+001  0.2750050E+03  0.7818608E-02  0.1098449E+00
         -2   -1    0    0    0  501 -0.00000000000E+00  0.00000000000E+00  0.14661807926E+02  0.14661807926E+02  0.00000000000E+00 0. -1.
          2   -1    0    0  501    0  0.00000000000E+00 -0.00000000000E+00 -0.12895366312E+04  0.12895366312E+04  0.00000000000E+00 0. -1.
         35    2    1    2    0    0  0.00000000000E+00  0.00000000000E+00 -0.12748748233E+04  0.13041984392E+04  0.27500500651E+03 0.  0.
         25    1    3    3    0    0 -0.36366905323E+02 -0.16980244492E+02 -0.89265270526E+03  0.90157624897E+03  0.12000000000E+03 0.  0.
         25    1    3    3    0    0  0.36366905323E+02  0.16980244492E+02 -0.38222211806E+03  0.40262219020E+03  0.12000000000E+03 0.  0.
<mgrwt>
<rscale>  0 0.27500501E+03</rscale>
<asrwt>0</asrwt>
<pdfrwt beam="1">  1        2 0.19839026E+00 0.27500501E+03</pdfrwt>
<pdfrwt beam="2">  1       -2 0.22556626E-02 0.27500501E+03</pdfrwt>
<totfact> 0.11500473E+04</totfact>
</mgrwt>
</event>
<event>
 5    1  0.1122238E+001  0.2747665E+03  0.7818608E-02  0.1098582E+00
         -2   -1    0    0    0  501 -0.00000000000E+00  0.00000000000E+00  0.35202567854E+02  0.35202567854E+02  0.00000000000E+00 0. -1.
          2   -1    0    0  501    0  0.00000000000E+00 -0.00000000000E+00 -0.53615839939E+03  0.53615839939E+03  0.00000000000E+00 0. -1.
         35    2    1    2    0    0  0.00000000000E+00  0.00000000000E+00 -0.50095583153E+03  0.57136096724E+03  0.27476646400E+03 0.  0.
         25    1    3    3    0    0  0.47684372353E+02 -0.19244188371E+01 -0.34793810360E+03  0.37113127959E+03  0.12000000000E+03 0.  0.
         25    1    3    3    0    0 -0.47684372353E+02  0.19244188371E+01 -0.15301772793E+03  0.20022968765E+03  0.12000000000E+03 0.  0.
<mgrwt>
<rscale>  0 0.27476646E+03</rscale>
<asrwt>0</asrwt>
<pdfrwt beam="1">  1        2 0.82485907E-01 0.27476646E+03</pdfrwt>
<pdfrwt beam="2">  1       -2 0.54157797E-02 0.27476646E+03</pdfrwt>
<totfact> 0.99071665E+03</totfact>
</mgrwt>
</event>
<event>
 5    1  0.1122238E+001  0.2748441E+03  0.7818608E-02  0.1098539E+00
          2   -1    0    0  501    0  0.00000000000E+00  0.00000000000E+00  0.22312246301E+03  0.22312246301E+03  0.00000000000E+00 0.  1.
         -2   -1    0    0    0  501 -0.00000000000E+00 -0.00000000000E+00 -0.84638834056E+02  0.84638834056E+02  0.00000000000E+00 0.  1.
         35    2    1    2    0    0  0.00000000000E+00  0.00000000000E+00  0.13848362895E+03  0.30776129706E+03  0.27484413853E+03 0.  0.
         25    1    3    3    0    0  0.28109189561E+02 -0.58898096374E+02  0.52418729305E+02  0.14631074969E+03  0.12000000000E+03 0.  0.
         25    1    3    3    0    0 -0.28109189561E+02  0.58898096374E+02  0.86064899646E+02  0.16145054737E+03  0.12000000000E+03 0.  0.
<mgrwt>
<rscale>  0 0.27484414E+03</rscale>
<asrwt>0</asrwt>
<pdfrwt beam="1">  1        2 0.34326533E-01 0.27484414E+03</pdfrwt>
<pdfrwt beam="2">  1       -2 0.13021359E-01 0.27484414E+03</pdfrwt>
<totfact> 0.64864590E+03</totfact>
</mgrwt>
</event>
<event>
 5    1  0.1122238E+001  0.2750593E+03  0.7818608E-02  0.1098418E+00
          1   -1    0    0  501    0  0.00000000000E+00  0.00000000000E+00  0.38534019954E+03  0.38534019954E+03  0.00000000000E+00 0. -1.
         -1   -1    0    0    0  501 -0.00000000000E+00 -0.00000000000E+00 -0.49084934389E+02  0.49084934389E+02  0.00000000000E+00 0. -1.
         35    2    1    2    0    0  0.00000000000E+00  0.00000000000E+00  0.33625526515E+03  0.43442513393E+03  0.27505925479E+03 0.  0.
         25    1    3    3    0    0  0.48966826043E+01  0.60454249501E+02  0.21378544351E+03  0.25255278585E+03  0.12000000000E+03 0.  0.
         25    1    3    3    0    0 -0.48966826043E+01 -0.60454249501E+02  0.12246982164E+03  0.18187234808E+03  0.12000000000E+03 0.  0.
<mgrwt>
<rscale>  0 0.27505925E+03</rscale>
<asrwt>0</asrwt>
<pdfrwt beam="1">  1        1 0.59283106E-01 0.27505925E+03</pdfrwt>
<pdfrwt beam="2">  1       -1 0.75515286E-02 0.27505925E+03</pdfrwt>
<totfact> 0.59470838E+03</totfact>
</mgrwt>
</event>
<event>
 5    1  0.1122238E+001  0.2745762E+03  0.7818608E-02  0.1098689E+00
          2   -1    0    0  501    0  0.00000000000E+00  0.00000000000E+00  0.87967505941E+02  0.87967505941E+02  0.00000000000E+00 0.  1.
         -2   -1    0    0    0  501 -0.00000000000E+00 -0.00000000000E+00 -0.21426121170E+03  0.21426121170E+03  0.00000000000E+00 0.  1.
         35    2    1    2    0    0  0.00000000000E+00  0.00000000000E+00 -0.12629370576E+03  0.30222871764E+03  0.27457621465E+03 0.  0.
         25    1    3    3    0    0  0.32281268961E+02 -0.42573363890E+02 -0.10708506825E+03  0.16947502318E+03  0.12000000000E+03 0.  0.
         25    1    3    3    0    0 -0.32281268961E+02  0.42573363890E+02 -0.19208637506E+02  0.13275369446E+03  0.12000000000E+03 0.  0.
<mgrwt>
<rscale>  0 0.27457621E+03</rscale>
<asrwt>0</asrwt>
<pdfrwt beam="1">  1        2 0.13533463E-01 0.27457621E+03</pdfrwt>
<pdfrwt beam="2">  1       -2 0.32963263E-01 0.27457621E+03</pdfrwt>
<totfact> 0.37710790E+03</totfact>
</mgrwt>
</event>
<event>
 5    1  0.1122238E+001  0.2746319E+03  0.7818608E-02  0.1098658E+00
         -4   -1    0    0    0  501 -0.00000000000E+00  0.00000000000E+00  0.38734899887E+02  0.38734899887E+02  0.00000000000E+00 0.  1.
          4   -1    0    0  501    0  0.00000000000E+00 -0.00000000000E+00 -0.48678753200E+03  0.48678753200E+03  0.00000000000E+00 0.  1.
         35    2    1    2    0    0  0.00000000000E+00  0.00000000000E+00 -0.44805263211E+03  0.52552243189E+03  0.27463187228E+03 0.  0.
         25    1    3    3    0    0  0.46500746037E+02 -0.32835007782E+02 -0.29073246139E+03  0.31963388623E+03  0.12000000000E+03 0.  0.
         25    1    3    3    0    0 -0.46500746037E+02  0.32835007782E+02 -0.15732017072E+03  0.20588854566E+03  0.12000000000E+03 0.  0.
<mgrwt>
<rscale>  0 0.27463187E+03</rscale>
<asrwt>0</asrwt>
<pdfrwt beam="1">  1        4 0.74890390E-01 0.27463187E+03</pdfrwt>
<pdfrwt beam="2">  1       -4 0.59592154E-02 0.27463187E+03</pdfrwt>
<totfact> 0.55288165E+02</totfact>
</mgrwt>
</event>
<event>
 5    1  0.1122238E+001  0.2710313E+03  0.7818608E-02  0.1100691E+00
         -2   -1    0    0    0  501 -0.00000000000E+00  0.00000000000E+00  0.87789041079E+01  0.87789041079E+01  0.00000000000E+00 0.  1.
          2   -1    0    0  501    0  0.00000000000E+00 -0.00000000000E+00 -0.20918890911E+04  0.20918890911E+04  0.00000000000E+00 0.  1.
         35    2    1    2    0    0  0.00000000000E+00  0.00000000000E+00 -0.20831101870E+04  0.21006679952E+04  0.27103131727E+03 0.  0.
         25    1    3    3    0    0 -0.90085074182E+01  0.57327509746E+01 -0.56061037631E+03  0.57340911369E+03  0.12000000000E+03 0.  0.
         25    1    3    3    0    0  0.90085074182E+01 -0.57327509746E+01 -0.15224998107E+04  0.15272588815E+04  0.12000000000E+03 0.  0.
<mgrwt>
<rscale>  0 0.27103132E+03</rscale>
<asrwt>0</asrwt>
<pdfrwt beam="1">  1        2 0.32182946E+00 0.27103132E+03</pdfrwt>
<pdfrwt beam="2">  1       -2 0.13505991E-02 0.27103132E+03</pdfrwt>
<totfact> 0.91387302E+03</totfact>
</mgrwt>
</event>
<event>
 5    1  0.1122238E+001  0.2767588E+03  0.7818608E-02  0.1097472E+00
          2   -1    0    0  501    0  0.00000000000E+00  0.00000000000E+00  0.66973690892E+03  0.66973690892E+03  0.00000000000E+00 0. -1.
         -2   -1    0    0    0  501 -0.00000000000E+00 -0.00000000000E+00 -0.28591621337E+02  0.28591621337E+02  0.00000000000E+00 0. -1.
         35    2    1    2    0    0  0.00000000000E+00  0.00000000000E+00  0.64114528759E+03  0.69832853026E+03  0.27675884156E+03 0.  0.
         25    1    3    3    0    0  0.61649081206E+02 -0.27420382013E+02  0.28521330134E+03  0.31670035337E+03  0.12000000000E+03 0.  0.
         25    1    3    3    0    0 -0.61649081206E+02  0.27420382013E+02  0.35593198625E+03  0.38162817689E+03  0.12000000000E+03 0.  0.
<mgrwt>
<rscale>  0 0.27675884E+03</rscale>
<asrwt>0</asrwt>
<pdfrwt beam="1">  1        2 0.10303644E+00 0.27675884E+03</pdfrwt>
<pdfrwt beam="2">  1       -2 0.43987115E-02 0.27675884E+03</pdfrwt>
<totfact> 0.10492770E+04</totfact>
</mgrwt>
</event>
<event>
 5    1  0.1122238E+001  0.2752572E+03  0.7818608E-02  0.1098308E+00
          1   -1    0    0  501    0  0.00000000000E+00  0.00000000000E+00  0.84373748179E+03  0.84373748179E+03  0.00000000000E+00 0. -1.
         -1   -1    0    0    0  501 -0.00000000000E+00 -0.00000000000E+00 -0.22449677309E+02  0.22449677309E+02  0.00000000000E+00 0. -1.
         35    2    1    2    0    0  0.00000000000E+00  0.00000000000E+00  0.82128780448E+03  0.86618715909E+03  0.27525721934E+03 0.  0.
         25    1    3    3    0    0  0.24442103113E+02 -0.29958244429E+02  0.58433973268E+03  0.59778577769E+03  0.12000000000E+03 0.  0.
         25    1    3    3    0    0 -0.24442103113E+02  0.29958244429E+02  0.23694807179E+03  0.26840138141E+03  0.12000000000E+03 0.  0.
<mgrwt>
<rscale>  0 0.27525722E+03</rscale>
<asrwt>0</asrwt>
<pdfrwt beam="1">  1        1 0.12980574E+00 0.27525722E+03</pdfrwt>
<pdfrwt beam="2">  1       -1 0.34537972E-02 0.27525722E+03</pdfrwt>
<totfact> 0.64765685E+03</totfact>
</mgrwt>
</event>
<event>
 5    1  0.1122238E+001  0.2766223E+03  0.7818608E-02  0.1097548E+00
         -2   -1    0    0    0  501 -0.00000000000E+00  0.00000000000E+00  0.11257191962E+02  0.11257191962E+02  0.00000000000E+00 0. -1.
          2   -1    0    0  501    0  0.00000000000E+00 -0.00000000000E+00 -0.16993562323E+04  0.16993562323E+04  0.00000000000E+00 0. -1.
         35    2    1    2    0    0  0.00000000000E+00  0.00000000000E+00 -0.16880990403E+04  0.17106134243E+04  0.27662233690E+03 0.  0.
         25    1    3    3    0    0 -0.66870156135E+02  0.12090912900E+02 -0.77855490020E+03  0.79067410517E+03  0.12000000000E+03 0.  0.
         25    1    3    3    0    0  0.66870156135E+02 -0.12090912900E+02 -0.90954414014E+03  0.91993931909E+03  0.12000000000E+03 0.  0.
<mgrwt>
<rscale>  0 0.27662234E+03</rscale>
<asrwt>0</asrwt>
<pdfrwt beam="1">  1        2 0.26143946E+00 0.27662234E+03</pdfrwt>
<pdfrwt beam="2">  1       -2 0.17318754E-02 0.27662234E+03</pdfrwt>
<totfact> 0.10217183E+04</totfact>
</mgrwt>
</event>
<event>
 5    1  0.1122238E+001  0.2737336E+03  0.7818608E-02  0.1099162E+00
         -1   -1    0    0    0  501 -0.00000000000E+00  0.00000000000E+00  0.76572958749E+02  0.76572958749E+02  0.00000000000E+00 0. -1.
          1   -1    0    0  501    0  0.00000000000E+00 -0.00000000000E+00 -0.24463616089E+03  0.24463616089E+03  0.00000000000E+00 0. -1.
         35    2    1    2    0    0  0.00000000000E+00  0.00000000000E+00 -0.16806320214E+03  0.32120911964E+03  0.27373355407E+03 0.  0.
         25    1    3    3    0    0 -0.48235595096E+02  0.28731224914E+01 -0.31585560936E+02  0.13316371550E+03  0.12000000000E+03 0.  0.
         25    1    3    3    0    0  0.48235595096E+02 -0.28731224914E+01 -0.13647764120E+03  0.18804540413E+03  0.12000000000E+03 0.  0.
<mgrwt>
<rscale>  0 0.27373355E+03</rscale>
<asrwt>0</asrwt>
<pdfrwt beam="1">  1        1 0.37636332E-01 0.27373355E+03</pdfrwt>
<pdfrwt beam="2">  1       -1 0.11780455E-01 0.27373355E+03</pdfrwt>
<totfact> 0.53156448E+03</totfact>
</mgrwt>
</event>
<event>
 5    1  0.1122238E+001  0.2749314E+03  0.7818608E-02  0.1098490E+00
         -1   -1    0    0    0  501 -0.00000000000E+00  0.00000000000E+00  0.12576957191E+03  0.12576957191E+03  0.00000000000E+00 0.  1.
          1   -1    0    0  501    0  0.00000000000E+00 -0.00000000000E+00 -0.15024947662E+03  0.15024947662E+03  0.00000000000E+00 0.  1.
         35    2    1    2    0    0  0.00000000000E+00  0.00000000000E+00 -0.24479904715E+02  0.27601904853E+03  0.27493135401E+03 0.  0.
         25    1    3    3    0    0  0.43229640069E+02 -0.50712242062E+02 -0.19771570183E+02  0.13867749732E+03  0.12000000000E+03 0.  0.
         25    1    3    3    0    0 -0.43229640069E+02  0.50712242062E+02 -0.47083345319E+01  0.13734155121E+03  0.12000000000E+03 0.  0.
<mgrwt>
<rscale>  0 0.27493135E+03</rscale>
<asrwt>0</asrwt>
<pdfrwt beam="1">  1        1 0.23115304E-01 0.27493135E+03</pdfrwt>
<pdfrwt beam="2">  1       -1 0.19349165E-01 0.27493135E+03</pdfrwt>
<totfact> 0.44765660E+03</totfact>
</mgrwt>
</event>
<event>
 5    1  0.1122238E+001  0.2747643E+03  0.7818608E-02  0.1098583E+00
         -1   -1    0    0    0  501 -0.00000000000E+00  0.00000000000E+00  0.24816770197E+03  0.24816770197E+03  0.00000000000E+00 0. -1.
          1   -1    0    0  501    0  0.00000000000E+00 -0.00000000000E+00 -0.76052822742E+02  0.76052822742E+02  0.00000000000E+00 0. -1.
         35    2    1    2    0    0  0.00000000000E+00  0.00000000000E+00  0.17211487923E+03  0.32422052471E+03  0.27476429352E+03 0.  0.
         25    1    3    3    0    0  0.21212593618E+02  0.60653836862E+02  0.64140251026E+02  0.15047535963E+03  0.12000000000E+03 0.  0.
         25    1    3    3    0    0 -0.21212593618E+02 -0.60653836862E+02  0.10797462820E+03  0.17374516508E+03  0.12000000000E+03 0.  0.
<mgrwt>
<rscale>  0 0.27476429E+03</rscale>
<asrwt>0</asrwt>
<pdfrwt beam="1">  1        1 0.11700434E-01 0.27476429E+03</pdfrwt>
<pdfrwt beam="2">  1       -1 0.38179646E-01 0.27476429E+03</pdfrwt>
<totfact> 0.34656984E+03</totfact>
</mgrwt>
</event>
<event>
 5    1  0.1122238E+001  0.2741165E+03  0.7818608E-02  0.1098946E+00
          1   -1    0    0  501    0  0.00000000000E+00  0.00000000000E+00  0.13543601982E+04  0.13543601982E+04  0.00000000000E+00 0.  1.
         -1   -1    0    0    0  501 -0.00000000000E+00 -0.00000000000E+00 -0.13869993858E+02  0.13869993858E+02  0.00000000000E+00 0.  1.
         35    2    1    2    0    0  0.00000000000E+00  0.00000000000E+00  0.13404902044E+04  0.13682301921E+04  0.27411652727E+03 0.  0.
         25    1    3    3    0    0 -0.65712319652E+02  0.66562989745E+01  0.64654119404E+03  0.66089176940E+03  0.12000000000E+03 0.  0.
         25    1    3    3    0    0  0.65712319652E+02 -0.66562989745E+01  0.69394901032E+03  0.70733842268E+03  0.12000000000E+03 0.  0.
<mgrwt>
<rscale>  0 0.27411653E+03</rscale>
<asrwt>0</asrwt>
<pdfrwt beam="1">  1        1 0.20836300E+00 0.27411653E+03</pdfrwt>
<pdfrwt beam="2">  1       -1 0.21338463E-02 0.27411653E+03</pdfrwt>
<totfact> 0.55866462E+03</totfact>
</mgrwt>
</event>
<event>
 5    1  0.1122238E+001  0.2750338E+03  0.7818608E-02  0.1098433E+00
         -2   -1    0    0    0  501 -0.00000000000E+00  0.00000000000E+00  0.13264115866E+02  0.13264115866E+02  0.00000000000E+00 0. -1.
          2   -1    0    0  501    0  0.00000000000E+00 -0.00000000000E+00 -0.14257188468E+04  0.14257188468E+04  0.00000000000E+00 0. -1.
         35    2    1    2    0    0  0.00000000000E+00  0.00000000000E+00 -0.14124547309E+04  0.14389829627E+04  0.27503381593E+03 0.  0.
         25    1    3    3    0    0 -0.33923170788E+02  0.30441131548E+02 -0.44813134758E+03  0.46615356772E+03  0.12000000000E+03 0.  0.
         25    1    3    3    0    0  0.33923170788E+02 -0.30441131548E+02 -0.96432338333E+03  0.97282939493E+03  0.12000000000E+03 0.  0.
<mgrwt>
<rscale>  0 0.27503382E+03</rscale>
<asrwt>0</asrwt>
<pdfrwt beam="1">  1        2 0.21934120E+00 0.27503382E+03</pdfrwt>
<pdfrwt beam="2">  1       -2 0.20406347E-02 0.27503382E+03</pdfrwt>
<totfact> 0.11227679E+04</totfact>
</mgrwt>
</event>
<event>
 5    1  0.1122238E+001  0.2752606E+03  0.7818608E-02  0.1098306E+00
         -2   -1    0    0    0  501 -0.00000000000E+00  0.00000000000E+00  0.84276571255E+02  0.84276571255E+02  0.00000000000E+00 0.  1.
          2   -1    0    0  501    0  0.00000000000E+00 -0.00000000000E+00 -0.22476113252E+03  0.22476113252E+03  0.00000000000E+00 0.  1.
         35    2    1    2    0    0  0.00000000000E+00  0.00000000000E+00 -0.14048456126E+03  0.30903770377E+03  0.27526058635E+03 0.  0.
         25    1    3    3    0    0 -0.56950510670E+02  0.30074618294E+02 -0.47949941575E+02  0.14438504157E+03  0.12000000000E+03 0.  0.
         25    1    3    3    0    0  0.56950510670E+02 -0.30074618294E+02 -0.92534619689E+02  0.16465266221E+03  0.12000000000E+03 0.  0.
<mgrwt>
<rscale>  0 0.27526059E+03</rscale>
<asrwt>0</asrwt>
<pdfrwt beam="1">  1        2 0.34578635E-01 0.27526059E+03</pdfrwt>
<pdfrwt beam="2">  1       -2 0.12965627E-01 0.27526059E+03</pdfrwt>
<totfact> 0.64805262E+03</totfact>
</mgrwt>
</event>
<event>
 5    1  0.1122238E+001  0.2751221E+03  0.7818608E-02  0.1098383E+00
          1   -1    0    0  501    0  0.00000000000E+00  0.00000000000E+00  0.12242173104E+04  0.12242173104E+04  0.00000000000E+00 0. -1.
         -1   -1    0    0    0  501 -0.00000000000E+00 -0.00000000000E+00 -0.15457253314E+02  0.15457253314E+02  0.00000000000E+00 0. -1.
         35    2    1    2    0    0  0.00000000000E+00  0.00000000000E+00  0.12087600570E+04  0.12396745637E+04  0.27512206075E+03 0.  0.
         25    1    3    3    0    0 -0.47579375454E+02  0.45077584407E+02  0.67230596689E+03  0.68606931042E+03  0.12000000000E+03 0.  0.
         25    1    3    3    0    0  0.47579375454E+02 -0.45077584407E+02  0.53645409015E+03  0.55360525324E+03  0.12000000000E+03 0.  0.
<mgrwt>
<rscale>  0 0.27512206E+03</rscale>
<asrwt>0</asrwt>
<pdfrwt beam="1">  1        1 0.18834105E+00 0.27512206E+03</pdfrwt>
<pdfrwt beam="2">  1       -1 0.23780399E-02 0.27512206E+03</pdfrwt>
<totfact> 0.58534459E+03</totfact>
</mgrwt>
</event>
<event>
 5    1  0.1122238E+001  0.2718997E+03  0.7818608E-02  0.1100197E+00
          1   -1    0    0  501    0  0.00000000000E+00  0.00000000000E+00  0.16725520952E+03  0.16725520952E+03  0.00000000000E+00 0.  1.
         -1   -1    0    0    0  501 -0.00000000000E+00 -0.00000000000E+00 -0.11050395384E+03  0.11050395384E+03  0.00000000000E+00 0.  1.
         35    2    1    2    0    0  0.00000000000E+00  0.00000000000E+00  0.56751255680E+02  0.27775916336E+03  0.27189970175E+03 0.  0.
         25    1    3    3    0    0  0.16888722773E+02 -0.53110736176E+02  0.60296129033E+02  0.14540152142E+03  0.12000000000E+03 0.  0.
         25    1    3    3    0    0 -0.16888722773E+02  0.53110736176E+02 -0.35448733528E+01  0.13235764194E+03  0.12000000000E+03 0.  0.
<mgrwt>
<rscale>  0 0.27189970E+03</rscale>
<asrwt>0</asrwt>
<pdfrwt beam="1">  1        1 0.25731571E-01 0.27189970E+03</pdfrwt>
<pdfrwt beam="2">  1       -1 0.17000608E-01 0.27189970E+03</pdfrwt>
<totfact> 0.48083083E+03</totfact>
</mgrwt>
</event>
<event>
 5    1  0.1122238E+001  0.2718953E+03  0.7818608E-02  0.1100200E+00
         -2   -1    0    0    0  501 -0.00000000000E+00  0.00000000000E+00  0.18469967653E+03  0.18469967653E+03  0.00000000000E+00 0. -1.
          2   -1    0    0  501    0  0.00000000000E+00 -0.00000000000E+00 -0.10006386484E+03  0.10006386484E+03  0.00000000000E+00 0. -1.
         35    2    1    2    0    0  0.00000000000E+00  0.00000000000E+00  0.84635811693E+02  0.28476354137E+03  0.27189529947E+03 0.  0.
         25    1    3    3    0    0  0.65540483607E+01 -0.35570371128E+02 -0.12839166118E+02  0.12598829723E+03  0.12000000000E+03 0.  0.
         25    1    3    3    0    0 -0.65540483607E+01  0.35570371128E+02  0.97474977811E+02  0.15877524414E+03  0.12000000000E+03 0.  0.
<mgrwt>
<rscale>  0 0.27189530E+03</rscale>
<asrwt>0</asrwt>
<pdfrwt beam="1">  1        2 0.15394441E-01 0.27189530E+03</pdfrwt>
<pdfrwt beam="2">  1       -2 0.28415335E-01 0.27189530E+03</pdfrwt>
<totfact> 0.42382309E+03</totfact>
</mgrwt>
</event>
<event>
 5    1  0.1122238E+001  0.2781461E+03  0.7818608E-02  0.1096706E+00
         -2   -1    0    0    0  501 -0.00000000000E+00  0.00000000000E+00  0.41490649999E+03  0.41490649999E+03  0.00000000000E+00 0.  1.
          2   -1    0    0  501    0  0.00000000000E+00 -0.00000000000E+00 -0.46616072225E+02  0.46616072225E+02  0.00000000000E+00 0.  1.
         35    2    1    2    0    0  0.00000000000E+00  0.00000000000E+00  0.36829042776E+03  0.46152257221E+03  0.27814608658E+03 0.  0.
         25    1    3    3    0    0  0.14431933372E+02 -0.65491355970E+02  0.21910501119E+03  0.25865885706E+03  0.12000000000E+03 0.  0.
         25    1    3    3    0    0 -0.14431933372E+02  0.65491355970E+02  0.14918541657E+03  0.20286371515E+03  0.12000000000E+03 0.  0.
<mgrwt>
<rscale>  0 0.27814609E+03</rscale>
<asrwt>0</asrwt>
<pdfrwt beam="1">  1        2 0.71717037E-02 0.27814609E+03</pdfrwt>
<pdfrwt beam="2">  1       -2 0.63831767E-01 0.27814609E+03</pdfrwt>
<totfact> 0.22686394E+03</totfact>
</mgrwt>
</event>
<event>
 5    1  0.1122238E+001  0.2749091E+03  0.7818608E-02  0.1098502E+00
          1   -1    0    0  501    0  0.00000000000E+00  0.00000000000E+00  0.17331853126E+03  0.17331853126E+03  0.00000000000E+00 0.  1.
         -1   -1    0    0    0  501 -0.00000000000E+00 -0.00000000000E+00 -0.10901174323E+03  0.10901174323E+03  0.00000000000E+00 0.  1.
         35    2    1    2    0    0  0.00000000000E+00  0.00000000000E+00  0.64306788037E+02  0.28233027449E+03  0.27490911390E+03 0.  0.
         25    1    3    3    0    0 -0.25358929735E+02  0.14064024562E+02 -0.29917242752E+02  0.12702721566E+03  0.12000000000E+03 0.  0.
         25    1    3    3    0    0  0.25358929735E+02 -0.14064024562E+02  0.94224030788E+02  0.15530305883E+03  0.12000000000E+03 0.  0.
<mgrwt>
<rscale>  0 0.27490911E+03</rscale>
<asrwt>0</asrwt>
<pdfrwt beam="1">  1        1 0.26664389E-01 0.27490911E+03</pdfrwt>
<pdfrwt beam="2">  1       -1 0.16771037E-01 0.27490911E+03</pdfrwt>
<totfact> 0.46985390E+03</totfact>
</mgrwt>
</event>
<event>
 5    1  0.1122238E+001  0.2771979E+03  0.7818608E-02  0.1097229E+00
          1   -1    0    0  501    0  0.00000000000E+00  0.00000000000E+00  0.21062113853E+03  0.21062113853E+03  0.00000000000E+00 0.  1.
         -1   -1    0    0    0  501 -0.00000000000E+00 -0.00000000000E+00 -0.91204843624E+02  0.91204843624E+02  0.00000000000E+00 0.  1.
         35    2    1    2    0    0  0.00000000000E+00  0.00000000000E+00  0.11941629490E+03  0.30182598215E+03  0.27719789323E+03 0.  0.
         25    1    3    3    0    0  0.40204217194E+02 -0.36819112990E+02  0.10638452378E+03  0.16938032077E+03  0.12000000000E+03 0.  0.
         25    1    3    3    0    0 -0.40204217194E+02  0.36819112990E+02  0.13031771119E+02  0.13244566139E+03  0.12000000000E+03 0.  0.
<mgrwt>
<rscale>  0 0.27719789E+03</rscale>
<asrwt>0</asrwt>
<pdfrwt beam="1">  1        1 0.32403252E-01 0.27719789E+03</pdfrwt>
<pdfrwt beam="2">  1       -1 0.14031515E-01 0.27719789E+03</pdfrwt>
<totfact> 0.48782957E+03</totfact>
</mgrwt>
</event>
<event>
 5    1  0.1122238E+001  0.2747082E+03  0.7818608E-02  0.1098615E+00
          1   -1    0    0  501    0  0.00000000000E+00  0.00000000000E+00  0.45762568451E+02  0.45762568451E+02  0.00000000000E+00 0.  1.
         -1   -1    0    0    0  501 -0.00000000000E+00 -0.00000000000E+00 -0.41226162568E+03  0.41226162568E+03  0.00000000000E+00 0.  1.
         35    2    1    2    0    0  0.00000000000E+00  0.00000000000E+00 -0.36649905723E+03  0.45802419413E+03  0.27470821513E+03 0.  0.
         25    1    3    3    0    0 -0.36532192756E+02 -0.37369196436E+02 -0.25270047055E+03  0.28458493595E+03  0.12000000000E+03 0.  0.
         25    1    3    3    0    0  0.36532192756E+02  0.37369196436E+02 -0.11379858667E+03  0.17343925818E+03  0.12000000000E+03 0.  0.
<mgrwt>
<rscale>  0 0.27470822E+03</rscale>
<asrwt>0</asrwt>
<pdfrwt beam="1">  1        1 0.70403953E-02 0.27470822E+03</pdfrwt>
<pdfrwt beam="2">  1       -1 0.63424864E-01 0.27470822E+03</pdfrwt>
<totfact> 0.26948201E+03</totfact>
</mgrwt>
</event>
<event>
 5    1  0.1122238E+001  0.2747727E+03  0.7818608E-02  0.1098579E+00
         -2   -1    0    0    0  501 -0.00000000000E+00  0.00000000000E+00  0.12740094182E+03  0.12740094182E+03  0.00000000000E+00 0.  1.
          2   -1    0    0  501    0  0.00000000000E+00 -0.00000000000E+00 -0.14815440916E+03  0.14815440916E+03  0.00000000000E+00 0.  1.
         35    2    1    2    0    0  0.00000000000E+00  0.00000000000E+00 -0.20753467345E+02  0.27555535098E+03  0.27477271525E+03 0.  0.
         25    1    3    3    0    0 -0.14135943862E+02  0.57736960609E+02 -0.41150122571E+02  0.14009537507E+03  0.12000000000E+03 0.  0.
         25    1    3    3    0    0  0.14135943862E+02 -0.57736960609E+02  0.20396655226E+02  0.13545997591E+03  0.12000000000E+03 0.  0.
<mgrwt>
<rscale>  0 0.27477272E+03</rscale>
<asrwt>0</asrwt>
<pdfrwt beam="1">  1        2 0.22792986E-01 0.27477272E+03</pdfrwt>
<pdfrwt beam="2">  1       -2 0.19600145E-01 0.27477272E+03</pdfrwt>
<totfact> 0.51637663E+03</totfact>
</mgrwt>
</event>
<event>
 5    1  0.1122238E+001  0.2744640E+03  0.7818608E-02  0.1098752E+00
         -1   -1    0    0    0  501 -0.00000000000E+00  0.00000000000E+00  0.21117383237E+03  0.21117383237E+03  0.00000000000E+00 0.  1.
          1   -1    0    0  501    0  0.00000000000E+00 -0.00000000000E+00 -0.89180636635E+02  0.89180636635E+02  0.00000000000E+00 0.  1.
         35    2    1    2    0    0  0.00000000000E+00  0.00000000000E+00  0.12199319574E+03  0.30035446901E+03  0.27446396347E+03 0.  0.
         25    1    3    3    0    0 -0.61398478701E+02 -0.13659550922E+02  0.84878612233E+02  0.15987725083E+03  0.12000000000E+03 0.  0.
         25    1    3    3    0    0  0.61398478701E+02  0.13659550922E+02  0.37114583505E+02  0.14047721818E+03  0.12000000000E+03 0.  0.
<mgrwt>
<rscale>  0 0.27446396E+03</rscale>
<asrwt>0</asrwt>
<pdfrwt beam="1">  1        1 0.13720098E-01 0.27446396E+03</pdfrwt>
<pdfrwt beam="2">  1       -1 0.32488282E-01 0.27446396E+03</pdfrwt>
<totfact> 0.37157940E+03</totfact>
</mgrwt>
</event>
<event>
 5    1  0.1122238E+001  0.2729499E+03  0.7818608E-02  0.1099603E+00
         -2   -1    0    0    0  501 -0.00000000000E+00  0.00000000000E+00  0.87253685777E+01  0.87253685777E+01  0.00000000000E+00 0.  1.
          2   -1    0    0  501    0  0.00000000000E+00 -0.00000000000E+00 -0.21346269972E+04  0.21346269972E+04  0.00000000000E+00 0.  1.
         35    2    1    2    0    0  0.00000000000E+00  0.00000000000E+00 -0.21259016286E+04  0.21433523658E+04  0.27294986592E+03 0.  0.
         25    1    3    3    0    0  0.55997102075E+02 -0.30208218079E+02 -0.11674798557E+04  0.11753541702E+04  0.12000000000E+03 0.  0.
         25    1    3    3    0    0 -0.55997102075E+02  0.30208218079E+02 -0.95842177292E+03  0.96799819560E+03  0.12000000000E+03 0.  0.
<mgrwt>
<rscale>  0 0.27294987E+03</rscale>
<asrwt>0</asrwt>
<pdfrwt beam="1">  1        2 0.32840453E+00 0.27294987E+03</pdfrwt>
<pdfrwt beam="2">  1       -2 0.13423629E-02 0.27294987E+03</pdfrwt>
<totfact> 0.87536741E+03</totfact>
</mgrwt>
</event>
<event>
 5    1  0.1122238E+001  0.2759119E+03  0.7818608E-02  0.1097943E+00
          2   -1    0    0  501    0  0.00000000000E+00  0.00000000000E+00  0.77296703472E+03  0.77296703472E+03  0.00000000000E+00 0.  1.
         -2   -1    0    0    0  501 -0.00000000000E+00 -0.00000000000E+00 -0.24621797775E+02  0.24621797775E+02  0.00000000000E+00 0.  1.
         35    2    1    2    0    0  0.00000000000E+00  0.00000000000E+00  0.74834523694E+03  0.79758883249E+03  0.27591185560E+03 0.  0.
         25    1    3    3    0    0 -0.56001229682E+02  0.36971969728E+02  0.40697628320E+03  0.42957276375E+03  0.12000000000E+03 0.  0.
         25    1    3    3    0    0  0.56001229682E+02 -0.36971969728E+02  0.34136895374E+03  0.36801606874E+03  0.12000000000E+03 0.  0.
<mgrwt>
<rscale>  0 0.27591186E+03</rscale>
<asrwt>0</asrwt>
<pdfrwt beam="1">  1        2 0.11891799E+00 0.27591186E+03</pdfrwt>
<pdfrwt beam="2">  1       -2 0.37879695E-02 0.27591186E+03</pdfrwt>
<totfact> 0.11023127E+04</totfact>
</mgrwt>
</event>
<event>
 5    1  0.1122238E+001  0.2749317E+03  0.7818608E-02  0.1098490E+00
          2   -1    0    0  501    0  0.00000000000E+00  0.00000000000E+00  0.69362101685E+03  0.69362101685E+03  0.00000000000E+00 0. -1.
         -2   -1    0    0    0  501 -0.00000000000E+00 -0.00000000000E+00 -0.27243790976E+02  0.27243790976E+02  0.00000000000E+00 0. -1.
         35    2    1    2    0    0  0.00000000000E+00  0.00000000000E+00  0.66637722587E+03  0.72086480782E+03  0.27493174425E+03 0.  0.
         25    1    3    3    0    0 -0.59565080597E+02  0.54063712376E+01  0.41270148981E+03  0.43393518798E+03  0.12000000000E+03 0.  0.
         25    1    3    3    0    0  0.59565080597E+02 -0.54063712376E+01  0.25367573606E+03  0.28692961984E+03  0.12000000000E+03 0.  0.
<mgrwt>
<rscale>  0 0.27493174E+03</rscale>
<asrwt>0</asrwt>
<pdfrwt beam="1">  1        2 0.10671091E+00 0.27493174E+03</pdfrwt>
<pdfrwt beam="2">  1       -2 0.41913530E-02 0.27493174E+03</pdfrwt>
<totfact> 0.10817219E+04</totfact>
</mgrwt>
</event>
<event>
 5    1  0.1122238E+001  0.2753859E+03  0.7818608E-02  0.1098236E+00
         -1   -1    0    0    0  501 -0.00000000000E+00  0.00000000000E+00  0.45905045117E+02  0.45905045117E+02  0.00000000000E+00 0.  1.
          1   -1    0    0  501    0  0.00000000000E+00 -0.00000000000E+00 -0.41301217033E+03  0.41301217033E+03  0.00000000000E+00 0.  1.
         35    2    1    2    0    0  0.00000000000E+00  0.00000000000E+00 -0.36710712521E+03  0.45891721545E+03  0.27538585521E+03 0.  0.
         25    1    3    3    0    0 -0.34283131936E+02 -0.46397445194E+02 -0.12507829254E+03  0.18268178705E+03  0.12000000000E+03 0.  0.
         25    1    3    3    0    0  0.34283131936E+02  0.46397445194E+02 -0.24202883267E+03  0.27623542839E+03  0.12000000000E+03 0.  0.
<mgrwt>
<rscale>  0 0.27538586E+03</rscale>
<asrwt>0</asrwt>
<pdfrwt beam="1">  1        1 0.63540336E-01 0.27538586E+03</pdfrwt>
<pdfrwt beam="2">  1       -1 0.70623145E-02 0.27538586E+03</pdfrwt>
<totfact> 0.60246987E+03</totfact>
</mgrwt>
</event>
<event>
 5    1  0.1122238E+001  0.2748208E+03  0.7818608E-02  0.1098552E+00
          2   -1    0    0  501    0  0.00000000000E+00  0.00000000000E+00  0.12619711712E+04  0.12619711712E+04  0.00000000000E+00 0.  1.
         -2   -1    0    0    0  501 -0.00000000000E+00 -0.00000000000E+00 -0.14961998833E+02  0.14961998833E+02  0.00000000000E+00 0.  1.
         35    2    1    2    0    0  0.00000000000E+00  0.00000000000E+00  0.12470091724E+04  0.12769331701E+04  0.27482075025E+03 0.  0.
         25    1    3    3    0    0 -0.48386489703E+02 -0.43729727518E+02  0.69367474810E+03  0.70699236036E+03  0.12000000000E+03 0.  0.
         25    1    3    3    0    0  0.48386489703E+02  0.43729727518E+02  0.55333442431E+03  0.56994080972E+03  0.12000000000E+03 0.  0.
<mgrwt>
<rscale>  0 0.27482075E+03</rscale>
<asrwt>0</asrwt>
<pdfrwt beam="1">  1        2 0.19414933E+00 0.27482075E+03</pdfrwt>
<pdfrwt beam="2">  1       -2 0.23018470E-02 0.27482075E+03</pdfrwt>
<totfact> 0.11562910E+04</totfact>
</mgrwt>
</event>
<event>
 5    1  0.1122238E+001  0.2747903E+03  0.7818608E-02  0.1098569E+00
         -2   -1    0    0    0  501 -0.00000000000E+00  0.00000000000E+00  0.19250091078E+03  0.19250091078E+03  0.00000000000E+00 0.  1.
          2   -1    0    0  501    0  0.00000000000E+00 -0.00000000000E+00 -0.98064115788E+02  0.98064115788E+02  0.00000000000E+00 0.  1.
         35    2    1    2    0    0  0.00000000000E+00  0.00000000000E+00  0.94436794991E+02  0.29056502657E+03  0.27479033174E+03 0.  0.
         25    1    3    3    0    0 -0.64264150341E+02  0.95707718721E+01  0.64135276033E+02  0.15078068286E+03  0.12000000000E+03 0.  0.
         25    1    3    3    0    0  0.64264150341E+02 -0.95707718721E+01  0.30301518958E+02  0.13978434370E+03  0.12000000000E+03 0.  0.
<mgrwt>
<rscale>  0 0.27479033E+03</rscale>
<asrwt>0</asrwt>
<pdfrwt beam="1">  1        2 0.15086787E-01 0.27479033E+03</pdfrwt>
<pdfrwt beam="2">  1       -2 0.29615525E-01 0.27479033E+03</pdfrwt>
<totfact> 0.40295654E+03</totfact>
</mgrwt>
</event>
<event>
 5    1  0.1122238E+001  0.2781625E+03  0.7818608E-02  0.1096697E+00
         -2   -1    0    0    0  501 -0.00000000000E+00  0.00000000000E+00  0.55422104531E+02  0.55422104531E+02  0.00000000000E+00 0.  1.
          2   -1    0    0  501    0  0.00000000000E+00 -0.00000000000E+00 -0.34902301600E+03  0.34902301600E+03  0.00000000000E+00 0.  1.
         35    2    1    2    0    0  0.00000000000E+00  0.00000000000E+00 -0.29360091146E+03  0.40444512053E+03  0.27816247106E+03 0.  0.
         25    1    3    3    0    0 -0.50932961212E+02 -0.48467201185E+02 -0.14593542679E+03  0.20159460539E+03  0.12000000000E+03 0.  0.
         25    1    3    3    0    0  0.50932961212E+02  0.48467201185E+02 -0.14766548467E+03  0.20285051514E+03  0.12000000000E+03 0.  0.
<mgrwt>
<rscale>  0 0.27816247E+03</rscale>
<asrwt>0</asrwt>
<pdfrwt beam="1">  1        2 0.53695848E-01 0.27816247E+03</pdfrwt>
<pdfrwt beam="2">  1       -2 0.85264777E-02 0.27816247E+03</pdfrwt>
<totfact> 0.78759755E+03</totfact>
</mgrwt>
</event>
<event>
 5    1  0.1122238E+001  0.2749208E+03  0.7818608E-02  0.1098496E+00
         -2   -1    0    0    0  501 -0.00000000000E+00  0.00000000000E+00  0.12506348740E+02  0.12506348740E+02  0.00000000000E+00 0. -1.
          2   -1    0    0  501    0  0.00000000000E+00 -0.00000000000E+00 -0.15108614614E+04  0.15108614614E+04  0.00000000000E+00 0. -1.
         35    2    1    2    0    0  0.00000000000E+00  0.00000000000E+00 -0.14983551126E+04  0.15233678101E+04  0.27492079102E+03 0.  0.
         25    1    3    3    0    0  0.31561637453E+02  0.33992483699E+02 -0.48092035508E+03  0.49783131062E+03  0.12000000000E+03 0.  0.
         25    1    3    3    0    0 -0.31561637453E+02 -0.33992483699E+02 -0.10174347576E+04  0.10255364995E+04  0.12000000000E+03 0.  0.
<mgrwt>
<rscale>  0 0.27492079E+03</rscale>
<asrwt>0</asrwt>
<pdfrwt beam="1">  1        2 0.23244027E+00 0.27492079E+03</pdfrwt>
<pdfrwt beam="2">  1       -2 0.19240533E-02 0.27492079E+03</pdfrwt>
<totfact> 0.11017843E+04</totfact>
</mgrwt>
</event>
<event>
 5    1  0.1122238E+001  0.2736450E+03  0.7818608E-02  0.1099211E+00
          2   -1    0    0  501    0  0.00000000000E+00  0.00000000000E+00  0.12673821878E+04  0.12673821878E+04  0.00000000000E+00 0.  1.
         -2   -1    0    0    0  501 -0.00000000000E+00 -0.00000000000E+00 -0.14770912578E+02  0.14770912578E+02  0.00000000000E+00 0.  1.
         35    2    1    2    0    0  0.00000000000E+00  0.00000000000E+00  0.12526112752E+04  0.12821531004E+04  0.27364496340E+03 0.  0.
         25    1    3    3    0    0 -0.26446838388E+02 -0.59807276375E+02  0.59520958078E+03  0.61069697119E+03  0.12000000000E+03 0.  0.
         25    1    3    3    0    0  0.26446838388E+02  0.59807276375E+02  0.65740169444E+03  0.67145612918E+03  0.12000000000E+03 0.  0.
<mgrwt>
<rscale>  0 0.27364496E+03</rscale>
<asrwt>0</asrwt>
<pdfrwt beam="1">  1        2 0.19498179E+00 0.27364496E+03</pdfrwt>
<pdfrwt beam="2">  1       -2 0.22724491E-02 0.27364496E+03</pdfrwt>
<totfact> 0.11701385E+04</totfact>
</mgrwt>
</event>
<event>
 5    1  0.1122238E+001  0.2747982E+03  0.7818608E-02  0.1098564E+00
         -1   -1    0    0    0  501 -0.00000000000E+00  0.00000000000E+00  0.25107100138E+03  0.25107100138E+03  0.00000000000E+00 0. -1.
          1   -1    0    0  501    0  0.00000000000E+00 -0.00000000000E+00 -0.75191939220E+02  0.75191939220E+02  0.00000000000E+00 0. -1.
         35    2    1    2    0    0  0.00000000000E+00  0.00000000000E+00  0.17587906216E+03  0.32626294060E+03  0.27479822034E+03 0.  0.
         25    1    3    3    0    0  0.59253154497E+02 -0.30857279044E+02  0.83279168081E+02  0.16061920129E+03  0.12000000000E+03 0.  0.
         25    1    3    3    0    0 -0.59253154497E+02  0.30857279044E+02  0.92599894076E+02  0.16564373930E+03  0.12000000000E+03 0.  0.
<mgrwt>
<rscale>  0 0.27479822E+03</rscale>
<asrwt>0</asrwt>
<pdfrwt beam="1">  1        1 0.11567991E-01 0.27479822E+03</pdfrwt>
<pdfrwt beam="2">  1       -1 0.38626308E-01 0.27479822E+03</pdfrwt>
<totfact> 0.34472818E+03</totfact>
</mgrwt>
</event>
<event>
 5    1  0.1122238E+001  0.2746203E+03  0.7818608E-02  0.1098664E+00
          2   -1    0    0  501    0  0.00000000000E+00  0.00000000000E+00  0.98367829737E+03  0.98367829737E+03  0.00000000000E+00 0.  1.
         -2   -1    0    0    0  501 -0.00000000000E+00 -0.00000000000E+00 -0.19166914951E+02  0.19166914951E+02  0.00000000000E+00 0.  1.
         35    2    1    2    0    0  0.00000000000E+00  0.00000000000E+00  0.96451138242E+03  0.10028452123E+04  0.27462030708E+03 0.  0.
         25    1    3    3    0    0  0.56964117142E+02  0.12144328145E+02  0.36326892219E+03  0.38698411489E+03  0.12000000000E+03 0.  0.
         25    1    3    3    0    0 -0.56964117142E+02 -0.12144328145E+02  0.60124246023E+03  0.61586109743E+03  0.12000000000E+03 0.  0.
<mgrwt>
<rscale>  0 0.27462031E+03</rscale>
<asrwt>0</asrwt>
<pdfrwt beam="1">  1        2 0.15133508E+00 0.27462031E+03</pdfrwt>
<pdfrwt beam="2">  1       -2 0.29487569E-02 0.27462031E+03</pdfrwt>
<totfact> 0.11649430E+04</totfact>
</mgrwt>
</event>
<event>
 5    1  0.1122238E+001  0.2758632E+03  0.7818608E-02  0.1097970E+00
         -2   -1    0    0    0  501 -0.00000000000E+00  0.00000000000E+00  0.18073893189E+03  0.18073893189E+03  0.00000000000E+00 0. -1.
          2   -1    0    0  501    0  0.00000000000E+00 -0.00000000000E+00 -0.10526304009E+03  0.10526304009E+03  0.00000000000E+00 0. -1.
         35    2    1    2    0    0  0.00000000000E+00  0.00000000000E+00  0.75475891798E+02  0.28600197197E+03  0.27586322287E+03 0.  0.
         25    1    3    3    0    0  0.53898375390E+02 -0.33063053388E+02  0.11779157185E+02  0.13615046424E+03  0.12000000000E+03 0.  0.
         25    1    3    3    0    0 -0.53898375390E+02  0.33063053388E+02  0.63696734613E+02  0.14985150773E+03  0.12000000000E+03 0.  0.
<mgrwt>
<rscale>  0 0.27586322E+03</rscale>
<asrwt>0</asrwt>
<pdfrwt beam="1">  1        2 0.16194314E-01 0.27586322E+03</pdfrwt>
<pdfrwt beam="2">  1       -2 0.27805989E-01 0.27586322E+03</pdfrwt>
<totfact> 0.41533138E+03</totfact>
</mgrwt>
</event>
<event>
 5    1  0.1122238E+001  0.2775699E+03  0.7818608E-02  0.1097024E+00
         -2   -1    0    0    0  501 -0.00000000000E+00  0.00000000000E+00  0.47795753016E+02  0.47795753016E+02  0.00000000000E+00 0. -1.
          2   -1    0    0  501    0  0.00000000000E+00 -0.00000000000E+00 -0.40299097803E+03  0.40299097803E+03  0.00000000000E+00 0. -1.
         35    2    1    2    0    0  0.00000000000E+00  0.00000000000E+00 -0.35519522502E+03  0.45078673105E+03  0.27756986331E+03 0.  0.
         25    1    3    3    0    0  0.33661469787E+02 -0.31571273428E+02 -0.92720059922E+02  0.15851450838E+03  0.12000000000E+03 0.  0.
         25    1    3    3    0    0 -0.33661469787E+02  0.31571273428E+02 -0.26247516510E+03  0.29227222267E+03  0.12000000000E+03 0.  0.
<mgrwt>
<rscale>  0 0.27756986E+03</rscale>
<asrwt>0</asrwt>
<pdfrwt beam="1">  1        2 0.61998611E-01 0.27756986E+03</pdfrwt>
<pdfrwt beam="2">  1       -2 0.73531928E-02 0.27756986E+03</pdfrwt>
<totfact> 0.84925748E+03</totfact>
</mgrwt>
</event>
<event>
 5    1  0.1122238E+001  0.2747259E+03  0.7818608E-02  0.1098605E+00
          3   -1    0    0  501    0  0.00000000000E+00  0.00000000000E+00  0.13478619549E+04  0.13478619549E+04  0.00000000000E+00 0.  1.
         -3   -1    0    0    0  501 -0.00000000000E+00 -0.00000000000E+00 -0.13998892818E+02  0.13998892818E+02  0.00000000000E+00 0.  1.
         35    2    1    2    0    0  0.00000000000E+00  0.00000000000E+00  0.13338630621E+04  0.13618608478E+04  0.27472586366E+03 0.  0.
         25    1    3    3    0    0  0.31912345318E+01 -0.12390425426E+02  0.34168465945E+03  0.36237013277E+03  0.12000000000E+03 0.  0.
         25    1    3    3    0    0 -0.31912345318E+01  0.12390425426E+02  0.99217840267E+03  0.99949071498E+03  0.12000000000E+03 0.  0.
<mgrwt>
<rscale>  0 0.27472586E+03</rscale>
<asrwt>0</asrwt>
<pdfrwt beam="1">  1        3 0.20736328E+00 0.27472586E+03</pdfrwt>
<pdfrwt beam="2">  1       -3 0.21536769E-02 0.27472586E+03</pdfrwt>
<totfact> 0.31207104E+02</totfact>
</mgrwt>
</event>
<event>
 5    1  0.1122238E+001  0.2735745E+03  0.7818608E-02  0.1099251E+00
          4   -1    0    0  501    0  0.00000000000E+00  0.00000000000E+00  0.21328771046E+02  0.21328771046E+02  0.00000000000E+00 0. -1.
         -4   -1    0    0    0  501 -0.00000000000E+00 -0.00000000000E+00 -0.87725423497E+03  0.87725423497E+03  0.00000000000E+00 0. -1.
         35    2    1    2    0    0  0.00000000000E+00  0.00000000000E+00 -0.85592546393E+03  0.89858300602E+03  0.27357452167E+03 0.  0.
         25    1    3    3    0    0 -0.36460589166E+02 -0.29508883256E+02 -0.57886165279E+03  0.59302694865E+03  0.12000000000E+03 0.  0.
         25    1    3    3    0    0  0.36460589166E+02  0.29508883256E+02 -0.27706381114E+03  0.30555605737E+03  0.12000000000E+03 0.  0.
<mgrwt>
<rscale>  0 0.27357452E+03</rscale>
<asrwt>0</asrwt>
<pdfrwt beam="1">  1        4 0.32813499E-02 0.27357452E+03</pdfrwt>
<pdfrwt beam="2">  1       -4 0.13496217E+00 0.27357452E+03</pdfrwt>
<totfact> 0.36259537E+02</totfact>
</mgrwt>
</event>
<event>
 5    1  0.1122238E+001  0.2748897E+03  0.7818608E-02  0.1098513E+00
          2   -1    0    0  501    0  0.00000000000E+00  0.00000000000E+00  0.17700688588E+03  0.17700688588E+03  0.00000000000E+00 0. -1.
         -2   -1    0    0    0  501 -0.00000000000E+00 -0.00000000000E+00 -0.10672519075E+03  0.10672519075E+03  0.00000000000E+00 0. -1.
         35    2    1    2    0    0  0.00000000000E+00  0.00000000000E+00  0.70281695130E+02  0.28373207663E+03  0.27488974997E+03 0.  0.
         25    1    3    3    0    0 -0.38826162380E+02 -0.32062147613E+02 -0.10504288805E+02  0.13055953538E+03  0.12000000000E+03 0.  0.
         25    1    3    3    0    0  0.38826162380E+02  0.32062147613E+02  0.80785983935E+02  0.15317254126E+03  0.12000000000E+03 0.  0.
<mgrwt>
<rscale>  0 0.27488975E+03</rscale>
<asrwt>0</asrwt>
<pdfrwt beam="1">  1        2 0.27231829E-01 0.27488975E+03</pdfrwt>
<pdfrwt beam="2">  1       -2 0.16419260E-01 0.27488975E+03</pdfrwt>
<totfact> 0.57056330E+03</totfact>
</mgrwt>
</event>
<event>
 5    1  0.1122238E+001  0.2760858E+03  0.7818608E-02  0.1097846E+00
         -2   -1    0    0    0  501 -0.00000000000E+00  0.00000000000E+00  0.29431879819E+03  0.29431879819E+03  0.00000000000E+00 0. -1.
          2   -1    0    0  501    0  0.00000000000E+00 -0.00000000000E+00 -0.64745591539E+02  0.64745591539E+02  0.00000000000E+00 0. -1.
         35    2    1    2    0    0  0.00000000000E+00  0.00000000000E+00  0.22957320665E+03  0.35906438973E+03  0.27608581775E+03 0.  0.
         25    1    3    3    0    0  0.21562934999E+02 -0.46561786254E+02  0.17328093598E+03  0.21693142437E+03  0.12000000000E+03 0.  0.
         25    1    3    3    0    0 -0.21562934999E+02  0.46561786254E+02  0.56292270672E+02  0.14213296536E+03  0.12000000000E+03 0.  0.
<mgrwt>
<rscale>  0 0.27608582E+03</rscale>
<asrwt>0</asrwt>
<pdfrwt beam="1">  1        2 0.99608604E-02 0.27608582E+03</pdfrwt>
<pdfrwt beam="2">  1       -2 0.45279814E-01 0.27608582E+03</pdfrwt>
<totfact> 0.30019147E+03</totfact>
</mgrwt>
</event>
<event>
 5    1  0.1122238E+001  0.2773329E+03  0.7818608E-02  0.1097155E+00
         -2   -1    0    0    0  501 -0.00000000000E+00  0.00000000000E+00  0.18613160401E+02  0.18613160401E+02  0.00000000000E+00 0.  1.
          2   -1    0    0  501    0  0.00000000000E+00 -0.00000000000E+00 -0.10330533704E+04  0.10330533704E+04  0.00000000000E+00 0.  1.
         35    2    1    2    0    0  0.00000000000E+00  0.00000000000E+00 -0.10144402099E+04  0.10516665308E+04  0.27733292690E+03 0.  0.
         25    1    3    3    0    0 -0.40466174210E+02 -0.44764162762E+02 -0.37656977979E+03  0.39980762946E+03  0.12000000000E+03 0.  0.
         25    1    3    3    0    0  0.40466174210E+02  0.44764162762E+02 -0.63787043016E+03  0.65185890129E+03  0.12000000000E+03 0.  0.
<mgrwt>
<rscale>  0 0.27733293E+03</rscale>
<asrwt>0</asrwt>
<pdfrwt beam="1">  1        2 0.15893132E+00 0.27733293E+03</pdfrwt>
<pdfrwt beam="2">  1       -2 0.28635625E-02 0.27733293E+03</pdfrwt>
<totfact> 0.11356167E+04</totfact>
</mgrwt>
</event>
<event>
 5    1  0.1122238E+001  0.2748492E+03  0.7818608E-02  0.1098536E+00
         -2   -1    0    0    0  501 -0.00000000000E+00  0.00000000000E+00  0.12849996120E+02  0.12849996120E+02  0.00000000000E+00 0.  1.
          2   -1    0    0  501    0  0.00000000000E+00 -0.00000000000E+00 -0.14696907005E+04  0.14696907005E+04  0.00000000000E+00 0.  1.
         35    2    1    2    0    0  0.00000000000E+00  0.00000000000E+00 -0.14568407043E+04  0.14825406966E+04  0.27484919355E+03 0.  0.
         25    1    3    3    0    0  0.42133249623E+02  0.26984319410E+02 -0.48827121720E+03  0.50528422275E+03  0.12000000000E+03 0.  0.
         25    1    3    3    0    0 -0.42133249623E+02 -0.26984319410E+02 -0.96856948715E+03  0.97725647383E+03  0.12000000000E+03 0.  0.
<mgrwt>
<rscale>  0 0.27484919E+03</rscale>
<asrwt>0</asrwt>
<pdfrwt beam="1">  1        2 0.22610623E+00 0.27484919E+03</pdfrwt>
<pdfrwt beam="2">  1       -2 0.19769227E-02 0.27484919E+03</pdfrwt>
<totfact> 0.11139096E+04</totfact>
</mgrwt>
</event>
<event>
 5    1  0.1122238E+001  0.2743403E+03  0.7818608E-02  0.1098821E+00
          2   -1    0    0  501    0  0.00000000000E+00  0.00000000000E+00  0.35533292642E+03  0.35533292642E+03  0.00000000000E+00 0.  1.
         -2   -1    0    0    0  501 -0.00000000000E+00 -0.00000000000E+00 -0.52952169015E+02  0.52952169015E+02  0.00000000000E+00 0.  1.
         35    2    1    2    0    0  0.00000000000E+00  0.00000000000E+00  0.30238075741E+03  0.40828509544E+03  0.27434029363E+03 0.  0.
         25    1    3    3    0    0  0.13480161409E+01  0.65269648548E+02  0.16964129486E+03  0.21780751386E+03  0.12000000000E+03 0.  0.
         25    1    3    3    0    0 -0.13480161409E+01 -0.65269648548E+02  0.13273946254E+03  0.19047758158E+03  0.12000000000E+03 0.  0.
<mgrwt>
<rscale>  0 0.27434029E+03</rscale>
<asrwt>0</asrwt>
<pdfrwt beam="1">  1        2 0.54666602E-01 0.27434029E+03</pdfrwt>
<pdfrwt beam="2">  1       -2 0.81464878E-02 0.27434029E+03</pdfrwt>
<totfact> 0.82926996E+03</totfact>
</mgrwt>
</event>
<event>
 5    1  0.1122238E+001  0.2746978E+03  0.7818608E-02  0.1098621E+00
         -2   -1    0    0    0  501 -0.00000000000E+00  0.00000000000E+00  0.59789896740E+02  0.59789896740E+02  0.00000000000E+00 0.  1.
          2   -1    0    0  501    0  0.00000000000E+00 -0.00000000000E+00 -0.31551696242E+03  0.31551696242E+03  0.00000000000E+00 0.  1.
         35    2    1    2    0    0  0.00000000000E+00  0.00000000000E+00 -0.25572706568E+03  0.37530685916E+03  0.27469784566E+03 0.  0.
         25    1    3    3    0    0 -0.71640541940E+01 -0.66403031534E+02 -0.12511728425E+03  0.18578218722E+03  0.12000000000E+03 0.  0.
         25    1    3    3    0    0  0.71640541940E+01  0.66403031534E+02 -0.13060978143E+03  0.18952467194E+03  0.12000000000E+03 0.  0.
<mgrwt>
<rscale>  0 0.27469785E+03</rscale>
<asrwt>0</asrwt>
<pdfrwt beam="1">  1        2 0.48541071E-01 0.27469785E+03</pdfrwt>
<pdfrwt beam="2">  1       -2 0.91984458E-02 0.27469785E+03</pdfrwt>
<totfact> 0.77886772E+03</totfact>
</mgrwt>
</event>
<event>
 5    1  0.1122238E+001  0.2750763E+03  0.7818608E-02  0.1098409E+00
          2   -1    0    0  501    0  0.00000000000E+00  0.00000000000E+00  0.29017676765E+03  0.29017676765E+03  0.00000000000E+00 0. -1.
         -2   -1    0    0    0  501 -0.00000000000E+00 -0.00000000000E+00 -0.65190425131E+02  0.65190425131E+02  0.00000000000E+00 0. -1.
         35    2    1    2    0    0  0.00000000000E+00  0.00000000000E+00  0.22498634251E+03  0.35536719278E+03  0.27507633010E+03 0.  0.
         25    1    3    3    0    0 -0.43831990456E+02  0.50299373965E+02  0.10203955315E+03  0.17106531155E+03  0.12000000000E+03 0.  0.
         25    1    3    3    0    0  0.43831990456E+02 -0.50299373965E+02  0.12294678937E+03  0.18430188123E+03  0.12000000000E+03 0.  0.
<mgrwt>
<rscale>  0 0.27507633E+03</rscale>
<asrwt>0</asrwt>
<pdfrwt beam="1">  1        2 0.44642579E-01 0.27507633E+03</pdfrwt>
<pdfrwt beam="2">  1       -2 0.10029296E-01 0.27507633E+03</pdfrwt>
<totfact> 0.74317744E+03</totfact>
</mgrwt>
</event>
<event>
 5    1  0.1122238E+001  0.2754369E+03  0.7818608E-02  0.1098208E+00
          2   -1    0    0  501    0  0.00000000000E+00  0.00000000000E+00  0.73236460740E+03  0.73236460740E+03  0.00000000000E+00 0.  1.
         -2   -1    0    0    0  501 -0.00000000000E+00 -0.00000000000E+00 -0.25897451501E+02  0.25897451501E+02  0.00000000000E+00 0.  1.
         35    2    1    2    0    0  0.00000000000E+00  0.00000000000E+00  0.70646715590E+03  0.75826205890E+03  0.27543693943E+03 0.  0.
         25    1    3    3    0    0 -0.59757458085E+02 -0.29304180716E+02  0.32104791272E+03  0.34914388304E+03  0.12000000000E+03 0.  0.
         25    1    3    3    0    0  0.59757458085E+02  0.29304180716E+02  0.38541924318E+03  0.40911817586E+03  0.12000000000E+03 0.  0.
<mgrwt>
<rscale>  0 0.27543694E+03</rscale>
<asrwt>0</asrwt>
<pdfrwt beam="1">  1        2 0.11267146E+00 0.27543694E+03</pdfrwt>
<pdfrwt beam="2">  1       -2 0.39842239E-02 0.27543694E+03</pdfrwt>
<totfact> 0.10926113E+04</totfact>
</mgrwt>
</event>
<event>
 5    1  0.1122238E+001  0.2747073E+03  0.7818608E-02  0.1098615E+00
         -2   -1    0    0    0  501 -0.00000000000E+00  0.00000000000E+00  0.28445000183E+03  0.28445000183E+03  0.00000000000E+00 0.  1.
          2   -1    0    0  501    0  0.00000000000E+00 -0.00000000000E+00 -0.66324574911E+02  0.66324574911E+02  0.00000000000E+00 0.  1.
         35    2    1    2    0    0  0.00000000000E+00  0.00000000000E+00  0.21812542692E+03  0.35077457674E+03  0.27470730209E+03 0.  0.
         25    1    3    3    0    0  0.67301460475E+01 -0.36709452274E+02  0.17984906881E+03  0.21940502798E+03  0.12000000000E+03 0.  0.
         25    1    3    3    0    0 -0.67301460475E+01  0.36709452274E+02  0.38276358116E+02  0.13136954876E+03  0.12000000000E+03 0.  0.
<mgrwt>
<rscale>  0 0.27470730E+03</rscale>
<asrwt>0</asrwt>
<pdfrwt beam="1">  1        2 0.10203781E-01 0.27470730E+03</pdfrwt>
<pdfrwt beam="2">  1       -2 0.43761538E-01 0.27470730E+03</pdfrwt>
<totfact> 0.31132917E+03</totfact>
</mgrwt>
</event>
<event>
 5    1  0.1122238E+001  0.2751629E+03  0.7818608E-02  0.1098361E+00
          2   -1    0    0  501    0  0.00000000000E+00  0.00000000000E+00  0.41821340891E+03  0.41821340891E+03  0.00000000000E+00 0. -1.
         -2   -1    0    0    0  501 -0.00000000000E+00 -0.00000000000E+00 -0.45260757641E+02  0.45260757641E+02  0.00000000000E+00 0. -1.
         35    2    1    2    0    0  0.00000000000E+00  0.00000000000E+00  0.37295265127E+03  0.46347416655E+03  0.27516290261E+03 0.  0.
         25    1    3    3    0    0  0.24169793034E+02  0.49826020802E+02  0.25087638075E+03  0.28355911140E+03  0.12000000000E+03 0.  0.
         25    1    3    3    0    0 -0.24169793034E+02 -0.49826020802E+02  0.12207627053E+03  0.17991505515E+03  0.12000000000E+03 0.  0.
<mgrwt>
<rscale>  0 0.27516290E+03</rscale>
<asrwt>0</asrwt>
<pdfrwt beam="1">  1        2 0.64340522E-01 0.27516290E+03</pdfrwt>
<pdfrwt beam="2">  1       -2 0.69631938E-02 0.27516290E+03</pdfrwt>
<totfact> 0.88726250E+03</totfact>
</mgrwt>
</event>
<event>
 5    1  0.1122238E+001  0.2744930E+03  0.7818608E-02  0.1098735E+00
          1   -1    0    0  501    0  0.00000000000E+00  0.00000000000E+00  0.18316326339E+04  0.18316326339E+04  0.00000000000E+00 0.  1.
         -1   -1    0    0    0  501 -0.00000000000E+00 -0.00000000000E+00 -0.10284046722E+02  0.10284046722E+02  0.00000000000E+00 0.  1.
         35    2    1    2    0    0  0.00000000000E+00  0.00000000000E+00  0.18213485872E+04  0.18419166806E+04  0.27449295499E+03 0.  0.
         25    1    3    3    0    0 -0.45137138933E+02  0.25102918123E+02  0.11929101852E+04  0.12000425941E+04  0.12000000000E+03 0.  0.
         25    1    3    3    0    0  0.45137138933E+02 -0.25102918123E+02  0.62843840200E+03  0.64187408650E+03  0.12000000000E+03 0.  0.
<mgrwt>
<rscale>  0 0.27449295E+03</rscale>
<asrwt>0</asrwt>
<pdfrwt beam="1">  1        1 0.28178938E+00 0.27449295E+03</pdfrwt>
<pdfrwt beam="2">  1       -1 0.15821625E-02 0.27449295E+03</pdfrwt>
<totfact> 0.41908194E+03</totfact>
</mgrwt>
</event>
<event>
 5    1  0.1122238E+001  0.2752630E+03  0.7818608E-02  0.1098305E+00
         -3   -1    0    0    0  501 -0.00000000000E+00  0.00000000000E+00  0.10433170466E+03  0.10433170466E+03  0.00000000000E+00 0. -1.
          3   -1    0    0  501    0  0.00000000000E+00 -0.00000000000E+00 -0.18155966211E+03  0.18155966211E+03  0.00000000000E+00 0. -1.
         35    2    1    2    0    0  0.00000000000E+00  0.00000000000E+00 -0.77227957454E+02  0.28589136676E+03  0.27526299457E+03 0.  0.
         25    1    3    3    0    0 -0.57371949787E+02 -0.34156214193E+02 -0.29081274065E+02  0.14037060979E+03  0.12000000000E+03 0.  0.
         25    1    3    3    0    0  0.57371949787E+02  0.34156214193E+02 -0.48146683389E+02  0.14552075698E+03  0.12000000000E+03 0.  0.
<mgrwt>
<rscale>  0 0.27526299E+03</rscale>
<asrwt>0</asrwt>
<pdfrwt beam="1">  1        3 0.27932256E-01 0.27526299E+03</pdfrwt>
<pdfrwt beam="2">  1       -3 0.16051032E-01 0.27526299E+03</pdfrwt>
<totfact> 0.10294474E+03</totfact>
</mgrwt>
</event>
<event>
 5    1  0.1122238E+001  0.2758843E+03  0.7818608E-02  0.1097958E+00
          1   -1    0    0  501    0  0.00000000000E+00  0.00000000000E+00  0.58417206604E+03  0.58417206604E+03  0.00000000000E+00 0. -1.
         -1   -1    0    0    0  501 -0.00000000000E+00 -0.00000000000E+00 -0.32572652471E+02  0.32572652471E+02  0.00000000000E+00 0. -1.
         35    2    1    2    0    0  0.00000000000E+00  0.00000000000E+00  0.55159941357E+03  0.61674471851E+03  0.27588427784E+03 0.  0.
         25    1    3    3    0    0  0.29109788672E+02  0.58579361019E+02  0.31756938194E+03  0.34573000113E+03  0.12000000000E+03 0.  0.
         25    1    3    3    0    0 -0.29109788672E+02 -0.58579361019E+02  0.23403003163E+03  0.27101471739E+03  0.12000000000E+03 0.  0.
<mgrwt>
<rscale>  0 0.27588428E+03</rscale>
<asrwt>0</asrwt>
<pdfrwt beam="1">  1        1 0.89872618E-01 0.27588428E+03</pdfrwt>
<pdfrwt beam="2">  1       -1 0.50111777E-02 0.27588428E+03</pdfrwt>
<totfact> 0.63802845E+03</totfact>
</mgrwt>
</event>
<event>
 5    1  0.1122238E+001  0.2764558E+03  0.7818608E-02  0.1097641E+00
         -1   -1    0    0    0  501 -0.00000000000E+00  0.00000000000E+00  0.19007213086E+02  0.19007213086E+02  0.00000000000E+00 0.  1.
          1   -1    0    0  501    0  0.00000000000E+00 -0.00000000000E+00 -0.10052470902E+04  0.10052470902E+04  0.00000000000E+00 0.  1.
         35    2    1    2    0    0  0.00000000000E+00  0.00000000000E+00 -0.98623987707E+03  0.10242543032E+04  0.27645575159E+03 0.  0.
         25    1    3    3    0    0  0.87953716419E+01  0.35814738187E+02 -0.70745982266E+03  0.71851197256E+03  0.12000000000E+03 0.  0.
         25    1    3    3    0    0 -0.87953716419E+01 -0.35814738187E+02 -0.27878005441E+03  0.30574233068E+03  0.12000000000E+03 0.  0.
<mgrwt>
<rscale>  0 0.27645575E+03</rscale>
<asrwt>0</asrwt>
<pdfrwt beam="1">  1        1 0.15465338E+00 0.27645575E+03</pdfrwt>
<pdfrwt beam="2">  1       -1 0.29241870E-02 0.27645575E+03</pdfrwt>
<totfact> 0.62050538E+03</totfact>
</mgrwt>
</event>
<event>
 5    1  0.1122238E+001  0.2752580E+03  0.7818608E-02  0.1098307E+00
          2   -1    0    0  501    0  0.00000000000E+00  0.00000000000E+00  0.11862107852E+04  0.11862107852E+04  0.00000000000E+00 0. -1.
         -2   -1    0    0    0  501 -0.00000000000E+00 -0.00000000000E+00 -0.15968274224E+02  0.15968274224E+02  0.00000000000E+00 0. -1.
         35    2    1    2    0    0  0.00000000000E+00  0.00000000000E+00  0.11702425109E+04  0.12021790594E+04  0.27525798157E+03 0.  0.
         25    1    3    3    0    0 -0.55030624817E+02  0.25542736088E+02  0.45697226356E+03  0.47634488629E+03  0.12000000000E+03 0.  0.
         25    1    3    3    0    0  0.55030624817E+02 -0.25542736088E+02  0.71327024737E+03  0.72583417309E+03  0.12000000000E+03 0.  0.
<mgrwt>
<rscale>  0 0.27525798E+03</rscale>
<asrwt>0</asrwt>
<pdfrwt beam="1">  1        2 0.18249390E+00 0.27525798E+03</pdfrwt>
<pdfrwt beam="2">  1       -2 0.24566585E-02 0.27525798E+03</pdfrwt>
<totfact> 0.11589822E+04</totfact>
</mgrwt>
</event>
<event>
 5    1  0.1122238E+001  0.2755960E+03  0.7818608E-02  0.1098119E+00
         -4   -1    0    0    0  501 -0.00000000000E+00  0.00000000000E+00  0.15394210470E+04  0.15394210470E+04  0.00000000000E+00 0.  1.
          4   -1    0    0  501    0  0.00000000000E+00 -0.00000000000E+00 -0.12334695943E+02  0.12334695943E+02  0.00000000000E+00 0.  1.
         35    2    1    2    0    0  0.00000000000E+00  0.00000000000E+00  0.15270863511E+04  0.15517557430E+04  0.27559601262E+03 0.  0.
         25    1    3    3    0    0  0.14018744128E+02 -0.13313151607E+02  0.39801171075E+03  0.41615752677E+03  0.12000000000E+03 0.  0.
         25    1    3    3    0    0 -0.14018744128E+02  0.13313151607E+02  0.11290746403E+04  0.11355982162E+04  0.12000000000E+03 0.  0.
<mgrwt>
<rscale>  0 0.27559601E+03</rscale>
<asrwt>0</asrwt>
<pdfrwt beam="1">  1        4 0.18976468E-02 0.27559601E+03</pdfrwt>
<pdfrwt beam="2">  1       -4 0.23683385E+00 0.27559601E+03</pdfrwt>
<totfact> 0.17647546E+02</totfact>
</mgrwt>
</event>
<event>
 5    1  0.1122238E+001  0.2744760E+03  0.7818608E-02  0.1098745E+00
         -1   -1    0    0    0  501 -0.00000000000E+00  0.00000000000E+00  0.36320513285E+02  0.36320513285E+02  0.00000000000E+00 0.  1.
          1   -1    0    0  501    0  0.00000000000E+00 -0.00000000000E+00 -0.51855751215E+03  0.51855751215E+03  0.00000000000E+00 0.  1.
         35    2    1    2    0    0  0.00000000000E+00  0.00000000000E+00 -0.48223699887E+03  0.55487802544E+03  0.27447604638E+03 0.  0.
         25    1    3    3    0    0 -0.33392590782E+02 -0.65164417201E+01 -0.12539689204E+03  0.17686692643E+03  0.12000000000E+03 0.  0.
         25    1    3    3    0    0  0.33392590782E+02  0.65164417201E+01 -0.35684010683E+03  0.37801109901E+03  0.12000000000E+03 0.  0.
<mgrwt>
<rscale>  0 0.27447605E+03</rscale>
<asrwt>0</asrwt>
<pdfrwt beam="1">  1        1 0.79778072E-01 0.27447605E+03</pdfrwt>
<pdfrwt beam="2">  1       -1 0.55877718E-02 0.27447605E+03</pdfrwt>
<totfact> 0.63685286E+03</totfact>
</mgrwt>
</event>
<event>
 5    1  0.1122238E+001  0.2754326E+03  0.7818608E-02  0.1098210E+00
          1   -1    0    0  501    0  0.00000000000E+00  0.00000000000E+00  0.13594296205E+04  0.13594296205E+04  0.00000000000E+00 0. -1.
         -1   -1    0    0    0  501 -0.00000000000E+00 -0.00000000000E+00 -0.13951276131E+02  0.13951276131E+02  0.00000000000E+00 0. -1.
         35    2    1    2    0    0  0.00000000000E+00  0.00000000000E+00  0.13454783443E+04  0.13733808966E+04  0.27543259078E+03 0.  0.
         25    1    3    3    0    0  0.58252508295E+01 -0.34602598050E+02  0.38480623965E+03  0.40460735956E+03  0.12000000000E+03 0.  0.
         25    1    3    3    0    0 -0.58252508295E+01  0.34602598050E+02  0.96067210469E+03  0.96877353704E+03  0.12000000000E+03 0.  0.
<mgrwt>
<rscale>  0 0.27543259E+03</rscale>
<asrwt>0</asrwt>
<pdfrwt beam="1">  1        1 0.20914291E+00 0.27543259E+03</pdfrwt>
<pdfrwt beam="2">  1       -1 0.21463512E-02 0.27543259E+03</pdfrwt>
<totfact> 0.54957982E+03</totfact>
</mgrwt>
</event>
<event>
 5    1  0.1122238E+001  0.2754683E+03  0.7818608E-02  0.1098190E+00
         -1   -1    0    0    0  501 -0.00000000000E+00  0.00000000000E+00  0.21851164497E+03  0.21851164497E+03  0.00000000000E+00 0.  1.
          1   -1    0    0  501    0  0.00000000000E+00 -0.00000000000E+00 -0.86817753172E+02  0.86817753172E+02  0.00000000000E+00 0.  1.
         35    2    1    2    0    0  0.00000000000E+00  0.00000000000E+00  0.13169389180E+03  0.30532939814E+03  0.27546825631E+03 0.  0.
         25    1    3    3    0    0  0.60113176679E+02  0.19306508032E+02  0.92640811083E+02  0.16422136018E+03  0.12000000000E+03 0.  0.
         25    1    3    3    0    0 -0.60113176679E+02 -0.19306508032E+02  0.39053080715E+02  0.14110803796E+03  0.12000000000E+03 0.  0.
<mgrwt>
<rscale>  0 0.27546826E+03</rscale>
<asrwt>0</asrwt>
<pdfrwt beam="1">  1        1 0.13356577E-01 0.27546826E+03</pdfrwt>
<pdfrwt beam="2">  1       -1 0.33617176E-01 0.27546826E+03</pdfrwt>
<totfact> 0.36301805E+03</totfact>
</mgrwt>
</event>
<event>
 5    1  0.1122238E+001  0.2722413E+03  0.7818608E-02  0.1100004E+00
         -2   -1    0    0    0  501 -0.00000000000E+00  0.00000000000E+00  0.30672606222E+02  0.30672606222E+02  0.00000000000E+00 0.  1.
          2   -1    0    0  501    0  0.00000000000E+00 -0.00000000000E+00 -0.60408419719E+03  0.60408419719E+03  0.00000000000E+00 0.  1.
         35    2    1    2    0    0  0.00000000000E+00  0.00000000000E+00 -0.57341159097E+03  0.63475680342E+03  0.27224133929E+03 0.  0.
         25    1    3    3    0    0  0.53200871130E+02 -0.83307501524E+01 -0.36844819153E+03  0.39122091448E+03  0.12000000000E+03 0.  0.
         25    1    3    3    0    0 -0.53200871130E+02  0.83307501524E+01 -0.20496339944E+03  0.24353588893E+03  0.12000000000E+03 0.  0.
<mgrwt>
<rscale>  0 0.27224134E+03</rscale>
<asrwt>0</asrwt>
<pdfrwt beam="1">  1        2 0.92936023E-01 0.27224134E+03</pdfrwt>
<pdfrwt beam="2">  1       -2 0.47188629E-02 0.27224134E+03</pdfrwt>
<totfact> 0.10649167E+04</totfact>
</mgrwt>
</event>
<event>
 5    1  0.1122238E+001  0.2745904E+03  0.7818608E-02  0.1098681E+00
         -2   -1    0    0    0  501 -0.00000000000E+00  0.00000000000E+00  0.23653384814E+02  0.23653384814E+02  0.00000000000E+00 0. -1.
          2   -1    0    0  501    0  0.00000000000E+00 -0.00000000000E+00 -0.79692502139E+03  0.79692502139E+03  0.00000000000E+00 0. -1.
         35    2    1    2    0    0  0.00000000000E+00  0.00000000000E+00 -0.77327163657E+03  0.82057840620E+03  0.27459041643E+03 0.  0.
         25    1    3    3    0    0  0.58797955717E+02 -0.83313890565E+01 -0.47744313415E+03  0.49586143023E+03  0.12000000000E+03 0.  0.
         25    1    3    3    0    0 -0.58797955717E+02  0.83313890565E+01 -0.29582850242E+03  0.32471697597E+03  0.12000000000E+03 0.  0.
<mgrwt>
<rscale>  0 0.27459042E+03</rscale>
<asrwt>0</asrwt>
<pdfrwt beam="1">  1        2 0.12260383E+00 0.27459042E+03</pdfrwt>
<pdfrwt beam="2">  1       -2 0.36389828E-02 0.27459042E+03</pdfrwt>
<totfact> 0.11262000E+04</totfact>
</mgrwt>
</event>
<event>
 5    1  0.1122238E+001  0.2764324E+03  0.7818608E-02  0.1097654E+00
         -2   -1    0    0    0  501 -0.00000000000E+00  0.00000000000E+00  0.25693067436E+02  0.25693067436E+02  0.00000000000E+00 0. -1.
          2   -1    0    0  501    0  0.00000000000E+00 -0.00000000000E+00 -0.74353596127E+03  0.74353596127E+03  0.00000000000E+00 0. -1.
         35    2    1    2    0    0  0.00000000000E+00  0.00000000000E+00 -0.71784289383E+03  0.76922902870E+03  0.27643241195E+03 0.  0.
         25    1    3    3    0    0 -0.10679107617E+02 -0.32982428092E+02 -0.19425140943E+03  0.23094478554E+03  0.12000000000E+03 0.  0.
         25    1    3    3    0    0  0.10679107617E+02  0.32982428092E+02 -0.52359148440E+03  0.53828424316E+03  0.12000000000E+03 0.  0.
<mgrwt>
<rscale>  0 0.27643241E+03</rscale>
<asrwt>0</asrwt>
<pdfrwt beam="1">  1        2 0.11439014E+00 0.27643241E+03</pdfrwt>
<pdfrwt beam="2">  1       -2 0.39527800E-02 0.27643241E+03</pdfrwt>
<totfact> 0.10853630E+04</totfact>
</mgrwt>
</event>
<event>
 5    1  0.1122238E+001  0.2740908E+03  0.7818608E-02  0.1098961E+00
          1   -1    0    0  501    0  0.00000000000E+00  0.00000000000E+00  0.21727182498E+03  0.21727182498E+03  0.00000000000E+00 0.  1.
         -1   -1    0    0    0  501 -0.00000000000E+00 -0.00000000000E+00 -0.86442145524E+02  0.86442145524E+02  0.00000000000E+00 0.  1.
         35    2    1    2    0    0  0.00000000000E+00  0.00000000000E+00  0.13082967945E+03  0.30371397050E+03  0.27409080767E+03 0.  0.
         25    1    3    3    0    0  0.34590009968E+02  0.88819718545E+01  0.12717052311E+03  0.17845923950E+03  0.12000000000E+03 0.  0.
         25    1    3    3    0    0 -0.34590009968E+02 -0.88819718545E+01  0.36591563426E+01  0.12525473100E+03  0.12000000000E+03 0.  0.
<mgrwt>
<rscale>  0 0.27409081E+03</rscale>
<asrwt>0</asrwt>
<pdfrwt beam="1">  1        1 0.33426434E-01 0.27409081E+03</pdfrwt>
<pdfrwt beam="2">  1       -1 0.13298792E-01 0.27409081E+03</pdfrwt>
<totfact> 0.51030813E+03</totfact>
</mgrwt>
</event>
<event>
 5    1  0.1122238E+001  0.2762845E+03  0.7818608E-02  0.1097736E+00
         -4   -1    0    0    0  501 -0.00000000000E+00  0.00000000000E+00  0.18907504284E+02  0.18907504284E+02  0.00000000000E+00 0. -1.
          4   -1    0    0  501    0  0.00000000000E+00 -0.00000000000E+00 -0.10092965493E+04  0.10092965493E+04  0.00000000000E+00 0. -1.
         35    2    1    2    0    0  0.00000000000E+00  0.00000000000E+00 -0.99038904498E+03  0.10282040536E+04  0.27628448259E+03 0.  0.
         25    1    3    3    0    0  0.66700798820E+00  0.59989683142E+02 -0.61772717952E+03  0.63212821113E+03  0.12000000000E+03 0.  0.
         25    1    3    3    0    0 -0.66700798820E+00 -0.59989683142E+02 -0.37266186546E+03  0.39607584242E+03  0.12000000000E+03 0.  0.
<mgrwt>
<rscale>  0 0.27628448E+03</rscale>
<asrwt>0</asrwt>
<pdfrwt beam="1">  1        4 0.15527646E+00 0.27628448E+03</pdfrwt>
<pdfrwt beam="2">  1       -4 0.29088455E-02 0.27628448E+03</pdfrwt>
<totfact> 0.30654043E+02</totfact>
</mgrwt>
</event>
<event>
 5    1  0.1122238E+001  0.2755163E+03  0.7818608E-02  0.1098163E+00
          2   -1    0    0  501    0  0.00000000000E+00  0.00000000000E+00  0.14646968911E+04  0.14646968911E+04  0.00000000000E+00 0. -1.
         -2   -1    0    0    0  501 -0.00000000000E+00 -0.00000000000E+00 -0.12956471259E+02  0.12956471259E+02  0.00000000000E+00 0. -1.
         35    2    1    2    0    0  0.00000000000E+00  0.00000000000E+00  0.14517404199E+04  0.14776533624E+04  0.27551626575E+03 0.  0.
         25    1    3    3    0    0  0.60691847718E+02 -0.28182147122E+02  0.77938677351E+03  0.79140474886E+03  0.12000000000E+03 0.  0.
         25    1    3    3    0    0 -0.60691847718E+02  0.28182147122E+02  0.67235364637E+03  0.68624861353E+03  0.12000000000E+03 0.  0.
<mgrwt>
<rscale>  0 0.27551627E+03</rscale>
<asrwt>0</asrwt>
<pdfrwt beam="1">  1        2 0.22533785E+00 0.27551627E+03</pdfrwt>
<pdfrwt beam="2">  1       -2 0.19933044E-02 0.27551627E+03</pdfrwt>
<totfact> 0.11073524E+04</totfact>
</mgrwt>
</event>
<event>
 5    1  0.1122238E+001  0.2758625E+03  0.7818608E-02  0.1097970E+00
          1   -1    0    0  501    0  0.00000000000E+00  0.00000000000E+00  0.27572276601E+03  0.27572276601E+03  0.00000000000E+00 0.  1.
         -1   -1    0    0    0  501 -0.00000000000E+00 -0.00000000000E+00 -0.69000597292E+02  0.69000597292E+02  0.00000000000E+00 0.  1.
         35    2    1    2    0    0  0.00000000000E+00  0.00000000000E+00  0.20672216872E+03  0.34472336330E+03  0.27586254216E+03 0.  0.
         25    1    3    3    0    0  0.45862148538E+02 -0.12177137426E+02  0.16423972341E+03  0.20886911234E+03  0.12000000000E+03 0.  0.
         25    1    3    3    0    0 -0.45862148538E+02  0.12177137426E+02  0.42482445305E+02  0.13585425096E+03  0.12000000000E+03 0.  0.
<mgrwt>
<rscale>  0 0.27586254E+03</rscale>
<asrwt>0</asrwt>
<pdfrwt beam="1">  1        1 0.42418886E-01 0.27586254E+03</pdfrwt>
<pdfrwt beam="2">  1       -1 0.10615477E-01 0.27586254E+03</pdfrwt>
<totfact> 0.53803616E+03</totfact>
</mgrwt>
</event>
<event>
 5    1  0.1122238E+001  0.2745598E+03  0.7818608E-02  0.1098698E+00
         -2   -1    0    0    0  501 -0.00000000000E+00  0.00000000000E+00  0.88588557132E+03  0.88588557132E+03  0.00000000000E+00 0. -1.
          2   -1    0    0  501    0  0.00000000000E+00 -0.00000000000E+00 -0.21273371210E+02  0.21273371210E+02  0.00000000000E+00 0. -1.
         35    2    1    2    0    0  0.00000000000E+00  0.00000000000E+00  0.86461220011E+03  0.90715894253E+03  0.27455981213E+03 0.  0.
         25    1    3    3    0    0  0.53510410563E+02 -0.31185849078E+02  0.51390013782E+03  0.53134665979E+03  0.12000000000E+03 0.  0.
         25    1    3    3    0    0 -0.53510410563E+02  0.31185849078E+02  0.35071206229E+03  0.37581228274E+03  0.12000000000E+03 0.  0.
<mgrwt>
<rscale>  0 0.27455981E+03</rscale>
<asrwt>0</asrwt>
<pdfrwt beam="1">  1        2 0.32728270E-02 0.27455981E+03</pdfrwt>
<pdfrwt beam="2">  1       -2 0.13629006E+00 0.27455981E+03</pdfrwt>
<totfact> 0.11272699E+03</totfact>
</mgrwt>
</event>
<event>
 5    1  0.1122238E+001  0.2748898E+03  0.7818608E-02  0.1098513E+00
          2   -1    0    0  501    0  0.00000000000E+00  0.00000000000E+00  0.37780285904E+03  0.37780285904E+03  0.00000000000E+00 0.  1.
         -2   -1    0    0    0  501 -0.00000000000E+00 -0.00000000000E+00 -0.50002543159E+02  0.50002543159E+02  0.00000000000E+00 0.  1.
         35    2    1    2    0    0  0.00000000000E+00  0.00000000000E+00  0.32780031588E+03  0.42780540219E+03  0.27488982349E+03 0.  0.
         25    1    3    3    0    0  0.48411674443E+02 -0.21534461830E+02  0.10004184476E+03  0.16497210058E+03  0.12000000000E+03 0.  0.
         25    1    3    3    0    0 -0.48411674443E+02  0.21534461830E+02  0.22775847112E+03  0.26283330161E+03  0.12000000000E+03 0.  0.
<mgrwt>
<rscale>  0 0.27488982E+03</rscale>
<asrwt>0</asrwt>
<pdfrwt beam="1">  1        2 0.58123515E-01 0.27488982E+03</pdfrwt>
<pdfrwt beam="2">  1       -2 0.76926992E-02 0.27488982E+03</pdfrwt>
<totfact> 0.84876679E+03</totfact>
</mgrwt>
</event>
<event>
 5    1  0.1122238E+001  0.2750845E+03  0.7818608E-02  0.1098404E+00
         -2   -1    0    0    0  501 -0.00000000000E+00  0.00000000000E+00  0.16876186288E+02  0.16876186288E+02  0.00000000000E+00 0.  1.
          2   -1    0    0  501    0  0.00000000000E+00 -0.00000000000E+00 -0.11209802280E+04  0.11209802280E+04  0.00000000000E+00 0.  1.
         35    2    1    2    0    0  0.00000000000E+00  0.00000000000E+00 -0.11041040418E+04  0.11378564143E+04  0.27508450450E+03 0.  0.
         25    1    3    3    0    0 -0.30490085504E+02  0.57889388082E+02 -0.61573690403E+03  0.63072399792E+03  0.12000000000E+03 0.  0.
         25    1    3    3    0    0  0.30490085504E+02 -0.57889388082E+02 -0.48836713773E+03  0.50713241641E+03  0.12000000000E+03 0.  0.
<mgrwt>
<rscale>  0 0.27508450E+03</rscale>
<asrwt>0</asrwt>
<pdfrwt beam="1">  1        2 0.17245850E+00 0.27508450E+03</pdfrwt>
<pdfrwt beam="2">  1       -2 0.25963363E-02 0.27508450E+03</pdfrwt>
<totfact> 0.11644655E+04</totfact>
</mgrwt>
</event>
<event>
 5    1  0.1122238E+001  0.2742434E+03  0.7818608E-02  0.1098875E+00
          2   -1    0    0  501    0  0.00000000000E+00  0.00000000000E+00  0.10476375799E+03  0.10476375799E+03  0.00000000000E+00 0.  1.
         -2   -1    0    0    0  501 -0.00000000000E+00 -0.00000000000E+00 -0.17947395138E+03  0.17947395138E+03  0.00000000000E+00 0.  1.
         35    2    1    2    0    0  0.00000000000E+00  0.00000000000E+00 -0.74710193387E+02  0.28423770938E+03  0.27424343645E+03 0.  0.
         25    1    3    3    0    0 -0.42806673963E+02  0.46412232375E+02 -0.58490886605E+02  0.14767427151E+03  0.12000000000E+03 0.  0.
         25    1    3    3    0    0  0.42806673963E+02 -0.46412232375E+02 -0.16219306782E+02  0.13656343787E+03  0.12000000000E+03 0.  0.
<mgrwt>
<rscale>  0 0.27424344E+03</rscale>
<asrwt>0</asrwt>
<pdfrwt beam="1">  1        2 0.16117501E-01 0.27424344E+03</pdfrwt>
<pdfrwt beam="2">  1       -2 0.27611377E-01 0.27424344E+03</pdfrwt>
<totfact> 0.42286970E+03</totfact>
</mgrwt>
</event>
<event>
 5    1  0.1122238E+001  0.2785439E+03  0.7818608E-02  0.1096487E+00
          3   -1    0    0  501    0  0.00000000000E+00  0.00000000000E+00  0.43297698054E+02  0.43297698054E+02  0.00000000000E+00 0.  1.
         -3   -1    0    0    0  501 -0.00000000000E+00 -0.00000000000E+00 -0.44798395054E+03  0.44798395054E+03  0.00000000000E+00 0.  1.
         35    2    1    2    0    0  0.00000000000E+00  0.00000000000E+00 -0.40468625249E+03  0.49128164859E+03  0.27854388396E+03 0.  0.
         25    1    3    3    0    0  0.54719614703E+02 -0.34187267850E+02 -0.15141783041E+03  0.20369183804E+03  0.12000000000E+03 0.  0.
         25    1    3    3    0    0 -0.54719614703E+02  0.34187267850E+02 -0.25326842207E+03  0.28758981056E+03  0.12000000000E+03 0.  0.
<mgrwt>
<rscale>  0 0.27854388E+03</rscale>
<asrwt>0</asrwt>
<pdfrwt beam="1">  1        3 0.66611841E-02 0.27854388E+03</pdfrwt>
<pdfrwt beam="2">  1       -3 0.68920610E-01 0.27854388E+03</pdfrwt>
<totfact> 0.75226595E+02</totfact>
</mgrwt>
</event>
<event>
 5    1  0.1122238E+001  0.2725955E+03  0.7818608E-02  0.1099803E+00
          2   -1    0    0  501    0  0.00000000000E+00  0.00000000000E+00  0.32343102297E+03  0.32343102297E+03  0.00000000000E+00 0.  1.
         -2   -1    0    0    0  501 -0.00000000000E+00 -0.00000000000E+00 -0.57437520400E+02  0.57437520400E+02  0.00000000000E+00 0.  1.
         35    2    1    2    0    0  0.00000000000E+00  0.00000000000E+00  0.26599350257E+03  0.38086854337E+03  0.27259549504E+03 0.  0.
         25    1    3    3    0    0  0.27666677408E+02  0.51657299717E+02  0.94908070063E+02  0.16383364556E+03  0.12000000000E+03 0.  0.
         25    1    3    3    0    0 -0.27666677408E+02 -0.51657299717E+02  0.17108543250E+03  0.21703489781E+03  0.12000000000E+03 0.  0.
<mgrwt>
<rscale>  0 0.27259550E+03</rscale>
<asrwt>0</asrwt>
<pdfrwt beam="1">  1        2 0.49758618E-01 0.27259550E+03</pdfrwt>
<pdfrwt beam="2">  1       -2 0.88365418E-02 0.27259550E+03</pdfrwt>
<totfact> 0.80766934E+03</totfact>
</mgrwt>
</event>
<event>
 5    1  0.1122238E+001  0.2735471E+03  0.7818608E-02  0.1099266E+00
          4   -1    0    0  501    0  0.00000000000E+00  0.00000000000E+00  0.55341649970E+03  0.55341649970E+03  0.00000000000E+00 0. -1.
         -4   -1    0    0    0  501 -0.00000000000E+00 -0.00000000000E+00 -0.33802765775E+02  0.33802765775E+02  0.00000000000E+00 0. -1.
         35    2    1    2    0    0  0.00000000000E+00  0.00000000000E+00  0.51961373393E+03  0.58721926548E+03  0.27354713170E+03 0.  0.
         25    1    3    3    0    0 -0.64894676791E+02  0.51469601509E+01  0.27766413548E+03  0.30941102502E+03  0.12000000000E+03 0.  0.
         25    1    3    3    0    0  0.64894676791E+02 -0.51469601509E+01  0.24194959845E+03  0.27780824046E+03  0.12000000000E+03 0.  0.
<mgrwt>
<rscale>  0 0.27354713E+03</rscale>
<asrwt>0</asrwt>
<pdfrwt beam="1">  1        4 0.85140993E-01 0.27354713E+03</pdfrwt>
<pdfrwt beam="2">  1       -4 0.52004259E-02 0.27354713E+03</pdfrwt>
<totfact> 0.51809110E+02</totfact>
</mgrwt>
</event>
<event>
 5    1  0.1122238E+001  0.2742670E+03  0.7818608E-02  0.1098862E+00
         -1   -1    0    0    0  501 -0.00000000000E+00  0.00000000000E+00  0.39624116822E+03  0.39624116822E+03  0.00000000000E+00 0.  1.
          1   -1    0    0  501    0  0.00000000000E+00 -0.00000000000E+00 -0.47459969584E+02  0.47459969584E+02  0.00000000000E+00 0.  1.
         35    2    1    2    0    0  0.00000000000E+00  0.00000000000E+00  0.34878119863E+03  0.44370113780E+03  0.27426697790E+03 0.  0.
         25    1    3    3    0    0  0.40375723777E+02 -0.22935185165E+00  0.89163975501E+02  0.15485627595E+03  0.12000000000E+03 0.  0.
         25    1    3    3    0    0 -0.40375723777E+02  0.22935185165E+00  0.25961722313E+03  0.28884486186E+03  0.12000000000E+03 0.  0.
<mgrwt>
<rscale>  0 0.27426698E+03</rscale>
<asrwt>0</asrwt>
<pdfrwt beam="1">  1        1 0.73015340E-02 0.27426698E+03</pdfrwt>
<pdfrwt beam="2">  1       -1 0.60960178E-01 0.27426698E+03</pdfrwt>
<totfact> 0.27688653E+03</totfact>
</mgrwt>
</event>
<event>
 5    1  0.1122238E+001  0.2749743E+03  0.7818608E-02  0.1098466E+00
         -2   -1    0    0    0  501 -0.00000000000E+00  0.00000000000E+00  0.72674393627E+01  0.72674393627E+01  0.00000000000E+00 0.  1.
          2   -1    0    0  501    0  0.00000000000E+00 -0.00000000000E+00 -0.26010152532E+04  0.26010152532E+04  0.00000000000E+00 0.  1.
         35    2    1    2    0    0  0.00000000000E+00  0.00000000000E+00 -0.25937478139E+04  0.26082826926E+04  0.27497433069E+03 0.  0.
         25    1    3    3    0    0  0.25991635683E+02 -0.57517481248E+02 -0.15129477470E+04  0.15190110964E+04  0.12000000000E+03 0.  0.
         25    1    3    3    0    0 -0.25991635683E+02  0.57517481248E+02 -0.10808000669E+04  0.10892715962E+04  0.12000000000E+03 0.  0.
<mgrwt>
<rscale>  0 0.27497433E+03</rscale>
<asrwt>0</asrwt>
<pdfrwt beam="1">  1        2 0.40015626E+00 0.27497433E+03</pdfrwt>
<pdfrwt beam="2">  1       -2 0.11180674E-02 0.27497433E+03</pdfrwt>
<totfact> 0.63933567E+03</totfact>
</mgrwt>
</event>
<event>
 5    1  0.1122238E+001  0.2749542E+03  0.7818608E-02  0.1098477E+00
         -2   -1    0    0    0  501 -0.00000000000E+00  0.00000000000E+00  0.11642771152E+03  0.11642771152E+03  0.00000000000E+00 0. -1.
          2   -1    0    0  501    0  0.00000000000E+00 -0.00000000000E+00 -0.16233212074E+03  0.16233212074E+03  0.00000000000E+00 0. -1.
         35    2    1    2    0    0  0.00000000000E+00  0.00000000000E+00 -0.45904409213E+02  0.27875983226E+03  0.27495423128E+03 0.  0.
         25    1    3    3    0    0 -0.35386571283E+02 -0.28313316725E+02  0.27190441126E+02  0.13112274181E+03  0.12000000000E+03 0.  0.
         25    1    3    3    0    0  0.35386571283E+02  0.28313316725E+02 -0.73094850339E+02  0.14763709045E+03  0.12000000000E+03 0.  0.
<mgrwt>
<rscale>  0 0.27495423E+03</rscale>
<asrwt>0</asrwt>
<pdfrwt beam="1">  1        2 0.24974172E-01 0.27495423E+03</pdfrwt>
<pdfrwt beam="2">  1       -2 0.17911956E-01 0.27495423E+03</pdfrwt>
<totfact> 0.54293414E+03</totfact>
</mgrwt>
</event>
<event>
 5    1  0.1122238E+001  0.2677140E+03  0.7818608E-02  0.1102595E+00
         -2   -1    0    0    0  501 -0.00000000000E+00  0.00000000000E+00  0.14634773434E+02  0.14634773434E+02  0.00000000000E+00 0. -1.
          2   -1    0    0  501    0  0.00000000000E+00 -0.00000000000E+00 -0.12243236407E+04  0.12243236407E+04  0.00000000000E+00 0. -1.
         35    2    1    2    0    0  0.00000000000E+00  0.00000000000E+00 -0.12096888673E+04  0.12389584142E+04  0.26771401974E+03 0.  0.
         25    1    3    3    0    0  0.87644804028E+01 -0.13456869550E+02 -0.86907362852E+03  0.87746616758E+03  0.12000000000E+03 0.  0.
         25    1    3    3    0    0 -0.87644804028E+01  0.13456869550E+02 -0.34061523876E+03  0.36149224657E+03  0.12000000000E+03 0.  0.
<mgrwt>
<rscale>  0 0.26771402E+03</rscale>
<asrwt>0</asrwt>
<pdfrwt beam="1">  1        2 0.18835759E+00 0.26771402E+03</pdfrwt>
<pdfrwt beam="2">  1       -2 0.22515024E-02 0.26771402E+03</pdfrwt>
<totfact> 0.12532904E+04</totfact>
</mgrwt>
</event>
<event>
 5    1  0.1122238E+001  0.2754698E+03  0.7818608E-02  0.1098189E+00
         -2   -1    0    0    0  501 -0.00000000000E+00  0.00000000000E+00  0.15366202952E+02  0.15366202952E+02  0.00000000000E+00 0. -1.
          2   -1    0    0  501    0  0.00000000000E+00 -0.00000000000E+00 -0.12345861771E+04  0.12345861771E+04  0.00000000000E+00 0. -1.
         35    2    1    2    0    0  0.00000000000E+00  0.00000000000E+00 -0.12192199742E+04  0.12499523801E+04  0.27546979333E+03 0.  0.
         25    1    3    3    0    0  0.20434459632E+02  0.12494494645E+01 -0.90198234526E+03  0.91016002957E+03  0.12000000000E+03 0.  0.
         25    1    3    3    0    0 -0.20434459632E+02 -0.12494494645E+01 -0.31723762890E+03  0.33979235049E+03  0.12000000000E+03 0.  0.
<mgrwt>
<rscale>  0 0.27546979E+03</rscale>
<asrwt>0</asrwt>
<pdfrwt beam="1">  1        2 0.18993637E+00 0.27546979E+03</pdfrwt>
<pdfrwt beam="2">  1       -2 0.23640308E-02 0.27546979E+03</pdfrwt>
<totfact> 0.11517315E+04</totfact>
</mgrwt>
</event>
<event>
 5    1  0.1122238E+001  0.2746278E+03  0.7818608E-02  0.1098660E+00
          3   -1    0    0  501    0  0.00000000000E+00  0.00000000000E+00  0.12057167794E+03  0.12057167794E+03  0.00000000000E+00 0. -1.
         -3   -1    0    0    0  501 -0.00000000000E+00 -0.00000000000E+00 -0.15638094240E+03  0.15638094240E+03  0.00000000000E+00 0. -1.
         35    2    1    2    0    0  0.00000000000E+00  0.00000000000E+00 -0.35809264460E+02  0.27695262035E+03  0.27462783999E+03 0.  0.
         25    1    3    3    0    0 -0.53668847413E+02  0.18760319582E+02  0.17360198399E+02  0.13391665790E+03  0.12000000000E+03 0.  0.
         25    1    3    3    0    0  0.53668847413E+02 -0.18760319582E+02 -0.53169462859E+02  0.14303596245E+03  0.12000000000E+03 0.  0.
<mgrwt>
<rscale>  0 0.27462784E+03</rscale>
<asrwt>0</asrwt>
<pdfrwt beam="1">  1        3 0.18549489E-01 0.27462784E+03</pdfrwt>
<pdfrwt beam="2">  1       -3 0.24058606E-01 0.27462784E+03</pdfrwt>
<totfact> 0.10502608E+03</totfact>
</mgrwt>
</event>
<event>
 5    1  0.1122238E+001  0.2758768E+03  0.7818608E-02  0.1097963E+00
         -3   -1    0    0    0  501 -0.00000000000E+00  0.00000000000E+00  0.93547737207E+02  0.93547737207E+02  0.00000000000E+00 0. -1.
          3   -1    0    0  501    0  0.00000000000E+00 -0.00000000000E+00 -0.20339343709E+03  0.20339343709E+03  0.00000000000E+00 0. -1.
         35    2    1    2    0    0  0.00000000000E+00  0.00000000000E+00 -0.10984569988E+03  0.29694117430E+03  0.27587675366E+03 0.  0.
         25    1    3    3    0    0 -0.62659320945E+02 -0.42182684359E+01 -0.26792876195E+02  0.13806463162E+03  0.12000000000E+03 0.  0.
         25    1    3    3    0    0  0.62659320945E+02  0.42182684359E+01 -0.83052823690E+02  0.15887654268E+03  0.12000000000E+03 0.  0.
<mgrwt>
<rscale>  0 0.27587675E+03</rscale>
<asrwt>0</asrwt>
<pdfrwt beam="1">  1        3 0.31291298E-01 0.27587675E+03</pdfrwt>
<pdfrwt beam="2">  1       -3 0.14391960E-01 0.27587675E+03</pdfrwt>
<totfact> 0.10062742E+03</totfact>
</mgrwt>
</event>
<event>
 5    1  0.1122238E+001  0.2747670E+03  0.7818608E-02  0.1098582E+00
         -1   -1    0    0    0  501 -0.00000000000E+00  0.00000000000E+00  0.13587873409E+02  0.13587873409E+02  0.00000000000E+00 0. -1.
          1   -1    0    0  501    0  0.00000000000E+00 -0.00000000000E+00 -0.13890496400E+04  0.13890496400E+04  0.00000000000E+00 0. -1.
         35    2    1    2    0    0  0.00000000000E+00  0.00000000000E+00 -0.13754617666E+04  0.14026375134E+04  0.27476703345E+03 0.  0.
         25    1    3    3    0    0 -0.23915717260E+02 -0.60995419223E+02 -0.75656617697E+03  0.76882038399E+03  0.12000000000E+03 0.  0.
         25    1    3    3    0    0  0.23915717260E+02  0.60995419223E+02 -0.61889558962E+03  0.63381712943E+03  0.12000000000E+03 0.  0.
<mgrwt>
<rscale>  0 0.27476703E+03</rscale>
<asrwt>0</asrwt>
<pdfrwt beam="1">  1        1 0.21369980E+00 0.27476703E+03</pdfrwt>
<pdfrwt beam="2">  1       -1 0.20904435E-02 0.27476703E+03</pdfrwt>
<totfact> 0.54553311E+03</totfact>
</mgrwt>
</event>
<event>
 5    1  0.1122238E+001  0.2748498E+03  0.7818608E-02  0.1098536E+00
          2   -1    0    0  501    0  0.00000000000E+00  0.00000000000E+00  0.23608133864E+04  0.23608133864E+04  0.00000000000E+00 0.  1.
         -2   -1    0    0    0  501 -0.00000000000E+00 -0.00000000000E+00 -0.79996196438E+01  0.79996196438E+01  0.00000000000E+00 0.  1.
         35    2    1    2    0    0  0.00000000000E+00  0.00000000000E+00  0.23528137668E+04  0.23688130061E+04  0.27484984367E+03 0.  0.
         25    1    3    3    0    0  0.55824137289E+02  0.35618575804E+02  0.12628472857E+04  0.12702630768E+04  0.12000000000E+03 0.  0.
         25    1    3    3    0    0 -0.55824137289E+02 -0.35618575804E+02  0.10899664811E+04  0.10985499293E+04  0.12000000000E+03 0.  0.
<mgrwt>
<rscale>  0 0.27484984E+03</rscale>
<asrwt>0</asrwt>
<pdfrwt beam="1">  1        2 0.36320150E+00 0.27484984E+03</pdfrwt>
<pdfrwt beam="2">  1       -2 0.12307126E-02 0.27484984E+03</pdfrwt>
<totfact> 0.75232659E+03</totfact>
</mgrwt>
</event>
<event>
 5    1  0.1122238E+001  0.2741065E+03  0.7818608E-02  0.1098952E+00
         -1   -1    0    0    0  501 -0.00000000000E+00  0.00000000000E+00  0.32291643377E+03  0.32291643377E+03  0.00000000000E+00 0. -1.
          1   -1    0    0  501    0  0.00000000000E+00 -0.00000000000E+00 -0.58168604709E+02  0.58168604709E+02  0.00000000000E+00 0. -1.
         35    2    1    2    0    0  0.00000000000E+00  0.00000000000E+00  0.26474782906E+03  0.38108503848E+03  0.27410653688E+03 0.  0.
         25    1    3    3    0    0 -0.54151423984E+02  0.35407184793E+02  0.15191480046E+03  0.20411798562E+03  0.12000000000E+03 0.  0.
         25    1    3    3    0    0  0.54151423984E+02 -0.35407184793E+02  0.11283302860E+03  0.17696705286E+03  0.12000000000E+03 0.  0.
<mgrwt>
<rscale>  0 0.27410654E+03</rscale>
<asrwt>0</asrwt>
<pdfrwt beam="1">  1        1 0.89490163E-02 0.27410654E+03</pdfrwt>
<pdfrwt beam="2">  1       -1 0.49679450E-01 0.27410654E+03</pdfrwt>
<totfact> 0.30898349E+03</totfact>
</mgrwt>
</event>
<event>
 5    1  0.1122238E+001  0.2708603E+03  0.7818608E-02  0.1100788E+00
         -2   -1    0    0    0  501 -0.00000000000E+00  0.00000000000E+00  0.12838217625E+03  0.12838217625E+03  0.00000000000E+00 0.  1.
          2   -1    0    0  501    0  0.00000000000E+00 -0.00000000000E+00 -0.14286509804E+03  0.14286509804E+03  0.00000000000E+00 0.  1.
         35    2    1    2    0    0  0.00000000000E+00  0.00000000000E+00 -0.14482921791E+02  0.27124727428E+03  0.27086034922E+03 0.  0.
         25    1    3    3    0    0  0.50645605489E+02 -0.11118723483E+02  0.28203008917E+02  0.13373112233E+03  0.12000000000E+03 0.  0.
         25    1    3    3    0    0 -0.50645605489E+02  0.11118723483E+02 -0.42685930708E+02  0.13751615195E+03  0.12000000000E+03 0.  0.
<mgrwt>
<rscale>  0 0.27086035E+03</rscale>
<asrwt>0</asrwt>
<pdfrwt beam="1">  1        2 0.21979246E-01 0.27086035E+03</pdfrwt>
<pdfrwt beam="2">  1       -2 0.19751104E-01 0.27086035E+03</pdfrwt>
<totfact> 0.53076906E+03</totfact>
</mgrwt>
</event>
<event>
 5    1  0.1122238E+001  0.2741263E+03  0.7818608E-02  0.1098941E+00
          1   -1    0    0  501    0  0.00000000000E+00  0.00000000000E+00  0.17643451710E+04  0.17643451710E+04  0.00000000000E+00 0. -1.
         -1   -1    0    0    0  501 -0.00000000000E+00 -0.00000000000E+00 -0.10647750508E+02  0.10647750508E+02  0.00000000000E+00 0. -1.
         35    2    1    2    0    0  0.00000000000E+00  0.00000000000E+00  0.17536974205E+04  0.17749929215E+04  0.27412630075E+03 0.  0.
         25    1    3    3    0    0  0.20941799633E+02 -0.25425180343E+02  0.12488881400E+04  0.12550723426E+04  0.12000000000E+03 0.  0.
         25    1    3    3    0    0 -0.20941799633E+02  0.25425180343E+02  0.50480928047E+03  0.51992057895E+03  0.12000000000E+03 0.  0.
<mgrwt>
<rscale>  0 0.27412630E+03</rscale>
<asrwt>0</asrwt>
<pdfrwt beam="1">  1        1 0.27143749E+00 0.27412630E+03</pdfrwt>
<pdfrwt beam="2">  1       -1 0.16381169E-02 0.27412630E+03</pdfrwt>
<totfact> 0.44060629E+03</totfact>
</mgrwt>
</event>
<event>
 5    1  0.1122238E+001  0.2748516E+03  0.7818608E-02  0.1098535E+00
         -1   -1    0    0    0  501 -0.00000000000E+00  0.00000000000E+00  0.53418835877E+02  0.53418835877E+02  0.00000000000E+00 0. -1.
          1   -1    0    0  501    0  0.00000000000E+00 -0.00000000000E+00 -0.35354280329E+03  0.35354280329E+03  0.00000000000E+00 0. -1.
         35    2    1    2    0    0  0.00000000000E+00  0.00000000000E+00 -0.30012396741E+03  0.40696163917E+03  0.27485155982E+03 0.  0.
         25    1    3    3    0    0 -0.97609255269E+01 -0.13560307032E+02 -0.24609606537E+03  0.27430353805E+03  0.12000000000E+03 0.  0.
         25    1    3    3    0    0  0.97609255269E+01  0.13560307032E+02 -0.54027902042E+02  0.13265810112E+03  0.12000000000E+03 0.  0.
<mgrwt>
<rscale>  0 0.27485156E+03</rscale>
<asrwt>0</asrwt>
<pdfrwt beam="1">  1        1 0.54391203E-01 0.27485156E+03</pdfrwt>
<pdfrwt beam="2">  1       -1 0.82182821E-02 0.27485156E+03</pdfrwt>
<totfact> 0.58321563E+03</totfact>
</mgrwt>
</event>
<event>
 5    1  0.1122238E+001  0.2744048E+03  0.7818608E-02  0.1098785E+00
          3   -1    0    0  501    0  0.00000000000E+00  0.00000000000E+00  0.14537247504E+02  0.14537247504E+02  0.00000000000E+00 0. -1.
         -3   -1    0    0    0  501 -0.00000000000E+00 -0.00000000000E+00 -0.12949146853E+04  0.12949146853E+04  0.00000000000E+00 0. -1.
         35    2    1    2    0    0  0.00000000000E+00  0.00000000000E+00 -0.12803774378E+04  0.13094519328E+04  0.27440477603E+03 0.  0.
         25    1    3    3    0    0 -0.13044423948E+02 -0.55495384358E+02 -0.80373587757E+03  0.81464179587E+03  0.12000000000E+03 0.  0.
         25    1    3    3    0    0  0.13044423948E+02  0.55495384358E+02 -0.47664156027E+03  0.49481013698E+03  0.12000000000E+03 0.  0.
<mgrwt>
<rscale>  0 0.27440478E+03</rscale>
<asrwt>0</asrwt>
<pdfrwt beam="1">  1        3 0.22364991E-02 0.27440478E+03</pdfrwt>
<pdfrwt beam="2">  1       -3 0.19921769E+00 0.27440478E+03</pdfrwt>
<totfact> 0.32754331E+02</totfact>
</mgrwt>
</event>
<event>
 5    1  0.1122238E+001  0.2747588E+03  0.7818608E-02  0.1098587E+00
          1   -1    0    0  501    0  0.00000000000E+00  0.00000000000E+00  0.91113800608E+02  0.91113800608E+02  0.00000000000E+00 0. -1.
         -1   -1    0    0    0  501 -0.00000000000E+00 -0.00000000000E+00 -0.20713759637E+03  0.20713759637E+03  0.00000000000E+00 0. -1.
         35    2    1    2    0    0  0.00000000000E+00  0.00000000000E+00 -0.11602379576E+03  0.29825139698E+03  0.27475875712E+03 0.  0.
         25    1    3    3    0    0 -0.60406157506E+01 -0.59564080641E+02 -0.25651442785E+02  0.13653704720E+03  0.12000000000E+03 0.  0.
         25    1    3    3    0    0  0.60406157506E+01  0.59564080641E+02 -0.90372352976E+02  0.16171434978E+03  0.12000000000E+03 0.  0.
<mgrwt>
<rscale>  0 0.27475876E+03</rscale>
<asrwt>0</asrwt>
<pdfrwt beam="1">  1        1 0.14017508E-01 0.27475876E+03</pdfrwt>
<pdfrwt beam="2">  1       -1 0.31867323E-01 0.27475876E+03</pdfrwt>
<totfact> 0.37340239E+03</totfact>
</mgrwt>
</event>
<event>
 5    1  0.1122238E+001  0.2758400E+03  0.7818608E-02  0.1097983E+00
          1   -1    0    0  501    0  0.00000000000E+00  0.00000000000E+00  0.41670017210E+02  0.41670017210E+02  0.00000000000E+00 0.  1.
         -1   -1    0    0    0  501 -0.00000000000E+00 -0.00000000000E+00 -0.45648963844E+03  0.45648963844E+03  0.00000000000E+00 0.  1.
         35    2    1    2    0    0  0.00000000000E+00  0.00000000000E+00 -0.41481962123E+03  0.49815965565E+03  0.27584003401E+03 0.  0.
         25    1    3    3    0    0 -0.47171685299E+02  0.46753239703E+02 -0.18118289299E+03  0.22724056422E+03  0.12000000000E+03 0.  0.
         25    1    3    3    0    0  0.47171685299E+02 -0.46753239703E+02 -0.23363672825E+03  0.27091909143E+03  0.12000000000E+03 0.  0.
<mgrwt>
<rscale>  0 0.27584003E+03</rscale>
<asrwt>0</asrwt>
<pdfrwt beam="1">  1        1 0.64107718E-02 0.27584003E+03</pdfrwt>
<pdfrwt beam="2">  1       -1 0.70229176E-01 0.27584003E+03</pdfrwt>
<totfact> 0.25057496E+03</totfact>
</mgrwt>
</event>
<event>
 5    1  0.1122238E+001  0.2719381E+03  0.7818608E-02  0.1100175E+00
          1   -1    0    0  501    0  0.00000000000E+00  0.00000000000E+00  0.47979389789E+03  0.47979389789E+03  0.00000000000E+00 0.  1.
         -1   -1    0    0    0  501 -0.00000000000E+00 -0.00000000000E+00 -0.38532347490E+02  0.38532347490E+02  0.00000000000E+00 0.  1.
         35    2    1    2    0    0  0.00000000000E+00  0.00000000000E+00  0.44126155040E+03  0.51832624538E+03  0.27193811941E+03 0.  0.
         25    1    3    3    0    0  0.12006402004E+02 -0.70334639694E+01  0.10169049466E+03  0.15790687131E+03  0.12000000000E+03 0.  0.
         25    1    3    3    0    0 -0.12006402004E+02  0.70334639694E+01  0.33957105574E+03  0.36041937406E+03  0.12000000000E+03 0.  0.
<mgrwt>
<rscale>  0 0.27193812E+03</rscale>
<asrwt>0</asrwt>
<pdfrwt beam="1">  1        1 0.73814442E-01 0.27193812E+03</pdfrwt>
<pdfrwt beam="2">  1       -1 0.59280538E-02 0.27193812E+03</pdfrwt>
<totfact> 0.64575093E+03</totfact>
</mgrwt>
</event>
<event>
 5    1  0.1122238E+001  0.2748163E+03  0.7818608E-02  0.1098554E+00
         -1   -1    0    0    0  501 -0.00000000000E+00  0.00000000000E+00  0.37558590899E+03  0.37558590899E+03  0.00000000000E+00 0. -1.
          1   -1    0    0  501    0  0.00000000000E+00 -0.00000000000E+00 -0.50270793333E+02  0.50270793333E+02  0.00000000000E+00 0. -1.
         35    2    1    2    0    0  0.00000000000E+00  0.00000000000E+00  0.32531511566E+03  0.42585670232E+03  0.27481631400E+03 0.  0.
         25    1    3    3    0    0  0.52055304708E+02  0.11902152064E+02  0.10010291185E+03  0.16514238987E+03  0.12000000000E+03 0.  0.
         25    1    3    3    0    0 -0.52055304708E+02 -0.11902152064E+02  0.22521220381E+03  0.26071431245E+03  0.12000000000E+03 0.  0.
<mgrwt>
<rscale>  0 0.27481631E+03</rscale>
<asrwt>0</asrwt>
<pdfrwt beam="1">  1        1 0.77339684E-02 0.27481631E+03</pdfrwt>
<pdfrwt beam="2">  1       -1 0.57782446E-01 0.27481631E+03</pdfrwt>
<totfact> 0.28371428E+03</totfact>
</mgrwt>
</event>
<event>
 5    1  0.1122238E+001  0.2752892E+03  0.7818608E-02  0.1098290E+00
          1   -1    0    0  501    0  0.00000000000E+00  0.00000000000E+00  0.77732523189E+02  0.77732523189E+02  0.00000000000E+00 0. -1.
         -1   -1    0    0    0  501 -0.00000000000E+00 -0.00000000000E+00 -0.24373368977E+03  0.24373368977E+03  0.00000000000E+00 0. -1.
         35    2    1    2    0    0  0.00000000000E+00  0.00000000000E+00 -0.16600116659E+03  0.32146621296E+03  0.27528919116E+03 0.  0.
         25    1    3    3    0    0  0.21915477989E+01 -0.14495172013E+02 -0.15985102585E+03  0.20041772217E+03  0.12000000000E+03 0.  0.
         25    1    3    3    0    0 -0.21915477989E+01  0.14495172013E+02 -0.61501407386E+01  0.12104849080E+03  0.12000000000E+03 0.  0.
<mgrwt>
<rscale>  0 0.27528919E+03</rscale>
<asrwt>0</asrwt>
<pdfrwt beam="1">  1        1 0.11958850E-01 0.27528919E+03</pdfrwt>
<pdfrwt beam="2">  1       -1 0.37497490E-01 0.27528919E+03</pdfrwt>
<totfact> 0.34749806E+03</totfact>
</mgrwt>
</event>
<event>
 5    1  0.1122238E+001  0.2751499E+03  0.7818608E-02  0.1098368E+00
         -2   -1    0    0    0  501 -0.00000000000E+00  0.00000000000E+00  0.18599502161E+02  0.18599502161E+02  0.00000000000E+00 0. -1.
          2   -1    0    0  501    0  0.00000000000E+00 -0.00000000000E+00 -0.10176010431E+04  0.10176010431E+04  0.00000000000E+00 0. -1.
         35    2    1    2    0    0  0.00000000000E+00  0.00000000000E+00 -0.99900154097E+03  0.10362005453E+04  0.27514994313E+03 0.  0.
         25    1    3    3    0    0 -0.25071088406E+01 -0.67127207665E+02 -0.48514801118E+03  0.50426276916E+03  0.12000000000E+03 0.  0.
         25    1    3    3    0    0  0.25071088406E+01  0.67127207665E+02 -0.51385352979E+03  0.53193777613E+03  0.12000000000E+03 0.  0.
<mgrwt>
<rscale>  0 0.27514994E+03</rscale>
<asrwt>0</asrwt>
<pdfrwt beam="1">  1        2 0.15655399E+00 0.27514994E+03</pdfrwt>
<pdfrwt beam="2">  1       -2 0.28614621E-02 0.27514994E+03</pdfrwt>
<totfact> 0.11613367E+04</totfact>
</mgrwt>
</event>
<event>
 5    1  0.1122238E+001  0.2704888E+03  0.7818608E-02  0.1101000E+00
          2   -1    0    0  501    0  0.00000000000E+00  0.00000000000E+00  0.21870595852E+03  0.21870595852E+03  0.00000000000E+00 0.  1.
         -2   -1    0    0    0  501 -0.00000000000E+00 -0.00000000000E+00 -0.83633041881E+02  0.83633041881E+02  0.00000000000E+00 0.  1.
         35    2    1    2    0    0  0.00000000000E+00  0.00000000000E+00  0.13507291663E+03  0.30233900040E+03  0.27048877676E+03 0.  0.
         25    1    3    3    0    0 -0.23056069314E+02  0.31711206550E+02  0.13306984786E+02  0.12694195050E+03  0.12000000000E+03 0.  0.
         25    1    3    3    0    0  0.23056069314E+02 -0.31711206550E+02  0.12176593185E+03  0.17539704990E+03  0.12000000000E+03 0.  0.
<mgrwt>
<rscale>  0 0.27048878E+03</rscale>
<asrwt>0</asrwt>
<pdfrwt beam="1">  1        2 0.33647070E-01 0.27048878E+03</pdfrwt>
<pdfrwt beam="2">  1       -2 0.12866622E-01 0.27048878E+03</pdfrwt>
<totfact> 0.67551412E+03</totfact>
</mgrwt>
</event>
<event>
 4    1  0.1122238E+001  0.3224305E+03  0.7818608E-02  0.1074536E+00
          2   -1    0    0  501    0  0.00000000000E+00  0.00000000000E+00  0.47535601157E+03  0.47535601157E+03  0.00000000000E+00 0. -1.
         -2   -1    0    0    0  501 -0.00000000000E+00 -0.00000000000E+00 -0.54675546108E+02  0.54675546108E+02  0.00000000000E+00 0. -1.
         25    1    1    2    0    0 -0.96829151049E+02  0.26361991205E+02  0.14626096819E+03  0.21415674140E+03  0.12000000000E+03 0.  0.
         25    1    1    2    0    0  0.96829151049E+02 -0.26361991205E+02  0.27441949728E+03  0.31587481628E+03  0.12000000000E+03 0.  0.
<mgrwt>
<rscale>  0 0.32243045E+03</rscale>
<asrwt>0</asrwt>
<pdfrwt beam="1">  1        2 0.73131691E-01 0.32243045E+03</pdfrwt>
<pdfrwt beam="2">  1       -2 0.84116228E-02 0.32243045E+03</pdfrwt>
<totfact> 0.57643149E+03</totfact>
</mgrwt>
</event>
<event>
 5    1  0.1122238E+001  0.2716210E+03  0.7818608E-02  0.1100355E+00
         -1   -1    0    0    0  501 -0.00000000000E+00  0.00000000000E+00  0.73345307990E+01  0.73345307990E+01  0.00000000000E+00 0. -1.
          1   -1    0    0  501    0  0.00000000000E+00 -0.00000000000E+00 -0.25147474020E+04  0.25147474020E+04  0.00000000000E+00 0. -1.
         35    2    1    2    0    0  0.00000000000E+00  0.00000000000E+00 -0.25074128712E+04  0.25220819327E+04  0.27162100266E+03 0.  0.
         25    1    3    3    0    0  0.25874486002E+02 -0.44819412654E+02 -0.91049897666E+03  0.91982968819E+03  0.12000000000E+03 0.  0.
         25    1    3    3    0    0 -0.25874486002E+02  0.44819412654E+02 -0.15969138945E+04  0.16022522446E+04  0.12000000000E+03 0.  0.
<mgrwt>
<rscale>  0 0.27162100E+03</rscale>
<asrwt>0</asrwt>
<pdfrwt beam="1">  1        1 0.38688471E+00 0.27162100E+03</pdfrwt>
<pdfrwt beam="2">  1       -1 0.11283879E-02 0.27162100E+03</pdfrwt>
<totfact> 0.24481473E+03</totfact>
</mgrwt>
</event>
<event>
 5    1  0.1122238E+001  0.2746596E+03  0.7818608E-02  0.1098642E+00
          1   -1    0    0  501    0  0.00000000000E+00  0.00000000000E+00  0.25301113407E+02  0.25301113407E+02  0.00000000000E+00 0. -1.
         -1   -1    0    0    0  501 -0.00000000000E+00 -0.00000000000E+00 -0.74540093767E+03  0.74540093767E+03  0.00000000000E+00 0. -1.
         35    2    1    2    0    0  0.00000000000E+00  0.00000000000E+00 -0.72009982426E+03  0.77070205107E+03  0.27465959774E+03 0.  0.
         25    1    3    3    0    0  0.62501800577E+02  0.15357938203E+02 -0.31007960891E+03  0.33866163822E+03  0.12000000000E+03 0.  0.
         25    1    3    3    0    0 -0.62501800577E+02 -0.15357938203E+02 -0.41002021535E+03  0.43204041285E+03  0.12000000000E+03 0.  0.
<mgrwt>
<rscale>  0 0.27465960E+03</rscale>
<asrwt>0</asrwt>
<pdfrwt beam="1">  1        1 0.38924792E-02 0.27465960E+03</pdfrwt>
<pdfrwt beam="2">  1       -1 0.11467706E+00 0.27465960E+03</pdfrwt>
<totfact> 0.17382397E+03</totfact>
</mgrwt>
</event>
<event>
 5    1  0.1122238E+001  0.2753042E+03  0.7818608E-02  0.1098282E+00
         -2   -1    0    0    0  501 -0.00000000000E+00  0.00000000000E+00  0.75408879772E+02  0.75408879772E+02  0.00000000000E+00 0. -1.
          2   -1    0    0  501    0  0.00000000000E+00 -0.00000000000E+00 -0.25127144944E+03  0.25127144944E+03  0.00000000000E+00 0. -1.
         35    2    1    2    0    0  0.00000000000E+00  0.00000000000E+00 -0.17586256967E+03  0.32668032922E+03  0.27530418465E+03 0.  0.
         25    1    3    3    0    0 -0.76015392877E+01  0.40611256944E+02 -0.24682976066E+02  0.12929155772E+03  0.12000000000E+03 0.  0.
         25    1    3    3    0    0  0.76015392877E+01 -0.40611256944E+02 -0.15117959361E+03  0.19738877150E+03  0.12000000000E+03 0.  0.
<mgrwt>
<rscale>  0 0.27530418E+03</rscale>
<asrwt>0</asrwt>
<pdfrwt beam="1">  1        2 0.38657145E-01 0.27530418E+03</pdfrwt>
<pdfrwt beam="2">  1       -2 0.11601366E-01 0.27530418E+03</pdfrwt>
<totfact> 0.68751198E+03</totfact>
</mgrwt>
</event>
<event>
 5    1  0.1122238E+001  0.2746648E+03  0.7818608E-02  0.1098639E+00
          2   -1    0    0  501    0  0.00000000000E+00  0.00000000000E+00  0.46117607286E+03  0.46117607286E+03  0.00000000000E+00 0. -1.
         -2   -1    0    0    0  501 -0.00000000000E+00 -0.00000000000E+00 -0.40895849804E+02  0.40895849804E+02  0.00000000000E+00 0. -1.
         35    2    1    2    0    0  0.00000000000E+00  0.00000000000E+00  0.42028022306E+03  0.50207192267E+03  0.27466479504E+03 0.  0.
         25    1    3    3    0    0  0.59338343467E+02 -0.26944848417E+02  0.18345440808E+03  0.22869758133E+03  0.12000000000E+03 0.  0.
         25    1    3    3    0    0 -0.59338343467E+02  0.26944848417E+02  0.23682581498E+03  0.27337434134E+03  0.12000000000E+03 0.  0.
<mgrwt>
<rscale>  0 0.27466480E+03</rscale>
<asrwt>0</asrwt>
<pdfrwt beam="1">  1        2 0.70950161E-01 0.27466480E+03</pdfrwt>
<pdfrwt beam="2">  1       -2 0.62916695E-02 0.27466480E+03</pdfrwt>
<totfact> 0.93189402E+03</totfact>
</mgrwt>
</event>
<event>
 5    1  0.1122238E+001  0.2752076E+03  0.7818608E-02  0.1098336E+00
         -2   -1    0    0    0  501 -0.00000000000E+00  0.00000000000E+00  0.11898032627E+02  0.11898032627E+02  0.00000000000E+00 0.  1.
          2   -1    0    0  501    0  0.00000000000E+00 -0.00000000000E+00 -0.15914232277E+04  0.15914232277E+04  0.00000000000E+00 0.  1.
         35    2    1    2    0    0  0.00000000000E+00  0.00000000000E+00 -0.15795251951E+04  0.16033212604E+04  0.27520759792E+03 0.  0.
         25    1    3    3    0    0 -0.45839206459E+02  0.12980434928E+02 -0.51249316392E+03  0.52850635531E+03  0.12000000000E+03 0.  0.
         25    1    3    3    0    0  0.45839206459E+02 -0.12980434928E+02 -0.10670320312E+04  0.10748149051E+04  0.12000000000E+03 0.  0.
<mgrwt>
<rscale>  0 0.27520760E+03</rscale>
<asrwt>0</asrwt>
<pdfrwt beam="1">  1        2 0.24483424E+00 0.27520760E+03</pdfrwt>
<pdfrwt beam="2">  1       -2 0.18304673E-02 0.27520760E+03</pdfrwt>
<totfact> 0.10740697E+04</totfact>
</mgrwt>
</event>
<event>
 5    1  0.1122238E+001  0.2753075E+03  0.7818608E-02  0.1098280E+00
          1   -1    0    0  501    0  0.00000000000E+00  0.00000000000E+00  0.24381950164E+02  0.24381950164E+02  0.00000000000E+00 0.  1.
         -1   -1    0    0    0  501 -0.00000000000E+00 -0.00000000000E+00 -0.77715476714E+03  0.77715476714E+03  0.00000000000E+00 0.  1.
         35    2    1    2    0    0  0.00000000000E+00  0.00000000000E+00 -0.75277281697E+03  0.80153671730E+03  0.27530745578E+03 0.  0.
         25    1    3    3    0    0  0.21134962139E+02  0.54250915996E+02 -0.27728244888E+03  0.30769368692E+03  0.12000000000E+03 0.  0.
         25    1    3    3    0    0 -0.21134962139E+02 -0.54250915996E+02 -0.47549036809E+03  0.49384303038E+03  0.12000000000E+03 0.  0.
<mgrwt>
<rscale>  0 0.27530746E+03</rscale>
<asrwt>0</asrwt>
<pdfrwt beam="1">  1        1 0.37510688E-02 0.27530746E+03</pdfrwt>
<pdfrwt beam="2">  1       -1 0.11956229E+00 0.27530746E+03</pdfrwt>
<totfact> 0.16591881E+03</totfact>
</mgrwt>
</event>
<event>
 5    1  0.1122238E+001  0.2858433E+03  0.7818608E-02  0.1092540E+00
         -2   -1    0    0    0  501 -0.00000000000E+00  0.00000000000E+00  0.78678935518E+02  0.78678935518E+02  0.00000000000E+00 0.  1.
          2   -1    0    0  501    0  0.00000000000E+00 -0.00000000000E+00 -0.25961957325E+03  0.25961957325E+03  0.00000000000E+00 0.  1.
         35    2    1    2    0    0  0.00000000000E+00  0.00000000000E+00 -0.18094063774E+03  0.33829850877E+03  0.28584325539E+03 0.  0.
         25    1    3    3    0    0  0.40243706484E+02  0.42858103046E+02 -0.15047113785E+03  0.20124099044E+03  0.12000000000E+03 0.  0.
         25    1    3    3    0    0 -0.40243706484E+02 -0.42858103046E+02 -0.30469499889E+02  0.13705751833E+03  0.12000000000E+03 0.  0.
<mgrwt>
<rscale>  0 0.28584326E+03</rscale>
<asrwt>0</asrwt>
<pdfrwt beam="1">  1        2 0.39941472E-01 0.28584326E+03</pdfrwt>
<pdfrwt beam="2">  1       -2 0.12104452E-01 0.28584326E+03</pdfrwt>
<totfact> 0.62054513E+03</totfact>
</mgrwt>
</event>
<event>
 5    1  0.1122238E+001  0.2750945E+03  0.7818608E-02  0.1098399E+00
          2   -1    0    0  501    0  0.00000000000E+00  0.00000000000E+00  0.36635375069E+03  0.36635375069E+03  0.00000000000E+00 0. -1.
         -2   -1    0    0    0  501 -0.00000000000E+00 -0.00000000000E+00 -0.51642017339E+02  0.51642017339E+02  0.00000000000E+00 0. -1.
         35    2    1    2    0    0  0.00000000000E+00  0.00000000000E+00  0.31471173335E+03  0.41799576803E+03  0.27509450555E+03 0.  0.
         25    1    3    3    0    0 -0.62570921634E+02 -0.49782221574E+01  0.19392866205E+03  0.23653377960E+03  0.12000000000E+03 0.  0.
         25    1    3    3    0    0  0.62570921634E+02  0.49782221574E+01  0.12078307130E+03  0.18146198843E+03  0.12000000000E+03 0.  0.
<mgrwt>
<rscale>  0 0.27509451E+03</rscale>
<asrwt>0</asrwt>
<pdfrwt beam="1">  1        2 0.56362114E-01 0.27509451E+03</pdfrwt>
<pdfrwt beam="2">  1       -2 0.79449260E-02 0.27509451E+03</pdfrwt>
<totfact> 0.83446270E+03</totfact>
</mgrwt>
</event>
<event>
 5    1  0.1122238E+001  0.2744688E+03  0.7818608E-02  0.1098749E+00
          1   -1    0    0  501    0  0.00000000000E+00  0.00000000000E+00  0.26486054891E+03  0.26486054891E+03  0.00000000000E+00 0.  1.
         -1   -1    0    0    0  501 -0.00000000000E+00 -0.00000000000E+00 -0.71106401647E+02  0.71106401647E+02  0.00000000000E+00 0.  1.
         35    2    1    2    0    0  0.00000000000E+00  0.00000000000E+00  0.19375414726E+03  0.33596695056E+03  0.27446880020E+03 0.  0.
         25    1    3    3    0    0  0.40310396473E+02  0.22830823965E+02  0.15541626496E+03  0.20174337660E+03  0.12000000000E+03 0.  0.
         25    1    3    3    0    0 -0.40310396473E+02 -0.22830823965E+02  0.38337882301E+02  0.13422357396E+03  0.12000000000E+03 0.  0.
<mgrwt>
<rscale>  0 0.27446880E+03</rscale>
<asrwt>0</asrwt>
<pdfrwt beam="1">  1        1 0.40747776E-01 0.27446880E+03</pdfrwt>
<pdfrwt beam="2">  1       -1 0.10939447E-01 0.27446880E+03</pdfrwt>
<totfact> 0.53997919E+03</totfact>
</mgrwt>
</event>
<event>
 5    1  0.1122238E+001  0.2779648E+03  0.7818608E-02  0.1096806E+00
          2   -1    0    0  501    0  0.00000000000E+00  0.00000000000E+00  0.15341267547E+04  0.15341267547E+04  0.00000000000E+00 0. -1.
         -2   -1    0    0    0  501 -0.00000000000E+00 -0.00000000000E+00 -0.12590944241E+02  0.12590944241E+02  0.00000000000E+00 0. -1.
         35    2    1    2    0    0  0.00000000000E+00  0.00000000000E+00  0.15215358104E+04  0.15467176989E+04  0.27796477782E+03 0.  0.
         25    1    3    3    0    0  0.36369524742E+02 -0.53414438827E+01  0.42853643765E+03  0.44653639465E+03  0.12000000000E+03 0.  0.
         25    1    3    3    0    0 -0.36369524742E+02  0.53414438827E+01  0.10929993728E+04  0.11001813043E+04  0.12000000000E+03 0.  0.
<mgrwt>
<rscale>  0 0.27796478E+03</rscale>
<asrwt>0</asrwt>
<pdfrwt beam="1">  1        2 0.23601935E+00 0.27796478E+03</pdfrwt>
<pdfrwt beam="2">  1       -2 0.19370696E-02 0.27796478E+03</pdfrwt>
<totfact> 0.10603865E+04</totfact>
</mgrwt>
</event>
<event>
 5    1  0.1122238E+001  0.2747838E+03  0.7818608E-02  0.1098572E+00
         -2   -1    0    0    0  501 -0.00000000000E+00  0.00000000000E+00  0.29560925467E+02  0.29560925467E+02  0.00000000000E+00 0.  1.
          2   -1    0    0  501    0  0.00000000000E+00 -0.00000000000E+00 -0.63856392028E+03  0.63856392028E+03  0.00000000000E+00 0.  1.
         35    2    1    2    0    0  0.00000000000E+00  0.00000000000E+00 -0.60900299481E+03  0.66812484574E+03  0.27478384562E+03 0.  0.
         25    1    3    3    0    0 -0.47043828995E+02  0.24799175385E+02 -0.40322039517E+03  0.42404576172E+03  0.12000000000E+03 0.  0.
         25    1    3    3    0    0  0.47043828995E+02 -0.24799175385E+02 -0.20578259964E+03  0.24407908403E+03  0.12000000000E+03 0.  0.
<mgrwt>
<rscale>  0 0.27478385E+03</rscale>
<asrwt>0</asrwt>
<pdfrwt beam="1">  1        2 0.98240605E-01 0.27478385E+03</pdfrwt>
<pdfrwt beam="2">  1       -2 0.45478346E-02 0.27478385E+03</pdfrwt>
<totfact> 0.10555896E+04</totfact>
</mgrwt>
</event>
<event>
 5    1  0.1122238E+001  0.2741037E+03  0.7818608E-02  0.1098954E+00
          2   -1    0    0  501    0  0.00000000000E+00  0.00000000000E+00  0.69284381793E+03  0.69284381793E+03  0.00000000000E+00 0. -1.
         -2   -1    0    0    0  501 -0.00000000000E+00 -0.00000000000E+00 -0.27110315131E+02  0.27110315131E+02  0.00000000000E+00 0. -1.
         35    2    1    2    0    0  0.00000000000E+00  0.00000000000E+00  0.66573350280E+03  0.71995413306E+03  0.27410373395E+03 0.  0.
         25    1    3    3    0    0 -0.29301430003E+02  0.25173112234E+02  0.19164209301E+03  0.22938821067E+03  0.12000000000E+03 0.  0.
         25    1    3    3    0    0  0.29301430003E+02 -0.25173112234E+02  0.47409140978E+03  0.49056592239E+03  0.12000000000E+03 0.  0.
<mgrwt>
<rscale>  0 0.27410373E+03</rscale>
<asrwt>0</asrwt>
<pdfrwt beam="1">  1        2 0.10659134E+00 0.27410373E+03</pdfrwt>
<pdfrwt beam="2">  1       -2 0.41708182E-02 0.27410373E+03</pdfrwt>
<totfact> 0.10911153E+04</totfact>
</mgrwt>
</event>
<event>
 5    1  0.1122238E+001  0.2748191E+03  0.7818608E-02  0.1098553E+00
         -2   -1    0    0    0  501 -0.00000000000E+00  0.00000000000E+00  0.11653157245E+02  0.11653157245E+02  0.00000000000E+00 0. -1.
          2   -1    0    0  501    0  0.00000000000E+00 -0.00000000000E+00 -0.16202806383E+04  0.16202806383E+04  0.00000000000E+00 0. -1.
         35    2    1    2    0    0  0.00000000000E+00  0.00000000000E+00 -0.16086274810E+04  0.16319337955E+04  0.27481910457E+03 0.  0.
         25    1    3    3    0    0  0.10000330058E+02  0.57601217585E+02 -0.61066266651E+03  0.62508143401E+03  0.12000000000E+03 0.  0.
         25    1    3    3    0    0 -0.10000330058E+02 -0.57601217585E+02 -0.99796481451E+03  0.10068523615E+04  0.12000000000E+03 0.  0.
<mgrwt>
<rscale>  0 0.27481910E+03</rscale>
<asrwt>0</asrwt>
<pdfrwt beam="1">  1        2 0.24927397E+00 0.27481910E+03</pdfrwt>
<pdfrwt beam="2">  1       -2 0.17927933E-02 0.27481910E+03</pdfrwt>
<totfact> 0.10690382E+04</totfact>
</mgrwt>
</event>
<event>
 5    1  0.1122238E+001  0.2742271E+03  0.7818608E-02  0.1098884E+00
         -2   -1    0    0    0  501 -0.00000000000E+00  0.00000000000E+00  0.16156418081E+02  0.16156418081E+02  0.00000000000E+00 0.  1.
          2   -1    0    0  501    0  0.00000000000E+00 -0.00000000000E+00 -0.11636317918E+04  0.11636317918E+04  0.00000000000E+00 0.  1.
         35    2    1    2    0    0  0.00000000000E+00  0.00000000000E+00 -0.11474753737E+04  0.11797882099E+04  0.27422707175E+03 0.  0.
         25    1    3    3    0    0  0.73997958034E+01  0.40063084836E+02 -0.79895091119E+03  0.80893903740E+03  0.12000000000E+03 0.  0.
         25    1    3    3    0    0 -0.73997958034E+01 -0.40063084836E+02 -0.34852446251E+03  0.37084917246E+03  0.12000000000E+03 0.  0.
<mgrwt>
<rscale>  0 0.27422707E+03</rscale>
<asrwt>0</asrwt>
<pdfrwt beam="1">  1        2 0.17902034E+00 0.27422707E+03</pdfrwt>
<pdfrwt beam="2">  1       -2 0.24856019E-02 0.27422707E+03</pdfrwt>
<totfact> 0.11733638E+04</totfact>
</mgrwt>
</event>
<event>
 5    1  0.1122238E+001  0.2761162E+03  0.7818608E-02  0.1097829E+00
          1   -1    0    0  501    0  0.00000000000E+00  0.00000000000E+00  0.25253586394E+03  0.25253586394E+03  0.00000000000E+00 0.  1.
         -1   -1    0    0    0  501 -0.00000000000E+00 -0.00000000000E+00 -0.75474600300E+02  0.75474600300E+02  0.00000000000E+00 0.  1.
         35    2    1    2    0    0  0.00000000000E+00  0.00000000000E+00  0.17706126364E+03  0.32801046424E+03  0.27611623199E+03 0.  0.
         25    1    3    3    0    0 -0.69176285981E+01 -0.61344780799E+02  0.12314461426E+03  0.18268998806E+03  0.12000000000E+03 0.  0.
         25    1    3    3    0    0  0.69176285981E+01  0.61344780799E+02  0.53916649382E+02  0.14532047618E+03  0.12000000000E+03 0.  0.
<mgrwt>
<rscale>  0 0.27611623E+03</rscale>
<asrwt>0</asrwt>
<pdfrwt beam="1">  1        1 0.38851671E-01 0.27611623E+03</pdfrwt>
<pdfrwt beam="2">  1       -1 0.11611477E-01 0.27611623E+03</pdfrwt>
<totfact> 0.52255759E+03</totfact>
</mgrwt>
</event>
<event>
 5    1  0.1122238E+001  0.2745330E+03  0.7818608E-02  0.1098713E+00
          2   -1    0    0  501    0  0.00000000000E+00  0.00000000000E+00  0.10213503382E+04  0.10213503382E+04  0.00000000000E+00 0. -1.
         -2   -1    0    0    0  501 -0.00000000000E+00 -0.00000000000E+00 -0.18448216904E+02  0.18448216904E+02  0.00000000000E+00 0. -1.
         35    2    1    2    0    0  0.00000000000E+00  0.00000000000E+00  0.10029021212E+04  0.10397985551E+04  0.27453300401E+03 0.  0.
         25    1    3    3    0    0 -0.45537075696E+02  0.22594829381E+02  0.33819451383E+03  0.36243576088E+03  0.12000000000E+03 0.  0.
         25    1    3    3    0    0  0.45537075696E+02 -0.22594829381E+02  0.66470760741E+03  0.67736279417E+03  0.12000000000E+03 0.  0.
<mgrwt>
<rscale>  0 0.27453300E+03</rscale>
<asrwt>0</asrwt>
<pdfrwt beam="1">  1        2 0.15713078E+00 0.27453300E+03</pdfrwt>
<pdfrwt beam="2">  1       -2 0.28381880E-02 0.27453300E+03</pdfrwt>
<totfact> 0.11692866E+04</totfact>
</mgrwt>
</event>
<event>
 5    1  0.1122238E+001  0.2743397E+03  0.7818608E-02  0.1098821E+00
          1   -1    0    0  501    0  0.00000000000E+00  0.00000000000E+00  0.40382340168E+03  0.40382340168E+03  0.00000000000E+00 0.  1.
         -1   -1    0    0    0  501 -0.00000000000E+00 -0.00000000000E+00 -0.46593568373E+02  0.46593568373E+02  0.00000000000E+00 0.  1.
         35    2    1    2    0    0  0.00000000000E+00  0.00000000000E+00  0.35722983331E+03  0.45041697005E+03  0.27433974030E+03 0.  0.
         25    1    3    3    0    0  0.23399334382E+02 -0.54932765984E+02  0.22649410173E+03  0.26318190619E+03  0.12000000000E+03 0.  0.
         25    1    3    3    0    0 -0.23399334382E+02  0.54932765984E+02  0.13073573157E+03  0.18723506386E+03  0.12000000000E+03 0.  0.
<mgrwt>
<rscale>  0 0.27433974E+03</rscale>
<asrwt>0</asrwt>
<pdfrwt beam="1">  1        1 0.62126675E-01 0.27433974E+03</pdfrwt>
<pdfrwt beam="2">  1       -1 0.71682416E-02 0.27433974E+03</pdfrwt>
<totfact> 0.60621408E+03</totfact>
</mgrwt>
</event>
<event>
 5    1  0.1122238E+001  0.2740056E+03  0.7818608E-02  0.1099009E+00
         -1   -1    0    0    0  501 -0.00000000000E+00  0.00000000000E+00  0.24312790878E+02  0.24312790878E+02  0.00000000000E+00 0.  1.
          1   -1    0    0  501    0  0.00000000000E+00 -0.00000000000E+00 -0.77201193101E+03  0.77201193101E+03  0.00000000000E+00 0.  1.
         35    2    1    2    0    0  0.00000000000E+00  0.00000000000E+00 -0.74769914014E+03  0.79632472189E+03  0.27400558121E+03 0.  0.
         25    1    3    3    0    0  0.57536781732E+02 -0.22252102732E+02 -0.44287662597E+03  0.46297445195E+03  0.12000000000E+03 0.  0.
         25    1    3    3    0    0 -0.57536781732E+02  0.22252102732E+02 -0.30482251417E+03  0.33335026994E+03  0.12000000000E+03 0.  0.
<mgrwt>
<rscale>  0 0.27400558E+03</rscale>
<asrwt>0</asrwt>
<pdfrwt beam="1">  1        1 0.11877107E+00 0.27400558E+03</pdfrwt>
<pdfrwt beam="2">  1       -1 0.37404292E-02 0.27400558E+03</pdfrwt>
<totfact> 0.66012308E+03</totfact>
</mgrwt>
</event>
<event>
 5    1  0.1122238E+001  0.2751057E+03  0.7818608E-02  0.1098393E+00
         -1   -1    0    0    0  501 -0.00000000000E+00  0.00000000000E+00  0.85991957811E+02  0.85991957811E+02  0.00000000000E+00 0. -1.
          1   -1    0    0  501    0  0.00000000000E+00 -0.00000000000E+00 -0.22002976039E+03  0.22002976039E+03  0.00000000000E+00 0. -1.
         35    2    1    2    0    0  0.00000000000E+00  0.00000000000E+00 -0.13403780258E+03  0.30602171820E+03  0.27510572421E+03 0.  0.
         25    1    3    3    0    0 -0.38816566490E+02 -0.40820591016E+02 -0.26181675894E+02  0.13512411568E+03  0.12000000000E+03 0.  0.
         25    1    3    3    0    0  0.38816566490E+02  0.40820591016E+02 -0.10785612669E+03  0.17089760253E+03  0.12000000000E+03 0.  0.
<mgrwt>
<rscale>  0 0.27510572E+03</rscale>
<asrwt>0</asrwt>
<pdfrwt beam="1">  1        1 0.33850732E-01 0.27510572E+03</pdfrwt>
<pdfrwt beam="2">  1       -1 0.13229532E-01 0.27510572E+03</pdfrwt>
<totfact> 0.50647949E+03</totfact>
</mgrwt>
</event>
<event>
 5    1  0.1122238E+001  0.2749751E+03  0.7818608E-02  0.1098466E+00
         -2   -1    0    0    0  501 -0.00000000000E+00  0.00000000000E+00  0.10053300405E+02  0.10053300405E+02  0.00000000000E+00 0. -1.
          2   -1    0    0  501    0  0.00000000000E+00 -0.00000000000E+00 -0.18802601578E+04  0.18802601578E+04  0.00000000000E+00 0. -1.
         35    2    1    2    0    0  0.00000000000E+00  0.00000000000E+00 -0.18702068574E+04  0.18903134582E+04  0.27497505492E+03 0.  0.
         25    1    3    3    0    0 -0.49750138173E+02  0.44617127388E+02 -0.97695090033E+03  0.98655908386E+03  0.12000000000E+03 0.  0.
         25    1    3    3    0    0  0.49750138173E+02 -0.44617127388E+02 -0.89325595709E+03  0.90375437437E+03  0.12000000000E+03 0.  0.
<mgrwt>
<rscale>  0 0.27497505E+03</rscale>
<asrwt>0</asrwt>
<pdfrwt beam="1">  1        2 0.28927094E+00 0.27497505E+03</pdfrwt>
<pdfrwt beam="2">  1       -2 0.15466608E-02 0.27497505E+03</pdfrwt>
<totfact> 0.96877527E+03</totfact>
</mgrwt>
</event>
<event>
 5    1  0.1122238E+001  0.2760048E+03  0.7818608E-02  0.1097891E+00
         -1   -1    0    0    0  501 -0.00000000000E+00  0.00000000000E+00  0.38736189190E+02  0.38736189190E+02  0.00000000000E+00 0. -1.
          1   -1    0    0  501    0  0.00000000000E+00 -0.00000000000E+00 -0.49165030808E+03  0.49165030808E+03  0.00000000000E+00 0. -1.
         35    2    1    2    0    0  0.00000000000E+00  0.00000000000E+00 -0.45291411889E+03  0.53038649727E+03  0.27600477785E+03 0.  0.
         25    1    3    3    0    0  0.58579326527E+02 -0.16071902242E+02 -0.16707767925E+03  0.21448728271E+03  0.12000000000E+03 0.  0.
         25    1    3    3    0    0 -0.58579326527E+02  0.16071902242E+02 -0.28583643964E+03  0.31589921457E+03  0.12000000000E+03 0.  0.
<mgrwt>
<rscale>  0 0.27600478E+03</rscale>
<asrwt>0</asrwt>
<pdfrwt beam="1">  1        1 0.75638509E-01 0.27600478E+03</pdfrwt>
<pdfrwt beam="2">  1       -1 0.59594138E-02 0.27600478E+03</pdfrwt>
<totfact> 0.62059286E+03</totfact>
</mgrwt>
</event>
<event>
 5    1  0.1122238E+001  0.2760495E+03  0.7818608E-02  0.1097866E+00
          1   -1    0    0  501    0  0.00000000000E+00  0.00000000000E+00  0.76749891975E+03  0.76749891975E+03  0.00000000000E+00 0.  1.
         -1   -1    0    0    0  501 -0.00000000000E+00 -0.00000000000E+00 -0.24821972453E+02  0.24821972453E+02  0.00000000000E+00 0.  1.
         35    2    1    2    0    0  0.00000000000E+00  0.00000000000E+00  0.74267694730E+03  0.79232089220E+03  0.27604953935E+03 0.  0.
         25    1    3    3    0    0  0.38902881748E+01  0.47189383484E+02  0.51220905038E+03  0.52820458494E+03  0.12000000000E+03 0.  0.
         25    1    3    3    0    0 -0.38902881748E+01 -0.47189383484E+02  0.23046789692E+03  0.26411630727E+03  0.12000000000E+03 0.  0.
<mgrwt>
<rscale>  0 0.27604954E+03</rscale>
<asrwt>0</asrwt>
<pdfrwt beam="1">  1        1 0.11807674E+00 0.27604954E+03</pdfrwt>
<pdfrwt beam="2">  1       -1 0.38187656E-02 0.27604954E+03</pdfrwt>
<totfact> 0.64595208E+03</totfact>
</mgrwt>
</event>
<event>
 5    1  0.1122238E+001  0.2735596E+03  0.7818608E-02  0.1099259E+00
         -1   -1    0    0    0  501 -0.00000000000E+00  0.00000000000E+00  0.18783891674E+03  0.18783891674E+03  0.00000000000E+00 0.  1.
          1   -1    0    0  501    0  0.00000000000E+00 -0.00000000000E+00 -0.99599796137E+02  0.99599796137E+02  0.00000000000E+00 0.  1.
         35    2    1    2    0    0  0.00000000000E+00  0.00000000000E+00  0.88239120605E+02  0.28743871288E+03  0.27355963017E+03 0.  0.
         25    1    3    3    0    0  0.29030306576E+02 -0.55098907034E+02  0.22329290738E+02  0.13703008969E+03  0.12000000000E+03 0.  0.
         25    1    3    3    0    0 -0.29030306576E+02  0.55098907034E+02  0.65909829866E+02  0.15040862319E+03  0.12000000000E+03 0.  0.
<mgrwt>
<rscale>  0 0.27355963E+03</rscale>
<asrwt>0</asrwt>
<pdfrwt beam="1">  1        1 0.15323046E-01 0.27355963E+03</pdfrwt>
<pdfrwt beam="2">  1       -1 0.28898295E-01 0.27355963E+03</pdfrwt>
<totfact> 0.39234446E+03</totfact>
</mgrwt>
</event>
<event>
 5    1  0.1122238E+001  0.2786336E+03  0.7818608E-02  0.1096438E+00
          2   -1    0    0  501    0  0.00000000000E+00  0.00000000000E+00  0.22266050922E+04  0.22266050922E+04  0.00000000000E+00 0. -1.
         -2   -1    0    0    0  501 -0.00000000000E+00 -0.00000000000E+00 -0.87169358044E+01  0.87169358044E+01  0.00000000000E+00 0. -1.
         35    2    1    2    0    0  0.00000000000E+00  0.00000000000E+00  0.22178881564E+04  0.22353220280E+04  0.27863362073E+03 0.  0.
         25    1    3    3    0    0 -0.67043041788E+02  0.20117788326E+01  0.12901797131E+04  0.12974831440E+04  0.12000000000E+03 0.  0.
         25    1    3    3    0    0  0.67043041788E+02 -0.20117788326E+01  0.92770844327E+03  0.93783888404E+03  0.12000000000E+03 0.  0.
<mgrwt>
<rscale>  0 0.27863362E+03</rscale>
<asrwt>0</asrwt>
<pdfrwt beam="1">  1        2 0.34255418E+00 0.27863362E+03</pdfrwt>
<pdfrwt beam="2">  1       -2 0.13410688E-02 0.27863362E+03</pdfrwt>
<totfact> 0.78338138E+03</totfact>
</mgrwt>
</event>
<event>
 5    1  0.1122238E+001  0.2753636E+03  0.7818608E-02  0.1098249E+00
         -2   -1    0    0    0  501 -0.00000000000E+00  0.00000000000E+00  0.39352288381E+02  0.39352288381E+02  0.00000000000E+00 0. -1.
          2   -1    0    0  501    0  0.00000000000E+00 -0.00000000000E+00 -0.48170725650E+03  0.48170725650E+03  0.00000000000E+00 0. -1.
         35    2    1    2    0    0  0.00000000000E+00  0.00000000000E+00 -0.44235496812E+03  0.52105954488E+03  0.27536363502E+03 0.  0.
         25    1    3    3    0    0  0.40679165383E+02  0.20349115126E+02 -0.31555178545E+03  0.34064910139E+03  0.12000000000E+03 0.  0.
         25    1    3    3    0    0 -0.40679165383E+02 -0.20349115126E+02 -0.12680318267E+03  0.18041044348E+03  0.12000000000E+03 0.  0.
<mgrwt>
<rscale>  0 0.27536364E+03</rscale>
<asrwt>0</asrwt>
<pdfrwt beam="1">  1        2 0.74108811E-01 0.27536364E+03</pdfrwt>
<pdfrwt beam="2">  1       -2 0.60541980E-02 0.27536364E+03</pdfrwt>
<totfact> 0.94215535E+03</totfact>
</mgrwt>
</event>
<event>
 5    1  0.1122238E+001  0.2752218E+03  0.7818608E-02  0.1098328E+00
          2   -1    0    0  501    0  0.00000000000E+00  0.00000000000E+00  0.14284229139E+04  0.14284229139E+04  0.00000000000E+00 0. -1.
         -2   -1    0    0    0  501 -0.00000000000E+00 -0.00000000000E+00 -0.13257107965E+02  0.13257107965E+02  0.00000000000E+00 0. -1.
         35    2    1    2    0    0  0.00000000000E+00  0.00000000000E+00  0.14151658060E+04  0.14416800219E+04  0.27522177814E+03 0.  0.
         25    1    3    3    0    0 -0.24240800806E+02 -0.36771379516E+02  0.97452837682E+03  0.98287603898E+03  0.12000000000E+03 0.  0.
         25    1    3    3    0    0  0.24240800806E+02  0.36771379516E+02  0.44063742914E+03  0.45880398291E+03  0.12000000000E+03 0.  0.
<mgrwt>
<rscale>  0 0.27522178E+03</rscale>
<asrwt>0</asrwt>
<pdfrwt beam="1">  1        2 0.21975725E+00 0.27522178E+03</pdfrwt>
<pdfrwt beam="2">  1       -2 0.20395562E-02 0.27522178E+03</pdfrwt>
<totfact> 0.11198824E+04</totfact>
</mgrwt>
</event>
<event>
 5    1  0.1122238E+001  0.2750065E+03  0.7818608E-02  0.1098448E+00
         -2   -1    0    0    0  501 -0.00000000000E+00  0.00000000000E+00  0.17338409926E+02  0.17338409926E+02  0.00000000000E+00 0. -1.
          2   -1    0    0  501    0  0.00000000000E+00 -0.00000000000E+00 -0.10904770573E+04  0.10904770573E+04  0.00000000000E+00 0. -1.
         35    2    1    2    0    0  0.00000000000E+00  0.00000000000E+00 -0.10731386474E+04  0.11078154673E+04  0.27500645981E+03 0.  0.
         25    1    3    3    0    0 -0.56901025946E+02  0.35605216046E+02 -0.54179074080E+03  0.55896571002E+03  0.12000000000E+03 0.  0.
         25    1    3    3    0    0  0.56901025946E+02 -0.35605216046E+02 -0.53134790661E+03  0.54884975724E+03  0.12000000000E+03 0.  0.
<mgrwt>
<rscale>  0 0.27500646E+03</rscale>
<asrwt>0</asrwt>
<pdfrwt beam="1">  1        2 0.16776572E+00 0.27500646E+03</pdfrwt>
<pdfrwt beam="2">  1       -2 0.26674475E-02 0.27500646E+03</pdfrwt>
<totfact> 0.11657649E+04</totfact>
</mgrwt>
</event>
<event>
 5    1  0.1122238E+001  0.2745596E+03  0.7818608E-02  0.1098698E+00
          2   -1    0    0  501    0  0.00000000000E+00  0.00000000000E+00  0.21505874083E+04  0.21505874083E+04  0.00000000000E+00 0. -1.
         -2   -1    0    0    0  501 -0.00000000000E+00 -0.00000000000E+00 -0.87630707980E+01  0.87630707980E+01  0.00000000000E+00 0. -1.
         35    2    1    2    0    0  0.00000000000E+00  0.00000000000E+00  0.21418243375E+04  0.21593504791E+04  0.27455964537E+03 0.  0.
         25    1    3    3    0    0  0.53889425130E+01  0.56704895969E+02  0.13434994731E+04  0.13500501176E+04  0.12000000000E+03 0.  0.
         25    1    3    3    0    0 -0.53889425130E+01 -0.56704895969E+02  0.79832486440E+03  0.80930036145E+03  0.12000000000E+03 0.  0.
<mgrwt>
<rscale>  0 0.27455965E+03</rscale>
<asrwt>0</asrwt>
<pdfrwt beam="1">  1        2 0.33085918E+00 0.27455965E+03</pdfrwt>
<pdfrwt beam="2">  1       -2 0.13481665E-02 0.27455965E+03</pdfrwt>
<totfact> 0.85313563E+03</totfact>
</mgrwt>
</event>
<event>
 5    1  0.1122238E+001  0.2746294E+03  0.7818608E-02  0.1098659E+00
         -2   -1    0    0    0  501 -0.00000000000E+00  0.00000000000E+00  0.23681952864E+02  0.23681952864E+02  0.00000000000E+00 0. -1.
          2   -1    0    0  501    0  0.00000000000E+00 -0.00000000000E+00 -0.79618996972E+03  0.79618996972E+03  0.00000000000E+00 0. -1.
         35    2    1    2    0    0  0.00000000000E+00  0.00000000000E+00 -0.77250801685E+03  0.81987192258E+03  0.27462944732E+03 0.  0.
         25    1    3    3    0    0 -0.59108876408E+02  0.15291695089E+02 -0.46678381091E+03  0.48581356644E+03  0.12000000000E+03 0.  0.
         25    1    3    3    0    0  0.59108876408E+02 -0.15291695089E+02 -0.30572420595E+03  0.33405835614E+03  0.12000000000E+03 0.  0.
<mgrwt>
<rscale>  0 0.27462945E+03</rscale>
<asrwt>0</asrwt>
<pdfrwt beam="1">  1        2 0.12249077E+00 0.27462945E+03</pdfrwt>
<pdfrwt beam="2">  1       -2 0.36433773E-02 0.27462945E+03</pdfrwt>
<totfact> 0.11254894E+04</totfact>
</mgrwt>
</event>
<event>
 5    1  0.1122238E+001  0.2744625E+03  0.7818608E-02  0.1098752E+00
         -2   -1    0    0    0  501 -0.00000000000E+00  0.00000000000E+00  0.71775370604E+01  0.71775370604E+01  0.00000000000E+00 0. -1.
          2   -1    0    0  501    0  0.00000000000E+00 -0.00000000000E+00 -0.26237987740E+04  0.26237987740E+04  0.00000000000E+00 0. -1.
         35    2    1    2    0    0  0.00000000000E+00  0.00000000000E+00 -0.26166212369E+04  0.26309763110E+04  0.27446247787E+03 0.  0.
         25    1    3    3    0    0  0.34719688549E+02  0.52300018642E+01 -0.76608251602E+03  0.77621854592E+03  0.12000000000E+03 0.  0.
         25    1    3    3    0    0 -0.34719688549E+02 -0.52300018642E+01 -0.18505387209E+04  0.18547577651E+04  0.12000000000E+03 0.  0.
<mgrwt>
<rscale>  0 0.27446248E+03</rscale>
<asrwt>0</asrwt>
<pdfrwt beam="1">  1        2 0.40366206E+00 0.27446248E+03</pdfrwt>
<pdfrwt beam="2">  1       -2 0.11042345E-02 0.27446248E+03</pdfrwt>
<totfact> 0.63230916E+03</totfact>
</mgrwt>
</event>
<event>
 5    1  0.1122238E+001  0.2870714E+03  0.7818608E-02  0.1091888E+00
         -2   -1    0    0    0  501 -0.00000000000E+00  0.00000000000E+00  0.92264684208E+01  0.92264684208E+01  0.00000000000E+00 0.  1.
          2   -1    0    0  501    0  0.00000000000E+00 -0.00000000000E+00 -0.22329771378E+04  0.22329771378E+04  0.00000000000E+00 0.  1.
         35    2    1    2    0    0  0.00000000000E+00  0.00000000000E+00 -0.22237506694E+04  0.22422036062E+04  0.28707137124E+03 0.  0.
         25    1    3    3    0    0  0.77529001779E+02  0.16794258642E+01 -0.12192326281E+04  0.12275755651E+04  0.12000000000E+03 0.  0.
         25    1    3    3    0    0 -0.77529001779E+02 -0.16794258642E+01 -0.10045180412E+04  0.10146280411E+04  0.12000000000E+03 0.  0.
<mgrwt>
<rscale>  0 0.28707137E+03</rscale>
<asrwt>0</asrwt>
<pdfrwt beam="1">  1        2 0.34353497E+00 0.28707137E+03</pdfrwt>
<pdfrwt beam="2">  1       -2 0.14194566E-02 0.28707137E+03</pdfrwt>
<totfact> 0.71537166E+03</totfact>
</mgrwt>
</event>
<event>
 5    1  0.1122238E+001  0.2748701E+03  0.7818608E-02  0.1098524E+00
          2   -1    0    0  501    0  0.00000000000E+00  0.00000000000E+00  0.21946218759E+04  0.21946218759E+04  0.00000000000E+00 0.  1.
         -2   -1    0    0    0  501 -0.00000000000E+00 -0.00000000000E+00 -0.86066719903E+01  0.86066719903E+01  0.00000000000E+00 0.  1.
         35    2    1    2    0    0  0.00000000000E+00  0.00000000000E+00  0.21860152039E+04  0.22032285479E+04  0.27487008297E+03 0.  0.
         25    1    3    3    0    0 -0.55348313965E+02 -0.28995630080E+02  0.89926911521E+03  0.90938942373E+03  0.12000000000E+03 0.  0.
         25    1    3    3    0    0  0.55348313965E+02  0.28995630080E+02  0.12867460887E+04  0.12938391242E+04  0.12000000000E+03 0.  0.
<mgrwt>
<rscale>  0 0.27487008E+03</rscale>
<asrwt>0</asrwt>
<pdfrwt beam="1">  1        2 0.33763369E+00 0.27487008E+03</pdfrwt>
<pdfrwt beam="2">  1       -2 0.13241051E-02 0.27487008E+03</pdfrwt>
<totfact> 0.82996132E+03</totfact>
</mgrwt>
</event>
<event>
 5    1  0.1122238E+001  0.2738625E+03  0.7818608E-02  0.1099089E+00
          1   -1    0    0  501    0  0.00000000000E+00  0.00000000000E+00  0.11680311308E+03  0.11680311308E+03  0.00000000000E+00 0.  1.
         -1   -1    0    0    0  501 -0.00000000000E+00 -0.00000000000E+00 -0.16052795731E+03  0.16052795731E+03  0.00000000000E+00 0.  1.
         35    2    1    2    0    0  0.00000000000E+00  0.00000000000E+00 -0.43724844232E+02  0.27733107039E+03  0.27386248484E+03 0.  0.
         25    1    3    3    0    0 -0.12279896530E+02 -0.27671384049E+02 -0.81202056789E+02  0.14802119909E+03  0.12000000000E+03 0.  0.
         25    1    3    3    0    0  0.12279896530E+02  0.27671384049E+02  0.37477212557E+02  0.12930987130E+03  0.12000000000E+03 0.  0.
<mgrwt>
<rscale>  0 0.27386248E+03</rscale>
<asrwt>0</asrwt>
<pdfrwt beam="1">  1        1 0.17969710E-01 0.27386248E+03</pdfrwt>
<pdfrwt beam="2">  1       -1 0.24696609E-01 0.27386248E+03</pdfrwt>
<totfact> 0.41481393E+03</totfact>
</mgrwt>
</event>
<event>
 5    1  0.1122238E+001  0.2757984E+03  0.7818608E-02  0.1098006E+00
          1   -1    0    0  501    0  0.00000000000E+00  0.00000000000E+00  0.53370084065E+03  0.53370084065E+03  0.00000000000E+00 0.  1.
         -1   -1    0    0    0  501 -0.00000000000E+00 -0.00000000000E+00 -0.35630806614E+02  0.35630806614E+02  0.00000000000E+00 0.  1.
         35    2    1    2    0    0  0.00000000000E+00  0.00000000000E+00  0.49807003404E+03  0.56933164726E+03  0.27579841510E+03 0.  0.
         25    1    3    3    0    0 -0.27915577352E+02  0.12687201419E+02  0.12387714393E+03  0.17517360340E+03  0.12000000000E+03 0.  0.
         25    1    3    3    0    0  0.27915577352E+02 -0.12687201419E+02  0.37419289011E+03  0.39415804387E+03  0.12000000000E+03 0.  0.
<mgrwt>
<rscale>  0 0.27579842E+03</rscale>
<asrwt>0</asrwt>
<pdfrwt beam="1">  1        1 0.82107816E-01 0.27579842E+03</pdfrwt>
<pdfrwt beam="2">  1       -1 0.54816629E-02 0.27579842E+03</pdfrwt>
<totfact> 0.63071253E+03</totfact>
</mgrwt>
</event>
<event>
 5    1  0.1122238E+001  0.2745532E+03  0.7818608E-02  0.1098702E+00
          2   -1    0    0  501    0  0.00000000000E+00  0.00000000000E+00  0.35941030839E+03  0.35941030839E+03  0.00000000000E+00 0. -1.
         -2   -1    0    0    0  501 -0.00000000000E+00 -0.00000000000E+00 -0.52432746565E+02  0.52432746565E+02  0.00000000000E+00 0. -1.
         35    2    1    2    0    0  0.00000000000E+00  0.00000000000E+00  0.30697756182E+03  0.41184305495E+03  0.27455323427E+03 0.  0.
         25    1    3    3    0    0  0.37579703030E+02 -0.47801764593E+02  0.19450424435E+03  0.23649343300E+03  0.12000000000E+03 0.  0.
         25    1    3    3    0    0 -0.37579703030E+02  0.47801764593E+02  0.11247331747E+03  0.17534962196E+03  0.12000000000E+03 0.  0.
<mgrwt>
<rscale>  0 0.27455323E+03</rscale>
<asrwt>0</asrwt>
<pdfrwt beam="1">  1        2 0.55293892E-01 0.27455323E+03</pdfrwt>
<pdfrwt beam="2">  1       -2 0.80665766E-02 0.27455323E+03</pdfrwt>
<totfact> 0.83185875E+03</totfact>
</mgrwt>
</event>
<event>
 5    1  0.1122238E+001  0.2747793E+03  0.7818608E-02  0.1098575E+00
         -1   -1    0    0    0  501 -0.00000000000E+00  0.00000000000E+00  0.22065177749E+02  0.22065177749E+02  0.00000000000E+00 0.  1.
          1   -1    0    0  501    0  0.00000000000E+00 -0.00000000000E+00 -0.85546169188E+03  0.85546169188E+03  0.00000000000E+00 0.  1.
         35    2    1    2    0    0  0.00000000000E+00  0.00000000000E+00 -0.83339651413E+03  0.87752686963E+03  0.27477928808E+03 0.  0.
         25    1    3    3    0    0  0.10681895242E+02 -0.48717909267E+02 -0.27429308457E+03  0.30351974205E+03  0.12000000000E+03 0.  0.
         25    1    3    3    0    0 -0.10681895242E+02  0.48717909267E+02 -0.55910342956E+03  0.57400712758E+03  0.12000000000E+03 0.  0.
<mgrwt>
<rscale>  0 0.27477929E+03</rscale>
<asrwt>0</asrwt>
<pdfrwt beam="1">  1        1 0.13160948E+00 0.27477929E+03</pdfrwt>
<pdfrwt beam="2">  1       -1 0.33946430E-02 0.27477929E+03</pdfrwt>
<totfact> 0.65005616E+03</totfact>
</mgrwt>
</event>
<event>
 5    1  0.1122238E+001  0.2760414E+03  0.7818608E-02  0.1097871E+00
          2   -1    0    0  501    0  0.00000000000E+00  0.00000000000E+00  0.67628130888E+03  0.67628130888E+03  0.00000000000E+00 0.  1.
         -2   -1    0    0    0  501 -0.00000000000E+00 -0.00000000000E+00 -0.28168330588E+02  0.28168330588E+02  0.00000000000E+00 0.  1.
         35    2    1    2    0    0  0.00000000000E+00  0.00000000000E+00  0.64811297829E+03  0.70444963947E+03  0.27604141341E+03 0.  0.
         25    1    3    3    0    0 -0.45020529415E+02 -0.37822411254E+02  0.23593650282E+03  0.27115201682E+03  0.12000000000E+03 0.  0.
         25    1    3    3    0    0  0.45020529415E+02  0.37822411254E+02  0.41217647547E+03  0.43329762265E+03  0.12000000000E+03 0.  0.
<mgrwt>
<rscale>  0 0.27604141E+03</rscale>
<asrwt>0</asrwt>
<pdfrwt beam="1">  1        2 0.10404327E+00 0.27604141E+03</pdfrwt>
<pdfrwt beam="2">  1       -2 0.43335898E-02 0.27604141E+03</pdfrwt>
<totfact> 0.10606412E+04</totfact>
</mgrwt>
</event>
<event>
 5    1  0.1122238E+001  0.2753513E+03  0.7818608E-02  0.1098255E+00
         -2   -1    0    0    0  501 -0.00000000000E+00  0.00000000000E+00  0.41445263409E+02  0.41445263409E+02  0.00000000000E+00 0. -1.
          2   -1    0    0  501    0  0.00000000000E+00 -0.00000000000E+00 -0.45734005006E+03  0.45734005006E+03  0.00000000000E+00 0. -1.
         35    2    1    2    0    0  0.00000000000E+00  0.00000000000E+00 -0.41589478665E+03  0.49878531347E+03  0.27535125816E+03 0.  0.
         25    1    3    3    0    0 -0.10481404685E+02 -0.66543702852E+02 -0.20055485116E+03  0.24322864255E+03  0.12000000000E+03 0.  0.
         25    1    3    3    0    0  0.10481404685E+02  0.66543702852E+02 -0.21533993549E+03  0.25555667092E+03  0.12000000000E+03 0.  0.
<mgrwt>
<rscale>  0 0.27535126E+03</rscale>
<asrwt>0</asrwt>
<pdfrwt beam="1">  1        2 0.70360007E-01 0.27535126E+03</pdfrwt>
<pdfrwt beam="2">  1       -2 0.63761944E-02 0.27535126E+03</pdfrwt>
<totfact> 0.92149463E+03</totfact>
</mgrwt>
</event>
<event>
 5    1  0.1122238E+001  0.2744820E+03  0.7818608E-02  0.1098741E+00
          2   -1    0    0  501    0  0.00000000000E+00  0.00000000000E+00  0.52898028434E+03  0.52898028434E+03  0.00000000000E+00 0.  1.
         -2   -1    0    0    0  501 -0.00000000000E+00 -0.00000000000E+00 -0.35606425238E+02  0.35606425238E+02  0.00000000000E+00 0.  1.
         35    2    1    2    0    0  0.00000000000E+00  0.00000000000E+00  0.49337385911E+03  0.56458670958E+03  0.27448203545E+03 0.  0.
         25    1    3    3    0    0  0.44142827494E+02  0.59485372987E+01  0.14485141904E+03  0.19330263297E+03  0.12000000000E+03 0.  0.
         25    1    3    3    0    0 -0.44142827494E+02 -0.59485372987E+01  0.34852244007E+03  0.37128407662E+03  0.12000000000E+03 0.  0.
<mgrwt>
<rscale>  0 0.27448204E+03</rscale>
<asrwt>0</asrwt>
<pdfrwt beam="1">  1        2 0.81381576E-01 0.27448204E+03</pdfrwt>
<pdfrwt beam="2">  1       -2 0.54779120E-02 0.27448204E+03</pdfrwt>
<totfact> 0.98854484E+03</totfact>
</mgrwt>
</event>
<event>
 5    1  0.1122238E+001  0.2765794E+03  0.7818608E-02  0.1097572E+00
         -1   -1    0    0    0  501 -0.00000000000E+00  0.00000000000E+00  0.35330395591E+02  0.35330395591E+02  0.00000000000E+00 0.  1.
          1   -1    0    0  501    0  0.00000000000E+00 -0.00000000000E+00 -0.54129136644E+03  0.54129136644E+03  0.00000000000E+00 0.  1.
         35    2    1    2    0    0  0.00000000000E+00  0.00000000000E+00 -0.50596097085E+03  0.57662176203E+03  0.27657937816E+03 0.  0.
         25    1    3    3    0    0 -0.20076851827E+02  0.37825401769E+02 -0.14089871972E+03  0.18996391820E+03  0.12000000000E+03 0.  0.
         25    1    3    3    0    0  0.20076851827E+02 -0.37825401769E+02 -0.36506225114E+03  0.38665784384E+03  0.12000000000E+03 0.  0.
<mgrwt>
<rscale>  0 0.27657938E+03</rscale>
<asrwt>0</asrwt>
<pdfrwt beam="1">  1        1 0.83275597E-01 0.27657938E+03</pdfrwt>
<pdfrwt beam="2">  1       -1 0.54354454E-02 0.27657938E+03</pdfrwt>
<totfact> 0.62677985E+03</totfact>
</mgrwt>
</event>
<event>
 5    1  0.1122238E+001  0.2755213E+03  0.7818608E-02  0.1098161E+00
         -1   -1    0    0    0  501 -0.00000000000E+00  0.00000000000E+00  0.12204356404E+02  0.12204356404E+02  0.00000000000E+00 0. -1.
          1   -1    0    0  501    0  0.00000000000E+00 -0.00000000000E+00 -0.15550180840E+04  0.15550180840E+04  0.00000000000E+00 0. -1.
         35    2    1    2    0    0  0.00000000000E+00  0.00000000000E+00 -0.15428137276E+04  0.15672224404E+04  0.27552128710E+03 0.  0.
         25    1    3    3    0    0 -0.36638489338E+02 -0.40222804963E+02 -0.54262051389E+03  0.55838810431E+03  0.12000000000E+03 0.  0.
         25    1    3    3    0    0  0.36638489338E+02  0.40222804963E+02 -0.10001932137E+04  0.10088343361E+04  0.12000000000E+03 0.  0.
<mgrwt>
<rscale>  0 0.27552129E+03</rscale>
<asrwt>0</asrwt>
<pdfrwt beam="1">  1        1 0.23923362E+00 0.27552129E+03</pdfrwt>
<pdfrwt beam="2">  1       -1 0.18775927E-02 0.27552129E+03</pdfrwt>
<totfact> 0.49496381E+03</totfact>
</mgrwt>
</event>
<event>
 5    1  0.1122238E+001  0.2755115E+03  0.7818608E-02  0.1098166E+00
         -2   -1    0    0    0  501 -0.00000000000E+00  0.00000000000E+00  0.24316420380E+02  0.24316420380E+02  0.00000000000E+00 0.  1.
          2   -1    0    0  501    0  0.00000000000E+00 -0.00000000000E+00 -0.78040463261E+03  0.78040463261E+03  0.00000000000E+00 0.  1.
         35    2    1    2    0    0  0.00000000000E+00  0.00000000000E+00 -0.75608821223E+03  0.80472105299E+03  0.27551150330E+03 0.  0.
         25    1    3    3    0    0 -0.19038570779E+02 -0.55214813226E+02 -0.47775958374E+03  0.49604975823E+03  0.12000000000E+03 0.  0.
         25    1    3    3    0    0  0.19038570779E+02  0.55214813226E+02 -0.27832862849E+03  0.30867129477E+03  0.12000000000E+03 0.  0.
<mgrwt>
<rscale>  0 0.27551150E+03</rscale>
<asrwt>0</asrwt>
<pdfrwt beam="1">  1        2 0.12006226E+00 0.27551150E+03</pdfrwt>
<pdfrwt beam="2">  1       -2 0.37409876E-02 0.27551150E+03</pdfrwt>
<totfact> 0.11096386E+04</totfact>
</mgrwt>
</event>
<event>
 4    1  0.1122238E+001  0.3107845E+03  0.7818608E-02  0.1079970E+00
         -1   -1    0    0    0  501 -0.00000000000E+00  0.00000000000E+00  0.85696805084E+02  0.85696805084E+02  0.00000000000E+00 0.  1.
          1   -1    0    0  501    0  0.00000000000E+00 -0.00000000000E+00 -0.28176957182E+03  0.28176957182E+03  0.00000000000E+00 0.  1.
         25    1    1    2    0    0 -0.19371876074E+02  0.17196622796E+02  0.14605452338E+02  0.12362974018E+03  0.12000000000E+03 0.  0.
         25    1    1    2    0    0  0.19371876074E+02 -0.17196622796E+02 -0.21067821907E+03  0.24383663673E+03  0.12000000000E+03 0.  0.
<mgrwt>
<rscale>  0 0.31078450E+03</rscale>
<asrwt>0</asrwt>
<pdfrwt beam="1">  1        1 0.43349165E-01 0.31078450E+03</pdfrwt>
<pdfrwt beam="2">  1       -1 0.13184124E-01 0.31078450E+03</pdfrwt>
<totfact> 0.37427098E+03</totfact>
</mgrwt>
</event>
<event>
 5    1  0.1122238E+001  0.2749461E+03  0.7818608E-02  0.1098482E+00
         -2   -1    0    0    0  501 -0.00000000000E+00  0.00000000000E+00  0.47314008338E+02  0.47314008338E+02  0.00000000000E+00 0. -1.
          2   -1    0    0  501    0  0.00000000000E+00 -0.00000000000E+00 -0.39943432848E+03  0.39943432848E+03  0.00000000000E+00 0. -1.
         35    2    1    2    0    0  0.00000000000E+00  0.00000000000E+00 -0.35212032014E+03  0.44674833682E+03  0.27494609761E+03 0.  0.
         25    1    3    3    0    0 -0.37789427804E+02  0.48435506200E+01 -0.26575670618E+03  0.29407163705E+03  0.12000000000E+03 0.  0.
         25    1    3    3    0    0  0.37789427804E+02 -0.48435506200E+01 -0.86363613966E+02  0.15267669977E+03  0.12000000000E+03 0.  0.
<mgrwt>
<rscale>  0 0.27494610E+03</rscale>
<asrwt>0</asrwt>
<pdfrwt beam="1">  1        2 0.61451438E-01 0.27494610E+03</pdfrwt>
<pdfrwt beam="2">  1       -2 0.72790778E-02 0.27494610E+03</pdfrwt>
<totfact> 0.87076454E+03</totfact>
</mgrwt>
</event>
<event>
 5    1  0.1122238E+001  0.2760625E+03  0.7818608E-02  0.1097859E+00
          1   -1    0    0  501    0  0.00000000000E+00  0.00000000000E+00  0.69985132754E+02  0.69985132754E+02  0.00000000000E+00 0. -1.
         -1   -1    0    0    0  501 -0.00000000000E+00 -0.00000000000E+00 -0.27223827493E+03  0.27223827493E+03  0.00000000000E+00 0. -1.
         35    2    1    2    0    0  0.00000000000E+00  0.00000000000E+00 -0.20225314218E+03  0.34222340769E+03  0.27606254228E+03 0.  0.
         25    1    3    3    0    0  0.39865120970E+02  0.39957248664E+02 -0.53648729332E+02  0.14305242308E+03  0.12000000000E+03 0.  0.
         25    1    3    3    0    0 -0.39865120970E+02 -0.39957248664E+02 -0.14860441285E+03  0.19917098460E+03  0.12000000000E+03 0.  0.
<mgrwt>
<rscale>  0 0.27606254E+03</rscale>
<asrwt>0</asrwt>
<pdfrwt beam="1">  1        1 0.10766944E-01 0.27606254E+03</pdfrwt>
<pdfrwt beam="2">  1       -1 0.41882811E-01 0.27606254E+03</pdfrwt>
<totfact> 0.32862035E+03</totfact>
</mgrwt>
</event>
<event>
 5    1  0.1122238E+001  0.2719545E+03  0.7818608E-02  0.1100166E+00
          2   -1    0    0  501    0  0.00000000000E+00  0.00000000000E+00  0.56323512623E+03  0.56323512623E+03  0.00000000000E+00 0. -1.
         -2   -1    0    0    0  501 -0.00000000000E+00 -0.00000000000E+00 -0.32827880122E+02  0.32827880122E+02  0.00000000000E+00 0. -1.
         35    2    1    2    0    0  0.00000000000E+00  0.00000000000E+00  0.53040724610E+03  0.59606300635E+03  0.27195451976E+03 0.  0.
         25    1    3    3    0    0  0.32875537891E+01 -0.29144262797E+02  0.38976159919E+03  0.40886953942E+03  0.12000000000E+03 0.  0.
         25    1    3    3    0    0 -0.32875537891E+01  0.29144262797E+02  0.14064564692E+03  0.18719346693E+03  0.12000000000E+03 0.  0.
<mgrwt>
<rscale>  0 0.27195452E+03</rscale>
<asrwt>0</asrwt>
<pdfrwt beam="1">  1        2 0.86651551E-01 0.27195452E+03</pdfrwt>
<pdfrwt beam="2">  1       -2 0.50504435E-02 0.27195452E+03</pdfrwt>
<totfact> 0.10413855E+04</totfact>
</mgrwt>
</event>
<event>
 5    1  0.1122238E+001  0.2749335E+03  0.7818608E-02  0.1098489E+00
          2   -1    0    0  501    0  0.00000000000E+00  0.00000000000E+00  0.12529788823E+04  0.12529788823E+04  0.00000000000E+00 0. -1.
         -2   -1    0    0    0  501 -0.00000000000E+00 -0.00000000000E+00 -0.15081740560E+02  0.15081740560E+02  0.00000000000E+00 0. -1.
         35    2    1    2    0    0  0.00000000000E+00  0.00000000000E+00  0.12378971417E+04  0.12680606229E+04  0.27493346417E+03 0.  0.
         25    1    3    3    0    0  0.23477616664E+01 -0.18212700962E+02  0.91642545899E+03  0.92443108794E+03  0.12000000000E+03 0.  0.
         25    1    3    3    0    0 -0.23477616664E+01  0.18212700962E+02  0.32147168276E+03  0.34362953493E+03  0.12000000000E+03 0.  0.
<mgrwt>
<rscale>  0 0.27493346E+03</rscale>
<asrwt>0</asrwt>
<pdfrwt beam="1">  1        2 0.19276590E+00 0.27493346E+03</pdfrwt>
<pdfrwt beam="2">  1       -2 0.23202688E-02 0.27493346E+03</pdfrwt>
<totfact> 0.11560863E+04</totfact>
</mgrwt>
</event>
<event>
 5    1  0.1122238E+001  0.2704641E+03  0.7818608E-02  0.1101014E+00
          2   -1    0    0  501    0  0.00000000000E+00  0.00000000000E+00  0.30655066879E+04  0.30655066879E+04  0.00000000000E+00 0.  1.
         -2   -1    0    0    0  501 -0.00000000000E+00 -0.00000000000E+00 -0.59656390131E+01  0.59656390131E+01  0.00000000000E+00 0.  1.
         35    2    1    2    0    0  0.00000000000E+00  0.00000000000E+00  0.30595410489E+04  0.30714723270E+04  0.27046409220E+03 0.  0.
         25    1    3    3    0    0  0.19047612522E+02 -0.24627399485E+02  0.91627930040E+03  0.92462807479E+03  0.12000000000E+03 0.  0.
         25    1    3    3    0    0 -0.19047612522E+02  0.24627399485E+02  0.21432617485E+04  0.21468442522E+04  0.12000000000E+03 0.  0.
<mgrwt>
<rscale>  0 0.27046409E+03</rscale>
<asrwt>0</asrwt>
<pdfrwt beam="1">  1        2 0.47161515E+00 0.27046409E+03</pdfrwt>
<pdfrwt beam="2">  1       -2 0.91779307E-03 0.27046409E+03</pdfrwt>
<totfact> 0.46004613E+03</totfact>
</mgrwt>
</event>
<event>
 5    1  0.1122238E+001  0.2747925E+03  0.7818608E-02  0.1098568E+00
          2   -1    0    0  501    0  0.00000000000E+00  0.00000000000E+00  0.16663042296E+03  0.16663042296E+03  0.00000000000E+00 0.  1.
         -2   -1    0    0    0  501 -0.00000000000E+00 -0.00000000000E+00 -0.11329102792E+03  0.11329102792E+03  0.00000000000E+00 0.  1.
         35    2    1    2    0    0  0.00000000000E+00  0.00000000000E+00  0.53339395035E+02  0.27992145088E+03  0.27479251736E+03 0.  0.
         25    1    3    3    0    0 -0.64907010858E+02  0.13603848953E+02  0.35766501209E+02  0.14169413317E+03  0.12000000000E+03 0.  0.
         25    1    3    3    0    0  0.64907010858E+02 -0.13603848953E+02  0.17572893826E+02  0.13822731771E+03  0.12000000000E+03 0.  0.
<mgrwt>
<rscale>  0 0.27479252E+03</rscale>
<asrwt>0</asrwt>
<pdfrwt beam="1">  1        2 0.25635450E-01 0.27479252E+03</pdfrwt>
<pdfrwt beam="2">  1       -2 0.17429389E-01 0.27479252E+03</pdfrwt>
<totfact> 0.55212198E+03</totfact>
</mgrwt>
</event>
<event>
 5    1  0.1122238E+001  0.2749540E+03  0.7818608E-02  0.1098477E+00
          1   -1    0    0  501    0  0.00000000000E+00  0.00000000000E+00  0.16568764095E+03  0.16568764095E+03  0.00000000000E+00 0.  1.
         -1   -1    0    0    0  501 -0.00000000000E+00 -0.00000000000E+00 -0.11406961626E+03  0.11406961626E+03  0.00000000000E+00 0.  1.
         35    2    1    2    0    0  0.00000000000E+00  0.00000000000E+00  0.51618024685E+02  0.27975725721E+03  0.27495400067E+03 0.  0.
         25    1    3    3    0    0  0.49893631175E+02 -0.29982468296E+02 -0.81141344207E+01  0.13361946720E+03  0.12000000000E+03 0.  0.
         25    1    3    3    0    0 -0.49893631175E+02  0.29982468296E+02  0.59732159106E+02  0.14613779001E+03  0.12000000000E+03 0.  0.
<mgrwt>
<rscale>  0 0.27495400E+03</rscale>
<asrwt>0</asrwt>
<pdfrwt beam="1">  1        1 0.25490406E-01 0.27495400E+03</pdfrwt>
<pdfrwt beam="2">  1       -1 0.17549172E-01 0.27495400E+03</pdfrwt>
<totfact> 0.46261546E+03</totfact>
</mgrwt>
</event>
<event>
 5    1  0.1122238E+001  0.2751297E+03  0.7818608E-02  0.1098379E+00
         -1   -1    0    0    0  501 -0.00000000000E+00  0.00000000000E+00  0.29987684790E+02  0.29987684790E+02  0.00000000000E+00 0.  1.
          1   -1    0    0  501    0  0.00000000000E+00 -0.00000000000E+00 -0.63106178126E+03  0.63106178126E+03  0.00000000000E+00 0.  1.
         35    2    1    2    0    0  0.00000000000E+00  0.00000000000E+00 -0.60107409647E+03  0.66104946605E+03  0.27512965510E+03 0.  0.
         25    1    3    3    0    0 -0.47352066594E+02  0.47277964251E+02 -0.31694891773E+03  0.34544759452E+03  0.12000000000E+03 0.  0.
         25    1    3    3    0    0  0.47352066594E+02 -0.47277964251E+02 -0.28412517875E+03  0.31560187153E+03  0.12000000000E+03 0.  0.
<mgrwt>
<rscale>  0 0.27512966E+03</rscale>
<asrwt>0</asrwt>
<pdfrwt beam="1">  1        1 0.97086421E-01 0.27512966E+03</pdfrwt>
<pdfrwt beam="2">  1       -1 0.46134903E-02 0.27512966E+03</pdfrwt>
<totfact> 0.64833650E+03</totfact>
</mgrwt>
</event>
<event>
 5    1  0.1122238E+001  0.2755925E+03  0.7818608E-02  0.1098121E+00
         -2   -1    0    0    0  501 -0.00000000000E+00  0.00000000000E+00  0.16125198787E+02  0.16125198787E+02  0.00000000000E+00 0. -1.
          2   -1    0    0  501    0  0.00000000000E+00 -0.00000000000E+00 -0.11775238871E+04  0.11775238871E+04  0.00000000000E+00 0. -1.
         35    2    1    2    0    0  0.00000000000E+00  0.00000000000E+00 -0.11613986883E+04  0.11936490859E+04  0.27559250176E+03 0.  0.
         25    1    3    3    0    0 -0.47061407202E+01  0.41801202851E+02 -0.81063393122E+03  0.82054668286E+03  0.12000000000E+03 0.  0.
         25    1    3    3    0    0  0.47061407202E+01 -0.41801202851E+02 -0.35076475708E+03  0.37310240301E+03  0.12000000000E+03 0.  0.
<mgrwt>
<rscale>  0 0.27559250E+03</rscale>
<asrwt>0</asrwt>
<pdfrwt beam="1">  1        2 0.18115759E+00 0.27559250E+03</pdfrwt>
<pdfrwt beam="2">  1       -2 0.24807989E-02 0.27559250E+03</pdfrwt>
<totfact> 0.11555046E+04</totfact>
</mgrwt>
</event>
<event>
 5    1  0.1122238E+001  0.2751175E+03  0.7818608E-02  0.1098386E+00
         -2   -1    0    0    0  501 -0.00000000000E+00  0.00000000000E+00  0.52070828609E+02  0.52070828609E+02  0.00000000000E+00 0. -1.
          2   -1    0    0  501    0  0.00000000000E+00 -0.00000000000E+00 -0.36339743332E+03  0.36339743332E+03  0.00000000000E+00 0. -1.
         35    2    1    2    0    0  0.00000000000E+00  0.00000000000E+00 -0.31132660471E+03  0.41546826193E+03  0.27511746922E+03 0.  0.
         25    1    3    3    0    0  0.30710213603E+02 -0.59296376511E+02 -0.14365520110E+03  0.19873599143E+03  0.12000000000E+03 0.  0.
         25    1    3    3    0    0 -0.30710213603E+02  0.59296376511E+02 -0.16767140361E+03  0.21673227050E+03  0.12000000000E+03 0.  0.
<mgrwt>
<rscale>  0 0.27511747E+03</rscale>
<asrwt>0</asrwt>
<pdfrwt beam="1">  1        2 0.55907298E-01 0.27511747E+03</pdfrwt>
<pdfrwt beam="2">  1       -2 0.80108967E-02 0.27511747E+03</pdfrwt>
<totfact> 0.83100785E+03</totfact>
</mgrwt>
</event>
<event>
 5    1  0.1122238E+001  0.2751144E+03  0.7818608E-02  0.1098388E+00
         -2   -1    0    0    0  501 -0.00000000000E+00  0.00000000000E+00  0.17545195414E+03  0.17545195414E+03  0.00000000000E+00 0.  1.
          2   -1    0    0  501    0  0.00000000000E+00 -0.00000000000E+00 -0.10784707214E+03  0.10784707214E+03  0.00000000000E+00 0.  1.
         35    2    1    2    0    0  0.00000000000E+00  0.00000000000E+00  0.67604882002E+02  0.28329902628E+03  0.27511437298E+03 0.  0.
         25    1    3    3    0    0  0.15772553507E+02 -0.20876100424E+02 -0.29987180971E+02  0.12642711749E+03  0.12000000000E+03 0.  0.
         25    1    3    3    0    0 -0.15772553507E+02  0.20876100424E+02  0.97592062973E+02  0.15687190879E+03  0.12000000000E+03 0.  0.
<mgrwt>
<rscale>  0 0.27511437E+03</rscale>
<asrwt>0</asrwt>
<pdfrwt beam="1">  1        2 0.16591857E-01 0.27511437E+03</pdfrwt>
<pdfrwt beam="2">  1       -2 0.26992608E-01 0.27511437E+03</pdfrwt>
<totfact> 0.42567535E+03</totfact>
</mgrwt>
</event>
<event>
 5    1  0.1122238E+001  0.2746754E+03  0.7818608E-02  0.1098633E+00
          2   -1    0    0  501    0  0.00000000000E+00  0.00000000000E+00  0.28517578683E+03  0.28517578683E+03  0.00000000000E+00 0.  1.
         -2   -1    0    0    0  501 -0.00000000000E+00 -0.00000000000E+00 -0.66140399108E+02  0.66140399108E+02  0.00000000000E+00 0.  1.
         35    2    1    2    0    0  0.00000000000E+00  0.00000000000E+00  0.21903538772E+03  0.35131618594E+03  0.27467537463E+03 0.  0.
         25    1    3    3    0    0  0.18349820639E+02 -0.34975138434E+02  0.40620425353E+02  0.13270265703E+03  0.12000000000E+03 0.  0.
         25    1    3    3    0    0 -0.18349820639E+02  0.34975138434E+02  0.17841496237E+03  0.21861352891E+03  0.12000000000E+03 0.  0.
<mgrwt>
<rscale>  0 0.27467537E+03</rscale>
<asrwt>0</asrwt>
<pdfrwt beam="1">  1        2 0.43873197E-01 0.27467537E+03</pdfrwt>
<pdfrwt beam="2">  1       -2 0.10175446E-01 0.27467537E+03</pdfrwt>
<totfact> 0.73993467E+03</totfact>
</mgrwt>
</event>
<event>
 5    1  0.1122238E+001  0.2756640E+03  0.7818608E-02  0.1098081E+00
          4   -1    0    0  501    0  0.00000000000E+00  0.00000000000E+00  0.21123659745E+02  0.21123659745E+02  0.00000000000E+00 0. -1.
         -4   -1    0    0    0  501 -0.00000000000E+00 -0.00000000000E+00 -0.89935444693E+03  0.89935444693E+03  0.00000000000E+00 0. -1.
         35    2    1    2    0    0  0.00000000000E+00  0.00000000000E+00 -0.87823078719E+03  0.92047810668E+03  0.27566397898E+03 0.  0.
         25    1    3    3    0    0 -0.50488561124E+02  0.38414933447E+02 -0.51903548145E+03  0.53649103713E+03  0.12000000000E+03 0.  0.
         25    1    3    3    0    0  0.50488561124E+02 -0.38414933447E+02 -0.35919530574E+03  0.38398706955E+03  0.12000000000E+03 0.  0.
<mgrwt>
<rscale>  0 0.27566398E+03</rscale>
<asrwt>0</asrwt>
<pdfrwt beam="1">  1        4 0.32497945E-02 0.27566398E+03</pdfrwt>
<pdfrwt beam="2">  1       -4 0.13836219E+00 0.27566398E+03</pdfrwt>
<totfact> 0.34613562E+02</totfact>
</mgrwt>
</event>
<event>
 5    1  0.1122238E+001  0.2764581E+03  0.7818608E-02  0.1097639E+00
          2   -1    0    0  501    0  0.00000000000E+00  0.00000000000E+00  0.19266720527E+04  0.19266720527E+04  0.00000000000E+00 0.  1.
         -2   -1    0    0    0  501 -0.00000000000E+00 -0.00000000000E+00 -0.99172393741E+01  0.99172393741E+01  0.00000000000E+00 0.  1.
         35    2    1    2    0    0  0.00000000000E+00  0.00000000000E+00  0.19167548134E+04  0.19365892921E+04  0.27645808321E+03 0.  0.
         25    1    3    3    0    0 -0.16134835085E+02 -0.66673441223E+02  0.94955200911E+03  0.95955963789E+03  0.12000000000E+03 0.  0.
         25    1    3    3    0    0  0.16134835085E+02  0.66673441223E+02  0.96720280426E+03  0.97702965422E+03  0.12000000000E+03 0.  0.
<mgrwt>
<rscale>  0 0.27645808E+03</rscale>
<asrwt>0</asrwt>
<pdfrwt beam="1">  1        2 0.29641079E+00 0.27645808E+03</pdfrwt>
<pdfrwt beam="2">  1       -2 0.15257307E-02 0.27645808E+03</pdfrwt>
<totfact> 0.93442436E+03</totfact>
</mgrwt>
</event>
<event>
 5    1  0.1122238E+001  0.2765225E+03  0.7818608E-02  0.1097604E+00
          1   -1    0    0  501    0  0.00000000000E+00  0.00000000000E+00  0.44528102556E+02  0.44528102556E+02  0.00000000000E+00 0. -1.
         -1   -1    0    0    0  501 -0.00000000000E+00 -0.00000000000E+00 -0.42930581813E+03  0.42930581813E+03  0.00000000000E+00 0. -1.
         35    2    1    2    0    0  0.00000000000E+00  0.00000000000E+00 -0.38477771557E+03  0.47383392069E+03  0.27652250178E+03 0.  0.
         25    1    3    3    0    0 -0.82033712477E+01  0.50511391572E+02 -0.11391150813E+03  0.17318928276E+03  0.12000000000E+03 0.  0.
         25    1    3    3    0    0  0.82033712477E+01 -0.50511391572E+02 -0.27086620745E+03  0.30064463793E+03  0.12000000000E+03 0.  0.
<mgrwt>
<rscale>  0 0.27652250E+03</rscale>
<asrwt>0</asrwt>
<pdfrwt beam="1">  1        1 0.68504775E-02 0.27652250E+03</pdfrwt>
<pdfrwt beam="2">  1       -1 0.66047047E-01 0.27652250E+03</pdfrwt>
<totfact> 0.25844964E+03</totfact>
</mgrwt>
</event>
<event>
 5    1  0.1122238E+001  0.2749234E+03  0.7818608E-02  0.1098494E+00
         -2   -1    0    0    0  501 -0.00000000000E+00  0.00000000000E+00  0.63244891630E+01  0.63244891630E+01  0.00000000000E+00 0. -1.
          2   -1    0    0  501    0  0.00000000000E+00 -0.00000000000E+00 -0.29877073201E+04  0.29877073201E+04  0.00000000000E+00 0. -1.
         35    2    1    2    0    0  0.00000000000E+00  0.00000000000E+00 -0.29813828309E+04  0.29940318092E+04  0.27492342620E+03 0.  0.
         25    1    3    3    0    0  0.10234359567E+02  0.64641185156E+02 -0.13319384992E+04  0.13389336767E+04  0.12000000000E+03 0.  0.
         25    1    3    3    0    0 -0.10234359567E+02 -0.64641185156E+02 -0.16494443317E+04  0.16550981326E+04  0.12000000000E+03 0.  0.
<mgrwt>
<rscale>  0 0.27492343E+03</rscale>
<asrwt>0</asrwt>
<pdfrwt beam="1">  1        2 0.45964756E+00 0.27492343E+03</pdfrwt>
<pdfrwt beam="2">  1       -2 0.97299774E-03 0.27492343E+03</pdfrwt>
<totfact> 0.47008911E+03</totfact>
</mgrwt>
</event>
<event>
 5    1  0.1122238E+001  0.2743164E+03  0.7818608E-02  0.1098834E+00
         -1   -1    0    0    0  501 -0.00000000000E+00  0.00000000000E+00  0.53512684233E+02  0.53512684233E+02  0.00000000000E+00 0.  1.
          1   -1    0    0  501    0  0.00000000000E+00 -0.00000000000E+00 -0.35154964430E+03  0.35154964430E+03  0.00000000000E+00 0.  1.
         35    2    1    2    0    0  0.00000000000E+00  0.00000000000E+00 -0.29803696006E+03  0.40506232853E+03  0.27431635101E+03 0.  0.
         25    1    3    3    0    0 -0.35640980759E+02  0.43940852949E+02 -0.97626695889E+02  0.16471809196E+03  0.12000000000E+03 0.  0.
         25    1    3    3    0    0  0.35640980759E+02 -0.43940852949E+02 -0.20041026418E+03  0.24034423657E+03  0.12000000000E+03 0.  0.
<mgrwt>
<rscale>  0 0.27431635E+03</rscale>
<asrwt>0</asrwt>
<pdfrwt beam="1">  1        1 0.54084561E-01 0.27431635E+03</pdfrwt>
<pdfrwt beam="2">  1       -1 0.82327207E-02 0.27431635E+03</pdfrwt>
<totfact> 0.58580232E+03</totfact>
</mgrwt>
</event>
<event>
 5    1  0.1122238E+001  0.2713373E+03  0.7818608E-02  0.1100517E+00
         -1   -1    0    0    0  501 -0.00000000000E+00  0.00000000000E+00  0.65894642917E+01  0.65894642917E+01  0.00000000000E+00 0.  1.
          1   -1    0    0  501    0  0.00000000000E+00 -0.00000000000E+00 -0.27932445229E+04  0.27932445229E+04  0.00000000000E+00 0.  1.
         35    2    1    2    0    0  0.00000000000E+00  0.00000000000E+00 -0.27866550586E+04  0.27998339872E+04  0.27133731805E+03 0.  0.
         25    1    3    3    0    0  0.40647071354E+02 -0.22352105611E+02 -0.18376509117E+04  0.18421489284E+04  0.12000000000E+03 0.  0.
         25    1    3    3    0    0 -0.40647071354E+02  0.22352105611E+02 -0.94900414691E+03  0.95768505882E+03  0.12000000000E+03 0.  0.
<mgrwt>
<rscale>  0 0.27133732E+03</rscale>
<asrwt>0</asrwt>
<pdfrwt beam="1">  1        1 0.42972991E+00 0.27133732E+03</pdfrwt>
<pdfrwt beam="2">  1       -1 0.10137638E-02 0.27133732E+03</pdfrwt>
<totfact> 0.18557683E+03</totfact>
</mgrwt>
</event>
<event>
 5    1  0.1122238E+001  0.2755629E+03  0.7818608E-02  0.1098137E+00
          2   -1    0    0  501    0  0.00000000000E+00  0.00000000000E+00  0.37526650537E+02  0.37526650537E+02  0.00000000000E+00 0. -1.
         -2   -1    0    0    0  501 -0.00000000000E+00 -0.00000000000E+00 -0.50587329197E+03  0.50587329197E+03  0.00000000000E+00 0. -1.
         35    2    1    2    0    0  0.00000000000E+00  0.00000000000E+00 -0.46834664143E+03  0.54339994251E+03  0.27556291655E+03 0.  0.
         25    1    3    3    0    0  0.67340450959E+02  0.50939253308E+01 -0.24363994240E+03  0.27985908229E+03  0.12000000000E+03 0.  0.
         25    1    3    3    0    0 -0.67340450959E+02 -0.50939253308E+01 -0.22470669904E+03  0.26354086021E+03  0.12000000000E+03 0.  0.
<mgrwt>
<rscale>  0 0.27556292E+03</rscale>
<asrwt>0</asrwt>
<pdfrwt beam="1">  1        2 0.57733314E-02 0.27556292E+03</pdfrwt>
<pdfrwt beam="2">  1       -2 0.77826652E-01 0.27556292E+03</pdfrwt>
<totfact> 0.19638015E+03</totfact>
</mgrwt>
</event>
<event>
 5    1  0.1122238E+001  0.2748826E+03  0.7818608E-02  0.1098517E+00
          2   -1    0    0  501    0  0.00000000000E+00  0.00000000000E+00  0.10159858958E+04  0.10159858958E+04  0.00000000000E+00 0. -1.
         -2   -1    0    0    0  501 -0.00000000000E+00 -0.00000000000E+00 -0.18592892832E+02  0.18592892832E+02  0.00000000000E+00 0. -1.
         35    2    1    2    0    0  0.00000000000E+00  0.00000000000E+00  0.99739300297E+03  0.10345787886E+04  0.27488264317E+03 0.  0.
         25    1    3    3    0    0  0.41319016508E+02  0.44714804245E+02  0.39335010445E+03  0.41572945471E+03  0.12000000000E+03 0.  0.
         25    1    3    3    0    0 -0.41319016508E+02 -0.44714804245E+02  0.60404289852E+03  0.61884933392E+03  0.12000000000E+03 0.  0.
<mgrwt>
<rscale>  0 0.27488264E+03</rscale>
<asrwt>0</asrwt>
<pdfrwt beam="1">  1        2 0.15630548E+00 0.27488264E+03</pdfrwt>
<pdfrwt beam="2">  1       -2 0.28604459E-02 0.27488264E+03</pdfrwt>
<totfact> 0.11645443E+04</totfact>
</mgrwt>
</event>
<event>
 5    1  0.1122238E+001  0.2745705E+03  0.7818608E-02  0.1098692E+00
         -2   -1    0    0    0  501 -0.00000000000E+00  0.00000000000E+00  0.34505671552E+02  0.34505671552E+02  0.00000000000E+00 0.  1.
          2   -1    0    0  501    0  0.00000000000E+00 -0.00000000000E+00 -0.54620705907E+03  0.54620705907E+03  0.00000000000E+00 0.  1.
         35    2    1    2    0    0  0.00000000000E+00  0.00000000000E+00 -0.51170138752E+03  0.58071273063E+03  0.27457051101E+03 0.  0.
         25    1    3    3    0    0 -0.28461727710E+02 -0.79747837135E+01 -0.38228323309E+03  0.40176378311E+03  0.12000000000E+03 0.  0.
         25    1    3    3    0    0  0.28461727710E+02  0.79747837135E+01 -0.12941815443E+03  0.17894894752E+03  0.12000000000E+03 0.  0.
<mgrwt>
<rscale>  0 0.27457051E+03</rscale>
<asrwt>0</asrwt>
<pdfrwt beam="1">  1        2 0.84031857E-01 0.27457051E+03</pdfrwt>
<pdfrwt beam="2">  1       -2 0.53085647E-02 0.27457051E+03</pdfrwt>
<totfact> 0.10000631E+04</totfact>
</mgrwt>
</event>
<event>
 5    1  0.1122238E+001  0.2715908E+03  0.7818608E-02  0.1100373E+00
         -1   -1    0    0    0  501 -0.00000000000E+00  0.00000000000E+00  0.41161727431E+02  0.41161727431E+02  0.00000000000E+00 0. -1.
          1   -1    0    0  501    0  0.00000000000E+00 -0.00000000000E+00 -0.44799861566E+03  0.44799861566E+03  0.00000000000E+00 0. -1.
         35    2    1    2    0    0  0.00000000000E+00  0.00000000000E+00 -0.40683688823E+03  0.48916034309E+03  0.27159084600E+03 0.  0.
         25    1    3    3    0    0  0.28268441545E+02 -0.56628202083E+02 -0.19283346412E+03  0.23577659541E+03  0.12000000000E+03 0.  0.
         25    1    3    3    0    0 -0.28268441545E+02  0.56628202083E+02 -0.21400342411E+03  0.25338374768E+03  0.12000000000E+03 0.  0.
<mgrwt>
<rscale>  0 0.27159085E+03</rscale>
<asrwt>0</asrwt>
<pdfrwt beam="1">  1        1 0.68922862E-01 0.27159085E+03</pdfrwt>
<pdfrwt beam="2">  1       -1 0.63325736E-02 0.27159085E+03</pdfrwt>
<totfact> 0.63941341E+03</totfact>
</mgrwt>
</event>
<event>
 5    1  0.1122238E+001  0.2750208E+03  0.7818608E-02  0.1098440E+00
         -1   -1    0    0    0  501 -0.00000000000E+00  0.00000000000E+00  0.17190237371E+02  0.17190237371E+02  0.00000000000E+00 0.  1.
          1   -1    0    0  501    0  0.00000000000E+00 -0.00000000000E+00 -0.10999913209E+04  0.10999913209E+04  0.00000000000E+00 0.  1.
         35    2    1    2    0    0  0.00000000000E+00  0.00000000000E+00 -0.10828010835E+04  0.11171815583E+04  0.27502081311E+03 0.  0.
         25    1    3    3    0    0 -0.53248474194E+02 -0.35485673091E+02 -0.45869979781E+03  0.47843509226E+03  0.12000000000E+03 0.  0.
         25    1    3    3    0    0  0.53248474194E+02  0.35485673091E+02 -0.62410128570E+03  0.63874646599E+03  0.12000000000E+03 0.  0.
<mgrwt>
<rscale>  0 0.27502081E+03</rscale>
<asrwt>0</asrwt>
<pdfrwt beam="1">  1        1 0.16922954E+00 0.27502081E+03</pdfrwt>
<pdfrwt beam="2">  1       -1 0.26446502E-02 0.27502081E+03</pdfrwt>
<totfact> 0.61303198E+03</totfact>
</mgrwt>
</event>
<event>
 5    1  0.1122238E+001  0.2753331E+03  0.7818608E-02  0.1098266E+00
         -2   -1    0    0    0  501 -0.00000000000E+00  0.00000000000E+00  0.28202845731E+03  0.28202845731E+03  0.00000000000E+00 0. -1.
          2   -1    0    0  501    0  0.00000000000E+00 -0.00000000000E+00 -0.67199178475E+02  0.67199178475E+02  0.00000000000E+00 0. -1.
         35    2    1    2    0    0  0.00000000000E+00  0.00000000000E+00  0.21482927884E+03  0.34922763579E+03  0.27533311198E+03 0.  0.
         25    1    3    3    0    0  0.51556450082E+02 -0.41651936915E+02  0.91414448667E+02  0.16477121356E+03  0.12000000000E+03 0.  0.
         25    1    3    3    0    0 -0.51556450082E+02  0.41651936915E+02  0.12341483017E+03  0.18445642222E+03  0.12000000000E+03 0.  0.
<mgrwt>
<rscale>  0 0.27533311E+03</rscale>
<asrwt>0</asrwt>
<pdfrwt beam="1">  1        2 0.10338335E-01 0.27533311E+03</pdfrwt>
<pdfrwt beam="2">  1       -2 0.43388993E-01 0.27533311E+03</pdfrwt>
<totfact> 0.31146588E+03</totfact>
</mgrwt>
</event>
<event>
 5    1  0.1122238E+001  0.2750852E+03  0.7818608E-02  0.1098404E+00
          2   -1    0    0  501    0  0.00000000000E+00  0.00000000000E+00  0.38738935048E+03  0.38738935048E+03  0.00000000000E+00 0. -1.
         -2   -1    0    0    0  501 -0.00000000000E+00 -0.00000000000E+00 -0.48834518593E+02  0.48834518593E+02  0.00000000000E+00 0. -1.
         35    2    1    2    0    0  0.00000000000E+00  0.00000000000E+00  0.33855483189E+03  0.43622386907E+03  0.27508524089E+03 0.  0.
         25    1    3    3    0    0 -0.18643344271E+02 -0.40343781773E+02  0.89313084781E+02  0.15605134452E+03  0.12000000000E+03 0.  0.
         25    1    3    3    0    0  0.18643344271E+02  0.40343781773E+02  0.24924174710E+03  0.28017252455E+03  0.12000000000E+03 0.  0.
<mgrwt>
<rscale>  0 0.27508524E+03</rscale>
<asrwt>0</asrwt>
<pdfrwt beam="1">  1        2 0.59598360E-01 0.27508524E+03</pdfrwt>
<pdfrwt beam="2">  1       -2 0.75130031E-02 0.27508524E+03</pdfrwt>
<totfact> 0.85702805E+03</totfact>
</mgrwt>
</event>
<event>
 5    1  0.1122238E+001  0.2743754E+03  0.7818608E-02  0.1098801E+00
          2   -1    0    0  501    0  0.00000000000E+00  0.00000000000E+00  0.11286729851E+04  0.11286729851E+04  0.00000000000E+00 0.  1.
         -2   -1    0    0    0  501 -0.00000000000E+00 -0.00000000000E+00 -0.16674866837E+02  0.16674866837E+02  0.00000000000E+00 0.  1.
         35    2    1    2    0    0  0.00000000000E+00  0.00000000000E+00  0.11119981183E+04  0.11453478519E+04  0.27437544882E+03 0.  0.
         25    1    3    3    0    0  0.75524256740E+01 -0.21359246601E+01  0.28039910752E+03  0.30509877221E+03  0.12000000000E+03 0.  0.
         25    1    3    3    0    0 -0.75524256740E+01  0.21359246601E+01  0.83159901074E+03  0.84024907972E+03  0.12000000000E+03 0.  0.
<mgrwt>
<rscale>  0 0.27437545E+03</rscale>
<asrwt>0</asrwt>
<pdfrwt beam="1">  1        2 0.17364194E+00 0.27437545E+03</pdfrwt>
<pdfrwt beam="2">  1       -2 0.25653650E-02 0.27437545E+03</pdfrwt>
<totfact> 0.11731017E+04</totfact>
</mgrwt>
</event>
<event>
 5    1  0.1122238E+001  0.2746272E+03  0.7818608E-02  0.1098660E+00
         -3   -1    0    0    0  501 -0.00000000000E+00  0.00000000000E+00  0.11165936101E+03  0.11165936101E+03  0.00000000000E+00 0. -1.
          3   -1    0    0  501    0  0.00000000000E+00 -0.00000000000E+00 -0.16886203851E+03  0.16886203851E+03  0.00000000000E+00 0. -1.
         35    2    1    2    0    0  0.00000000000E+00  0.00000000000E+00 -0.57202677501E+02  0.28052139953E+03  0.27462721875E+03 0.  0.
         25    1    3    3    0    0  0.56757823406E+02 -0.93073138567E+01  0.59921844866E+01  0.13320654220E+03  0.12000000000E+03 0.  0.
         25    1    3    3    0    0 -0.56757823406E+02  0.93073138567E+01 -0.63194861987E+02  0.14731485733E+03  0.12000000000E+03 0.  0.
<mgrwt>
<rscale>  0 0.27462722E+03</rscale>
<asrwt>0</asrwt>
<pdfrwt beam="1">  1        3 0.25978775E-01 0.27462722E+03</pdfrwt>
<pdfrwt beam="2">  1       -3 0.17178363E-01 0.27462722E+03</pdfrwt>
<totfact> 0.10448806E+03</totfact>
</mgrwt>
</event>
<event>
 5    1  0.1122238E+001  0.2737779E+03  0.7818608E-02  0.1099137E+00
          2   -1    0    0  501    0  0.00000000000E+00  0.00000000000E+00  0.56452466249E+03  0.56452466249E+03  0.00000000000E+00 0. -1.
         -2   -1    0    0    0  501 -0.00000000000E+00 -0.00000000000E+00 -0.33193564762E+02  0.33193564762E+02  0.00000000000E+00 0. -1.
         35    2    1    2    0    0  0.00000000000E+00  0.00000000000E+00  0.53133109772E+03  0.59771822725E+03  0.27377790958E+03 0.  0.
         25    1    3    3    0    0  0.11563682797E+02 -0.62467189683E+02  0.22768014160E+03  0.26509265442E+03  0.12000000000E+03 0.  0.
         25    1    3    3    0    0 -0.11563682797E+02  0.62467189683E+02  0.30365095612E+03  0.33262557283E+03  0.12000000000E+03 0.  0.
<mgrwt>
<rscale>  0 0.27377791E+03</rscale>
<asrwt>0</asrwt>
<pdfrwt beam="1">  1        2 0.86849941E-01 0.27377791E+03</pdfrwt>
<pdfrwt beam="2">  1       -2 0.51067027E-02 0.27377791E+03</pdfrwt>
<totfact> 0.10215790E+04</totfact>
</mgrwt>
</event>
<event>
 5    1  0.1122238E+001  0.2757435E+03  0.7818608E-02  0.1098037E+00
         -2   -1    0    0    0  501 -0.00000000000E+00  0.00000000000E+00  0.81552030956E+02  0.81552030956E+02  0.00000000000E+00 0. -1.
          2   -1    0    0  501    0  0.00000000000E+00 -0.00000000000E+00 -0.23308582972E+03  0.23308582972E+03  0.00000000000E+00 0. -1.
         35    2    1    2    0    0  0.00000000000E+00  0.00000000000E+00 -0.15153379876E+03  0.31463786067E+03  0.27574352432E+03 0.  0.
         25    1    3    3    0    0 -0.47373025504E+02  0.37853818675E+02 -0.40941277905E+02  0.14054644560E+03  0.12000000000E+03 0.  0.
         25    1    3    3    0    0  0.47373025504E+02 -0.37853818675E+02 -0.11059252086E+03  0.17409141508E+03  0.12000000000E+03 0.  0.
<mgrwt>
<rscale>  0 0.27574352E+03</rscale>
<asrwt>0</asrwt>
<pdfrwt beam="1">  1        2 0.35859358E-01 0.27574352E+03</pdfrwt>
<pdfrwt beam="2">  1       -2 0.12546466E-01 0.27574352E+03</pdfrwt>
<totfact> 0.65716424E+03</totfact>
</mgrwt>
</event>
<event>
 5    1  0.1122238E+001  0.2752518E+03  0.7818608E-02  0.1098311E+00
          2   -1    0    0  501    0  0.00000000000E+00  0.00000000000E+00  0.11482052698E+04  0.11482052698E+04  0.00000000000E+00 0. -1.
         -2   -1    0    0    0  501 -0.00000000000E+00 -0.00000000000E+00 -0.16496086141E+02  0.16496086141E+02  0.00000000000E+00 0. -1.
         35    2    1    2    0    0  0.00000000000E+00  0.00000000000E+00  0.11317091836E+04  0.11647013559E+04  0.27525183406E+03 0.  0.
         25    1    3    3    0    0 -0.59800571120E+02  0.79384853049E+01  0.43878808490E+03  0.45888354874E+03  0.12000000000E+03 0.  0.
         25    1    3    3    0    0  0.59800571120E+02 -0.79384853049E+01  0.69292109874E+03  0.70581780719E+03  0.12000000000E+03 0.  0.
<mgrwt>
<rscale>  0 0.27525183E+03</rscale>
<asrwt>0</asrwt>
<pdfrwt beam="1">  1        2 0.17664690E+00 0.27525183E+03</pdfrwt>
<pdfrwt beam="2">  1       -2 0.25378603E-02 0.27525183E+03</pdfrwt>
<totfact> 0.11614254E+04</totfact>
</mgrwt>
</event>
<event>
 5    1  0.1122238E+001  0.2747612E+03  0.7818608E-02  0.1098585E+00
         -2   -1    0    0    0  501 -0.00000000000E+00  0.00000000000E+00  0.11571198066E+03  0.11571198066E+03  0.00000000000E+00 0.  1.
          2   -1    0    0  501    0  0.00000000000E+00 -0.00000000000E+00 -0.16310695269E+03  0.16310695269E+03  0.00000000000E+00 0.  1.
         35    2    1    2    0    0  0.00000000000E+00  0.00000000000E+00 -0.47394972030E+02  0.27881893336E+03  0.27476119490E+03 0.  0.
         25    1    3    3    0    0  0.52028568085E+02  0.32134703682E+02  0.37916373892E+01  0.13473673438E+03  0.12000000000E+03 0.  0.
         25    1    3    3    0    0 -0.52028568085E+02 -0.32134703682E+02 -0.51186609419E+02  0.14408219898E+03  0.12000000000E+03 0.  0.
<mgrwt>
<rscale>  0 0.27476119E+03</rscale>
<asrwt>0</asrwt>
<pdfrwt beam="1">  1        2 0.25093377E-01 0.27476119E+03</pdfrwt>
<pdfrwt beam="2">  1       -2 0.17801843E-01 0.27476119E+03</pdfrwt>
<totfact> 0.54568148E+03</totfact>
</mgrwt>
</event>
<event>
 5    1  0.1122238E+001  0.2751329E+03  0.7818608E-02  0.1098377E+00
          4   -1    0    0  501    0  0.00000000000E+00  0.00000000000E+00  0.41738365524E+02  0.41738365524E+02  0.00000000000E+00 0.  1.
         -4   -1    0    0    0  501 -0.00000000000E+00 -0.00000000000E+00 -0.45340843089E+03  0.45340843089E+03  0.00000000000E+00 0.  1.
         35    2    1    2    0    0  0.00000000000E+00  0.00000000000E+00 -0.41167006536E+03  0.49514679641E+03  0.27513289022E+03 0.  0.
         25    1    3    3    0    0  0.41815913928E+01  0.35963954053E+01 -0.32648110002E+03  0.34787976146E+03  0.12000000000E+03 0.  0.
         25    1    3    3    0    0 -0.41815913928E+01 -0.35963954053E+01 -0.85188965348E+02  0.14726703495E+03  0.12000000000E+03 0.  0.
<mgrwt>
<rscale>  0 0.27513289E+03</rscale>
<asrwt>0</asrwt>
<pdfrwt beam="1">  1        4 0.64212872E-02 0.27513289E+03</pdfrwt>
<pdfrwt beam="2">  1       -4 0.69755141E-01 0.27513289E+03</pdfrwt>
<totfact> 0.57166153E+02</totfact>
</mgrwt>
</event>
<event>
 5    1  0.1122238E+001  0.2734798E+03  0.7818608E-02  0.1099304E+00
         -1   -1    0    0    0  501 -0.00000000000E+00  0.00000000000E+00  0.27092663155E+02  0.27092663155E+02  0.00000000000E+00 0. -1.
          1   -1    0    0  501    0  0.00000000000E+00 -0.00000000000E+00 -0.69014235355E+03  0.69014235355E+03  0.00000000000E+00 0. -1.
         35    2    1    2    0    0  0.00000000000E+00  0.00000000000E+00 -0.66304969040E+03  0.71723501670E+03  0.27347975657E+03 0.  0.
         25    1    3    3    0    0  0.25873843335E+02 -0.35133830374E+01 -0.17381812805E+03  0.21282514247E+03  0.12000000000E+03 0.  0.
         25    1    3    3    0    0 -0.25873843335E+02  0.35133830374E+01 -0.48923156234E+03  0.50440987423E+03  0.12000000000E+03 0.  0.
<mgrwt>
<rscale>  0 0.27347976E+03</rscale>
<asrwt>0</asrwt>
<pdfrwt beam="1">  1        1 0.10617574E+00 0.27347976E+03</pdfrwt>
<pdfrwt beam="2">  1       -1 0.41681022E-02 0.27347976E+03</pdfrwt>
<totfact> 0.66358019E+03</totfact>
</mgrwt>
</event>
<event>
 5    1  0.1122238E+001  0.2751810E+03  0.7818608E-02  0.1098350E+00
         -1   -1    0    0    0  501 -0.00000000000E+00  0.00000000000E+00  0.77856420123E+01  0.77856420123E+01  0.00000000000E+00 0. -1.
          1   -1    0    0  501    0  0.00000000000E+00 -0.00000000000E+00 -0.24315465632E+04  0.24315465632E+04  0.00000000000E+00 0. -1.
         35    2    1    2    0    0  0.00000000000E+00  0.00000000000E+00 -0.24237609212E+04  0.24393322053E+04  0.27518103916E+03 0.  0.
         25    1    3    3    0    0  0.42905178598E+02 -0.12515652835E+02 -0.76568392284E+03  0.77631782512E+03  0.12000000000E+03 0.  0.
         25    1    3    3    0    0 -0.42905178598E+02  0.12515652835E+02 -0.16580769984E+04  0.16630143801E+04  0.12000000000E+03 0.  0.
<mgrwt>
<rscale>  0 0.27518104E+03</rscale>
<asrwt>0</asrwt>
<pdfrwt beam="1">  1        1 0.37408459E+00 0.27518104E+03</pdfrwt>
<pdfrwt beam="2">  1       -1 0.11977895E-02 0.27518104E+03</pdfrwt>
<totfact> 0.25490520E+03</totfact>
</mgrwt>
</event>
<event>
 5    1  0.1122238E+001  0.2758252E+03  0.7818608E-02  0.1097991E+00
          2   -1    0    0  501    0  0.00000000000E+00  0.00000000000E+00  0.91833405750E+03  0.91833405750E+03  0.00000000000E+00 0.  1.
         -2   -1    0    0    0  501 -0.00000000000E+00 -0.00000000000E+00 -0.20711291970E+02  0.20711291970E+02  0.00000000000E+00 0.  1.
         35    2    1    2    0    0  0.00000000000E+00  0.00000000000E+00  0.89762276553E+03  0.93904534947E+03  0.27582519675E+03 0.  0.
         25    1    3    3    0    0  0.31114241800E+02 -0.59987387528E+02  0.47366701026E+03  0.49328188626E+03  0.12000000000E+03 0.  0.
         25    1    3    3    0    0 -0.31114241800E+02  0.59987387528E+02  0.42395575528E+03  0.44576346321E+03  0.12000000000E+03 0.  0.
<mgrwt>
<rscale>  0 0.27582520E+03</rscale>
<asrwt>0</asrwt>
<pdfrwt beam="1">  1        2 0.14128213E+00 0.27582520E+03</pdfrwt>
<pdfrwt beam="2">  1       -2 0.31863533E-02 0.27582520E+03</pdfrwt>
<totfact> 0.11409614E+04</totfact>
</mgrwt>
</event>
<event>
 5    1  0.1122238E+001  0.2752383E+03  0.7818608E-02  0.1098318E+00
          2   -1    0    0  501    0  0.00000000000E+00  0.00000000000E+00  0.77479519153E+03  0.77479519153E+03  0.00000000000E+00 0. -1.
         -2   -1    0    0    0  501 -0.00000000000E+00 -0.00000000000E+00 -0.24443926514E+02  0.24443926514E+02  0.00000000000E+00 0. -1.
         35    2    1    2    0    0  0.00000000000E+00  0.00000000000E+00  0.75035126502E+03  0.79923911805E+03  0.27523834562E+03 0.  0.
         25    1    3    3    0    0  0.53848781120E+02 -0.39870746759E+02  0.39564058400E+03  0.41883271050E+03  0.12000000000E+03 0.  0.
         25    1    3    3    0    0 -0.53848781120E+02  0.39870746759E+02  0.35471068102E+03  0.38040640755E+03  0.12000000000E+03 0.  0.
<mgrwt>
<rscale>  0 0.27523835E+03</rscale>
<asrwt>0</asrwt>
<pdfrwt beam="1">  1        2 0.11919924E+00 0.27523835E+03</pdfrwt>
<pdfrwt beam="2">  1       -2 0.37606047E-02 0.27523835E+03</pdfrwt>
<totfact> 0.11109726E+04</totfact>
</mgrwt>
</event>
<event>
 5    1  0.1122238E+001  0.2727351E+03  0.7818608E-02  0.1099724E+00
         -2   -1    0    0    0  501 -0.00000000000E+00  0.00000000000E+00  0.50830763245E+01  0.50830763245E+01  0.00000000000E+00 0. -1.
          2   -1    0    0  501    0  0.00000000000E+00 -0.00000000000E+00 -0.36584354325E+04  0.36584354325E+04  0.00000000000E+00 0. -1.
         35    2    1    2    0    0  0.00000000000E+00  0.00000000000E+00 -0.36533523562E+04  0.36635185089E+04  0.27273508415E+03 0.  0.
         25    1    3    3    0    0 -0.13980285469E+02 -0.53653864028E+02 -0.22765995202E+04  0.22804340730E+04  0.12000000000E+03 0.  0.
         25    1    3    3    0    0  0.13980285469E+02  0.53653864028E+02 -0.13767528360E+04  0.13830844359E+04  0.12000000000E+03 0.  0.
<mgrwt>
<rscale>  0 0.27273508E+03</rscale>
<asrwt>0</asrwt>
<pdfrwt beam="1">  1        2 0.56283406E+00 0.27273508E+03</pdfrwt>
<pdfrwt beam="2">  1       -2 0.78201474E-03 0.27273508E+03</pdfrwt>
<totfact> 0.24144103E+03</totfact>
</mgrwt>
</event>
<event>
 5    1  0.1122238E+001  0.2770646E+03  0.7818608E-02  0.1097303E+00
         -1   -1    0    0    0  501 -0.00000000000E+00  0.00000000000E+00  0.24595473253E+02  0.24595473253E+02  0.00000000000E+00 0.  1.
          1   -1    0    0  501    0  0.00000000000E+00 -0.00000000000E+00 -0.78027369378E+03  0.78027369378E+03  0.00000000000E+00 0.  1.
         35    2    1    2    0    0  0.00000000000E+00  0.00000000000E+00 -0.75567822053E+03  0.80486916703E+03  0.27706461893E+03 0.  0.
         25    1    3    3    0    0  0.30321902047E+02 -0.30055746091E+02 -0.21956568421E+03  0.25383430679E+03  0.12000000000E+03 0.  0.
         25    1    3    3    0    0 -0.30321902047E+02  0.30055746091E+02 -0.53611253631E+03  0.55103486025E+03  0.12000000000E+03 0.  0.
<mgrwt>
<rscale>  0 0.27706462E+03</rscale>
<asrwt>0</asrwt>
<pdfrwt beam="1">  1        1 0.12004210E+00 0.27706462E+03</pdfrwt>
<pdfrwt beam="2">  1       -1 0.37839192E-02 0.27706462E+03</pdfrwt>
<totfact> 0.63865568E+03</totfact>
</mgrwt>
</event>
<event>
 5    1  0.1122238E+001  0.2761826E+03  0.7818608E-02  0.1097792E+00
         -1   -1    0    0    0  501 -0.00000000000E+00  0.00000000000E+00  0.23733705357E+02  0.23733705357E+02  0.00000000000E+00 0. -1.
          1   -1    0    0  501    0  0.00000000000E+00 -0.00000000000E+00 -0.80346530062E+03  0.80346530062E+03  0.00000000000E+00 0. -1.
         35    2    1    2    0    0  0.00000000000E+00  0.00000000000E+00 -0.77973159526E+03  0.82719900598E+03  0.27618261140E+03 0.  0.
         25    1    3    3    0    0 -0.45877271541E+02 -0.31577412415E+02 -0.50844182619E+03  0.52537124744E+03  0.12000000000E+03 0.  0.
         25    1    3    3    0    0  0.45877271541E+02  0.31577412415E+02 -0.27128976908E+03  0.30182775854E+03  0.12000000000E+03 0.  0.
<mgrwt>
<rscale>  0 0.27618261E+03</rscale>
<asrwt>0</asrwt>
<pdfrwt beam="1">  1        1 0.12361003E+00 0.27618261E+03</pdfrwt>
<pdfrwt beam="2">  1       -1 0.36513396E-02 0.27618261E+03</pdfrwt>
<totfact> 0.64374613E+03</totfact>
</mgrwt>
</event>
<event>
 5    1  0.1122238E+001  0.2755289E+03  0.7818608E-02  0.1098156E+00
         -1   -1    0    0    0  501 -0.00000000000E+00  0.00000000000E+00  0.70354965508E+02  0.70354965508E+02  0.00000000000E+00 0.  1.
          1   -1    0    0  501    0  0.00000000000E+00 -0.00000000000E+00 -0.26976132505E+03  0.26976132505E+03  0.00000000000E+00 0.  1.
         35    2    1    2    0    0  0.00000000000E+00  0.00000000000E+00 -0.19940635954E+03  0.34011629056E+03  0.27552893655E+03 0.  0.
         25    1    3    3    0    0 -0.37490980640E+02  0.56322639813E+02 -0.10107517468E+03  0.17086253048E+03  0.12000000000E+03 0.  0.
         25    1    3    3    0    0  0.37490980640E+02 -0.56322639813E+02 -0.98331184868E+02  0.16925376008E+03  0.12000000000E+03 0.  0.
<mgrwt>
<rscale>  0 0.27552894E+03</rscale>
<asrwt>0</asrwt>
<pdfrwt beam="1">  1        1 0.41501742E-01 0.27552894E+03</pdfrwt>
<pdfrwt beam="2">  1       -1 0.10823841E-01 0.27552894E+03</pdfrwt>
<totfact> 0.53654731E+03</totfact>
</mgrwt>
</event>
<event>
 5    1  0.1122238E+001  0.2745160E+03  0.7818608E-02  0.1098722E+00
          1   -1    0    0  501    0  0.00000000000E+00  0.00000000000E+00  0.13703856213E+04  0.13703856213E+04  0.00000000000E+00 0.  1.
         -1   -1    0    0    0  501 -0.00000000000E+00 -0.00000000000E+00 -0.13747780399E+02  0.13747780399E+02  0.00000000000E+00 0.  1.
         35    2    1    2    0    0  0.00000000000E+00  0.00000000000E+00  0.13566378409E+04  0.13841334017E+04  0.27451601471E+03 0.  0.
         25    1    3    3    0    0 -0.44230852427E+02 -0.49739608579E+02  0.66289012383E+03  0.67694439450E+03  0.12000000000E+03 0.  0.
         25    1    3    3    0    0  0.44230852427E+02  0.49739608579E+02  0.69374771710E+03  0.70718900723E+03  0.12000000000E+03 0.  0.
<mgrwt>
<rscale>  0 0.27451601E+03</rscale>
<asrwt>0</asrwt>
<pdfrwt beam="1">  1        1 0.21082845E+00 0.27451601E+03</pdfrwt>
<pdfrwt beam="2">  1       -1 0.21150442E-02 0.27451601E+03</pdfrwt>
<totfact> 0.55202135E+03</totfact>
</mgrwt>
</event>
<event>
 5    1  0.1122238E+001  0.2749079E+03  0.7818608E-02  0.1098503E+00
          2   -1    0    0  501    0  0.00000000000E+00  0.00000000000E+00  0.81193855181E+02  0.81193855181E+02  0.00000000000E+00 0.  1.
         -2   -1    0    0    0  501 -0.00000000000E+00 -0.00000000000E+00 -0.23269721645E+03  0.23269721645E+03  0.00000000000E+00 0.  1.
         35    2    1    2    0    0  0.00000000000E+00  0.00000000000E+00 -0.15150336127E+03  0.31389107163E+03  0.27490786888E+03 0.  0.
         25    1    3    3    0    0 -0.49121744796E+02  0.36803570725E+02 -0.44983585093E+02  0.14209493854E+03  0.12000000000E+03 0.  0.
         25    1    3    3    0    0  0.49121744796E+02 -0.36803570725E+02 -0.10651977618E+03  0.17179613310E+03  0.12000000000E+03 0.  0.
<mgrwt>
<rscale>  0 0.27490787E+03</rscale>
<asrwt>0</asrwt>
<pdfrwt beam="1">  1        2 0.12491363E-01 0.27490787E+03</pdfrwt>
<pdfrwt beam="2">  1       -2 0.35799571E-01 0.27490787E+03</pdfrwt>
<totfact> 0.35631307E+03</totfact>
</mgrwt>
</event>
<event>
 5    1  0.1122238E+001  0.2749259E+03  0.7818608E-02  0.1098493E+00
          1   -1    0    0  501    0  0.00000000000E+00  0.00000000000E+00  0.89372607153E+03  0.89372607153E+03  0.00000000000E+00 0. -1.
         -1   -1    0    0    0  501 -0.00000000000E+00 -0.00000000000E+00 -0.21143010476E+02  0.21143010476E+02  0.00000000000E+00 0. -1.
         35    2    1    2    0    0  0.00000000000E+00  0.00000000000E+00  0.87258306106E+03  0.91486908201E+03  0.27492587869E+03 0.  0.
         25    1    3    3    0    0  0.10813812914E+01  0.25846388216E+02  0.23043516276E+03  0.26109302826E+03  0.12000000000E+03 0.  0.
         25    1    3    3    0    0 -0.10813812914E+01 -0.25846388216E+02  0.64214789829E+03  0.65377605375E+03  0.12000000000E+03 0.  0.
<mgrwt>
<rscale>  0 0.27492588E+03</rscale>
<asrwt>0</asrwt>
<pdfrwt beam="1">  1        1 0.13749629E+00 0.27492588E+03</pdfrwt>
<pdfrwt beam="2">  1       -1 0.32527715E-02 0.27492588E+03</pdfrwt>
<totfact> 0.64549231E+03</totfact>
</mgrwt>
</event>
<event>
 5    1  0.1122238E+001  0.2763715E+03  0.7818608E-02  0.1097687E+00
          1   -1    0    0  501    0  0.00000000000E+00  0.00000000000E+00  0.10651798565E+04  0.10651798565E+04  0.00000000000E+00 0. -1.
         -1   -1    0    0    0  501 -0.00000000000E+00 -0.00000000000E+00 -0.17926828455E+02  0.17926828455E+02  0.00000000000E+00 0. -1.
         35    2    1    2    0    0  0.00000000000E+00  0.00000000000E+00  0.10472530280E+04  0.10831066849E+04  0.27637146423E+03 0.  0.
         25    1    3    3    0    0  0.43288304171E+02  0.48125548786E+02  0.61172623462E+03  0.62673673248E+03  0.12000000000E+03 0.  0.
         25    1    3    3    0    0 -0.43288304171E+02 -0.48125548786E+02  0.43552679340E+03  0.45636995244E+03  0.12000000000E+03 0.  0.
<mgrwt>
<rscale>  0 0.27637146E+03</rscale>
<asrwt>0</asrwt>
<pdfrwt beam="1">  1        1 0.16387377E+00 0.27637146E+03</pdfrwt>
<pdfrwt beam="2">  1       -1 0.27579744E-02 0.27637146E+03</pdfrwt>
<totfact> 0.61087345E+03</totfact>
</mgrwt>
</event>
<event>
 5    1  0.1122238E+001  0.2739589E+03  0.7818608E-02  0.1099035E+00
         -2   -1    0    0    0  501 -0.00000000000E+00  0.00000000000E+00  0.90316600427E+01  0.90316600427E+01  0.00000000000E+00 0.  1.
          2   -1    0    0  501    0  0.00000000000E+00 -0.00000000000E+00 -0.20775107935E+04  0.20775107935E+04  0.00000000000E+00 0.  1.
         35    2    1    2    0    0  0.00000000000E+00  0.00000000000E+00 -0.20684791335E+04  0.20865424536E+04  0.27395891095E+03 0.  0.
         25    1    3    3    0    0  0.43750259373E+01 -0.56674580680E+02 -0.77796374088E+03  0.78921399574E+03  0.12000000000E+03 0.  0.
         25    1    3    3    0    0 -0.43750259373E+01  0.56674580680E+02 -0.12905153926E+04  0.12973284578E+04  0.12000000000E+03 0.  0.
<mgrwt>
<rscale>  0 0.27395891E+03</rscale>
<asrwt>0</asrwt>
<pdfrwt beam="1">  1        2 0.31961710E+00 0.27395891E+03</pdfrwt>
<pdfrwt beam="2">  1       -2 0.13894859E-02 0.27395891E+03</pdfrwt>
<totfact> 0.89231026E+03</totfact>
</mgrwt>
</event>
<event>
 5    1  0.1122238E+001  0.2750816E+03  0.7818608E-02  0.1098406E+00
         -2   -1    0    0    0  501 -0.00000000000E+00  0.00000000000E+00  0.11670381848E+02  0.11670381848E+02  0.00000000000E+00 0.  1.
          2   -1    0    0  501    0  0.00000000000E+00 -0.00000000000E+00 -0.16209816603E+04  0.16209816603E+04  0.00000000000E+00 0.  1.
         35    2    1    2    0    0  0.00000000000E+00  0.00000000000E+00 -0.16093112785E+04  0.16326520422E+04  0.27508162385E+03 0.  0.
         25    1    3    3    0    0 -0.42156364579E+02  0.16416913079E+02 -0.10996752775E+04  0.11071279918E+04  0.12000000000E+03 0.  0.
         25    1    3    3    0    0  0.42156364579E+02 -0.16416913079E+02 -0.50963600094E+03  0.52552405041E+03  0.12000000000E+03 0.  0.
<mgrwt>
<rscale>  0 0.27508162E+03</rscale>
<asrwt>0</asrwt>
<pdfrwt beam="1">  1        2 0.24938183E+00 0.27508162E+03</pdfrwt>
<pdfrwt beam="2">  1       -2 0.17954431E-02 0.27508162E+03</pdfrwt>
<totfact> 0.10658311E+04</totfact>
</mgrwt>
</event>
<event>
 5    1  0.1122238E+001  0.2754478E+03  0.7818608E-02  0.1098202E+00
          1   -1    0    0  501    0  0.00000000000E+00  0.00000000000E+00  0.24255445240E+03  0.24255445240E+03  0.00000000000E+00 0.  1.
         -1   -1    0    0    0  501 -0.00000000000E+00 -0.00000000000E+00 -0.78200451321E+02  0.78200451321E+02  0.00000000000E+00 0.  1.
         35    2    1    2    0    0  0.00000000000E+00  0.00000000000E+00  0.16435400108E+03  0.32075490372E+03  0.27544776382E+03 0.  0.
         25    1    3    3    0    0  0.23890719894E+02  0.23645373504E+02  0.15045594986E+03  0.19536341273E+03  0.12000000000E+03 0.  0.
         25    1    3    3    0    0 -0.23890719894E+02 -0.23645373504E+02  0.13898051217E+02  0.12539149099E+03  0.12000000000E+03 0.  0.
<mgrwt>
<rscale>  0 0.27544776E+03</rscale>
<asrwt>0</asrwt>
<pdfrwt beam="1">  1        1 0.37316069E-01 0.27544776E+03</pdfrwt>
<pdfrwt beam="2">  1       -1 0.12030839E-01 0.27544776E+03</pdfrwt>
<totfact> 0.52004867E+03</totfact>
</mgrwt>
</event>
<event>
 5    1  0.1122238E+001  0.2745727E+03  0.7818608E-02  0.1098691E+00
          2   -1    0    0  501    0  0.00000000000E+00  0.00000000000E+00  0.55816306407E+03  0.55816306407E+03  0.00000000000E+00 0. -1.
         -2   -1    0    0    0  501 -0.00000000000E+00 -0.00000000000E+00 -0.33767089749E+02  0.33767089749E+02  0.00000000000E+00 0. -1.
         35    2    1    2    0    0  0.00000000000E+00  0.00000000000E+00  0.52439597432E+03  0.59193015382E+03  0.27457270279E+03 0.  0.
         25    1    3    3    0    0  0.15269210058E+02 -0.32814205253E+02  0.14144069188E+03  0.18898515857E+03  0.12000000000E+03 0.  0.
         25    1    3    3    0    0 -0.15269210058E+02  0.32814205253E+02  0.38295528244E+03  0.40294499525E+03  0.12000000000E+03 0.  0.
<mgrwt>
<rscale>  0 0.27457270E+03</rscale>
<asrwt>0</asrwt>
<pdfrwt beam="1">  1        2 0.85871234E-01 0.27457270E+03</pdfrwt>
<pdfrwt beam="2">  1       -2 0.51949373E-02 0.27457270E+03</pdfrwt>
<totfact> 0.10083855E+04</totfact>
</mgrwt>
</event>
<event>
 5    1  0.1122238E+001  0.2751008E+03  0.7818608E-02  0.1098395E+00
         -3   -1    0    0    0  501 -0.00000000000E+00  0.00000000000E+00  0.83837406812E+02  0.83837406812E+02  0.00000000000E+00 0. -1.
          3   -1    0    0  501    0  0.00000000000E+00 -0.00000000000E+00 -0.22567623842E+03  0.22567623842E+03  0.00000000000E+00 0. -1.
         35    2    1    2    0    0  0.00000000000E+00  0.00000000000E+00 -0.14183883161E+03  0.30951364523E+03  0.27510078596E+03 0.  0.
         25    1    3    3    0    0 -0.17446913144E+02 -0.64855837002E+02 -0.74375524466E+02  0.15634063135E+03  0.12000000000E+03 0.  0.
         25    1    3    3    0    0  0.17446913144E+02  0.64855837002E+02 -0.67463307146E+02  0.15317301388E+03  0.12000000000E+03 0.  0.
<mgrwt>
<rscale>  0 0.27510079E+03</rscale>
<asrwt>0</asrwt>
<pdfrwt beam="1">  1        3 0.34719421E-01 0.27510079E+03</pdfrwt>
<pdfrwt beam="2">  1       -3 0.12898063E-01 0.27510079E+03</pdfrwt>
<totfact> 0.99695731E+02</totfact>
</mgrwt>
</event>
<event>
 5    1  0.1122238E+001  0.2749627E+03  0.7818608E-02  0.1098472E+00
          1   -1    0    0  501    0  0.00000000000E+00  0.00000000000E+00  0.21073675734E+04  0.21073675734E+04  0.00000000000E+00 0.  1.
         -1   -1    0    0    0  501 -0.00000000000E+00 -0.00000000000E+00 -0.89690697916E+01  0.89690697916E+01  0.00000000000E+00 0.  1.
         35    2    1    2    0    0  0.00000000000E+00  0.00000000000E+00  0.20983985036E+04  0.21163366432E+04  0.27496273815E+03 0.  0.
         25    1    3    3    0    0 -0.24619213286E+02  0.40381413973E+02  0.68294397310E+03  0.69501743478E+03  0.12000000000E+03 0.  0.
         25    1    3    3    0    0  0.24619213286E+02 -0.40381413973E+02  0.14154545305E+04  0.14213192084E+04  0.12000000000E+03 0.  0.
<mgrwt>
<rscale>  0 0.27496274E+03</rscale>
<asrwt>0</asrwt>
<pdfrwt beam="1">  1        1 0.32421000E+00 0.27496274E+03</pdfrwt>
<pdfrwt beam="2">  1       -1 0.13798586E-02 0.27496274E+03</pdfrwt>
<totfact> 0.33858882E+03</totfact>
</mgrwt>
</event>
<event>
 5    1  0.1122238E+001  0.2747525E+03  0.7818608E-02  0.1098590E+00
          1   -1    0    0  501    0  0.00000000000E+00  0.00000000000E+00  0.10220705932E+04  0.10220705932E+04  0.00000000000E+00 0.  1.
         -1   -1    0    0    0  501 -0.00000000000E+00 -0.00000000000E+00 -0.18464708443E+02  0.18464708443E+02  0.00000000000E+00 0.  1.
         35    2    1    2    0    0  0.00000000000E+00  0.00000000000E+00  0.10036058847E+04  0.10405353016E+04  0.27475251053E+03 0.  0.
         25    1    3    3    0    0 -0.18264142693E+02  0.44040663366E+02  0.32420606501E+03  0.34897382643E+03  0.12000000000E+03 0.  0.
         25    1    3    3    0    0  0.18264142693E+02 -0.44040663366E+02  0.67939981970E+03  0.69156147517E+03  0.12000000000E+03 0.  0.
<mgrwt>
<rscale>  0 0.27475251E+03</rscale>
<asrwt>0</asrwt>
<pdfrwt beam="1">  1        1 0.15724159E+00 0.27475251E+03</pdfrwt>
<pdfrwt beam="2">  1       -1 0.28407252E-02 0.27475251E+03</pdfrwt>
<totfact> 0.62907696E+03</totfact>
</mgrwt>
</event>
<event>
 5    1  0.1122238E+001  0.2749672E+03  0.7818608E-02  0.1098470E+00
         -2   -1    0    0    0  501 -0.00000000000E+00  0.00000000000E+00  0.64550632677E+02  0.64550632677E+02  0.00000000000E+00 0.  1.
          2   -1    0    0  501    0  0.00000000000E+00 -0.00000000000E+00 -0.29282035927E+03  0.29282035927E+03  0.00000000000E+00 0.  1.
         35    2    1    2    0    0  0.00000000000E+00  0.00000000000E+00 -0.22826972659E+03  0.35737099195E+03  0.27496719405E+03 0.  0.
         25    1    3    3    0    0  0.61766142734E+02  0.79691424297E+01 -0.81690166726E+02  0.15796153633E+03  0.12000000000E+03 0.  0.
         25    1    3    3    0    0 -0.61766142734E+02 -0.79691424297E+01 -0.14657955987E+03  0.19940945562E+03  0.12000000000E+03 0.  0.
<mgrwt>
<rscale>  0 0.27496719E+03</rscale>
<asrwt>0</asrwt>
<pdfrwt beam="1">  1        2 0.45049286E-01 0.27496719E+03</pdfrwt>
<pdfrwt beam="2">  1       -2 0.99308667E-02 0.27496719E+03</pdfrwt>
<totfact> 0.74757930E+03</totfact>
</mgrwt>
</event>
<event>
 5    1  0.1122238E+001  0.2765565E+03  0.7818608E-02  0.1097585E+00
          2   -1    0    0  501    0  0.00000000000E+00  0.00000000000E+00  0.38696908653E+02  0.38696908653E+02  0.00000000000E+00 0. -1.
         -2   -1    0    0    0  501 -0.00000000000E+00 -0.00000000000E+00 -0.49411877673E+03  0.49411877673E+03  0.00000000000E+00 0. -1.
         35    2    1    2    0    0  0.00000000000E+00  0.00000000000E+00 -0.45542186808E+03  0.53281568539E+03  0.27655646199E+03 0.  0.
         25    1    3    3    0    0  0.13889699441E+02 -0.26402165415E+02 -0.10846544496E+03  0.16448328438E+03  0.12000000000E+03 0.  0.
         25    1    3    3    0    0 -0.13889699441E+02  0.26402165415E+02 -0.34695642312E+03  0.36833240101E+03  0.12000000000E+03 0.  0.
<mgrwt>
<rscale>  0 0.27655646E+03</rscale>
<asrwt>0</asrwt>
<pdfrwt beam="1">  1        2 0.59533711E-02 0.27655646E+03</pdfrwt>
<pdfrwt beam="2">  1       -2 0.76018266E-01 0.27655646E+03</pdfrwt>
<totfact> 0.19863075E+03</totfact>
</mgrwt>
</event>
<event>
 5    1  0.1122238E+001  0.2746031E+03  0.7818608E-02  0.1098674E+00
         -2   -1    0    0    0  501 -0.00000000000E+00  0.00000000000E+00  0.63695106163E+02  0.63695106163E+02  0.00000000000E+00 0.  1.
          2   -1    0    0  501    0  0.00000000000E+00 -0.00000000000E+00 -0.29596793588E+03  0.29596793588E+03  0.00000000000E+00 0.  1.
         35    2    1    2    0    0  0.00000000000E+00  0.00000000000E+00 -0.23227282972E+03  0.35966304204E+03  0.27460305240E+03 0.  0.
         25    1    3    3    0    0  0.44936415042E+02 -0.31023584897E+02 -0.65920204810E+02  0.14740155229E+03  0.12000000000E+03 0.  0.
         25    1    3    3    0    0 -0.44936415042E+02  0.31023584897E+02 -0.16635262491E+03  0.21226148975E+03  0.12000000000E+03 0.  0.
<mgrwt>
<rscale>  0 0.27460305E+03</rscale>
<asrwt>0</asrwt>
<pdfrwt beam="1">  1        2 0.45533528E-01 0.27460305E+03</pdfrwt>
<pdfrwt beam="2">  1       -2 0.97992473E-02 0.27460305E+03</pdfrwt>
<totfact> 0.75481665E+03</totfact>
</mgrwt>
</event>
<event>
 5    1  0.1122238E+001  0.2744083E+03  0.7818608E-02  0.1098783E+00
          2   -1    0    0  501    0  0.00000000000E+00  0.00000000000E+00  0.11618659855E+04  0.11618659855E+04  0.00000000000E+00 0.  1.
         -2   -1    0    0    0  501 -0.00000000000E+00 -0.00000000000E+00 -0.16202365455E+02  0.16202365455E+02  0.00000000000E+00 0.  1.
         35    2    1    2    0    0  0.00000000000E+00  0.00000000000E+00  0.11456636200E+04  0.11780683509E+04  0.27440828928E+03 0.  0.
         25    1    3    3    0    0 -0.73795977891E+01 -0.52930267211E+02  0.40278375193E+03  0.42366357227E+03  0.12000000000E+03 0.  0.
         25    1    3    3    0    0  0.73795977891E+01  0.52930267211E+02  0.74287986807E+03  0.75440477864E+03  0.12000000000E+03 0.  0.
<mgrwt>
<rscale>  0 0.27440829E+03</rscale>
<asrwt>0</asrwt>
<pdfrwt beam="1">  1        2 0.17874855E+00 0.27440829E+03</pdfrwt>
<pdfrwt beam="2">  1       -2 0.24926725E-02 0.27440829E+03</pdfrwt>
<totfact> 0.11711994E+04</totfact>
</mgrwt>
</event>
<event>
 5    1  0.1122238E+001  0.2775047E+03  0.7818608E-02  0.1097060E+00
         -3   -1    0    0    0  501 -0.00000000000E+00  0.00000000000E+00  0.34655038224E+03  0.34655038224E+03  0.00000000000E+00 0. -1.
          3   -1    0    0  501    0  0.00000000000E+00 -0.00000000000E+00 -0.55553874670E+02  0.55553874670E+02  0.00000000000E+00 0. -1.
         35    2    1    2    0    0  0.00000000000E+00  0.00000000000E+00  0.29099650757E+03  0.40210425691E+03  0.27750471349E+03 0.  0.
         25    1    3    3    0    0  0.51115708601E+02 -0.29262629176E+02  0.91609889860E+02  0.16205396957E+03  0.12000000000E+03 0.  0.
         25    1    3    3    0    0 -0.51115708601E+02  0.29262629176E+02  0.19938661771E+03  0.24005028735E+03  0.12000000000E+03 0.  0.
<mgrwt>
<rscale>  0 0.27750471E+03</rscale>
<asrwt>0</asrwt>
<pdfrwt beam="1">  1        3 0.85467502E-02 0.27750471E+03</pdfrwt>
<pdfrwt beam="2">  1       -3 0.53315442E-01 0.27750471E+03</pdfrwt>
<totfact> 0.85422526E+02</totfact>
</mgrwt>
</event>
<event>
 5    1  0.1122238E+001  0.2747180E+03  0.7818608E-02  0.1098609E+00
         -1   -1    0    0    0  501 -0.00000000000E+00  0.00000000000E+00  0.28839644145E+02  0.28839644145E+02  0.00000000000E+00 0. -1.
          1   -1    0    0  501    0  0.00000000000E+00 -0.00000000000E+00 -0.65422082940E+03  0.65422082940E+03  0.00000000000E+00 0. -1.
         35    2    1    2    0    0  0.00000000000E+00  0.00000000000E+00 -0.62538118526E+03  0.68306047355E+03  0.27471800751E+03 0.  0.
         25    1    3    3    0    0 -0.21930417836E+02  0.34634641526E+01 -0.46944378611E+03  0.48504680921E+03  0.12000000000E+03 0.  0.
         25    1    3    3    0    0  0.21930417836E+02 -0.34634641526E+01 -0.15593739915E+03  0.19801366434E+03  0.12000000000E+03 0.  0.
<mgrwt>
<rscale>  0 0.27471801E+03</rscale>
<asrwt>0</asrwt>
<pdfrwt beam="1">  1        1 0.10064936E+00 0.27471801E+03</pdfrwt>
<pdfrwt beam="2">  1       -1 0.44368681E-02 0.27471801E+03</pdfrwt>
<totfact> 0.65298718E+03</totfact>
</mgrwt>
</event>
<event>
 5    1  0.1122238E+001  0.2731631E+03  0.7818608E-02  0.1099483E+00
         -2   -1    0    0    0  501 -0.00000000000E+00  0.00000000000E+00  0.12265880600E+02  0.12265880600E+02  0.00000000000E+00 0.  1.
          2   -1    0    0  501    0  0.00000000000E+00 -0.00000000000E+00 -0.15208458843E+04  0.15208458843E+04  0.00000000000E+00 0.  1.
         35    2    1    2    0    0  0.00000000000E+00  0.00000000000E+00 -0.15085800037E+04  0.15331117649E+04  0.27316305774E+03 0.  0.
         25    1    3    3    0    0 -0.54299612769E+02 -0.33332025553E+02 -0.83267195727E+03  0.84368362571E+03  0.12000000000E+03 0.  0.
         25    1    3    3    0    0  0.54299612769E+02  0.33332025553E+02 -0.67590804647E+03  0.68942813923E+03  0.12000000000E+03 0.  0.
<mgrwt>
<rscale>  0 0.27316306E+03</rscale>
<asrwt>0</asrwt>
<pdfrwt beam="1">  1        2 0.23397637E+00 0.27316306E+03</pdfrwt>
<pdfrwt beam="2">  1       -2 0.18870579E-02 0.27316306E+03</pdfrwt>
<totfact> 0.11196818E+04</totfact>
</mgrwt>
</event>
<event>
 5    1  0.1122238E+001  0.2742187E+03  0.7818608E-02  0.1098889E+00
         -1   -1    0    0    0  501 -0.00000000000E+00  0.00000000000E+00  0.34714123048E+02  0.34714123048E+02  0.00000000000E+00 0.  1.
          1   -1    0    0  501    0  0.00000000000E+00 -0.00000000000E+00 -0.54153692463E+03  0.54153692463E+03  0.00000000000E+00 0.  1.
         35    2    1    2    0    0  0.00000000000E+00  0.00000000000E+00 -0.50682280158E+03  0.57625104768E+03  0.27421874069E+03 0.  0.
         25    1    3    3    0    0 -0.55871304652E+02 -0.35162428221E+02 -0.26686389037E+03  0.29995722199E+03  0.12000000000E+03 0.  0.
         25    1    3    3    0    0  0.55871304652E+02  0.35162428221E+02 -0.23995891121E+03  0.27629382569E+03  0.12000000000E+03 0.  0.
<mgrwt>
<rscale>  0 0.27421874E+03</rscale>
<asrwt>0</asrwt>
<pdfrwt beam="1">  1        1 0.83313374E-01 0.27421874E+03</pdfrwt>
<pdfrwt beam="2">  1       -1 0.53406343E-02 0.27421874E+03</pdfrwt>
<totfact> 0.64300951E+03</totfact>
</mgrwt>
</event>
<event>
 5    1  0.1122238E+001  0.2747863E+03  0.7818608E-02  0.1098571E+00
          1   -1    0    0  501    0  0.00000000000E+00  0.00000000000E+00  0.52510430609E+03  0.52510430609E+03  0.00000000000E+00 0.  1.
         -1   -1    0    0    0  501 -0.00000000000E+00 -0.00000000000E+00 -0.35948827857E+02  0.35948827857E+02  0.00000000000E+00 0.  1.
         35    2    1    2    0    0  0.00000000000E+00  0.00000000000E+00  0.48915547823E+03  0.56105313394E+03  0.27478634833E+03 0.  0.
         25    1    3    3    0    0  0.63726251600E+02 -0.16548306953E+02  0.26890858130E+03  0.30173946825E+03  0.12000000000E+03 0.  0.
         25    1    3    3    0    0 -0.63726251600E+02  0.16548306953E+02  0.22024689693E+03  0.25931366569E+03  0.12000000000E+03 0.  0.
<mgrwt>
<rscale>  0 0.27478635E+03</rscale>
<asrwt>0</asrwt>
<pdfrwt beam="1">  1        1 0.80785272E-01 0.27478635E+03</pdfrwt>
<pdfrwt beam="2">  1       -1 0.55305893E-02 0.27478635E+03</pdfrwt>
<totfact> 0.63601505E+03</totfact>
</mgrwt>
</event>
<event>
 5    1  0.1122238E+001  0.2652919E+03  0.7818608E-02  0.1104005E+00
         -3   -1    0    0    0  501 -0.00000000000E+00  0.00000000000E+00  0.15194662213E+04  0.15194662213E+04  0.00000000000E+00 0.  1.
          3   -1    0    0  501    0  0.00000000000E+00 -0.00000000000E+00 -0.11579693385E+02  0.11579693385E+02  0.00000000000E+00 0.  1.
         35    2    1    2    0    0  0.00000000000E+00  0.00000000000E+00  0.15078865279E+04  0.15310459146E+04  0.26529193693E+03 0.  0.
         25    1    3    3    0    0 -0.35748141217E+02  0.31085555001E+02  0.93188940135E+03  0.94077739008E+03  0.12000000000E+03 0.  0.
         25    1    3    3    0    0  0.35748141217E+02 -0.31085555001E+02  0.57599712651E+03  0.59026852455E+03  0.12000000000E+03 0.  0.
<mgrwt>
<rscale>  0 0.26529194E+03</rscale>
<asrwt>0</asrwt>
<pdfrwt beam="1">  1        3 0.17814925E-02 0.26529194E+03</pdfrwt>
<pdfrwt beam="2">  1       -3 0.23376388E+00 0.26529194E+03</pdfrwt>
<totfact> 0.29035660E+02</totfact>
</mgrwt>
</event>
<event>
 5    1  0.1122238E+001  0.2754704E+03  0.7818608E-02  0.1098189E+00
          2   -1    0    0  501    0  0.00000000000E+00  0.00000000000E+00  0.41590720876E+02  0.41590720876E+02  0.00000000000E+00 0.  1.
         -2   -1    0    0    0  501 -0.00000000000E+00 -0.00000000000E+00 -0.45613496897E+03  0.45613496897E+03  0.00000000000E+00 0.  1.
         35    2    1    2    0    0  0.00000000000E+00  0.00000000000E+00 -0.41454424809E+03  0.49772568985E+03  0.27547037718E+03 0.  0.
         25    1    3    3    0    0 -0.65696607403E+02  0.15809893445E+02 -0.21130632360E+03  0.25222283669E+03  0.12000000000E+03 0.  0.
         25    1    3    3    0    0  0.65696607403E+02 -0.15809893445E+02 -0.20323792449E+03  0.24550285315E+03  0.12000000000E+03 0.  0.
<mgrwt>
<rscale>  0 0.27547038E+03</rscale>
<asrwt>0</asrwt>
<pdfrwt beam="1">  1        2 0.63985723E-02 0.27547038E+03</pdfrwt>
<pdfrwt beam="2">  1       -2 0.70174612E-01 0.27547038E+03</pdfrwt>
<totfact> 0.21495543E+03</totfact>
</mgrwt>
</event>
<event>
 5    1  0.1122238E+001  0.2742616E+03  0.7818608E-02  0.1098865E+00
         -1   -1    0    0    0  501 -0.00000000000E+00  0.00000000000E+00  0.27111455256E+02  0.27111455256E+02  0.00000000000E+00 0.  1.
          1   -1    0    0  501    0  0.00000000000E+00 -0.00000000000E+00 -0.69361282853E+03  0.69361282853E+03  0.00000000000E+00 0.  1.
         35    2    1    2    0    0  0.00000000000E+00  0.00000000000E+00 -0.66650137328E+03  0.72072428379E+03  0.27426157708E+03 0.  0.
         25    1    3    3    0    0 -0.66334409653E+02  0.29180635570E+00 -0.32766739527E+03  0.35519890340E+03  0.12000000000E+03 0.  0.
         25    1    3    3    0    0  0.66334409653E+02 -0.29180635570E+00 -0.33883397801E+03  0.36552538039E+03  0.12000000000E+03 0.  0.
<mgrwt>
<rscale>  0 0.27426158E+03</rscale>
<asrwt>0</asrwt>
<pdfrwt beam="1">  1        1 0.10670966E+00 0.27426158E+03</pdfrwt>
<pdfrwt beam="2">  1       -1 0.41709934E-02 0.27426158E+03</pdfrwt>
<totfact> 0.65813247E+03</totfact>
</mgrwt>
</event>
<event>
 5    1  0.1122238E+001  0.2749290E+03  0.7818608E-02  0.1098491E+00
          2   -1    0    0  501    0  0.00000000000E+00  0.00000000000E+00  0.70196336140E+03  0.70196336140E+03  0.00000000000E+00 0. -1.
         -2   -1    0    0    0  501 -0.00000000000E+00 -0.00000000000E+00 -0.26919487015E+02  0.26919487015E+02  0.00000000000E+00 0. -1.
         35    2    1    2    0    0  0.00000000000E+00  0.00000000000E+00  0.67504387438E+03  0.72888284841E+03  0.27492903515E+03 0.  0.
         25    1    3    3    0    0  0.37974245543E+02  0.44021124470E+02  0.42611182642E+03  0.44648761611E+03  0.12000000000E+03 0.  0.
         25    1    3    3    0    0 -0.37974245543E+02 -0.44021124470E+02  0.24893204796E+03  0.28239523230E+03  0.12000000000E+03 0.  0.
<mgrwt>
<rscale>  0 0.27492904E+03</rscale>
<asrwt>0</asrwt>
<pdfrwt beam="1">  1        2 0.10799435E+00 0.27492904E+03</pdfrwt>
<pdfrwt beam="2">  1       -2 0.41414601E-02 0.27492904E+03</pdfrwt>
<totfact> 0.10855683E+04</totfact>
</mgrwt>
</event>
<event>
 5    1  0.1122238E+001  0.2765339E+03  0.7818608E-02  0.1097597E+00
         -2   -1    0    0    0  501 -0.00000000000E+00  0.00000000000E+00  0.13222176226E+03  0.13222176226E+03  0.00000000000E+00 0. -1.
          2   -1    0    0  501    0  0.00000000000E+00 -0.00000000000E+00 -0.14458850391E+03  0.14458850391E+03  0.00000000000E+00 0. -1.
         35    2    1    2    0    0  0.00000000000E+00  0.00000000000E+00 -0.12366741650E+02  0.27681026616E+03  0.27653388066E+03 0.  0.
         25    1    3    3    0    0  0.59965745087E+02 -0.26145870786E+02  0.14771965306E+02  0.13746893504E+03  0.12000000000E+03 0.  0.
         25    1    3    3    0    0 -0.59965745087E+02  0.26145870786E+02 -0.27138706956E+02  0.13934133112E+03  0.12000000000E+03 0.  0.
<mgrwt>
<rscale>  0 0.27653388E+03</rscale>
<asrwt>0</asrwt>
<pdfrwt beam="1">  1        2 0.22244385E-01 0.27653388E+03</pdfrwt>
<pdfrwt beam="2">  1       -2 0.20341810E-01 0.27653388E+03</pdfrwt>
<totfact> 0.49823121E+03</totfact>
</mgrwt>
</event>
<event>
 5    1  0.1122238E+001  0.2723358E+03  0.7818608E-02  0.1099950E+00
          2   -1    0    0  501    0  0.00000000000E+00  0.00000000000E+00  0.75076666417E+02  0.75076666417E+02  0.00000000000E+00 0.  1.
         -2   -1    0    0    0  501 -0.00000000000E+00 -0.00000000000E+00 -0.24697022381E+03  0.24697022381E+03  0.00000000000E+00 0.  1.
         35    2    1    2    0    0  0.00000000000E+00  0.00000000000E+00 -0.17189355739E+03  0.32204689023E+03  0.27233583024E+03 0.  0.
         25    1    3    3    0    0 -0.48193300182E+02  0.38860971672E+02 -0.10673156855E+03  0.17211739316E+03  0.12000000000E+03 0.  0.
         25    1    3    3    0    0  0.48193300182E+02 -0.38860971672E+02 -0.65161988842E+02  0.14992949707E+03  0.12000000000E+03 0.  0.
<mgrwt>
<rscale>  0 0.27233583E+03</rscale>
<asrwt>0</asrwt>
<pdfrwt beam="1">  1        2 0.11550257E-01 0.27233583E+03</pdfrwt>
<pdfrwt beam="2">  1       -2 0.37995418E-01 0.27233583E+03</pdfrwt>
<totfact> 0.35031704E+03</totfact>
</mgrwt>
</event>
<event>
 5    1  0.1122238E+001  0.2752456E+03  0.7818608E-02  0.1098314E+00
          1   -1    0    0  501    0  0.00000000000E+00  0.00000000000E+00  0.28854414480E+03  0.28854414480E+03  0.00000000000E+00 0.  1.
         -1   -1    0    0    0  501 -0.00000000000E+00 -0.00000000000E+00 -0.65639968096E+02  0.65639968096E+02  0.00000000000E+00 0.  1.
         35    2    1    2    0    0  0.00000000000E+00  0.00000000000E+00  0.22290417670E+03  0.35418411289E+03  0.27524555189E+03 0.  0.
         25    1    3    3    0    0 -0.34694535943E+02  0.36522964293E+02  0.53870561211E+02  0.14085338161E+03  0.12000000000E+03 0.  0.
         25    1    3    3    0    0  0.34694535943E+02 -0.36522964293E+02  0.16903361549E+03  0.21333073128E+03  0.12000000000E+03 0.  0.
<mgrwt>
<rscale>  0 0.27524555E+03</rscale>
<asrwt>0</asrwt>
<pdfrwt beam="1">  1        1 0.44391406E-01 0.27524555E+03</pdfrwt>
<pdfrwt beam="2">  1       -1 0.10098457E-01 0.27524555E+03</pdfrwt>
<totfact> 0.54900207E+03</totfact>
</mgrwt>
</event>
<event>
 5    1  0.1122238E+001  0.2748693E+03  0.7818608E-02  0.1098525E+00
          1   -1    0    0  501    0  0.00000000000E+00  0.00000000000E+00  0.29583408093E+04  0.29583408093E+04  0.00000000000E+00 0.  1.
         -1   -1    0    0    0  501 -0.00000000000E+00 -0.00000000000E+00 -0.63847578183E+01  0.63847578183E+01  0.00000000000E+00 0.  1.
         35    2    1    2    0    0  0.00000000000E+00  0.00000000000E+00  0.29519560514E+04  0.29647255671E+04  0.27486934795E+03 0.  0.
         25    1    3    3    0    0 -0.13405126553E+02 -0.58878543026E+02  0.17889394838E+04  0.17939762699E+04  0.12000000000E+03 0.  0.
         25    1    3    3    0    0  0.13405126553E+02  0.58878543026E+02  0.11630165677E+04  0.11707492972E+04  0.12000000000E+03 0.  0.
<mgrwt>
<rscale>  0 0.27486935E+03</rscale>
<asrwt>0</asrwt>
<pdfrwt beam="1">  1        1 0.45512826E+00 0.27486935E+03</pdfrwt>
<pdfrwt beam="2">  1       -1 0.98227280E-03 0.27486935E+03</pdfrwt>
<totfact> 0.14939818E+03</totfact>
</mgrwt>
</event>
<event>
 5    1  0.1122238E+001  0.2763277E+03  0.7818608E-02  0.1097712E+00
         -3   -1    0    0    0  501 -0.00000000000E+00  0.00000000000E+00  0.12782253937E+03  0.12782253937E+03  0.00000000000E+00 0. -1.
          3   -1    0    0  501    0  0.00000000000E+00 -0.00000000000E+00 -0.14934177797E+03  0.14934177797E+03  0.00000000000E+00 0. -1.
         35    2    1    2    0    0  0.00000000000E+00  0.00000000000E+00 -0.21519238597E+02  0.27716431735E+03  0.27632766995E+03 0.  0.
         25    1    3    3    0    0 -0.53632958916E+02  0.25543807900E+02  0.23406174709E+02  0.13592950165E+03  0.12000000000E+03 0.  0.
         25    1    3    3    0    0  0.53632958916E+02 -0.25543807900E+02 -0.44925413305E+02  0.14123481570E+03  0.12000000000E+03 0.  0.
<mgrwt>
<rscale>  0 0.27632767E+03</rscale>
<asrwt>0</asrwt>
<pdfrwt beam="1">  1        3 0.22975658E-01 0.27632767E+03</pdfrwt>
<pdfrwt beam="2">  1       -3 0.19665006E-01 0.27632767E+03</pdfrwt>
<totfact> 0.10302647E+03</totfact>
</mgrwt>
</event>
<event>
 5    1  0.1122238E+001  0.2748014E+03  0.7818608E-02  0.1098563E+00
         -1   -1    0    0    0  501 -0.00000000000E+00  0.00000000000E+00  0.68565489245E+02  0.68565489245E+02  0.00000000000E+00 0. -1.
          1   -1    0    0  501    0  0.00000000000E+00 -0.00000000000E+00 -0.27534189784E+03  0.27534189784E+03  0.00000000000E+00 0. -1.
         35    2    1    2    0    0  0.00000000000E+00  0.00000000000E+00 -0.20677640860E+03  0.34390738709E+03  0.27480139691E+03 0.  0.
         25    1    3    3    0    0  0.26698015582E+02  0.61048688842E+02 -0.11122623133E+03  0.17666635498E+03  0.12000000000E+03 0.  0.
         25    1    3    3    0    0 -0.26698015582E+02 -0.61048688842E+02 -0.95550177268E+02  0.16724103211E+03  0.12000000000E+03 0.  0.
<mgrwt>
<rscale>  0 0.27480140E+03</rscale>
<asrwt>0</asrwt>
<pdfrwt beam="1">  1        1 0.42360291E-01 0.27480140E+03</pdfrwt>
<pdfrwt beam="2">  1       -1 0.10548537E-01 0.27480140E+03</pdfrwt>
<totfact> 0.54421405E+03</totfact>
</mgrwt>
</event>
<event>
 5    1  0.1122238E+001  0.2745742E+03  0.7818608E-02  0.1098690E+00
          1   -1    0    0  501    0  0.00000000000E+00  0.00000000000E+00  0.35530703049E+03  0.35530703049E+03  0.00000000000E+00 0.  1.
         -1   -1    0    0    0  501 -0.00000000000E+00 -0.00000000000E+00 -0.53046366724E+02  0.53046366724E+02  0.00000000000E+00 0.  1.
         35    2    1    2    0    0  0.00000000000E+00  0.00000000000E+00  0.30226066377E+03  0.40835339722E+03  0.27457419427E+03 0.  0.
         25    1    3    3    0    0 -0.31493543202E+02  0.36363777444E+02  0.21982623962E+03  0.25502498544E+03  0.12000000000E+03 0.  0.
         25    1    3    3    0    0  0.31493543202E+02 -0.36363777444E+02  0.82434424150E+02  0.15332841178E+03  0.12000000000E+03 0.  0.
<mgrwt>
<rscale>  0 0.27457419E+03</rscale>
<asrwt>0</asrwt>
<pdfrwt beam="1">  1        1 0.54662619E-01 0.27457419E+03</pdfrwt>
<pdfrwt beam="2">  1       -1 0.81609797E-02 0.27457419E+03</pdfrwt>
<totfact> 0.58575709E+03</totfact>
</mgrwt>
</event>
<event>
 5    1  0.1122238E+001  0.2772421E+03  0.7818608E-02  0.1097205E+00
          1   -1    0    0  501    0  0.00000000000E+00  0.00000000000E+00  0.42108512163E+02  0.42108512163E+02  0.00000000000E+00 0.  1.
         -1   -1    0    0    0  501 -0.00000000000E+00 -0.00000000000E+00 -0.45633990190E+03  0.45633990190E+03  0.00000000000E+00 0.  1.
         35    2    1    2    0    0  0.00000000000E+00  0.00000000000E+00 -0.41423138974E+03  0.49844841407E+03  0.27724209139E+03 0.  0.
         25    1    3    3    0    0  0.61991199451E+02  0.30309024327E+02 -0.19387364870E+03  0.23821951521E+03  0.12000000000E+03 0.  0.
         25    1    3    3    0    0 -0.61991199451E+02 -0.30309024327E+02 -0.22035774104E+03  0.26022889886E+03  0.12000000000E+03 0.  0.
<mgrwt>
<rscale>  0 0.27724209E+03</rscale>
<asrwt>0</asrwt>
<pdfrwt beam="1">  1        1 0.64782329E-02 0.27724209E+03</pdfrwt>
<pdfrwt beam="2">  1       -1 0.70206136E-01 0.27724209E+03</pdfrwt>
<totfact> 0.24719053E+03</totfact>
</mgrwt>
</event>
<event>
 5    1  0.1122238E+001  0.2755094E+03  0.7818608E-02  0.1098167E+00
         -1   -1    0    0    0  501 -0.00000000000E+00  0.00000000000E+00  0.55538275956E+03  0.55538275956E+03  0.00000000000E+00 0. -1.
          1   -1    0    0  501    0  0.00000000000E+00 -0.00000000000E+00 -0.34168070161E+02  0.34168070161E+02  0.00000000000E+00 0. -1.
         35    2    1    2    0    0  0.00000000000E+00  0.00000000000E+00  0.52121468939E+03  0.58955082972E+03  0.27550939799E+03 0.  0.
         25    1    3    3    0    0 -0.28620818101E+02 -0.37971487081E+02  0.36357367359E+03  0.38580668889E+03  0.12000000000E+03 0.  0.
         25    1    3    3    0    0  0.28620818101E+02  0.37971487081E+02  0.15764101580E+03  0.20374414083E+03  0.12000000000E+03 0.  0.
<mgrwt>
<rscale>  0 0.27550940E+03</rscale>
<asrwt>0</asrwt>
<pdfrwt beam="1">  1        1 0.52566266E-02 0.27550940E+03</pdfrwt>
<pdfrwt beam="2">  1       -1 0.85443495E-01 0.27550940E+03</pdfrwt>
<totfact> 0.22014652E+03</totfact>
</mgrwt>
</event>
<event>
 5    1  0.1122238E+001  0.2754966E+03  0.7818608E-02  0.1098174E+00
          1   -1    0    0  501    0  0.00000000000E+00  0.00000000000E+00  0.11020980538E+03  0.11020980538E+03  0.00000000000E+00 0. -1.
         -1   -1    0    0    0  501 -0.00000000000E+00 -0.00000000000E+00 -0.17216789403E+03  0.17216789403E+03  0.00000000000E+00 0. -1.
         35    2    1    2    0    0  0.00000000000E+00  0.00000000000E+00 -0.61958088659E+02  0.28237769941E+03  0.27549657053E+03 0.  0.
         25    1    3    3    0    0 -0.63576506012E+02 -0.13156775932E+02 -0.50413574653E+02  0.14545308996E+03  0.12000000000E+03 0.  0.
         25    1    3    3    0    0  0.63576506012E+02  0.13156775932E+02 -0.11544514006E+02  0.13692460945E+03  0.12000000000E+03 0.  0.
<mgrwt>
<rscale>  0 0.27549657E+03</rscale>
<asrwt>0</asrwt>
<pdfrwt beam="1">  1        1 0.16955355E-01 0.27549657E+03</pdfrwt>
<pdfrwt beam="2">  1       -1 0.26487368E-01 0.27549657E+03</pdfrwt>
<totfact> 0.39813718E+03</totfact>
</mgrwt>
</event>
<event>
 5    1  0.1122238E+001  0.2755264E+03  0.7818608E-02  0.1098158E+00
          2   -1    0    0  501    0  0.00000000000E+00  0.00000000000E+00  0.42915539286E+03  0.42915539286E+03  0.00000000000E+00 0.  1.
         -2   -1    0    0    0  501 -0.00000000000E+00 -0.00000000000E+00 -0.44223375581E+02  0.44223375581E+02  0.00000000000E+00 0.  1.
         35    2    1    2    0    0  0.00000000000E+00  0.00000000000E+00  0.38493201728E+03  0.47337876844E+03  0.27552640615E+03 0.  0.
         25    1    3    3    0    0  0.17456681768E+02  0.62795402194E+02  0.22370980925E+03  0.26209554943E+03  0.12000000000E+03 0.  0.
         25    1    3    3    0    0 -0.17456681768E+02 -0.62795402194E+02  0.16122220803E+03  0.21128321901E+03  0.12000000000E+03 0.  0.
<mgrwt>
<rscale>  0 0.27552641E+03</rscale>
<asrwt>0</asrwt>
<pdfrwt beam="1">  1        2 0.66023904E-01 0.27552641E+03</pdfrwt>
<pdfrwt beam="2">  1       -2 0.68035965E-02 0.27552641E+03</pdfrwt>
<totfact> 0.89410870E+03</totfact>
</mgrwt>
</event>
<event>
 5    1  0.1122238E+001  0.2748148E+03  0.7818608E-02  0.1098555E+00
         -1   -1    0    0    0  501 -0.00000000000E+00  0.00000000000E+00  0.45300499291E+03  0.45300499291E+03  0.00000000000E+00 0. -1.
          1   -1    0    0  501    0  0.00000000000E+00 -0.00000000000E+00 -0.41678981475E+02  0.41678981475E+02  0.00000000000E+00 0. -1.
         35    2    1    2    0    0  0.00000000000E+00  0.00000000000E+00  0.41132601144E+03  0.49468397439E+03  0.27481475003E+03 0.  0.
         25    1    3    3    0    0 -0.14226117851E+02 -0.44695947326E+02  0.29162760701E+03  0.31882090789E+03  0.12000000000E+03 0.  0.
         25    1    3    3    0    0  0.14226117851E+02  0.44695947326E+02  0.11969840443E+03  0.17586306650E+03  0.12000000000E+03 0.  0.
<mgrwt>
<rscale>  0 0.27481475E+03</rscale>
<asrwt>0</asrwt>
<pdfrwt beam="1">  1        1 0.64121513E-02 0.27481475E+03</pdfrwt>
<pdfrwt beam="2">  1       -1 0.69693072E-01 0.27481475E+03</pdfrwt>
<totfact> 0.25434404E+03</totfact>
</mgrwt>
</event>
<event>
 5    1  0.1122238E+001  0.2738411E+03  0.7818608E-02  0.1099101E+00
         -2   -1    0    0    0  501 -0.00000000000E+00  0.00000000000E+00  0.50609909722E+02  0.50609909722E+02  0.00000000000E+00 0. -1.
          2   -1    0    0  501    0  0.00000000000E+00 -0.00000000000E+00 -0.37042632694E+03  0.37042632694E+03  0.00000000000E+00 0. -1.
         35    2    1    2    0    0  0.00000000000E+00  0.00000000000E+00 -0.31981641721E+03  0.42103623666E+03  0.27384114348E+03 0.  0.
         25    1    3    3    0    0 -0.44252402999E+02  0.48495251291E+02 -0.16928309688E+03  0.21763922317E+03  0.12000000000E+03 0.  0.
         25    1    3    3    0    0  0.44252402999E+02 -0.48495251291E+02 -0.15053332033E+03  0.20339701349E+03  0.12000000000E+03 0.  0.
<mgrwt>
<rscale>  0 0.27384114E+03</rscale>
<asrwt>0</asrwt>
<pdfrwt beam="1">  1        2 0.56988665E-01 0.27384114E+03</pdfrwt>
<pdfrwt beam="2">  1       -2 0.77861401E-02 0.27384114E+03</pdfrwt>
<totfact> 0.85077512E+03</totfact>
</mgrwt>
</event>
<event>
 5    1  0.1122238E+001  0.2749883E+03  0.7818608E-02  0.1098458E+00
          2   -1    0    0  501    0  0.00000000000E+00  0.00000000000E+00  0.50561201819E+03  0.50561201819E+03  0.00000000000E+00 0. -1.
         -2   -1    0    0    0  501 -0.00000000000E+00 -0.00000000000E+00 -0.37389631771E+02  0.37389631771E+02  0.00000000000E+00 0. -1.
         35    2    1    2    0    0  0.00000000000E+00  0.00000000000E+00  0.46822238642E+03  0.54300164996E+03  0.27498834288E+03 0.  0.
         25    1    3    3    0    0 -0.14122298699E+02  0.33639046839E+01  0.36350468237E+03  0.38307493951E+03  0.12000000000E+03 0.  0.
         25    1    3    3    0    0  0.14122298699E+02 -0.33639046839E+01  0.10471770405E+03  0.15992671046E+03  0.12000000000E+03 0.  0.
<mgrwt>
<rscale>  0 0.27498834E+03</rscale>
<asrwt>0</asrwt>
<pdfrwt beam="1">  1        2 0.77786460E-01 0.27498834E+03</pdfrwt>
<pdfrwt beam="2">  1       -2 0.57522514E-02 0.27498834E+03</pdfrwt>
<totfact> 0.96532192E+03</totfact>
</mgrwt>
</event>
<event>
 5    1  0.1122238E+001  0.2746009E+03  0.7818608E-02  0.1098675E+00
          2   -1    0    0  501    0  0.00000000000E+00  0.00000000000E+00  0.29623848002E+02  0.29623848002E+02  0.00000000000E+00 0.  1.
         -2   -1    0    0    0  501 -0.00000000000E+00 -0.00000000000E+00 -0.63635941045E+03  0.63635941045E+03  0.00000000000E+00 0.  1.
         35    2    1    2    0    0  0.00000000000E+00  0.00000000000E+00 -0.60673556245E+03  0.66598325845E+03  0.27460090641E+03 0.  0.
         25    1    3    3    0    0 -0.59801066238E+02  0.36514746683E+01 -0.23216561163E+03  0.26812379979E+03  0.12000000000E+03 0.  0.
         25    1    3    3    0    0  0.59801066238E+02 -0.36514746683E+01 -0.37456995082E+03  0.39785945866E+03  0.12000000000E+03 0.  0.
<mgrwt>
<rscale>  0 0.27460091E+03</rscale>
<asrwt>0</asrwt>
<pdfrwt beam="1">  1        2 0.45575153E-02 0.27460091E+03</pdfrwt>
<pdfrwt beam="2">  1       -2 0.97901442E-01 0.27460091E+03</pdfrwt>
<totfact> 0.16012159E+03</totfact>
</mgrwt>
</event>
<event>
 5    1  0.1122238E+001  0.2718564E+03  0.7818608E-02  0.1100222E+00
         -1   -1    0    0    0  501 -0.00000000000E+00  0.00000000000E+00  0.54818275262E+02  0.54818275262E+02  0.00000000000E+00 0.  1.
          1   -1    0    0  501    0  0.00000000000E+00 -0.00000000000E+00 -0.33704947679E+03  0.33704947679E+03  0.00000000000E+00 0.  1.
         35    2    1    2    0    0  0.00000000000E+00  0.00000000000E+00 -0.28223120153E+03  0.39186775205E+03  0.27185636646E+03 0.  0.
         25    1    3    3    0    0  0.58978737846E+02  0.15772343814E+02 -0.16805233865E+03  0.21533426776E+03  0.12000000000E+03 0.  0.
         25    1    3    3    0    0 -0.58978737846E+02 -0.15772343814E+02 -0.11417886288E+03  0.17653348429E+03  0.12000000000E+03 0.  0.
<mgrwt>
<rscale>  0 0.27185637E+03</rscale>
<asrwt>0</asrwt>
<pdfrwt beam="1">  1        1 0.51853765E-01 0.27185637E+03</pdfrwt>
<pdfrwt beam="2">  1       -1 0.84335809E-02 0.27185637E+03</pdfrwt>
<totfact> 0.59534631E+03</totfact>
</mgrwt>
</event>
<event>
 5    1  0.1122238E+001  0.2746046E+03  0.7818608E-02  0.1098673E+00
         -1   -1    0    0    0  501 -0.00000000000E+00  0.00000000000E+00  0.22920082801E+02  0.22920082801E+02  0.00000000000E+00 0. -1.
          1   -1    0    0  501    0  0.00000000000E+00 -0.00000000000E+00 -0.82250675262E+03  0.82250675262E+03  0.00000000000E+00 0. -1.
         35    2    1    2    0    0  0.00000000000E+00  0.00000000000E+00 -0.79958666982E+03  0.84542683542E+03  0.27460460939E+03 0.  0.
         25    1    3    3    0    0 -0.65925836930E+02  0.34394360494E+01 -0.36996368046E+03  0.39450116673E+03  0.12000000000E+03 0.  0.
         25    1    3    3    0    0  0.65925836930E+02 -0.34394360494E+01 -0.42962298936E+03  0.45092566869E+03  0.12000000000E+03 0.  0.
<mgrwt>
<rscale>  0 0.27460461E+03</rscale>
<asrwt>0</asrwt>
<pdfrwt beam="1">  1        1 0.12653951E+00 0.27460461E+03</pdfrwt>
<pdfrwt beam="2">  1       -1 0.35261663E-02 0.27460461E+03</pdfrwt>
<totfact> 0.65363406E+03</totfact>
</mgrwt>
</event>
<event>
 5    1  0.1122238E+001  0.2726586E+03  0.7818608E-02  0.1099768E+00
         -2   -1    0    0    0  501 -0.00000000000E+00  0.00000000000E+00  0.77880968326E+01  0.77880968326E+01  0.00000000000E+00 0. -1.
          2   -1    0    0  501    0  0.00000000000E+00 -0.00000000000E+00 -0.23864208529E+04  0.23864208529E+04  0.00000000000E+00 0. -1.
         35    2    1    2    0    0  0.00000000000E+00  0.00000000000E+00 -0.23786327561E+04  0.23942089497E+04  0.27265859008E+03 0.  0.
         25    1    3    3    0    0  0.56854696998E+02 -0.11241545828E+02 -0.93681971495E+03  0.94625049920E+03  0.12000000000E+03 0.  0.
         25    1    3    3    0    0 -0.56854696998E+02  0.11241545828E+02 -0.14418130411E+04  0.14479584505E+04  0.12000000000E+03 0.  0.
<mgrwt>
<rscale>  0 0.27265859E+03</rscale>
<asrwt>0</asrwt>
<pdfrwt beam="1">  1        2 0.36714163E+00 0.27265859E+03</pdfrwt>
<pdfrwt beam="2">  1       -2 0.11981689E-02 0.27265859E+03</pdfrwt>
<totfact> 0.75776368E+03</totfact>
</mgrwt>
</event>
<event>
 5    1  0.1122238E+001  0.2763399E+03  0.7818608E-02  0.1097705E+00
         -2   -1    0    0    0  501 -0.00000000000E+00  0.00000000000E+00  0.14354134883E+02  0.14354134883E+02  0.00000000000E+00 0.  1.
          2   -1    0    0  501    0  0.00000000000E+00 -0.00000000000E+00 -0.13299957874E+04  0.13299957874E+04  0.00000000000E+00 0.  1.
         35    2    1    2    0    0  0.00000000000E+00  0.00000000000E+00 -0.13156416526E+04  0.13443499223E+04  0.27633992782E+03 0.  0.
         25    1    3    3    0    0 -0.33401564686E+02 -0.13262547668E+02 -0.37418016120E+03  0.39459137438E+03  0.12000000000E+03 0.  0.
         25    1    3    3    0    0  0.33401564686E+02  0.13262547668E+02 -0.94146149136E+03  0.94975854795E+03  0.12000000000E+03 0.  0.
<mgrwt>
<rscale>  0 0.27633993E+03</rscale>
<asrwt>0</asrwt>
<pdfrwt beam="1">  1        2 0.20461470E+00 0.27633993E+03</pdfrwt>
<pdfrwt beam="2">  1       -2 0.22083288E-02 0.27633993E+03</pdfrwt>
<totfact> 0.11271880E+04</totfact>
</mgrwt>
</event>
<event>
 5    1  0.1122238E+001  0.2752913E+03  0.7818608E-02  0.1098289E+00
         -2   -1    0    0    0  501 -0.00000000000E+00  0.00000000000E+00  0.52957394779E+01  0.52957394779E+01  0.00000000000E+00 0. -1.
          2   -1    0    0  501    0  0.00000000000E+00 -0.00000000000E+00 -0.35776535668E+04  0.35776535668E+04  0.00000000000E+00 0. -1.
         35    2    1    2    0    0  0.00000000000E+00  0.00000000000E+00 -0.35723578273E+04  0.35829493062E+04  0.27529127289E+03 0.  0.
         25    1    3    3    0    0  0.55036195718E+02  0.37138680769E+02 -0.19391034228E+04  0.19439471054E+04  0.12000000000E+03 0.  0.
         25    1    3    3    0    0 -0.55036195718E+02 -0.37138680769E+02 -0.16332544045E+04  0.16390022008E+04  0.12000000000E+03 0.  0.
<mgrwt>
<rscale>  0 0.27529127E+03</rscale>
<asrwt>0</asrwt>
<pdfrwt beam="1">  1        2 0.55040885E+00 0.27529127E+03</pdfrwt>
<pdfrwt beam="2">  1       -2 0.81472825E-03 0.27529127E+03</pdfrwt>
<totfact> 0.25826056E+03</totfact>
</mgrwt>
</event>
<event>
 5    1  0.1122238E+001  0.2750032E+03  0.7818608E-02  0.1098450E+00
          1   -1    0    0  501    0  0.00000000000E+00  0.00000000000E+00  0.61360072701E+03  0.61360072701E+03  0.00000000000E+00 0. -1.
         -1   -1    0    0    0  501 -0.00000000000E+00 -0.00000000000E+00 -0.30812689349E+02  0.30812689349E+02  0.00000000000E+00 0. -1.
         35    2    1    2    0    0  0.00000000000E+00  0.00000000000E+00  0.58278803766E+03  0.64441341636E+03  0.27500318970E+03 0.  0.
         25    1    3    3    0    0  0.65237646132E+02 -0.11739124447E+02  0.31629598073E+03  0.34472729068E+03  0.12000000000E+03 0.  0.
         25    1    3    3    0    0 -0.65237646132E+02  0.11739124447E+02  0.26649205693E+03  0.29968612568E+03  0.12000000000E+03 0.  0.
<mgrwt>
<rscale>  0 0.27500319E+03</rscale>
<asrwt>0</asrwt>
<pdfrwt beam="1">  1        1 0.94400103E-01 0.27500319E+03</pdfrwt>
<pdfrwt beam="2">  1       -1 0.47404142E-02 0.27500319E+03</pdfrwt>
<totfact> 0.64756167E+03</totfact>
</mgrwt>
</event>
<event>
 5    1  0.1122238E+001  0.2737183E+03  0.7818608E-02  0.1099170E+00
          1   -1    0    0  501    0  0.00000000000E+00  0.00000000000E+00  0.41768939086E+02  0.41768939086E+02  0.00000000000E+00 0. -1.
         -1   -1    0    0    0  501 -0.00000000000E+00 -0.00000000000E+00 -0.44842970982E+03  0.44842970982E+03  0.00000000000E+00 0. -1.
         35    2    1    2    0    0  0.00000000000E+00  0.00000000000E+00 -0.40666077073E+03  0.49019864890E+03  0.27371834600E+03 0.  0.
         25    1    3    3    0    0  0.53354805849E+02 -0.15028929242E+02 -0.26684578592E+03  0.29779066051E+03  0.12000000000E+03 0.  0.
         25    1    3    3    0    0 -0.53354805849E+02  0.15028929242E+02 -0.13981498481E+03  0.19240798840E+03  0.12000000000E+03 0.  0.
<mgrwt>
<rscale>  0 0.27371835E+03</rscale>
<asrwt>0</asrwt>
<pdfrwt beam="1">  1        1 0.64259906E-02 0.27371835E+03</pdfrwt>
<pdfrwt beam="2">  1       -1 0.68989187E-01 0.27371835E+03</pdfrwt>
<totfact> 0.25875170E+03</totfact>
</mgrwt>
</event>
<event>
 5    1  0.1122238E+001  0.2752646E+03  0.7818608E-02  0.1098304E+00
         -2   -1    0    0    0  501 -0.00000000000E+00  0.00000000000E+00  0.17931307948E+02  0.17931307948E+02  0.00000000000E+00 0. -1.
          2   -1    0    0  501    0  0.00000000000E+00 -0.00000000000E+00 -0.10564011460E+04  0.10564011460E+04  0.00000000000E+00 0. -1.
         35    2    1    2    0    0  0.00000000000E+00  0.00000000000E+00 -0.10384698380E+04  0.10743324539E+04  0.27526463096E+03 0.  0.
         25    1    3    3    0    0  0.35061129832E+02 -0.57312141588E+02 -0.49832980480E+03  0.51695895268E+03  0.12000000000E+03 0.  0.
         25    1    3    3    0    0 -0.35061129832E+02  0.57312141588E+02 -0.54014003321E+03  0.55737350123E+03  0.12000000000E+03 0.  0.
<mgrwt>
<rscale>  0 0.27526463E+03</rscale>
<asrwt>0</asrwt>
<pdfrwt beam="1">  1        2 0.16252329E+00 0.27526463E+03</pdfrwt>
<pdfrwt beam="2">  1       -2 0.27586622E-02 0.27526463E+03</pdfrwt>
<totfact> 0.11619395E+04</totfact>
</mgrwt>
</event>
<event>
 5    1  0.1122238E+001  0.2745247E+03  0.7818608E-02  0.1098718E+00
          1   -1    0    0  501    0  0.00000000000E+00  0.00000000000E+00  0.31338890941E+03  0.31338890941E+03  0.00000000000E+00 0. -1.
         -1   -1    0    0    0  501 -0.00000000000E+00 -0.00000000000E+00 -0.60120038711E+02  0.60120038711E+02  0.00000000000E+00 0. -1.
         35    2    1    2    0    0  0.00000000000E+00  0.00000000000E+00  0.25326887070E+03  0.37350894812E+03  0.27452470465E+03 0.  0.
         25    1    3    3    0    0  0.51391979181E+02  0.85213080324E+01  0.18317908791E+03  0.22509626044E+03  0.12000000000E+03 0.  0.
         25    1    3    3    0    0 -0.51391979181E+02 -0.85213080324E+01  0.70089782789E+02  0.14841268769E+03  0.12000000000E+03 0.  0.
<mgrwt>
<rscale>  0 0.27452470E+03</rscale>
<asrwt>0</asrwt>
<pdfrwt beam="1">  1        1 0.48213677E-01 0.27452470E+03</pdfrwt>
<pdfrwt beam="2">  1       -1 0.92492369E-02 0.27452470E+03</pdfrwt>
<totfact> 0.56658290E+03</totfact>
</mgrwt>
</event>
<event>
 5    1  0.1122238E+001  0.2749261E+03  0.7818608E-02  0.1098493E+00
         -2   -1    0    0    0  501 -0.00000000000E+00  0.00000000000E+00  0.88925689554E+01  0.88925689554E+01  0.00000000000E+00 0. -1.
          2   -1    0    0  501    0  0.00000000000E+00 -0.00000000000E+00 -0.21249299926E+04  0.21249299926E+04  0.00000000000E+00 0. -1.
         35    2    1    2    0    0  0.00000000000E+00  0.00000000000E+00 -0.21160374236E+04  0.21338225615E+04  0.27492607359E+03 0.  0.
         25    1    3    3    0    0  0.66697897623E+02 -0.46372367594E+01 -0.10184635468E+04  0.10276858030E+04  0.12000000000E+03 0.  0.
         25    1    3    3    0    0 -0.66697897623E+02  0.46372367594E+01 -0.10975738768E+04  0.11061367585E+04  0.12000000000E+03 0.  0.
<mgrwt>
<rscale>  0 0.27492607E+03</rscale>
<asrwt>0</asrwt>
<pdfrwt beam="1">  1        2 0.32691239E+00 0.27492607E+03</pdfrwt>
<pdfrwt beam="2">  1       -2 0.13680872E-02 0.27492607E+03</pdfrwt>
<totfact> 0.86160615E+03</totfact>
</mgrwt>
</event>
<event>
 5    1  0.1122238E+001  0.2751631E+03  0.7818608E-02  0.1098360E+00
         -2   -1    0    0    0  501 -0.00000000000E+00  0.00000000000E+00  0.32198068721E+02  0.32198068721E+02  0.00000000000E+00 0. -1.
          2   -1    0    0  501    0  0.00000000000E+00 -0.00000000000E+00 -0.58788274605E+03  0.58788274605E+03  0.00000000000E+00 0. -1.
         35    2    1    2    0    0  0.00000000000E+00  0.00000000000E+00 -0.55568467732E+03  0.62008081477E+03  0.27516314475E+03 0.  0.
         25    1    3    3    0    0  0.57888819332E+02  0.32182240821E+02 -0.30468428933E+03  0.33409478923E+03  0.12000000000E+03 0.  0.
         25    1    3    3    0    0 -0.57888819332E+02 -0.32182240821E+02 -0.25100038800E+03  0.28598602554E+03  0.12000000000E+03 0.  0.
<mgrwt>
<rscale>  0 0.27516314E+03</rscale>
<asrwt>0</asrwt>
<pdfrwt beam="1">  1        2 0.90443499E-01 0.27516314E+03</pdfrwt>
<pdfrwt beam="2">  1       -2 0.49535491E-02 0.27516314E+03</pdfrwt>
<totfact> 0.10214183E+04</totfact>
</mgrwt>
</event>
<event>
 5    1  0.1122238E+001  0.2756347E+03  0.7818608E-02  0.1098097E+00
         -2   -1    0    0    0  501 -0.00000000000E+00  0.00000000000E+00  0.13981195238E+03  0.13981195238E+03  0.00000000000E+00 0. -1.
          2   -1    0    0  501    0  0.00000000000E+00 -0.00000000000E+00 -0.13585116819E+03  0.13585116819E+03  0.00000000000E+00 0. -1.
         35    2    1    2    0    0  0.00000000000E+00  0.00000000000E+00  0.39607841867E+01  0.27566312056E+03  0.27563466442E+03 0.  0.
         25    1    3    3    0    0 -0.61273056877E+02 -0.27479238102E+02  0.11153090786E+02  0.13796335550E+03  0.12000000000E+03 0.  0.
         25    1    3    3    0    0  0.61273056877E+02  0.27479238102E+02 -0.71923065992E+01  0.13769976507E+03  0.12000000000E+03 0.  0.
<mgrwt>
<rscale>  0 0.27563466E+03</rscale>
<asrwt>0</asrwt>
<pdfrwt beam="1">  1        2 0.20900180E-01 0.27563466E+03</pdfrwt>
<pdfrwt beam="2">  1       -2 0.21509531E-01 0.27563466E+03</pdfrwt>
<totfact> 0.48573672E+03</totfact>
</mgrwt>
</event>
<event>
 5    1  0.1122238E+001  0.2744157E+03  0.7818608E-02  0.1098779E+00
         -4   -1    0    0    0  501 -0.00000000000E+00  0.00000000000E+00  0.56939934117E+03  0.56939934117E+03  0.00000000000E+00 0.  1.
          4   -1    0    0  501    0  0.00000000000E+00 -0.00000000000E+00 -0.33062904426E+02  0.33062904426E+02  0.00000000000E+00 0.  1.
         35    2    1    2    0    0  0.00000000000E+00  0.00000000000E+00  0.53633643674E+03  0.60246224559E+03  0.27441571382E+03 0.  0.
         25    1    3    3    0    0  0.19717885013E+02  0.56545774609E+02  0.33178954015E+03  0.35786941553E+03  0.12000000000E+03 0.  0.
         25    1    3    3    0    0 -0.19717885013E+02 -0.56545774609E+02  0.20454689658E+03  0.24459283006E+03  0.12000000000E+03 0.  0.
<mgrwt>
<rscale>  0 0.27441571E+03</rscale>
<asrwt>0</asrwt>
<pdfrwt beam="1">  1        4 0.50866011E-02 0.27441571E+03</pdfrwt>
<pdfrwt beam="2">  1       -4 0.87599891E-01 0.27441571E+03</pdfrwt>
<totfact> 0.50367875E+02</totfact>
</mgrwt>
</event>
<event>
 5    1  0.1122238E+001  0.2748725E+03  0.7818608E-02  0.1098523E+00
         -1   -1    0    0    0  501 -0.00000000000E+00  0.00000000000E+00  0.18361689880E+02  0.18361689880E+02  0.00000000000E+00 0. -1.
          1   -1    0    0  501    0  0.00000000000E+00 -0.00000000000E+00 -0.10287031974E+04  0.10287031974E+04  0.00000000000E+00 0. -1.
         35    2    1    2    0    0  0.00000000000E+00  0.00000000000E+00 -0.10103415075E+04  0.10470648873E+04  0.27487254566E+03 0.  0.
         25    1    3    3    0    0  0.54204005480E+02  0.39188189284E+02 -0.51989481782E+03  0.53774009520E+03  0.12000000000E+03 0.  0.
         25    1    3    3    0    0 -0.54204005480E+02 -0.39188189284E+02 -0.49044668971E+03  0.50932479209E+03  0.12000000000E+03 0.  0.
<mgrwt>
<rscale>  0 0.27487255E+03</rscale>
<asrwt>0</asrwt>
<pdfrwt beam="1">  1        1 0.15826203E+00 0.27487255E+03</pdfrwt>
<pdfrwt beam="2">  1       -1 0.28248753E-02 0.27487255E+03</pdfrwt>
<totfact> 0.62715330E+03</totfact>
</mgrwt>
</event>
<event>
 5    1  0.1122238E+001  0.2758065E+03  0.7818608E-02  0.1098002E+00
          1   -1    0    0  501    0  0.00000000000E+00  0.00000000000E+00  0.15569261066E+04  0.15569261066E+04  0.00000000000E+00 0. -1.
         -1   -1    0    0    0  501 -0.00000000000E+00 -0.00000000000E+00 -0.12214646251E+02  0.12214646251E+02  0.00000000000E+00 0. -1.
         35    2    1    2    0    0  0.00000000000E+00  0.00000000000E+00  0.15447114604E+04  0.15691407529E+04  0.27580646571E+03 0.  0.
         25    1    3    3    0    0  0.45868431592E+02  0.19239502588E+02  0.50897022899E+03  0.52528541334E+03  0.12000000000E+03 0.  0.
         25    1    3    3    0    0 -0.45868431592E+02 -0.19239502588E+02  0.10357412314E+04  0.10438553395E+04  0.12000000000E+03 0.  0.
<mgrwt>
<rscale>  0 0.27580647E+03</rscale>
<asrwt>0</asrwt>
<pdfrwt beam="1">  1        1 0.23952694E+00 0.27580647E+03</pdfrwt>
<pdfrwt beam="2">  1       -1 0.18791776E-02 0.27580647E+03</pdfrwt>
<totfact> 0.49292904E+03</totfact>
</mgrwt>
</event>
<event>
 5    1  0.1122238E+001  0.2746603E+03  0.7818608E-02  0.1098642E+00
         -1   -1    0    0    0  501 -0.00000000000E+00  0.00000000000E+00  0.23147337506E+02  0.23147337506E+02  0.00000000000E+00 0. -1.
          1   -1    0    0  501    0  0.00000000000E+00 -0.00000000000E+00 -0.81476173048E+03  0.81476173048E+03  0.00000000000E+00 0. -1.
         35    2    1    2    0    0  0.00000000000E+00  0.00000000000E+00 -0.79161439297E+03  0.83790906798E+03  0.27466026114E+03 0.  0.
         25    1    3    3    0    0  0.22459329961E+02 -0.46796283120E+02 -0.52398248772E+03  0.54004810994E+03  0.12000000000E+03 0.  0.
         25    1    3    3    0    0 -0.22459329961E+02  0.46796283120E+02 -0.26763190525E+03  0.29786095804E+03  0.12000000000E+03 0.  0.
<mgrwt>
<rscale>  0 0.27466026E+03</rscale>
<asrwt>0</asrwt>
<pdfrwt beam="1">  1        1 0.12534793E+00 0.27466026E+03</pdfrwt>
<pdfrwt beam="2">  1       -1 0.35611298E-02 0.27466026E+03</pdfrwt>
<totfact> 0.65370105E+03</totfact>
</mgrwt>
</event>
<event>
 5    1  0.1122238E+001  0.2744262E+03  0.7818608E-02  0.1098773E+00
         -2   -1    0    0    0  501 -0.00000000000E+00  0.00000000000E+00  0.38481617491E+02  0.38481617491E+02  0.00000000000E+00 0. -1.
          2   -1    0    0  501    0  0.00000000000E+00 -0.00000000000E+00 -0.48925770780E+03  0.48925770780E+03  0.00000000000E+00 0. -1.
         35    2    1    2    0    0  0.00000000000E+00  0.00000000000E+00 -0.45077609031E+03  0.52773932529E+03  0.27442615011E+03 0.  0.
         25    1    3    3    0    0 -0.52097620443E+02 -0.39899418607E+02 -0.24656816880E+03  0.28196096809E+03  0.12000000000E+03 0.  0.
         25    1    3    3    0    0  0.52097620443E+02  0.39899418607E+02 -0.20420792151E+03  0.24577835720E+03  0.12000000000E+03 0.  0.
<mgrwt>
<rscale>  0 0.27442615E+03</rscale>
<asrwt>0</asrwt>
<pdfrwt beam="1">  1        2 0.75270407E-01 0.27442615E+03</pdfrwt>
<pdfrwt beam="2">  1       -2 0.59202496E-02 0.27442615E+03</pdfrwt>
<totfact> 0.95818556E+03</totfact>
</mgrwt>
</event>
<event>
 5    1  0.1122238E+001  0.2748379E+03  0.7818608E-02  0.1098542E+00
         -2   -1    0    0    0  501 -0.00000000000E+00  0.00000000000E+00  0.22834780132E+03  0.22834780132E+03  0.00000000000E+00 0. -1.
          2   -1    0    0  501    0  0.00000000000E+00 -0.00000000000E+00 -0.82698290612E+02  0.82698290612E+02  0.00000000000E+00 0. -1.
         35    2    1    2    0    0  0.00000000000E+00  0.00000000000E+00  0.14564951071E+03  0.31104609193E+03  0.27483793649E+03 0.  0.
         25    1    3    3    0    0 -0.14079022039E+02 -0.64640693815E+02  0.84549896898E+02  0.16101342560E+03  0.12000000000E+03 0.  0.
         25    1    3    3    0    0  0.14079022039E+02  0.64640693815E+02  0.61099613809E+02  0.15003266633E+03  0.12000000000E+03 0.  0.
<mgrwt>
<rscale>  0 0.27483794E+03</rscale>
<asrwt>0</asrwt>
<pdfrwt beam="1">  1        2 0.12722814E-01 0.27483794E+03</pdfrwt>
<pdfrwt beam="2">  1       -2 0.35130431E-01 0.27483794E+03</pdfrwt>
<totfact> 0.36098474E+03</totfact>
</mgrwt>
</event>
<event>
 5    1  0.1122238E+001  0.2749003E+03  0.7818608E-02  0.1098507E+00
         -1   -1    0    0    0  501 -0.00000000000E+00  0.00000000000E+00  0.95969563156E+01  0.95969563156E+01  0.00000000000E+00 0.  1.
          1   -1    0    0  501    0  0.00000000000E+00 -0.00000000000E+00 -0.19685979001E+04  0.19685979001E+04  0.00000000000E+00 0.  1.
         35    2    1    2    0    0  0.00000000000E+00  0.00000000000E+00 -0.19590009438E+04  0.19781948564E+04  0.27490033139E+03 0.  0.
         25    1    3    3    0    0 -0.51825974900E+02  0.41698352710E+02 -0.92021984952E+03  0.93039199037E+03  0.12000000000E+03 0.  0.
         25    1    3    3    0    0  0.51825974900E+02 -0.41698352710E+02 -0.10387810943E+04  0.10478028660E+04  0.12000000000E+03 0.  0.
<mgrwt>
<rscale>  0 0.27490033E+03</rscale>
<asrwt>0</asrwt>
<pdfrwt beam="1">  1        1 0.30286115E+00 0.27490033E+03</pdfrwt>
<pdfrwt beam="2">  1       -1 0.14764551E-02 0.27490033E+03</pdfrwt>
<totfact> 0.37766446E+03</totfact>
</mgrwt>
</event>
<event>
 5    1  0.1122238E+001  0.2743782E+03  0.7818608E-02  0.1098800E+00
          2   -1    0    0  501    0  0.00000000000E+00  0.00000000000E+00  0.23745453497E+04  0.23745453497E+04  0.00000000000E+00 0. -1.
         -2   -1    0    0    0  501 -0.00000000000E+00 -0.00000000000E+00 -0.79260830005E+01  0.79260830005E+01  0.00000000000E+00 0. -1.
         35    2    1    2    0    0  0.00000000000E+00  0.00000000000E+00  0.23666192667E+04  0.23824714327E+04  0.27437815897E+03 0.  0.
         25    1    3    3    0    0  0.29113689245E+02  0.53706567952E+02  0.95541310077E+03  0.96485553088E+03  0.12000000000E+03 0.  0.
         25    1    3    3    0    0 -0.29113689245E+02 -0.53706567952E+02  0.14112061659E+04  0.14176159018E+04  0.12000000000E+03 0.  0.
<mgrwt>
<rscale>  0 0.27437816E+03</rscale>
<asrwt>0</asrwt>
<pdfrwt beam="1">  1        2 0.36531410E+00 0.27437816E+03</pdfrwt>
<pdfrwt beam="2">  1       -2 0.12193993E-02 0.27437816E+03</pdfrwt>
<totfact> 0.74961563E+03</totfact>
</mgrwt>
</event>
<event>
 5    1  0.1122238E+001  0.2743271E+03  0.7818608E-02  0.1098828E+00
          1   -1    0    0  501    0  0.00000000000E+00  0.00000000000E+00  0.10164752131E+03  0.10164752131E+03  0.00000000000E+00 0.  1.
         -1   -1    0    0    0  501 -0.00000000000E+00 -0.00000000000E+00 -0.18508894747E+03  0.18508894747E+03  0.00000000000E+00 0.  1.
         35    2    1    2    0    0  0.00000000000E+00  0.00000000000E+00 -0.83441426159E+02  0.28673646879E+03  0.27432705104E+03 0.  0.
         25    1    3    3    0    0 -0.49336134952E+02  0.13563323319E+02 -0.86014730142E+02  0.15625796541E+03  0.12000000000E+03 0.  0.
         25    1    3    3    0    0  0.49336134952E+02 -0.13563323319E+02  0.25733039825E+01  0.13047850338E+03  0.12000000000E+03 0.  0.
<mgrwt>
<rscale>  0 0.27432705E+03</rscale>
<asrwt>0</asrwt>
<pdfrwt beam="1">  1        1 0.15638080E-01 0.27432705E+03</pdfrwt>
<pdfrwt beam="2">  1       -1 0.28475222E-01 0.27432705E+03</pdfrwt>
<totfact> 0.39170879E+03</totfact>
</mgrwt>
</event>
<event>
 5    1  0.1122238E+001  0.2746447E+03  0.7818608E-02  0.1098650E+00
          2   -1    0    0  501    0  0.00000000000E+00  0.00000000000E+00  0.75242535377E+03  0.75242535377E+03  0.00000000000E+00 0.  1.
         -2   -1    0    0    0  501 -0.00000000000E+00 -0.00000000000E+00 -0.25062199087E+02  0.25062199087E+02  0.00000000000E+00 0.  1.
         35    2    1    2    0    0  0.00000000000E+00  0.00000000000E+00  0.72736315468E+03  0.77748755285E+03  0.27464474518E+03 0.  0.
         25    1    3    3    0    0  0.83652501305E+01 -0.38610576984E+02  0.51604208376E+03  0.53128164497E+03  0.12000000000E+03 0.  0.
         25    1    3    3    0    0 -0.83652501305E+01  0.38610576984E+02  0.21132107092E+03  0.24620590789E+03  0.12000000000E+03 0.  0.
<mgrwt>
<rscale>  0 0.27464475E+03</rscale>
<asrwt>0</asrwt>
<pdfrwt beam="1">  1        2 0.11575773E+00 0.27464475E+03</pdfrwt>
<pdfrwt beam="2">  1       -2 0.38557235E-02 0.27464475E+03</pdfrwt>
<totfact> 0.11099247E+04</totfact>
</mgrwt>
</event>
<event>
 5    1  0.1122238E+001  0.2743543E+03  0.7818608E-02  0.1098813E+00
          2   -1    0    0  501    0  0.00000000000E+00  0.00000000000E+00  0.15177314117E+04  0.15177314117E+04  0.00000000000E+00 0. -1.
         -2   -1    0    0    0  501 -0.00000000000E+00 -0.00000000000E+00 -0.12398489120E+02  0.12398489120E+02  0.00000000000E+00 0. -1.
         35    2    1    2    0    0  0.00000000000E+00  0.00000000000E+00  0.15053329226E+04  0.15301299008E+04  0.27435434311E+03 0.  0.
         25    1    3    3    0    0 -0.63524860548E+02 -0.12721583896E+02  0.66988119050E+03  0.68362128111E+03  0.12000000000E+03 0.  0.
         25    1    3    3    0    0  0.63524860548E+02  0.12721583896E+02  0.83545173210E+03  0.84650861973E+03  0.12000000000E+03 0.  0.
<mgrwt>
<rscale>  0 0.27435434E+03</rscale>
<asrwt>0</asrwt>
<pdfrwt beam="1">  1        2 0.23349699E+00 0.27435434E+03</pdfrwt>
<pdfrwt beam="2">  1       -2 0.19074611E-02 0.27435434E+03</pdfrwt>
<totfact> 0.11064604E+04</totfact>
</mgrwt>
</event>
<event>
 5    1  0.1122238E+001  0.2763426E+03  0.7818608E-02  0.1097703E+00
          2   -1    0    0  501    0  0.00000000000E+00  0.00000000000E+00  0.28814194759E+04  0.28814194759E+04  0.00000000000E+00 0.  1.
         -2   -1    0    0    0  501 -0.00000000000E+00 -0.00000000000E+00 -0.66256622582E+01  0.66256622582E+01  0.00000000000E+00 0.  1.
         35    2    1    2    0    0  0.00000000000E+00  0.00000000000E+00  0.28747938136E+04  0.28880451381E+04  0.27634262987E+03 0.  0.
         25    1    3    3    0    0 -0.47861867912E+02  0.36819154805E+02  0.17752238053E+04  0.17802994039E+04  0.12000000000E+03 0.  0.
         25    1    3    3    0    0  0.47861867912E+02 -0.36819154805E+02  0.10995700083E+04  0.11077457342E+04  0.12000000000E+03 0.  0.
<mgrwt>
<rscale>  0 0.27634263E+03</rscale>
<asrwt>0</asrwt>
<pdfrwt beam="1">  1        2 0.44329430E+00 0.27634263E+03</pdfrwt>
<pdfrwt beam="2">  1       -2 0.10193350E-02 0.27634263E+03</pdfrwt>
<totfact> 0.50704883E+03</totfact>
</mgrwt>
</event>
<event>
 5    1  0.1122238E+001  0.2753976E+03  0.7818608E-02  0.1098230E+00
         -2   -1    0    0    0  501 -0.00000000000E+00  0.00000000000E+00  0.92992948180E+02  0.92992948180E+02  0.00000000000E+00 0. -1.
          2   -1    0    0  501    0  0.00000000000E+00 -0.00000000000E+00 -0.20389679103E+03  0.20389679103E+03  0.00000000000E+00 0. -1.
         35    2    1    2    0    0  0.00000000000E+00  0.00000000000E+00 -0.11090384285E+03  0.29688973921E+03  0.27539763051E+03 0.  0.
         25    1    3    3    0    0  0.60431252093E+01 -0.62178864424E+02 -0.83110182624E+02  0.15877667650E+03  0.12000000000E+03 0.  0.
         25    1    3    3    0    0 -0.60431252093E+01  0.62178864424E+02 -0.27793660225E+02  0.13811306271E+03  0.12000000000E+03 0.  0.
<mgrwt>
<rscale>  0 0.27539763E+03</rscale>
<asrwt>0</asrwt>
<pdfrwt beam="1">  1        2 0.31368737E-01 0.27539763E+03</pdfrwt>
<pdfrwt beam="2">  1       -2 0.14306607E-01 0.27539763E+03</pdfrwt>
<totfact> 0.61352316E+03</totfact>
</mgrwt>
</event>
<event>
 5    1  0.1122238E+001  0.2760722E+03  0.7818608E-02  0.1097854E+00
         -2   -1    0    0    0  501 -0.00000000000E+00  0.00000000000E+00  0.22387128438E+03  0.22387128438E+03  0.00000000000E+00 0.  1.
          2   -1    0    0  501    0  0.00000000000E+00 -0.00000000000E+00 -0.85111269931E+02  0.85111269931E+02  0.00000000000E+00 0.  1.
         35    2    1    2    0    0  0.00000000000E+00  0.00000000000E+00  0.13876001445E+03  0.30898255431E+03  0.27607223196E+03 0.  0.
         25    1    3    3    0    0  0.46805886661E+02  0.41799039600E+02  0.99328390175E+02  0.16794070332E+03  0.12000000000E+03 0.  0.
         25    1    3    3    0    0 -0.46805886661E+02 -0.41799039600E+02  0.39431624274E+02  0.14104185099E+03  0.12000000000E+03 0.  0.
<mgrwt>
<rscale>  0 0.27607223E+03</rscale>
<asrwt>0</asrwt>
<pdfrwt beam="1">  1        2 0.13094042E-01 0.27607223E+03</pdfrwt>
<pdfrwt beam="2">  1       -2 0.34441736E-01 0.27607223E+03</pdfrwt>
<totfact> 0.36181550E+03</totfact>
</mgrwt>
</event>
<event>
 5    1  0.1122238E+001  0.2769124E+03  0.7818608E-02  0.1097387E+00
          1   -1    0    0  501    0  0.00000000000E+00  0.00000000000E+00  0.26207726027E+02  0.26207726027E+02  0.00000000000E+00 0. -1.
         -1   -1    0    0    0  501 -0.00000000000E+00 -0.00000000000E+00 -0.73146815991E+03  0.73146815991E+03  0.00000000000E+00 0. -1.
         35    2    1    2    0    0  0.00000000000E+00  0.00000000000E+00 -0.70526043389E+03  0.75767588594E+03  0.27691238421E+03 0.  0.
         25    1    3    3    0    0 -0.43518075311E+02 -0.44874736833E+02 -0.43298908158E+03  0.45363764136E+03  0.12000000000E+03 0.  0.
         25    1    3    3    0    0  0.43518075311E+02  0.44874736833E+02 -0.27227135230E+03  0.30403824458E+03  0.12000000000E+03 0.  0.
<mgrwt>
<rscale>  0 0.27691238E+03</rscale>
<asrwt>0</asrwt>
<pdfrwt beam="1">  1        1 0.40319590E-02 0.27691238E+03</pdfrwt>
<pdfrwt beam="2">  1       -1 0.11253353E+00 0.27691238E+03</pdfrwt>
<totfact> 0.17294734E+03</totfact>
</mgrwt>
</event>
<event>
 5    1  0.1122238E+001  0.2737489E+03  0.7818608E-02  0.1099153E+00
          2   -1    0    0  501    0  0.00000000000E+00  0.00000000000E+00  0.55161013256E+03  0.55161013256E+03  0.00000000000E+00 0. -1.
         -2   -1    0    0    0  501 -0.00000000000E+00 -0.00000000000E+00 -0.33963497951E+02  0.33963497951E+02  0.00000000000E+00 0. -1.
         35    2    1    2    0    0  0.00000000000E+00  0.00000000000E+00  0.51764663461E+03  0.58557363051E+03  0.27374886014E+03 0.  0.
         25    1    3    3    0    0 -0.51866823962E+02  0.29988719306E+02  0.31721378848E+03  0.34440394643E+03  0.12000000000E+03 0.  0.
         25    1    3    3    0    0  0.51866823962E+02 -0.29988719306E+02  0.20043284613E+03  0.24116968409E+03  0.12000000000E+03 0.  0.
<mgrwt>
<rscale>  0 0.27374886E+03</rscale>
<asrwt>0</asrwt>
<pdfrwt beam="1">  1        2 0.84863091E-01 0.27374886E+03</pdfrwt>
<pdfrwt beam="2">  1       -2 0.52251539E-02 0.27374886E+03</pdfrwt>
<totfact> 0.10129571E+04</totfact>
</mgrwt>
</event>
<event>
 5    1  0.1122238E+001  0.2752960E+03  0.7818608E-02  0.1098286E+00
         -4   -1    0    0    0  501 -0.00000000000E+00  0.00000000000E+00  0.72523780221E+01  0.72523780221E+01  0.00000000000E+00 0.  1.
          4   -1    0    0  501    0  0.00000000000E+00 -0.00000000000E+00 -0.26125194247E+04  0.26125194247E+04  0.00000000000E+00 0.  1.
         35    2    1    2    0    0  0.00000000000E+00  0.00000000000E+00 -0.26052670467E+04  0.26197718027E+04  0.27529604762E+03 0.  0.
         25    1    3    3    0    0 -0.38556237338E+02  0.44037923283E+02 -0.98401046249E+03  0.99302694445E+03  0.12000000000E+03 0.  0.
         25    1    3    3    0    0  0.38556237338E+02 -0.44037923283E+02 -0.16212565842E+04  0.16267448583E+04  0.12000000000E+03 0.  0.
<mgrwt>
<rscale>  0 0.27529605E+03</rscale>
<asrwt>0</asrwt>
<pdfrwt beam="1">  1        4 0.40192666E+00 0.27529605E+03</pdfrwt>
<pdfrwt beam="2">  1       -4 0.11157488E-02 0.27529605E+03</pdfrwt>
<totfact> 0.38797581E+01</totfact>
</mgrwt>
</event>
<event>
 5    1  0.1122238E+001  0.2756687E+03  0.7818608E-02  0.1098078E+00
          2   -1    0    0  501    0  0.00000000000E+00  0.00000000000E+00  0.24747734969E+04  0.24747734969E+04  0.00000000000E+00 0. -1.
         -2   -1    0    0    0  501 -0.00000000000E+00 -0.00000000000E+00 -0.76767846367E+01  0.76767846367E+01  0.00000000000E+00 0. -1.
         35    2    1    2    0    0  0.00000000000E+00  0.00000000000E+00  0.24670967122E+04  0.24824502815E+04  0.27566866460E+03 0.  0.
         25    1    3    3    0    0 -0.26099061907E+02 -0.56508033577E+02  0.14758507593E+04  0.14820289413E+04  0.12000000000E+03 0.  0.
         25    1    3    3    0    0  0.26099061907E+02  0.56508033577E+02  0.99124595289E+03  0.10004213402E+04  0.12000000000E+03 0.  0.
<mgrwt>
<rscale>  0 0.27566866E+03</rscale>
<asrwt>0</asrwt>
<pdfrwt beam="1">  1        2 0.38073375E+00 0.27566866E+03</pdfrwt>
<pdfrwt beam="2">  1       -2 0.11810458E-02 0.27566866E+03</pdfrwt>
<totfact> 0.69279142E+03</totfact>
</mgrwt>
</event>
<event>
 5    1  0.1122238E+001  0.2742394E+03  0.7818608E-02  0.1098877E+00
          1   -1    0    0  501    0  0.00000000000E+00  0.00000000000E+00  0.27939243783E+02  0.27939243783E+02  0.00000000000E+00 0.  1.
         -1   -1    0    0    0  501 -0.00000000000E+00 -0.00000000000E+00 -0.67295361167E+03  0.67295361167E+03  0.00000000000E+00 0.  1.
         35    2    1    2    0    0  0.00000000000E+00  0.00000000000E+00 -0.64501436788E+03  0.70089285545E+03  0.27423942102E+03 0.  0.
         25    1    3    3    0    0  0.31060862620E+02  0.52705863073E+02 -0.38812280296E+03  0.41083085981E+03  0.12000000000E+03 0.  0.
         25    1    3    3    0    0 -0.31060862620E+02 -0.52705863073E+02 -0.25689156492E+03  0.29006199564E+03  0.12000000000E+03 0.  0.
<mgrwt>
<rscale>  0 0.27423942E+03</rscale>
<asrwt>0</asrwt>
<pdfrwt beam="1">  1        1 0.42983456E-02 0.27423942E+03</pdfrwt>
<pdfrwt beam="2">  1       -1 0.10353131E+00 0.27423942E+03</pdfrwt>
<totfact> 0.19142781E+03</totfact>
</mgrwt>
</event>
<event>
 5    1  0.1122238E+001  0.2743900E+03  0.7818608E-02  0.1098793E+00
         -1   -1    0    0    0  501 -0.00000000000E+00  0.00000000000E+00  0.14662422998E+03  0.14662422998E+03  0.00000000000E+00 0. -1.
          1   -1    0    0  501    0  0.00000000000E+00 -0.00000000000E+00 -0.12837215530E+03  0.12837215530E+03  0.00000000000E+00 0. -1.
         35    2    1    2    0    0  0.00000000000E+00  0.00000000000E+00  0.18252074680E+02  0.27499638528E+03  0.27439000289E+03 0.  0.
         25    1    3    3    0    0  0.51933811364E+01  0.14137911670E+02  0.74042762356E+02  0.14180684896E+03  0.12000000000E+03 0.  0.
         25    1    3    3    0    0 -0.51933811364E+01 -0.14137911670E+02 -0.55790687676E+02  0.13318953632E+03  0.12000000000E+03 0.  0.
<mgrwt>
<rscale>  0 0.27439000E+03</rscale>
<asrwt>0</asrwt>
<pdfrwt beam="1">  1        1 0.19749562E-01 0.27439000E+03</pdfrwt>
<pdfrwt beam="2">  1       -1 0.22557574E-01 0.27439000E+03</pdfrwt>
<totfact> 0.42644236E+03</totfact>
</mgrwt>
</event>
<event>
 5    1  0.1122238E+001  0.2812721E+03  0.7818608E-02  0.1094996E+00
         -2   -1    0    0    0  501 -0.00000000000E+00  0.00000000000E+00  0.31067465194E+02  0.31067465194E+02  0.00000000000E+00 0.  1.
          2   -1    0    0  501    0  0.00000000000E+00 -0.00000000000E+00 -0.63663063373E+03  0.63663063373E+03  0.00000000000E+00 0.  1.
         35    2    1    2    0    0  0.00000000000E+00  0.00000000000E+00 -0.60556316854E+03  0.66769809893E+03  0.28127211063E+03 0.  0.
         25    1    3    3    0    0  0.64682412753E+02 -0.30312748114E+02 -0.26335686783E+03  0.29809313486E+03  0.12000000000E+03 0.  0.
         25    1    3    3    0    0 -0.64682412753E+02  0.30312748114E+02 -0.34220630071E+03  0.36960496407E+03  0.12000000000E+03 0.  0.
<mgrwt>
<rscale>  0 0.28127211E+03</rscale>
<asrwt>0</asrwt>
<pdfrwt beam="1">  1        2 0.97943166E-01 0.28127211E+03</pdfrwt>
<pdfrwt beam="2">  1       -2 0.47796105E-02 0.28127211E+03</pdfrwt>
<totfact> 0.98336423E+03</totfact>
</mgrwt>
</event>
<event>
 5    1  0.1122238E+001  0.2726347E+03  0.7818608E-02  0.1099781E+00
          2   -1    0    0  501    0  0.00000000000E+00  0.00000000000E+00  0.20676807112E+04  0.20676807112E+04  0.00000000000E+00 0. -1.
         -2   -1    0    0    0  501 -0.00000000000E+00 -0.00000000000E+00 -0.89870848043E+01  0.89870848043E+01  0.00000000000E+00 0. -1.
         35    2    1    2    0    0  0.00000000000E+00  0.00000000000E+00  0.20586936263E+04  0.20766677960E+04  0.27263471459E+03 0.  0.
         25    1    3    3    0    0 -0.41250549796E+02 -0.38943427148E+02  0.12658705520E+04  0.12728104544E+04  0.12000000000E+03 0.  0.
         25    1    3    3    0    0  0.41250549796E+02  0.38943427148E+02  0.79282307435E+03  0.80385734157E+03  0.12000000000E+03 0.  0.
<mgrwt>
<rscale>  0 0.27263471E+03</rscale>
<asrwt>0</asrwt>
<pdfrwt beam="1">  1        2 0.31810435E+00 0.27263471E+03</pdfrwt>
<pdfrwt beam="2">  1       -2 0.13826301E-02 0.27263471E+03</pdfrwt>
<totfact> 0.90954644E+03</totfact>
</mgrwt>
</event>
<event>
 5    1  0.1122238E+001  0.2750851E+03  0.7818608E-02  0.1098404E+00
          2   -1    0    0  501    0  0.00000000000E+00  0.00000000000E+00  0.12557568375E+04  0.12557568375E+04  0.00000000000E+00 0. -1.
         -2   -1    0    0    0  501 -0.00000000000E+00 -0.00000000000E+00 -0.15064978763E+02  0.15064978763E+02  0.00000000000E+00 0. -1.
         35    2    1    2    0    0  0.00000000000E+00  0.00000000000E+00  0.12406918587E+04  0.12708218162E+04  0.27508507839E+03 0.  0.
         25    1    3    3    0    0 -0.18996337976E+02 -0.31237091864E+02  0.88091461102E+03  0.88980175808E+03  0.12000000000E+03 0.  0.
         25    1    3    3    0    0  0.18996337976E+02  0.31237091864E+02  0.35977724767E+03  0.38102005814E+03  0.12000000000E+03 0.  0.
<mgrwt>
<rscale>  0 0.27508508E+03</rscale>
<asrwt>0</asrwt>
<pdfrwt beam="1">  1        2 0.19319328E+00 0.27508508E+03</pdfrwt>
<pdfrwt beam="2">  1       -2 0.23176900E-02 0.27508508E+03</pdfrwt>
<totfact> 0.11538637E+04</totfact>
</mgrwt>
</event>
<event>
 5    1  0.1122238E+001  0.2746997E+03  0.7818608E-02  0.1098620E+00
         -1   -1    0    0    0  501 -0.00000000000E+00  0.00000000000E+00  0.42376713960E+02  0.42376713960E+02  0.00000000000E+00 0.  1.
          1   -1    0    0  501    0  0.00000000000E+00 -0.00000000000E+00 -0.44517316383E+03  0.44517316383E+03  0.00000000000E+00 0.  1.
         35    2    1    2    0    0  0.00000000000E+00  0.00000000000E+00 -0.40279644987E+03  0.48754987779E+03  0.27469966018E+03 0.  0.
         25    1    3    3    0    0 -0.12166255999E+02  0.58077987227E+02 -0.14686952110E+03  0.19872525409E+03  0.12000000000E+03 0.  0.
         25    1    3    3    0    0  0.12166255999E+02 -0.58077987227E+02 -0.25592692877E+03  0.28882462370E+03  0.12000000000E+03 0.  0.
<mgrwt>
<rscale>  0 0.27469966E+03</rscale>
<asrwt>0</asrwt>
<pdfrwt beam="1">  1        1 0.68488180E-01 0.27469966E+03</pdfrwt>
<pdfrwt beam="2">  1       -1 0.65194944E-02 0.27469966E+03</pdfrwt>
<totfact> 0.61717493E+03</totfact>
</mgrwt>
</event>
<event>
 5    1  0.1122238E+001  0.2759858E+03  0.7818608E-02  0.1097902E+00
         -1   -1    0    0    0  501 -0.00000000000E+00  0.00000000000E+00  0.69961104610E+01  0.69961104610E+01  0.00000000000E+00 0. -1.
          1   -1    0    0  501    0  0.00000000000E+00 -0.00000000000E+00 -0.27218048103E+04  0.27218048103E+04  0.00000000000E+00 0. -1.
         35    2    1    2    0    0  0.00000000000E+00  0.00000000000E+00 -0.27148086999E+04  0.27288009208E+04  0.27598584823E+03 0.  0.
         25    1    3    3    0    0  0.54749120188E+02 -0.25295795499E+02 -0.16708079891E+04  0.16761970887E+04  0.12000000000E+03 0.  0.
         25    1    3    3    0    0 -0.54749120188E+02  0.25295795499E+02 -0.10440007107E+04  0.10526038321E+04  0.12000000000E+03 0.  0.
<mgrwt>
<rscale>  0 0.27598585E+03</rscale>
<asrwt>0</asrwt>
<pdfrwt beam="1">  1        1 0.41873943E+00 0.27598585E+03</pdfrwt>
<pdfrwt beam="2">  1       -1 0.10763241E-02 0.27598585E+03</pdfrwt>
<totfact> 0.19024830E+03</totfact>
</mgrwt>
</event>
<event>
 5    1  0.1122238E+001  0.2816688E+03  0.7818608E-02  0.1094781E+00
         -2   -1    0    0    0  501 -0.00000000000E+00  0.00000000000E+00  0.13242650814E+02  0.13242650814E+02  0.00000000000E+00 0. -1.
          2   -1    0    0  501    0  0.00000000000E+00 -0.00000000000E+00 -0.14977613364E+04  0.14977613364E+04  0.00000000000E+00 0. -1.
         35    2    1    2    0    0  0.00000000000E+00  0.00000000000E+00 -0.14845186855E+04  0.15110039872E+04  0.28166881532E+03 0.  0.
         25    1    3    3    0    0  0.47635132206E+02 -0.51204148979E+02 -0.61721312784E+03  0.63264762378E+03  0.12000000000E+03 0.  0.
         25    1    3    3    0    0 -0.47635132206E+02  0.51204148979E+02 -0.86730555770E+03  0.87835636339E+03  0.12000000000E+03 0.  0.
<mgrwt>
<rscale>  0 0.28166882E+03</rscale>
<asrwt>0</asrwt>
<pdfrwt beam="1">  1        2 0.23042478E+00 0.28166882E+03</pdfrwt>
<pdfrwt beam="2">  1       -2 0.20373312E-02 0.28166882E+03</pdfrwt>
<totfact> 0.10298213E+04</totfact>
</mgrwt>
</event>
<event>
 5    1  0.1122238E+001  0.2754635E+03  0.7818608E-02  0.1098193E+00
         -1   -1    0    0    0  501 -0.00000000000E+00  0.00000000000E+00  0.10801059772E+02  0.10801059772E+02  0.00000000000E+00 0. -1.
          1   -1    0    0  501    0  0.00000000000E+00 -0.00000000000E+00 -0.17563129602E+04  0.17563129602E+04  0.00000000000E+00 0. -1.
         35    2    1    2    0    0  0.00000000000E+00  0.00000000000E+00 -0.17455119004E+04  0.17671140199E+04  0.27546354576E+03 0.  0.
         25    1    3    3    0    0  0.35041086286E+02  0.33243850360E+02 -0.11761690983E+04  0.11832610782E+04  0.12000000000E+03 0.  0.
         25    1    3    3    0    0 -0.35041086286E+02 -0.33243850360E+02 -0.56934280210E+03  0.58385294178E+03  0.12000000000E+03 0.  0.
<mgrwt>
<rscale>  0 0.27546355E+03</rscale>
<asrwt>0</asrwt>
<pdfrwt beam="1">  1        1 0.27020197E+00 0.27546355E+03</pdfrwt>
<pdfrwt beam="2">  1       -1 0.16617017E-02 0.27546355E+03</pdfrwt>
<totfact> 0.43675015E+03</totfact>
</mgrwt>
</event>
<event>
 5    1  0.1122238E+001  0.2762660E+03  0.7818608E-02  0.1097746E+00
          1   -1    0    0  501    0  0.00000000000E+00  0.00000000000E+00  0.73315082493E+03  0.73315082493E+03  0.00000000000E+00 0. -1.
         -1   -1    0    0    0  501 -0.00000000000E+00 -0.00000000000E+00 -0.26025651244E+02  0.26025651244E+02  0.00000000000E+00 0. -1.
         35    2    1    2    0    0  0.00000000000E+00  0.00000000000E+00  0.70712517368E+03  0.75917647617E+03  0.27626601441E+03 0.  0.
         25    1    3    3    0    0  0.59906930905E+01 -0.67922060400E+02  0.33815594093E+03  0.36523791572E+03  0.12000000000E+03 0.  0.
         25    1    3    3    0    0 -0.59906930905E+01  0.67922060400E+02  0.36896923275E+03  0.39393856045E+03  0.12000000000E+03 0.  0.
<mgrwt>
<rscale>  0 0.27626601E+03</rscale>
<asrwt>0</asrwt>
<pdfrwt beam="1">  1        1 0.11279242E+00 0.27626601E+03</pdfrwt>
<pdfrwt beam="2">  1       -1 0.40039469E-02 0.27626601E+03</pdfrwt>
<totfact> 0.64481315E+03</totfact>
</mgrwt>
</event>
<event>
 5    1  0.1122238E+001  0.2743790E+03  0.7818608E-02  0.1098799E+00
          1   -1    0    0  501    0  0.00000000000E+00  0.00000000000E+00  0.15334972736E+03  0.15334972736E+03  0.00000000000E+00 0.  1.
         -1   -1    0    0    0  501 -0.00000000000E+00 -0.00000000000E+00 -0.12273223378E+03  0.12273223378E+03  0.00000000000E+00 0.  1.
         35    2    1    2    0    0  0.00000000000E+00  0.00000000000E+00  0.30617493588E+02  0.27608196114E+03  0.27437896850E+03 0.  0.
         25    1    3    3    0    0  0.71195170153E+01  0.42082445344E+02  0.66608860507E+02  0.14373016394E+03  0.12000000000E+03 0.  0.
         25    1    3    3    0    0 -0.71195170153E+01 -0.42082445344E+02 -0.35991366918E+02  0.13235179720E+03  0.12000000000E+03 0.  0.
<mgrwt>
<rscale>  0 0.27437897E+03</rscale>
<asrwt>0</asrwt>
<pdfrwt beam="1">  1        1 0.23592266E-01 0.27437897E+03</pdfrwt>
<pdfrwt beam="2">  1       -1 0.18881882E-01 0.27437897E+03</pdfrwt>
<totfact> 0.45370870E+03</totfact>
</mgrwt>
</event>
<event>
 5    1  0.1122238E+001  0.2755730E+03  0.7818608E-02  0.1098132E+00
          3   -1    0    0  501    0  0.00000000000E+00  0.00000000000E+00  0.41022598541E+02  0.41022598541E+02  0.00000000000E+00 0. -1.
         -3   -1    0    0    0  501 -0.00000000000E+00 -0.00000000000E+00 -0.46279676743E+03  0.46279676743E+03  0.00000000000E+00 0. -1.
         35    2    1    2    0    0  0.00000000000E+00  0.00000000000E+00 -0.42177416889E+03  0.50381936597E+03  0.27557304655E+03 0.  0.
         25    1    3    3    0    0 -0.57344672535E+02 -0.18276873144E+02 -0.15416176675E+03  0.20442188211E+03  0.12000000000E+03 0.  0.
         25    1    3    3    0    0  0.57344672535E+02  0.18276873144E+02 -0.26761240214E+03  0.29939748386E+03  0.12000000000E+03 0.  0.
<mgrwt>
<rscale>  0 0.27557305E+03</rscale>
<asrwt>0</asrwt>
<pdfrwt beam="1">  1        3 0.63111686E-02 0.27557305E+03</pdfrwt>
<pdfrwt beam="2">  1       -3 0.71199507E-01 0.27557305E+03</pdfrwt>
<totfact> 0.76498639E+02</totfact>
</mgrwt>
</event>
<event>
 5    1  0.1122238E+001  0.2726257E+03  0.7818608E-02  0.1099786E+00
         -4   -1    0    0    0  501 -0.00000000000E+00  0.00000000000E+00  0.27004460508E+02  0.27004460508E+02  0.00000000000E+00 0. -1.
          4   -1    0    0  501    0  0.00000000000E+00 -0.00000000000E+00 -0.68807858789E+03  0.68807858789E+03  0.00000000000E+00 0. -1.
         35    2    1    2    0    0  0.00000000000E+00  0.00000000000E+00 -0.66107412738E+03  0.71508304839E+03  0.27262568516E+03 0.  0.
         25    1    3    3    0    0  0.58964380487E+02 -0.25555692436E+02 -0.31175055168E+03  0.34017392324E+03  0.12000000000E+03 0.  0.
         25    1    3    3    0    0 -0.58964380487E+02  0.25555692436E+02 -0.34932357570E+03  0.37490912515E+03  0.12000000000E+03 0.  0.
<mgrwt>
<rscale>  0 0.27262569E+03</rscale>
<asrwt>0</asrwt>
<pdfrwt beam="1">  1        4 0.10585824E+00 0.27262569E+03</pdfrwt>
<pdfrwt beam="2">  1       -4 0.41545324E-02 0.27262569E+03</pdfrwt>
<totfact> 0.44948259E+02</totfact>
</mgrwt>
</event>
<event>
 5    1  0.1122238E+001  0.2745525E+03  0.7818608E-02  0.1098702E+00
          2   -1    0    0  501    0  0.00000000000E+00  0.00000000000E+00  0.18395691252E+03  0.18395691252E+03  0.00000000000E+00 0. -1.
         -2   -1    0    0    0  501 -0.00000000000E+00 -0.00000000000E+00 -0.10244119674E+03  0.10244119674E+03  0.00000000000E+00 0. -1.
         35    2    1    2    0    0  0.00000000000E+00  0.00000000000E+00  0.81515715782E+02  0.28639810927E+03  0.27455248145E+03 0.  0.
         25    1    3    3    0    0  0.48341228725E+02  0.45732469539E+02  0.36529180369E+02  0.14199547240E+03  0.12000000000E+03 0.  0.
         25    1    3    3    0    0 -0.48341228725E+02 -0.45732469539E+02  0.44986535413E+02  0.14440263686E+03  0.12000000000E+03 0.  0.
<mgrwt>
<rscale>  0 0.27455248E+03</rscale>
<asrwt>0</asrwt>
<pdfrwt beam="1">  1        2 0.28301063E-01 0.27455248E+03</pdfrwt>
<pdfrwt beam="2">  1       -2 0.15760184E-01 0.27455248E+03</pdfrwt>
<totfact> 0.58536458E+03</totfact>
</mgrwt>
</event>
<event>
 5    1  0.1122238E+001  0.2750494E+03  0.7818608E-02  0.1098424E+00
         -2   -1    0    0    0  501 -0.00000000000E+00  0.00000000000E+00  0.46549170353E+02  0.46549170353E+02  0.00000000000E+00 0.  1.
          2   -1    0    0  501    0  0.00000000000E+00 -0.00000000000E+00 -0.40630261430E+03  0.40630261430E+03  0.00000000000E+00 0.  1.
         35    2    1    2    0    0  0.00000000000E+00  0.00000000000E+00 -0.35975344395E+03  0.45285178465E+03  0.27504944725E+03 0.  0.
         25    1    3    3    0    0 -0.65839453592E+02 -0.96746491955E+01 -0.19502190166E+03  0.23845749016E+03  0.12000000000E+03 0.  0.
         25    1    3    3    0    0  0.65839453592E+02  0.96746491955E+01 -0.16473154228E+03  0.21439429449E+03  0.12000000000E+03 0.  0.
<mgrwt>
<rscale>  0 0.27504945E+03</rscale>
<asrwt>0</asrwt>
<pdfrwt beam="1">  1        2 0.62508098E-01 0.27504945E+03</pdfrwt>
<pdfrwt beam="2">  1       -2 0.71614104E-02 0.27504945E+03</pdfrwt>
<totfact> 0.87666925E+03</totfact>
</mgrwt>
</event>
<event>
 5    1  0.1122238E+001  0.2751889E+03  0.7818608E-02  0.1098346E+00
         -2   -1    0    0    0  501 -0.00000000000E+00  0.00000000000E+00  0.17347886360E+03  0.17347886360E+03  0.00000000000E+00 0. -1.
          2   -1    0    0  501    0  0.00000000000E+00 -0.00000000000E+00 -0.10913280512E+03  0.10913280512E+03  0.00000000000E+00 0. -1.
         35    2    1    2    0    0  0.00000000000E+00  0.00000000000E+00  0.64346058487E+02  0.28261166872E+03  0.27518891702E+03 0.  0.
         25    1    3    3    0    0  0.12324135823E+02  0.64563275064E+02  0.17222392996E+02  0.13790181881E+03  0.12000000000E+03 0.  0.
         25    1    3    3    0    0 -0.12324135823E+02 -0.64563275064E+02  0.47123665491E+02  0.14470984991E+03  0.12000000000E+03 0.  0.
<mgrwt>
<rscale>  0 0.27518892E+03</rscale>
<asrwt>0</asrwt>
<pdfrwt beam="1">  1        2 0.16789662E-01 0.27518892E+03</pdfrwt>
<pdfrwt beam="2">  1       -2 0.26689056E-01 0.27518892E+03</pdfrwt>
<totfact> 0.42836851E+03</totfact>
</mgrwt>
</event>
<event>
 5    1  0.1122238E+001  0.2755761E+03  0.7818608E-02  0.1098130E+00
         -1   -1    0    0    0  501 -0.00000000000E+00  0.00000000000E+00  0.13734187554E+02  0.13734187554E+02  0.00000000000E+00 0. -1.
          1   -1    0    0  501    0  0.00000000000E+00 -0.00000000000E+00 -0.13823566922E+04  0.13823566922E+04  0.00000000000E+00 0. -1.
         35    2    1    2    0    0  0.00000000000E+00  0.00000000000E+00 -0.13686225047E+04  0.13960908798E+04  0.27557609531E+03 0.  0.
         25    1    3    3    0    0 -0.26957851694E+02  0.61333142703E+02 -0.73422331568E+03  0.74697547313E+03  0.12000000000E+03 0.  0.
         25    1    3    3    0    0  0.26957851694E+02 -0.61333142703E+02 -0.63439918897E+03  0.64911540664E+03  0.12000000000E+03 0.  0.
<mgrwt>
<rscale>  0 0.27557610E+03</rscale>
<asrwt>0</asrwt>
<pdfrwt beam="1">  1        1 0.21267034E+00 0.27557610E+03</pdfrwt>
<pdfrwt beam="2">  1       -1 0.21129511E-02 0.27557610E+03</pdfrwt>
<totfact> 0.54266529E+03</totfact>
</mgrwt>
</event>
<event>
 5    1  0.1122238E+001  0.2747892E+03  0.7818608E-02  0.1098570E+00
          2   -1    0    0  501    0  0.00000000000E+00  0.00000000000E+00  0.28967693045E+03  0.28967693045E+03  0.00000000000E+00 0. -1.
         -2   -1    0    0    0  501 -0.00000000000E+00 -0.00000000000E+00 -0.65166639268E+02  0.65166639268E+02  0.00000000000E+00 0. -1.
         35    2    1    2    0    0  0.00000000000E+00  0.00000000000E+00  0.22451029118E+03  0.35484356972E+03  0.27478917032E+03 0.  0.
         25    1    3    3    0    0 -0.29616806185E+02  0.56062360816E+02  0.13986451494E+03  0.19489029234E+03  0.12000000000E+03 0.  0.
         25    1    3    3    0    0  0.29616806185E+02 -0.56062360816E+02  0.84645776246E+02  0.15995327738E+03  0.12000000000E+03 0.  0.
<mgrwt>
<rscale>  0 0.27478917E+03</rscale>
<asrwt>0</asrwt>
<pdfrwt beam="1">  1        2 0.44565681E-01 0.27478917E+03</pdfrwt>
<pdfrwt beam="2">  1       -2 0.10025637E-01 0.27478917E+03</pdfrwt>
<totfact> 0.74495890E+03</totfact>
</mgrwt>
</event>
<event>
 5    1  0.1122238E+001  0.2764578E+03  0.7818608E-02  0.1097639E+00
          2   -1    0    0  501    0  0.00000000000E+00  0.00000000000E+00  0.51224651019E+03  0.51224651019E+03  0.00000000000E+00 0. -1.
         -2   -1    0    0    0  501 -0.00000000000E+00 -0.00000000000E+00 -0.37300842657E+02  0.37300842657E+02  0.00000000000E+00 0. -1.
         35    2    1    2    0    0  0.00000000000E+00  0.00000000000E+00  0.47494566753E+03  0.54954735285E+03  0.27645778324E+03 0.  0.
         25    1    3    3    0    0  0.36754068036E+02 -0.49322235140E+02  0.29788682919E+03  0.32698640248E+03  0.12000000000E+03 0.  0.
         25    1    3    3    0    0 -0.36754068036E+02  0.49322235140E+02  0.17705883834E+03  0.22256095037E+03  0.12000000000E+03 0.  0.
<mgrwt>
<rscale>  0 0.27645778E+03</rscale>
<asrwt>0</asrwt>
<pdfrwt beam="1">  1        2 0.78807150E-01 0.27645778E+03</pdfrwt>
<pdfrwt beam="2">  1       -2 0.57385916E-02 0.27645778E+03</pdfrwt>
<totfact> 0.95496368E+03</totfact>
</mgrwt>
</event>
<event>
 5    1  0.1122238E+001  0.2739789E+03  0.7818608E-02  0.1099024E+00
          2   -1    0    0  501    0  0.00000000000E+00  0.00000000000E+00  0.67930811234E+03  0.67930811234E+03  0.00000000000E+00 0.  1.
         -2   -1    0    0    0  501 -0.00000000000E+00 -0.00000000000E+00 -0.27625332164E+02  0.27625332164E+02  0.00000000000E+00 0.  1.
         35    2    1    2    0    0  0.00000000000E+00  0.00000000000E+00  0.65168278017E+03  0.70693344450E+03  0.27397892068E+03 0.  0.
         25    1    3    3    0    0 -0.66001705958E+02 -0.30692508230E+01  0.32760420109E+03  0.35509176006E+03  0.12000000000E+03 0.  0.
         25    1    3    3    0    0  0.66001705958E+02  0.30692508230E+01  0.32407857908E+03  0.35184168444E+03  0.12000000000E+03 0.  0.
<mgrwt>
<rscale>  0 0.27397892E+03</rscale>
<asrwt>0</asrwt>
<pdfrwt beam="1">  1        2 0.10450893E+00 0.27397892E+03</pdfrwt>
<pdfrwt beam="2">  1       -2 0.42500516E-02 0.27397892E+03</pdfrwt>
<totfact> 0.10861126E+04</totfact>
</mgrwt>
</event>
<event>
 5    1  0.1122238E+001  0.2727802E+03  0.7818608E-02  0.1099699E+00
         -2   -1    0    0    0  501 -0.00000000000E+00  0.00000000000E+00  0.29835170542E+03  0.29835170542E+03  0.00000000000E+00 0. -1.
          2   -1    0    0  501    0  0.00000000000E+00 -0.00000000000E+00 -0.62350114468E+02  0.62350114468E+02  0.00000000000E+00 0. -1.
         35    2    1    2    0    0  0.00000000000E+00  0.00000000000E+00  0.23600159095E+03  0.36070181988E+03  0.27278022644E+03 0.  0.
         25    1    3    3    0    0  0.61730679760E+02  0.63466398896E+01  0.93216394251E+02  0.16413486168E+03  0.12000000000E+03 0.  0.
         25    1    3    3    0    0 -0.61730679760E+02 -0.63466398896E+01  0.14278519670E+03  0.19656695820E+03  0.12000000000E+03 0.  0.
<mgrwt>
<rscale>  0 0.27278023E+03</rscale>
<asrwt>0</asrwt>
<pdfrwt beam="1">  1        2 0.95923255E-02 0.27278023E+03</pdfrwt>
<pdfrwt beam="2">  1       -2 0.45900261E-01 0.27278023E+03</pdfrwt>
<totfact> 0.30623408E+03</totfact>
</mgrwt>
</event>
<event>
 5    1  0.1122238E+001  0.2741057E+03  0.7818608E-02  0.1098953E+00
         -1   -1    0    0    0  501 -0.00000000000E+00  0.00000000000E+00  0.79120949695E+01  0.79120949695E+01  0.00000000000E+00 0. -1.
          1   -1    0    0  501    0  0.00000000000E+00 -0.00000000000E+00 -0.23740213771E+04  0.23740213771E+04  0.00000000000E+00 0. -1.
         35    2    1    2    0    0  0.00000000000E+00  0.00000000000E+00 -0.23661092821E+04  0.23819334720E+04  0.27410569199E+03 0.  0.
         25    1    3    3    0    0 -0.39497674189E+02  0.38213942280E+02 -0.86222301259E+03  0.87226652755E+03  0.12000000000E+03 0.  0.
         25    1    3    3    0    0  0.39497674189E+02 -0.38213942280E+02 -0.15038862695E+04  0.15096669445E+04  0.12000000000E+03 0.  0.
<mgrwt>
<rscale>  0 0.27410569E+03</rscale>
<asrwt>0</asrwt>
<pdfrwt beam="1">  1        1 0.36523431E+00 0.27410569E+03</pdfrwt>
<pdfrwt beam="2">  1       -1 0.12172446E-02 0.27410569E+03</pdfrwt>
<totfact> 0.27179738E+03</totfact>
</mgrwt>
</event>
<event>
 5    1  0.1122238E+001  0.2753118E+03  0.7818608E-02  0.1098277E+00
         -1   -1    0    0    0  501 -0.00000000000E+00  0.00000000000E+00  0.13947027015E+03  0.13947027015E+03  0.00000000000E+00 0.  1.
          1   -1    0    0  501    0  0.00000000000E+00 -0.00000000000E+00 -0.13586514872E+03  0.13586514872E+03  0.00000000000E+00 0.  1.
         35    2    1    2    0    0  0.00000000000E+00  0.00000000000E+00  0.36051214317E+01  0.27533541886E+03  0.27531181591E+03 0.  0.
         25    1    3    3    0    0  0.15124277389E+02 -0.22754190589E+02  0.63473494573E+02  0.13847520164E+03  0.12000000000E+03 0.  0.
         25    1    3    3    0    0 -0.15124277389E+02  0.22754190589E+02 -0.59868373141E+02  0.13686021722E+03  0.12000000000E+03 0.  0.
<mgrwt>
<rscale>  0 0.27531182E+03</rscale>
<asrwt>0</asrwt>
<pdfrwt beam="1">  1        1 0.20902330E-01 0.27531182E+03</pdfrwt>
<pdfrwt beam="2">  1       -1 0.21456965E-01 0.27531182E+03</pdfrwt>
<totfact> 0.43036318E+03</totfact>
</mgrwt>
</event>
<event>
 5    1  0.1122238E+001  0.2740151E+03  0.7818608E-02  0.1099003E+00
          1   -1    0    0  501    0  0.00000000000E+00  0.00000000000E+00  0.27588959402E+04  0.27588959402E+04  0.00000000000E+00 0.  1.
         -1   -1    0    0    0  501 -0.00000000000E+00 -0.00000000000E+00 -0.68038327869E+01  0.68038327869E+01  0.00000000000E+00 0.  1.
         35    2    1    2    0    0  0.00000000000E+00  0.00000000000E+00  0.27520921074E+04  0.27656997730E+04  0.27401508465E+03 0.  0.
         25    1    3    3    0    0  0.39886627651E+02 -0.24146313251E+02  0.90294554688E+03  0.91207710647E+03  0.12000000000E+03 0.  0.
         25    1    3    3    0    0 -0.39886627651E+02  0.24146313251E+02  0.18491465606E+04  0.18536226666E+04  0.12000000000E+03 0.  0.
<mgrwt>
<rscale>  0 0.27401508E+03</rscale>
<asrwt>0</asrwt>
<pdfrwt beam="1">  1        1 0.42444463E+00 0.27401508E+03</pdfrwt>
<pdfrwt beam="2">  1       -1 0.10467457E-02 0.27401508E+03</pdfrwt>
<totfact> 0.18694822E+03</totfact>
</mgrwt>
</event>
<event>
 5    1  0.1122238E+001  0.2750944E+03  0.7818608E-02  0.1098399E+00
         -2   -1    0    0    0  501 -0.00000000000E+00  0.00000000000E+00  0.20479851497E+02  0.20479851497E+02  0.00000000000E+00 0.  1.
          2   -1    0    0  501    0  0.00000000000E+00 -0.00000000000E+00 -0.92379715382E+03  0.92379715382E+03  0.00000000000E+00 0.  1.
         35    2    1    2    0    0  0.00000000000E+00  0.00000000000E+00 -0.90331730232E+03  0.94427700532E+03  0.27509437307E+03 0.  0.
         25    1    3    3    0    0  0.23841118239E+02 -0.16687167571E+01 -0.66733809418E+03  0.67846246431E+03  0.12000000000E+03 0.  0.
         25    1    3    3    0    0 -0.23841118239E+02  0.16687167571E+01 -0.23597920815E+03  0.26581454101E+03  0.12000000000E+03 0.  0.
<mgrwt>
<rscale>  0 0.27509437E+03</rscale>
<asrwt>0</asrwt>
<pdfrwt beam="1">  1        2 0.14212262E+00 0.27509437E+03</pdfrwt>
<pdfrwt beam="2">  1       -2 0.31507468E-02 0.27509437E+03</pdfrwt>
<totfact> 0.11508641E+04</totfact>
</mgrwt>
</event>
<event>
 5    1  0.1122238E+001  0.2755818E+03  0.7818608E-02  0.1098127E+00
         -2   -1    0    0    0  501 -0.00000000000E+00  0.00000000000E+00  0.39501115048E+03  0.39501115048E+03  0.00000000000E+00 0. -1.
          2   -1    0    0  501    0  0.00000000000E+00 -0.00000000000E+00 -0.48065301512E+02  0.48065301512E+02  0.00000000000E+00 0. -1.
         35    2    1    2    0    0  0.00000000000E+00  0.00000000000E+00  0.34694584897E+03  0.44307645199E+03  0.27558178494E+03 0.  0.
         25    1    3    3    0    0 -0.50218534453E+02 -0.18171638924E+01  0.24646580653E+03  0.27869445110E+03  0.12000000000E+03 0.  0.
         25    1    3    3    0    0  0.50218534453E+02  0.18171638924E+01  0.10048004243E+03  0.16438200088E+03  0.12000000000E+03 0.  0.
<mgrwt>
<rscale>  0 0.27558178E+03</rscale>
<asrwt>0</asrwt>
<pdfrwt beam="1">  1        2 0.73946620E-02 0.27558178E+03</pdfrwt>
<pdfrwt beam="2">  1       -2 0.60770944E-01 0.27558178E+03</pdfrwt>
<totfact> 0.24163085E+03</totfact>
</mgrwt>
</event>
<event>
 5    1  0.1122238E+001  0.2755677E+03  0.7818608E-02  0.1098135E+00
         -1   -1    0    0    0  501 -0.00000000000E+00  0.00000000000E+00  0.40560401051E+02  0.40560401051E+02  0.00000000000E+00 0.  1.
          1   -1    0    0  501    0  0.00000000000E+00 -0.00000000000E+00 -0.46805224366E+03  0.46805224366E+03  0.00000000000E+00 0.  1.
         35    2    1    2    0    0  0.00000000000E+00  0.00000000000E+00 -0.42749184261E+03  0.50861264471E+03  0.27556768109E+03 0.  0.
         25    1    3    3    0    0  0.49025273618E+02  0.10432441978E+02 -0.29776181297E+03  0.32492216077E+03  0.12000000000E+03 0.  0.
         25    1    3    3    0    0 -0.49025273618E+02 -0.10432441978E+02 -0.12973002964E+03  0.18369048394E+03  0.12000000000E+03 0.  0.
<mgrwt>
<rscale>  0 0.27556768E+03</rscale>
<asrwt>0</asrwt>
<pdfrwt beam="1">  1        1 0.72008042E-01 0.27556768E+03</pdfrwt>
<pdfrwt beam="2">  1       -1 0.62400613E-02 0.27556768E+03</pdfrwt>
<totfact> 0.61770261E+03</totfact>
</mgrwt>
</event>
<event>
 5    1  0.1122238E+001  0.2760309E+03  0.7818608E-02  0.1097877E+00
         -2   -1    0    0    0  501 -0.00000000000E+00  0.00000000000E+00  0.93153596177E+01  0.93153596177E+01  0.00000000000E+00 0. -1.
          2   -1    0    0  501    0  0.00000000000E+00 -0.00000000000E+00 -0.20448237695E+04  0.20448237695E+04  0.00000000000E+00 0. -1.
         35    2    1    2    0    0  0.00000000000E+00  0.00000000000E+00 -0.20355084099E+04  0.20541391291E+04  0.27603093137E+03 0.  0.
         25    1    3    3    0    0  0.64539859499E+02  0.21374255725E+01 -0.85500257601E+03  0.86579406734E+03  0.12000000000E+03 0.  0.
         25    1    3    3    0    0 -0.64539859499E+02 -0.21374255725E+01 -0.11805058339E+04  0.11883450618E+04  0.12000000000E+03 0.  0.
<mgrwt>
<rscale>  0 0.27603093E+03</rscale>
<asrwt>0</asrwt>
<pdfrwt beam="1">  1        2 0.31458866E+00 0.27603093E+03</pdfrwt>
<pdfrwt beam="2">  1       -2 0.14331305E-02 0.27603093E+03</pdfrwt>
<totfact> 0.88747143E+03</totfact>
</mgrwt>
</event>
<event>
 5    1  0.1122238E+001  0.2748556E+03  0.7818608E-02  0.1098532E+00
          2   -1    0    0  501    0  0.00000000000E+00  0.00000000000E+00  0.37233578471E+03  0.37233578471E+03  0.00000000000E+00 0.  1.
         -2   -1    0    0    0  501 -0.00000000000E+00 -0.00000000000E+00 -0.50724088813E+02  0.50724088813E+02  0.00000000000E+00 0.  1.
         35    2    1    2    0    0  0.00000000000E+00  0.00000000000E+00  0.32161169590E+03  0.42305987353E+03  0.27485555051E+03 0.  0.
         25    1    3    3    0    0 -0.29914277016E+02 -0.43951635881E+02  0.22351385503E+03  0.25920079795E+03  0.12000000000E+03 0.  0.
         25    1    3    3    0    0  0.29914277016E+02  0.43951635881E+02  0.98097840866E+02  0.16385907558E+03  0.12000000000E+03 0.  0.
<mgrwt>
<rscale>  0 0.27485555E+03</rscale>
<asrwt>0</asrwt>
<pdfrwt beam="1">  1        2 0.57282427E-01 0.27485555E+03</pdfrwt>
<pdfrwt beam="2">  1       -2 0.78037062E-02 0.27485555E+03</pdfrwt>
<totfact> 0.84320668E+03</totfact>
</mgrwt>
</event>
<event>
 5    1  0.1122238E+001  0.2745350E+03  0.7818608E-02  0.1098712E+00
         -2   -1    0    0    0  501 -0.00000000000E+00  0.00000000000E+00  0.10444486891E+03  0.10444486891E+03  0.00000000000E+00 0.  1.
          2   -1    0    0  501    0  0.00000000000E+00 -0.00000000000E+00 -0.18040484860E+03  0.18040484860E+03  0.00000000000E+00 0.  1.
         35    2    1    2    0    0  0.00000000000E+00  0.00000000000E+00 -0.75959979691E+02  0.28484971752E+03  0.27453495780E+03 0.  0.
         25    1    3    3    0    0  0.47145837002E+02  0.52477978437E+01  0.10598887342E+02  0.12947048213E+03  0.12000000000E+03 0.  0.
         25    1    3    3    0    0 -0.47145837002E+02 -0.52477978437E+01 -0.86558867033E+02  0.15537923539E+03  0.12000000000E+03 0.  0.
<mgrwt>
<rscale>  0 0.27453496E+03</rscale>
<asrwt>0</asrwt>
<pdfrwt beam="1">  1        2 0.27754592E-01 0.27453496E+03</pdfrwt>
<pdfrwt beam="2">  1       -2 0.16068442E-01 0.27453496E+03</pdfrwt>
<totfact> 0.57914144E+03</totfact>
</mgrwt>
</event>
<event>
 5    1  0.1122238E+001  0.2785586E+03  0.7818608E-02  0.1096479E+00
         -2   -1    0    0    0  501 -0.00000000000E+00  0.00000000000E+00  0.69713766002E+01  0.69713766002E+01  0.00000000000E+00 0. -1.
          2   -1    0    0  501    0  0.00000000000E+00 -0.00000000000E+00 -0.27826253115E+04  0.27826253115E+04  0.00000000000E+00 0. -1.
         35    2    1    2    0    0  0.00000000000E+00  0.00000000000E+00 -0.27756539349E+04  0.27895966881E+04  0.27855864003E+03 0.  0.
         25    1    3    3    0    0 -0.49585619780E+02  0.50185342505E+02 -0.13414713515E+04  0.13486744193E+04  0.12000000000E+03 0.  0.
         25    1    3    3    0    0  0.49585619780E+02 -0.50185342505E+02 -0.14341825834E+04  0.14409222688E+04  0.12000000000E+03 0.  0.
<mgrwt>
<rscale>  0 0.27855864E+03</rscale>
<asrwt>0</asrwt>
<pdfrwt beam="1">  1        2 0.42809617E+00 0.27855864E+03</pdfrwt>
<pdfrwt beam="2">  1       -2 0.10725196E-02 0.27855864E+03</pdfrwt>
<totfact> 0.53669231E+03</totfact>
</mgrwt>
</event>
<event>
 5    1  0.1122238E+001  0.2751937E+03  0.7818608E-02  0.1098343E+00
         -2   -1    0    0    0  501 -0.00000000000E+00  0.00000000000E+00  0.14234826727E+02  0.14234826727E+02  0.00000000000E+00 0. -1.
          2   -1    0    0  501    0  0.00000000000E+00 -0.00000000000E+00 -0.13300406406E+04  0.13300406406E+04  0.00000000000E+00 0. -1.
         35    2    1    2    0    0  0.00000000000E+00  0.00000000000E+00 -0.13158058138E+04  0.13442754673E+04  0.27519373582E+03 0.  0.
         25    1    3    3    0    0 -0.99678305787E+01 -0.49706370151E+02 -0.44148676320E+03  0.46030494562E+03  0.12000000000E+03 0.  0.
         25    1    3    3    0    0  0.99678305787E+01  0.49706370151E+02 -0.87431905064E+03  0.88397052168E+03  0.12000000000E+03 0.  0.
<mgrwt>
<rscale>  0 0.27519374E+03</rscale>
<asrwt>0</asrwt>
<pdfrwt beam="1">  1        2 0.20462176E+00 0.27519374E+03</pdfrwt>
<pdfrwt beam="2">  1       -2 0.21899721E-02 0.27519374E+03</pdfrwt>
<totfact> 0.11409688E+04</totfact>
</mgrwt>
</event>
<event>
 5    1  0.1122238E+001  0.2744522E+03  0.7818608E-02  0.1098758E+00
          2   -1    0    0  501    0  0.00000000000E+00  0.00000000000E+00  0.33507127304E+03  0.33507127304E+03  0.00000000000E+00 0. -1.
         -2   -1    0    0    0  501 -0.00000000000E+00 -0.00000000000E+00 -0.56199984290E+02  0.56199984290E+02  0.00000000000E+00 0. -1.
         35    2    1    2    0    0  0.00000000000E+00  0.00000000000E+00  0.27887128875E+03  0.39127125733E+03  0.27445218367E+03 0.  0.
         25    1    3    3    0    0  0.35770818930E+02  0.49557545057E+02  0.10183811036E+03  0.16883868775E+03  0.12000000000E+03 0.  0.
         25    1    3    3    0    0 -0.35770818930E+02 -0.49557545057E+02  0.17703317839E+03  0.22243256958E+03  0.12000000000E+03 0.  0.
<mgrwt>
<rscale>  0 0.27445218E+03</rscale>
<asrwt>0</asrwt>
<pdfrwt beam="1">  1        2 0.51549426E-01 0.27445218E+03</pdfrwt>
<pdfrwt beam="2">  1       -2 0.86461516E-02 0.27445218E+03</pdfrwt>
<totfact> 0.80479287E+03</totfact>
</mgrwt>
</event>
<event>
 5    1  0.1122238E+001  0.2747774E+03  0.7818608E-02  0.1098576E+00
          2   -1    0    0  501    0  0.00000000000E+00  0.00000000000E+00  0.13905470035E+03  0.13905470035E+03  0.00000000000E+00 0. -1.
         -2   -1    0    0    0  501 -0.00000000000E+00 -0.00000000000E+00 -0.13574263589E+03  0.13574263589E+03  0.00000000000E+00 0. -1.
         35    2    1    2    0    0  0.00000000000E+00  0.00000000000E+00  0.33120644623E+01  0.27479733623E+03  0.27477737576E+03 0.  0.
         25    1    3    3    0    0 -0.40198891026E+02 -0.52329944021E+00  0.55133525831E+02  0.13804321915E+03  0.12000000000E+03 0.  0.
         25    1    3    3    0    0  0.40198891026E+02  0.52329944021E+00 -0.51821461368E+02  0.13675411709E+03  0.12000000000E+03 0.  0.
<mgrwt>
<rscale>  0 0.27477738E+03</rscale>
<asrwt>0</asrwt>
<pdfrwt beam="1">  1        2 0.21393031E-01 0.27477738E+03</pdfrwt>
<pdfrwt beam="2">  1       -2 0.20883482E-01 0.27477738E+03</pdfrwt>
<totfact> 0.49768021E+03</totfact>
</mgrwt>
</event>
<event>
 5    1  0.1122238E+001  0.2779145E+03  0.7818608E-02  0.1096833E+00
          2   -1    0    0  501    0  0.00000000000E+00  0.00000000000E+00  0.67962692259E+02  0.67962692259E+02  0.00000000000E+00 0. -1.
         -2   -1    0    0    0  501 -0.00000000000E+00 -0.00000000000E+00 -0.28411348149E+03  0.28411348149E+03  0.00000000000E+00 0. -1.
         35    2    1    2    0    0  0.00000000000E+00  0.00000000000E+00 -0.21615078923E+03  0.35207617375E+03  0.27791449843E+03 0.  0.
         25    1    3    3    0    0 -0.49705463990E+02 -0.48397475562E+02 -0.95651966787E+02  0.16841094840E+03  0.12000000000E+03 0.  0.
         25    1    3    3    0    0  0.49705463990E+02  0.48397475562E+02 -0.12049882244E+03  0.18366522535E+03  0.12000000000E+03 0.  0.
<mgrwt>
<rscale>  0 0.27791450E+03</rscale>
<asrwt>0</asrwt>
<pdfrwt beam="1">  1        2 0.10455799E-01 0.27791450E+03</pdfrwt>
<pdfrwt beam="2">  1       -2 0.43709766E-01 0.27791450E+03</pdfrwt>
<totfact> 0.30286627E+03</totfact>
</mgrwt>
</event>
<event>
 5    1  0.1122238E+001  0.2772303E+03  0.7818608E-02  0.1097211E+00
         -2   -1    0    0    0  501 -0.00000000000E+00  0.00000000000E+00  0.38887855583E+02  0.38887855583E+02  0.00000000000E+00 0. -1.
          2   -1    0    0  501    0  0.00000000000E+00 -0.00000000000E+00 -0.49409140566E+03  0.49409140566E+03  0.00000000000E+00 0. -1.
         35    2    1    2    0    0  0.00000000000E+00  0.00000000000E+00 -0.45520355008E+03  0.53297926124E+03  0.27723026695E+03 0.  0.
         25    1    3    3    0    0 -0.43574057307E+02 -0.86543515780E+00 -0.33139456296E+03  0.35513631722E+03  0.12000000000E+03 0.  0.
         25    1    3    3    0    0  0.43574057307E+02  0.86543515780E+00 -0.12380898711E+03  0.17784294402E+03  0.12000000000E+03 0.  0.
<mgrwt>
<rscale>  0 0.27723027E+03</rscale>
<asrwt>0</asrwt>
<pdfrwt beam="1">  1        2 0.76014063E-01 0.27723027E+03</pdfrwt>
<pdfrwt beam="2">  1       -2 0.59827470E-02 0.27723027E+03</pdfrwt>
<totfact> 0.93295598E+03</totfact>
</mgrwt>
</event>
<event>
 5    1  0.1122238E+001  0.2835434E+03  0.7818608E-02  0.1093769E+00
          2   -1    0    0  501    0  0.00000000000E+00  0.00000000000E+00  0.54055393804E+03  0.54055393804E+03  0.00000000000E+00 0. -1.
         -2   -1    0    0    0  501 -0.00000000000E+00 -0.00000000000E+00 -0.37182634851E+02  0.37182634851E+02  0.00000000000E+00 0. -1.
         35    2    1    2    0    0  0.00000000000E+00  0.00000000000E+00  0.50337130318E+03  0.57773657289E+03  0.28354343368E+03 0.  0.
         25    1    3    3    0    0 -0.19145566423E+02  0.21863879447E+02  0.39365306876E+03  0.41256189897E+03  0.12000000000E+03 0.  0.
         25    1    3    3    0    0  0.19145566423E+02 -0.21863879447E+02  0.10971823443E+03  0.16517467392E+03  0.12000000000E+03 0.  0.
<mgrwt>
<rscale>  0 0.28354343E+03</rscale>
<asrwt>0</asrwt>
<pdfrwt beam="1">  1        2 0.83162139E-01 0.28354343E+03</pdfrwt>
<pdfrwt beam="2">  1       -2 0.57204058E-02 0.28354343E+03</pdfrwt>
<totfact> 0.90386060E+03</totfact>
</mgrwt>
</event>
<event>
 5    1  0.1122238E+001  0.2746899E+03  0.7818608E-02  0.1098625E+00
         -3   -1    0    0    0  501 -0.00000000000E+00  0.00000000000E+00  0.20411565180E+04  0.20411565180E+04  0.00000000000E+00 0. -1.
          3   -1    0    0  501    0  0.00000000000E+00 -0.00000000000E+00 -0.92416416184E+01  0.92416416184E+01  0.00000000000E+00 0. -1.
         35    2    1    2    0    0  0.00000000000E+00  0.00000000000E+00  0.20319148763E+04  0.20503981596E+04  0.27468991264E+03 0.  0.
         25    1    3    3    0    0  0.41019864430E+02 -0.51739152612E+02  0.93981027082E+03  0.94973833993E+03  0.12000000000E+03 0.  0.
         25    1    3    3    0    0 -0.41019864430E+02  0.51739152612E+02  0.10921046055E+04  0.11006598197E+04  0.12000000000E+03 0.  0.
<mgrwt>
<rscale>  0 0.27468991E+03</rscale>
<asrwt>0</asrwt>
<pdfrwt beam="1">  1        3 0.14217926E-02 0.27468991E+03</pdfrwt>
<pdfrwt beam="2">  1       -3 0.31402372E+00 0.27468991E+03</pdfrwt>
<totfact> 0.14981308E+02</totfact>
</mgrwt>
</event>
<event>
 5    1  0.1122238E+001  0.2745481E+03  0.7818608E-02  0.1098704E+00
          1   -1    0    0  501    0  0.00000000000E+00  0.00000000000E+00  0.33264993820E+03  0.33264993820E+03  0.00000000000E+00 0. -1.
         -1   -1    0    0    0  501 -0.00000000000E+00 -0.00000000000E+00 -0.56648642233E+02  0.56648642233E+02  0.00000000000E+00 0. -1.
         35    2    1    2    0    0  0.00000000000E+00  0.00000000000E+00  0.27600129597E+03  0.38929858044E+03  0.27454811846E+03 0.  0.
         25    1    3    3    0    0  0.33737753344E+02 -0.53270462759E+02  0.10731925921E+03  0.17289708384E+03  0.12000000000E+03 0.  0.
         25    1    3    3    0    0 -0.33737753344E+02  0.53270462759E+02  0.16868203676E+03  0.21640149659E+03  0.12000000000E+03 0.  0.
<mgrwt>
<rscale>  0 0.27454812E+03</rscale>
<asrwt>0</asrwt>
<pdfrwt beam="1">  1        1 0.51176912E-01 0.27454812E+03</pdfrwt>
<pdfrwt beam="2">  1       -1 0.87151760E-02 0.27454812E+03</pdfrwt>
<totfact> 0.57579226E+03</totfact>
</mgrwt>
</event>
<event>
 5    1  0.1122238E+001  0.2750300E+03  0.7818608E-02  0.1098435E+00
         -1   -1    0    0    0  501 -0.00000000000E+00  0.00000000000E+00  0.19686185034E+02  0.19686185034E+02  0.00000000000E+00 0.  1.
          1   -1    0    0  501    0  0.00000000000E+00 -0.00000000000E+00 -0.96059150060E+03  0.96059150060E+03  0.00000000000E+00 0.  1.
         35    2    1    2    0    0  0.00000000000E+00  0.00000000000E+00 -0.94090531557E+03  0.98027768564E+03  0.27503004943E+03 0.  0.
         25    1    3    3    0    0 -0.12291148185E+02 -0.29368065691E+02 -0.25968401107E+03  0.28783561491E+03  0.12000000000E+03 0.  0.
         25    1    3    3    0    0  0.12291148185E+02  0.29368065691E+02 -0.68122130450E+03  0.69244207073E+03  0.12000000000E+03 0.  0.
<mgrwt>
<rscale>  0 0.27503005E+03</rscale>
<asrwt>0</asrwt>
<pdfrwt beam="1">  1        1 0.14778328E+00 0.27503005E+03</pdfrwt>
<pdfrwt beam="2">  1       -1 0.30286445E-02 0.27503005E+03</pdfrwt>
<totfact> 0.63663723E+03</totfact>
</mgrwt>
</event>
<event>
 5    1  0.1122238E+001  0.2749286E+03  0.7818608E-02  0.1098492E+00
          2   -1    0    0  501    0  0.00000000000E+00  0.00000000000E+00  0.37187619257E+03  0.37187619257E+03  0.00000000000E+00 0. -1.
         -2   -1    0    0    0  501 -0.00000000000E+00 -0.00000000000E+00 -0.50813775857E+02  0.50813775857E+02  0.00000000000E+00 0. -1.
         35    2    1    2    0    0  0.00000000000E+00  0.00000000000E+00  0.32106241671E+03  0.42268996842E+03  0.27492859797E+03 0.  0.
         25    1    3    3    0    0  0.62004680829E+01  0.65803668017E+02  0.14314608373E+03  0.19813977343E+03  0.12000000000E+03 0.  0.
         25    1    3    3    0    0 -0.62004680829E+01 -0.65803668017E+02  0.17791633298E+03  0.22455019499E+03  0.12000000000E+03 0.  0.
<mgrwt>
<rscale>  0 0.27492860E+03</rscale>
<asrwt>0</asrwt>
<pdfrwt beam="1">  1        2 0.57211720E-01 0.27492860E+03</pdfrwt>
<pdfrwt beam="2">  1       -2 0.78175042E-02 0.27492860E+03</pdfrwt>
<totfact> 0.84201911E+03</totfact>
</mgrwt>
</event>
<event>
 5    1  0.1122238E+001  0.2753727E+03  0.7818608E-02  0.1098243E+00
          1   -1    0    0  501    0  0.00000000000E+00  0.00000000000E+00  0.86251516686E+03  0.86251516686E+03  0.00000000000E+00 0. -1.
         -1   -1    0    0    0  501 -0.00000000000E+00 -0.00000000000E+00 -0.21979353286E+02  0.21979353286E+02  0.00000000000E+00 0. -1.
         35    2    1    2    0    0  0.00000000000E+00  0.00000000000E+00  0.84053581357E+03  0.88449452014E+03  0.27537266071E+03 0.  0.
         25    1    3    3    0    0 -0.40629140528E+02  0.53064218063E+02  0.45090620495E+03  0.47136285806E+03  0.12000000000E+03 0.  0.
         25    1    3    3    0    0  0.40629140528E+02 -0.53064218063E+02  0.38962960862E+03  0.41313166208E+03  0.12000000000E+03 0.  0.
<mgrwt>
<rscale>  0 0.27537266E+03</rscale>
<asrwt>0</asrwt>
<pdfrwt beam="1">  1        1 0.13269462E+00 0.27537266E+03</pdfrwt>
<pdfrwt beam="2">  1       -1 0.33814396E-02 0.27537266E+03</pdfrwt>
<totfact> 0.64536521E+03</totfact>
</mgrwt>
</event>
<event>
 5    1  0.1122238E+001  0.2751237E+03  0.7818608E-02  0.1098382E+00
          1   -1    0    0  501    0  0.00000000000E+00  0.00000000000E+00  0.16385624755E+03  0.16385624755E+03  0.00000000000E+00 0.  1.
         -1   -1    0    0    0  501 -0.00000000000E+00 -0.00000000000E+00 -0.11548699410E+03  0.11548699410E+03  0.00000000000E+00 0.  1.
         35    2    1    2    0    0  0.00000000000E+00  0.00000000000E+00  0.48369253454E+02  0.27934324165E+03  0.27512372122E+03 0.  0.
         25    1    3    3    0    0  0.46189576730E+02  0.10276260482E+02  0.72710790124E+02  0.14807409472E+03  0.12000000000E+03 0.  0.
         25    1    3    3    0    0 -0.46189576730E+02 -0.10276260482E+02 -0.24341536669E+02  0.13126914693E+03  0.12000000000E+03 0.  0.
<mgrwt>
<rscale>  0 0.27512372E+03</rscale>
<asrwt>0</asrwt>
<pdfrwt beam="1">  1        1 0.25208653E-01 0.27512372E+03</pdfrwt>
<pdfrwt beam="2">  1       -1 0.17767230E-01 0.27512372E+03</pdfrwt>
<totfact> 0.45998941E+03</totfact>
</mgrwt>
</event>
<event>
 5    1  0.1122238E+001  0.2751425E+03  0.7818608E-02  0.1098372E+00
         -2   -1    0    0    0  501 -0.00000000000E+00  0.00000000000E+00  0.15582009456E+03  0.15582009456E+03  0.00000000000E+00 0.  1.
          2   -1    0    0  501    0  0.00000000000E+00 -0.00000000000E+00 -0.12145959987E+03  0.12145959987E+03  0.00000000000E+00 0.  1.
         35    2    1    2    0    0  0.00000000000E+00  0.00000000000E+00  0.34360494691E+02  0.27727969442E+03  0.27514248190E+03 0.  0.
         25    1    3    3    0    0 -0.66884064620E+02 -0.68743100628E+01  0.19458804706E+02  0.13892220600E+03  0.12000000000E+03 0.  0.
         25    1    3    3    0    0  0.66884064620E+02  0.68743100628E+01  0.14901689985E+02  0.13835748843E+03  0.12000000000E+03 0.  0.
<mgrwt>
<rscale>  0 0.27514248E+03</rscale>
<asrwt>0</asrwt>
<pdfrwt beam="1">  1        2 0.18686092E-01 0.27514248E+03</pdfrwt>
<pdfrwt beam="2">  1       -2 0.23972322E-01 0.27514248E+03</pdfrwt>
<totfact> 0.45730659E+03</totfact>
</mgrwt>
</event>
<event>
 5    1  0.1122238E+001  0.2747286E+03  0.7818608E-02  0.1098603E+00
          1   -1    0    0  501    0  0.00000000000E+00  0.00000000000E+00  0.19406298072E+03  0.19406298072E+03  0.00000000000E+00 0. -1.
         -1   -1    0    0    0  501 -0.00000000000E+00 -0.00000000000E+00 -0.97231101391E+02  0.97231101391E+02  0.00000000000E+00 0. -1.
         35    2    1    2    0    0  0.00000000000E+00  0.00000000000E+00  0.96831879332E+02  0.29129408211E+03  0.27472864688E+03 0.  0.
         25    1    3    3    0    0  0.59276155346E+02 -0.68599474475E+01  0.16461806358E+02  0.13502485897E+03  0.12000000000E+03 0.  0.
         25    1    3    3    0    0 -0.59276155346E+02  0.68599474475E+01  0.80370072974E+02  0.15626922314E+03  0.12000000000E+03 0.  0.
<mgrwt>
<rscale>  0 0.27472865E+03</rscale>
<asrwt>0</asrwt>
<pdfrwt beam="1">  1        1 0.29855843E-01 0.27472865E+03</pdfrwt>
<pdfrwt beam="2">  1       -1 0.14958631E-01 0.27472865E+03</pdfrwt>
<totfact> 0.48863322E+03</totfact>
</mgrwt>
</event>
<event>
 5    1  0.1122238E+001  0.2746246E+03  0.7818608E-02  0.1098662E+00
          2   -1    0    0  501    0  0.00000000000E+00  0.00000000000E+00  0.43000806825E+03  0.43000806825E+03  0.00000000000E+00 0. -1.
         -2   -1    0    0    0  501 -0.00000000000E+00 -0.00000000000E+00 -0.43847241532E+02  0.43847241532E+02  0.00000000000E+00 0. -1.
         35    2    1    2    0    0  0.00000000000E+00  0.00000000000E+00  0.38616082672E+03  0.47385530978E+03  0.27462459926E+03 0.  0.
         25    1    3    3    0    0 -0.50994387700E+02 -0.36524835590E+02  0.23243375839E+03  0.26899803574E+03  0.12000000000E+03 0.  0.
         25    1    3    3    0    0  0.50994387700E+02  0.36524835590E+02  0.15372706833E+03  0.20485727404E+03  0.12000000000E+03 0.  0.
<mgrwt>
<rscale>  0 0.27462460E+03</rscale>
<asrwt>0</asrwt>
<pdfrwt beam="1">  1        2 0.66155084E-01 0.27462460E+03</pdfrwt>
<pdfrwt beam="2">  1       -2 0.67457298E-02 0.27462460E+03</pdfrwt>
<totfact> 0.90390865E+03</totfact>
</mgrwt>
</event>
<event>
 5    1  0.1122238E+001  0.2717072E+03  0.7818608E-02  0.1100307E+00
          1   -1    0    0  501    0  0.00000000000E+00  0.00000000000E+00  0.70869916570E+02  0.70869916570E+02  0.00000000000E+00 0. -1.
         -1   -1    0    0    0  501 -0.00000000000E+00 -0.00000000000E+00 -0.26042355960E+03  0.26042355960E+03  0.00000000000E+00 0. -1.
         35    2    1    2    0    0  0.00000000000E+00  0.00000000000E+00 -0.18955364303E+03  0.33129347617E+03  0.27170716547E+03 0.  0.
         25    1    3    3    0    0  0.57282988407E+02  0.27825790723E+02 -0.93847786142E+02  0.16511517905E+03  0.12000000000E+03 0.  0.
         25    1    3    3    0    0 -0.57282988407E+02 -0.27825790723E+02 -0.95705856891E+02  0.16617829712E+03  0.12000000000E+03 0.  0.
<mgrwt>
<rscale>  0 0.27170717E+03</rscale>
<asrwt>0</asrwt>
<pdfrwt beam="1">  1        1 0.10903064E-01 0.27170717E+03</pdfrwt>
<pdfrwt beam="2">  1       -1 0.40065163E-01 0.27170717E+03</pdfrwt>
<totfact> 0.34958344E+03</totfact>
</mgrwt>
</event>
<event>
 5    1  0.1122238E+001  0.2754503E+03  0.7818608E-02  0.1098200E+00
         -2   -1    0    0    0  501 -0.00000000000E+00  0.00000000000E+00  0.14142993626E+03  0.14142993626E+03  0.00000000000E+00 0.  1.
          2   -1    0    0  501    0  0.00000000000E+00 -0.00000000000E+00 -0.13411744391E+03  0.13411744391E+03  0.00000000000E+00 0.  1.
         35    2    1    2    0    0  0.00000000000E+00  0.00000000000E+00  0.73124923418E+01  0.27554738017E+03  0.27545033341E+03 0.  0.
         25    1    3    3    0    0 -0.53536379902E+02 -0.16640793338E+02 -0.34108366516E+02  0.13677149061E+03  0.12000000000E+03 0.  0.
         25    1    3    3    0    0  0.53536379902E+02  0.16640793338E+02  0.41420858858E+02  0.13877588956E+03  0.12000000000E+03 0.  0.
<mgrwt>
<rscale>  0 0.27545033E+03</rscale>
<asrwt>0</asrwt>
<pdfrwt beam="1">  1        2 0.20633453E-01 0.27545033E+03</pdfrwt>
<pdfrwt beam="2">  1       -2 0.21758452E-01 0.27545033E+03</pdfrwt>
<totfact> 0.48318414E+03</totfact>
</mgrwt>
</event>
<event>
 5    1  0.1122238E+001  0.2747686E+03  0.7818608E-02  0.1098581E+00
          1   -1    0    0  501    0  0.00000000000E+00  0.00000000000E+00  0.16821059062E+03  0.16821059062E+03  0.00000000000E+00 0.  1.
         -1   -1    0    0    0  501 -0.00000000000E+00 -0.00000000000E+00 -0.11220722720E+03  0.11220722720E+03  0.00000000000E+00 0.  1.
         35    2    1    2    0    0  0.00000000000E+00  0.00000000000E+00  0.56003363417E+02  0.28041781782E+03  0.27476858597E+03 0.  0.
         25    1    3    3    0    0  0.65887471782E+02 -0.78237920513E+01  0.36665827004E+02  0.14193926000E+03  0.12000000000E+03 0.  0.
         25    1    3    3    0    0 -0.65887471782E+02  0.78237920513E+01  0.19337536413E+02  0.13847855781E+03  0.12000000000E+03 0.  0.
<mgrwt>
<rscale>  0 0.27476859E+03</rscale>
<asrwt>0</asrwt>
<pdfrwt beam="1">  1        1 0.25878552E-01 0.27476859E+03</pdfrwt>
<pdfrwt beam="2">  1       -1 0.17262650E-01 0.27476859E+03</pdfrwt>
<totfact> 0.46595682E+03</totfact>
</mgrwt>
</event>
<event>
 5    1  0.1122238E+001  0.2748089E+03  0.7818608E-02  0.1098558E+00
          2   -1    0    0  501    0  0.00000000000E+00  0.00000000000E+00  0.39725722534E+04  0.39725722534E+04  0.00000000000E+00 0.  1.
         -2   -1    0    0    0  501 -0.00000000000E+00 -0.00000000000E+00 -0.47525823818E+01  0.47525823818E+01  0.00000000000E+00 0.  1.
         35    2    1    2    0    0  0.00000000000E+00  0.00000000000E+00  0.39678196710E+04  0.39773248358E+04  0.27480885649E+03 0.  0.
         25    1    3    3    0    0  0.57194689986E+02 -0.30130901882E+02  0.22349550869E+04  0.22391077117E+04  0.12000000000E+03 0.  0.
         25    1    3    3    0    0 -0.57194689986E+02  0.30130901882E+02  0.17328645841E+04  0.17382171241E+04  0.12000000000E+03 0.  0.
<mgrwt>
<rscale>  0 0.27480886E+03</rscale>
<asrwt>0</asrwt>
<pdfrwt beam="1">  1        2 0.61116231E+00 0.27480886E+03</pdfrwt>
<pdfrwt beam="2">  1       -2 0.73116970E-03 0.27480886E+03</pdfrwt>
<totfact> 0.15757859E+03</totfact>
</mgrwt>
</event>
<event>
 5    1  0.1122238E+001  0.2752010E+03  0.7818608E-02  0.1098339E+00
         -1   -1    0    0    0  501 -0.00000000000E+00  0.00000000000E+00  0.26532716519E+02  0.26532716519E+02  0.00000000000E+00 0. -1.
          1   -1    0    0  501    0  0.00000000000E+00 -0.00000000000E+00 -0.71360574449E+03  0.71360574449E+03  0.00000000000E+00 0. -1.
         35    2    1    2    0    0  0.00000000000E+00  0.00000000000E+00 -0.68707302798E+03  0.74013846101E+03  0.27520100963E+03 0.  0.
         25    1    3    3    0    0 -0.28655959701E+02  0.50640397842E+02 -0.43467205932E+03  0.45467066441E+03  0.12000000000E+03 0.  0.
         25    1    3    3    0    0  0.28655959701E+02 -0.50640397842E+02 -0.25240096865E+03  0.28546779660E+03  0.12000000000E+03 0.  0.
<mgrwt>
<rscale>  0 0.27520101E+03</rscale>
<asrwt>0</asrwt>
<pdfrwt beam="1">  1        1 0.10978549E+00 0.27520101E+03</pdfrwt>
<pdfrwt beam="2">  1       -1 0.40819567E-02 0.27520101E+03</pdfrwt>
<totfact> 0.65201491E+03</totfact>
</mgrwt>
</event>
<event>
 5    1  0.1122238E+001  0.2751961E+03  0.7818608E-02  0.1098342E+00
          1   -1    0    0  501    0  0.00000000000E+00  0.00000000000E+00  0.11581424818E+04  0.11581424818E+04  0.00000000000E+00 0. -1.
         -1   -1    0    0    0  501 -0.00000000000E+00 -0.00000000000E+00 -0.16347919306E+02  0.16347919306E+02  0.00000000000E+00 0. -1.
         35    2    1    2    0    0  0.00000000000E+00  0.00000000000E+00  0.11417945625E+04  0.11744904012E+04  0.27519607438E+03 0.  0.
         25    1    3    3    0    0 -0.41717860878E+02  0.19357989738E+02  0.78076473731E+03  0.79127029939E+03  0.12000000000E+03 0.  0.
         25    1    3    3    0    0  0.41717860878E+02 -0.19357989738E+02  0.36102982524E+03  0.38322010176E+03  0.12000000000E+03 0.  0.
<mgrwt>
<rscale>  0 0.27519607E+03</rscale>
<asrwt>0</asrwt>
<pdfrwt beam="1">  1        1 0.17817570E+00 0.27519607E+03</pdfrwt>
<pdfrwt beam="2">  1       -1 0.25150654E-02 0.27519607E+03</pdfrwt>
<totfact> 0.59984120E+03</totfact>
</mgrwt>
</event>
<event>
 5    1  0.1122238E+001  0.2754697E+03  0.7818608E-02  0.1098189E+00
         -1   -1    0    0    0  501 -0.00000000000E+00  0.00000000000E+00  0.47558455812E+02  0.47558455812E+02  0.00000000000E+00 0. -1.
          1   -1    0    0  501    0  0.00000000000E+00 -0.00000000000E+00 -0.39889612124E+03  0.39889612124E+03  0.00000000000E+00 0. -1.
         35    2    1    2    0    0  0.00000000000E+00  0.00000000000E+00 -0.35133766543E+03  0.44645457705E+03  0.27546966116E+03 0.  0.
         25    1    3    3    0    0 -0.58324743486E+02  0.17184231969E+02 -0.22357727124E+03  0.26092885955E+03  0.12000000000E+03 0.  0.
         25    1    3    3    0    0  0.58324743486E+02 -0.17184231969E+02 -0.12776039418E+03  0.18552571750E+03  0.12000000000E+03 0.  0.
<mgrwt>
<rscale>  0 0.27546966E+03</rscale>
<asrwt>0</asrwt>
<pdfrwt beam="1">  1        1 0.61368631E-01 0.27546966E+03</pdfrwt>
<pdfrwt beam="2">  1       -1 0.73166859E-02 0.27546966E+03</pdfrwt>
<totfact> 0.59702240E+03</totfact>
</mgrwt>
</event>
<event>
 5    1  0.1122238E+001  0.2738513E+03  0.7818608E-02  0.1099095E+00
          2   -1    0    0  501    0  0.00000000000E+00  0.00000000000E+00  0.10218321316E+03  0.10218321316E+03  0.00000000000E+00 0. -1.
         -2   -1    0    0    0  501 -0.00000000000E+00 -0.00000000000E+00 -0.18348050180E+03  0.18348050180E+03  0.00000000000E+00 0. -1.
         35    2    1    2    0    0  0.00000000000E+00  0.00000000000E+00 -0.81297288641E+02  0.28566371497E+03  0.27385125326E+03 0.  0.
         25    1    3    3    0    0  0.24178323709E+02  0.28297204338E+02 -0.97432968209E+02  0.15899215831E+03  0.12000000000E+03 0.  0.
         25    1    3    3    0    0 -0.24178323709E+02 -0.28297204338E+02  0.16135679568E+02  0.12667155666E+03  0.12000000000E+03 0.  0.
<mgrwt>
<rscale>  0 0.27385125E+03</rscale>
<asrwt>0</asrwt>
<pdfrwt beam="1">  1        2 0.15720494E-01 0.27385125E+03</pdfrwt>
<pdfrwt beam="2">  1       -2 0.28227769E-01 0.27385125E+03</pdfrwt>
<totfact> 0.41852491E+03</totfact>
</mgrwt>
</event>
<event>
 5    1  0.1122238E+001  0.2744929E+03  0.7818608E-02  0.1098735E+00
          1   -1    0    0  501    0  0.00000000000E+00  0.00000000000E+00  0.67948956812E+02  0.67948956812E+02  0.00000000000E+00 0. -1.
         -1   -1    0    0    0  501 -0.00000000000E+00 -0.00000000000E+00 -0.27721675385E+03  0.27721675385E+03  0.00000000000E+00 0. -1.
         35    2    1    2    0    0  0.00000000000E+00  0.00000000000E+00 -0.20926779704E+03  0.34516571066E+03  0.27449290872E+03 0.  0.
         25    1    3    3    0    0 -0.29925086836E+02  0.56286196499E+02 -0.80350053463E+02  0.15785999439E+03  0.12000000000E+03 0.  0.
         25    1    3    3    0    0  0.29925086836E+02 -0.56286196499E+02 -0.12891774358E+03  0.18730571627E+03  0.12000000000E+03 0.  0.
<mgrwt>
<rscale>  0 0.27449291E+03</rscale>
<asrwt>0</asrwt>
<pdfrwt beam="1">  1        1 0.10453686E-01 0.27449291E+03</pdfrwt>
<pdfrwt beam="2">  1       -1 0.42648732E-01 0.27449291E+03</pdfrwt>
<totfact> 0.33090198E+03</totfact>
</mgrwt>
</event>
<event>
 5    1  0.1122238E+001  0.2753378E+03  0.7818608E-02  0.1098263E+00
          2   -1    0    0  501    0  0.00000000000E+00  0.00000000000E+00  0.12717659649E+04  0.12717659649E+04  0.00000000000E+00 0.  1.
         -2   -1    0    0    0  501 -0.00000000000E+00 -0.00000000000E+00 -0.14902684257E+02  0.14902684257E+02  0.00000000000E+00 0.  1.
         35    2    1    2    0    0  0.00000000000E+00  0.00000000000E+00  0.12568632806E+04  0.12866686492E+04  0.27533780433E+03 0.  0.
         25    1    3    3    0    0  0.36983682882E+02  0.27847475858E+02  0.39904928605E+03  0.41926555714E+03  0.12000000000E+03 0.  0.
         25    1    3    3    0    0 -0.36983682882E+02 -0.27847475858E+02  0.85781399460E+03  0.86740309202E+03  0.12000000000E+03 0.  0.
<mgrwt>
<rscale>  0 0.27533780E+03</rscale>
<asrwt>0</asrwt>
<pdfrwt beam="1">  1        2 0.19565622E+00 0.27533780E+03</pdfrwt>
<pdfrwt beam="2">  1       -2 0.22927217E-02 0.27533780E+03</pdfrwt>
<totfact> 0.11485997E+04</totfact>
</mgrwt>
</event>
<event>
 5    1  0.1122238E+001  0.2761364E+03  0.7818608E-02  0.1097818E+00
          1   -1    0    0  501    0  0.00000000000E+00  0.00000000000E+00  0.19570648524E+03  0.19570648524E+03  0.00000000000E+00 0. -1.
         -1   -1    0    0    0  501 -0.00000000000E+00 -0.00000000000E+00 -0.97405215879E+02  0.97405215879E+02  0.00000000000E+00 0. -1.
         35    2    1    2    0    0  0.00000000000E+00  0.00000000000E+00  0.98301269363E+02  0.29311170112E+03  0.27613643326E+03 0.  0.
         25    1    3    3    0    0  0.88183147157E+01 -0.63076046068E+02  0.23009859137E+02  0.13778898316E+03  0.12000000000E+03 0.  0.
         25    1    3    3    0    0 -0.88183147157E+01  0.63076046068E+02  0.75291410227E+02  0.15532271796E+03  0.12000000000E+03 0.  0.
<mgrwt>
<rscale>  0 0.27613643E+03</rscale>
<asrwt>0</asrwt>
<pdfrwt beam="1">  1        1 0.30108690E-01 0.27613643E+03</pdfrwt>
<pdfrwt beam="2">  1       -1 0.14985418E-01 0.27613643E+03</pdfrwt>
<totfact> 0.48216924E+03</totfact>
</mgrwt>
</event>
<event>
 5    1  0.1122238E+001  0.2744766E+03  0.7818608E-02  0.1098745E+00
         -1   -1    0    0    0  501 -0.00000000000E+00  0.00000000000E+00  0.78763162906E+02  0.78763162906E+02  0.00000000000E+00 0.  1.
          1   -1    0    0  501    0  0.00000000000E+00 -0.00000000000E+00 -0.23912641600E+03  0.23912641600E+03  0.00000000000E+00 0.  1.
         35    2    1    2    0    0  0.00000000000E+00  0.00000000000E+00 -0.16036325309E+03  0.31788957890E+03  0.27447661364E+03 0.  0.
         25    1    3    3    0    0 -0.58871013847E+02 -0.68315640849E+01 -0.45016706920E+02  0.14120541931E+03  0.12000000000E+03 0.  0.
         25    1    3    3    0    0  0.58871013847E+02  0.68315640849E+01 -0.11534654617E+03  0.17668415960E+03  0.12000000000E+03 0.  0.
<mgrwt>
<rscale>  0 0.27447661E+03</rscale>
<asrwt>0</asrwt>
<pdfrwt beam="1">  1        1 0.36788680E-01 0.27447661E+03</pdfrwt>
<pdfrwt beam="2">  1       -1 0.12117410E-01 0.27447661E+03</pdfrwt>
<totfact> 0.52346919E+03</totfact>
</mgrwt>
</event>
<event>
 5    1  0.1122238E+001  0.2745343E+03  0.7818608E-02  0.1098712E+00
          2   -1    0    0  501    0  0.00000000000E+00  0.00000000000E+00  0.14385504614E+04  0.14385504614E+04  0.00000000000E+00 0. -1.
         -2   -1    0    0    0  501 -0.00000000000E+00 -0.00000000000E+00 -0.13098097629E+02  0.13098097629E+02  0.00000000000E+00 0. -1.
         35    2    1    2    0    0  0.00000000000E+00  0.00000000000E+00  0.14254523638E+04  0.14516485590E+04  0.27453432855E+03 0.  0.
         25    1    3    3    0    0  0.10425839772E+01 -0.36847605574E+02  0.41910818113E+03  0.43750485770E+03  0.12000000000E+03 0.  0.
         25    1    3    3    0    0 -0.10425839772E+01  0.36847605574E+02  0.10063441827E+04  0.10141437014E+04  0.12000000000E+03 0.  0.
<mgrwt>
<rscale>  0 0.27453433E+03</rscale>
<asrwt>0</asrwt>
<pdfrwt beam="1">  1        2 0.22131533E+00 0.27453433E+03</pdfrwt>
<pdfrwt beam="2">  1       -2 0.20150931E-02 0.27453433E+03</pdfrwt>
<totfact> 0.11256180E+04</totfact>
</mgrwt>
</event>
<event>
 5    1  0.1122238E+001  0.2737412E+03  0.7818608E-02  0.1099157E+00
         -1   -1    0    0    0  501 -0.00000000000E+00  0.00000000000E+00  0.40348749508E+02  0.40348749508E+02  0.00000000000E+00 0. -1.
          1   -1    0    0  501    0  0.00000000000E+00 -0.00000000000E+00 -0.46429107211E+03  0.46429107211E+03  0.00000000000E+00 0. -1.
         35    2    1    2    0    0  0.00000000000E+00  0.00000000000E+00 -0.42394232260E+03  0.50463982162E+03  0.27374122209E+03 0.  0.
         25    1    3    3    0    0 -0.18918327505E+02  0.34104054775E+02 -0.30973839651E+03  0.33445308182E+03  0.12000000000E+03 0.  0.
         25    1    3    3    0    0  0.18918327505E+02 -0.34104054775E+02 -0.11420392609E+03  0.17018673980E+03  0.12000000000E+03 0.  0.
<mgrwt>
<rscale>  0 0.27374122E+03</rscale>
<asrwt>0</asrwt>
<pdfrwt beam="1">  1        1 0.71429400E-01 0.27374122E+03</pdfrwt>
<pdfrwt beam="2">  1       -1 0.62074996E-02 0.27374122E+03</pdfrwt>
<totfact> 0.62909556E+03</totfact>
</mgrwt>
</event>
<event>
 5    1  0.1122238E+001  0.2738248E+03  0.7818608E-02  0.1099110E+00
          1   -1    0    0  501    0  0.00000000000E+00  0.00000000000E+00  0.23391494248E+03  0.23391494248E+03  0.00000000000E+00 0. -1.
         -1   -1    0    0    0  501 -0.00000000000E+00 -0.00000000000E+00 -0.80135972560E+02  0.80135972560E+02  0.00000000000E+00 0. -1.
         35    2    1    2    0    0  0.00000000000E+00  0.00000000000E+00  0.15377896992E+03  0.31405091504E+03  0.27382477179E+03 0.  0.
         25    1    3    3    0    0  0.58716239880E+02 -0.23448029890E+02  0.55506724812E+02  0.14655512079E+03  0.12000000000E+03 0.  0.
         25    1    3    3    0    0 -0.58716239880E+02  0.23448029890E+02  0.98272245107E+02  0.16749579425E+03  0.12000000000E+03 0.  0.
<mgrwt>
<rscale>  0 0.27382477E+03</rscale>
<asrwt>0</asrwt>
<pdfrwt beam="1">  1        1 0.35986914E-01 0.27382477E+03</pdfrwt>
<pdfrwt beam="2">  1       -1 0.12328611E-01 0.27382477E+03</pdfrwt>
<totfact> 0.52376995E+03</totfact>
</mgrwt>
</event>
<event>
 5    1  0.1122238E+001  0.2756078E+03  0.7818608E-02  0.1098112E+00
         -1   -1    0    0    0  501 -0.00000000000E+00  0.00000000000E+00  0.27511685756E+02  0.27511685756E+02  0.00000000000E+00 0.  1.
          1   -1    0    0  501    0  0.00000000000E+00 -0.00000000000E+00 -0.69024882715E+03  0.69024882715E+03  0.00000000000E+00 0.  1.
         35    2    1    2    0    0  0.00000000000E+00  0.00000000000E+00 -0.66273714140E+03  0.71776051291E+03  0.27560775625E+03 0.  0.
         25    1    3    3    0    0  0.27680761703E+01  0.23613060533E+02 -0.49658501165E+03  0.51143123943E+03  0.12000000000E+03 0.  0.
         25    1    3    3    0    0 -0.27680761703E+01 -0.23613060533E+02 -0.16615212974E+03  0.20632927347E+03  0.12000000000E+03 0.  0.
<mgrwt>
<rscale>  0 0.27560776E+03</rscale>
<asrwt>0</asrwt>
<pdfrwt beam="1">  1        1 0.10619212E+00 0.27560776E+03</pdfrwt>
<pdfrwt beam="2">  1       -1 0.42325673E-02 0.27560776E+03</pdfrwt>
<totfact> 0.64857768E+03</totfact>
</mgrwt>
</event>
<event>
 5    1  0.1122238E+001  0.2746574E+03  0.7818608E-02  0.1098643E+00
          2   -1    0    0  501    0  0.00000000000E+00  0.00000000000E+00  0.79367582596E+03  0.79367582596E+03  0.00000000000E+00 0. -1.
         -2   -1    0    0    0  501 -0.00000000000E+00 -0.00000000000E+00 -0.23761814226E+02  0.23761814226E+02  0.00000000000E+00 0. -1.
         35    2    1    2    0    0  0.00000000000E+00  0.00000000000E+00  0.76991401174E+03  0.81743764019E+03  0.27465744142E+03 0.  0.
         25    1    3    3    0    0  0.24028549551E+02 -0.57386847022E+02  0.31275367971E+03  0.34071320135E+03  0.12000000000E+03 0.  0.
         25    1    3    3    0    0 -0.24028549551E+02  0.57386847022E+02  0.45716033202E+03  0.47672443883E+03  0.12000000000E+03 0.  0.
<mgrwt>
<rscale>  0 0.27465744E+03</rscale>
<asrwt>0</asrwt>
<pdfrwt beam="1">  1        2 0.12210395E+00 0.27465744E+03</pdfrwt>
<pdfrwt beam="2">  1       -2 0.36556643E-02 0.27465744E+03</pdfrwt>
<totfact> 0.11243351E+04</totfact>
</mgrwt>
</event>
<event>
 5    1  0.1122238E+001  0.2748966E+03  0.7818608E-02  0.1098509E+00
         -2   -1    0    0    0  501 -0.00000000000E+00  0.00000000000E+00  0.17595828055E+03  0.17595828055E+03  0.00000000000E+00 0. -1.
          2   -1    0    0  501    0  0.00000000000E+00 -0.00000000000E+00 -0.10736655334E+03  0.10736655334E+03  0.00000000000E+00 0. -1.
         35    2    1    2    0    0  0.00000000000E+00  0.00000000000E+00  0.68591727203E+02  0.28332483389E+03  0.27489659230E+03 0.  0.
         25    1    3    3    0    0  0.16710985781E+02 -0.35696085242E+02 -0.21574700103E+02  0.12813639308E+03  0.12000000000E+03 0.  0.
         25    1    3    3    0    0 -0.16710985781E+02  0.35696085242E+02  0.90166427306E+02  0.15518844081E+03  0.12000000000E+03 0.  0.
<mgrwt>
<rscale>  0 0.27489659E+03</rscale>
<asrwt>0</asrwt>
<pdfrwt beam="1">  1        2 0.16517931E-01 0.27489659E+03</pdfrwt>
<pdfrwt beam="2">  1       -2 0.27070505E-01 0.27489659E+03</pdfrwt>
<totfact> 0.42570122E+03</totfact>
</mgrwt>
</event>
<event>
 5    1  0.1122238E+001  0.2744204E+03  0.7818608E-02  0.1098776E+00
         -1   -1    0    0    0  501 -0.00000000000E+00  0.00000000000E+00  0.48359860093E+02  0.48359860093E+02  0.00000000000E+00 0. -1.
          1   -1    0    0  501    0  0.00000000000E+00 -0.00000000000E+00 -0.38930289892E+03  0.38930289892E+03  0.00000000000E+00 0. -1.
         35    2    1    2    0    0  0.00000000000E+00  0.00000000000E+00 -0.34094303883E+03  0.43766275902E+03  0.27442036168E+03 0.  0.
         25    1    3    3    0    0 -0.59253860528E+02  0.12311808940E+02 -0.12638768647E+03  0.18448969596E+03  0.12000000000E+03 0.  0.
         25    1    3    3    0    0  0.59253860528E+02 -0.12311808940E+02 -0.21455535236E+03  0.25317306305E+03  0.12000000000E+03 0.  0.
<mgrwt>
<rscale>  0 0.27442036E+03</rscale>
<asrwt>0</asrwt>
<pdfrwt beam="1">  1        1 0.59892754E-01 0.27442036E+03</pdfrwt>
<pdfrwt beam="2">  1       -1 0.74399785E-02 0.27442036E+03</pdfrwt>
<totfact> 0.60039052E+03</totfact>
</mgrwt>
</event>
<event>
 5    1  0.1122238E+001  0.2750250E+03  0.7818608E-02  0.1098438E+00
         -1   -1    0    0    0  501 -0.00000000000E+00  0.00000000000E+00  0.19475748305E+03  0.19475748305E+03  0.00000000000E+00 0. -1.
          1   -1    0    0  501    0  0.00000000000E+00 -0.00000000000E+00 -0.97093540013E+02  0.97093540013E+02  0.00000000000E+00 0. -1.
         35    2    1    2    0    0  0.00000000000E+00  0.00000000000E+00  0.97663943035E+02  0.29185102306E+03  0.27502504230E+03 0.  0.
         25    1    3    3    0    0 -0.17350703699E+02 -0.64493109796E+02  0.41382115627E+02  0.14343251941E+03  0.12000000000E+03 0.  0.
         25    1    3    3    0    0  0.17350703699E+02  0.64493109796E+02  0.56281827408E+02  0.14841850365E+03  0.12000000000E+03 0.  0.
<mgrwt>
<rscale>  0 0.27502504E+03</rscale>
<asrwt>0</asrwt>
<pdfrwt beam="1">  1        1 0.14937468E-01 0.27502504E+03</pdfrwt>
<pdfrwt beam="2">  1       -1 0.29962690E-01 0.27502504E+03</pdfrwt>
<totfact> 0.38158858E+03</totfact>
</mgrwt>
</event>
<event>
 5    1  0.1122238E+001  0.2748996E+03  0.7818608E-02  0.1098508E+00
         -2   -1    0    0    0  501 -0.00000000000E+00  0.00000000000E+00  0.19763101903E+02  0.19763101903E+02  0.00000000000E+00 0. -1.
          2   -1    0    0  501    0  0.00000000000E+00 -0.00000000000E+00 -0.95594525209E+03  0.95594525209E+03  0.00000000000E+00 0. -1.
         35    2    1    2    0    0  0.00000000000E+00  0.00000000000E+00 -0.93618215019E+03  0.97570835400E+03  0.27489957025E+03 0.  0.
         25    1    3    3    0    0 -0.19444623234E+02 -0.62727293509E+02 -0.42051994102E+03  0.44221016216E+03  0.12000000000E+03 0.  0.
         25    1    3    3    0    0  0.19444623234E+02  0.62727293509E+02 -0.51566220917E+03  0.53349819184E+03  0.12000000000E+03 0.  0.
<mgrwt>
<rscale>  0 0.27489957E+03</rscale>
<asrwt>0</asrwt>
<pdfrwt beam="1">  1        2 0.14706851E+00 0.27489957E+03</pdfrwt>
<pdfrwt beam="2">  1       -2 0.30404770E-02 0.27489957E+03</pdfrwt>
<totfact> 0.11581428E+04</totfact>
</mgrwt>
</event>
<event>
 5    1  0.1122238E+001  0.2747621E+03  0.7818608E-02  0.1098585E+00
         -3   -1    0    0    0  501 -0.00000000000E+00  0.00000000000E+00  0.98395611728E+03  0.98395611728E+03  0.00000000000E+00 0. -1.
          3   -1    0    0  501    0  0.00000000000E+00 -0.00000000000E+00 -0.19181297409E+02  0.19181297409E+02  0.00000000000E+00 0. -1.
         35    2    1    2    0    0  0.00000000000E+00  0.00000000000E+00  0.96477481987E+03  0.10031374147E+04  0.27476211473E+03 0.  0.
         25    1    3    3    0    0  0.18517192622E+02 -0.50134068060E+02  0.62920947064E+03  0.64277590896E+03  0.12000000000E+03 0.  0.
         25    1    3    3    0    0 -0.18517192622E+02  0.50134068060E+02  0.33556534924E+03  0.36036150573E+03  0.12000000000E+03 0.  0.
<mgrwt>
<rscale>  0 0.27476211E+03</rscale>
<asrwt>0</asrwt>
<pdfrwt beam="1">  1        3 0.29509696E-02 0.27476211E+03</pdfrwt>
<pdfrwt beam="2">  1       -3 0.15137782E+00 0.27476211E+03</pdfrwt>
<totfact> 0.44278692E+02</totfact>
</mgrwt>
</event>
<event>
 5    1  0.1122238E+001  0.2732022E+03  0.7818608E-02  0.1099461E+00
         -1   -1    0    0    0  501 -0.00000000000E+00  0.00000000000E+00  0.21962181728E+03  0.21962181728E+03  0.00000000000E+00 0.  1.
          1   -1    0    0  501    0  0.00000000000E+00 -0.00000000000E+00 -0.84963589732E+02  0.84963589732E+02  0.00000000000E+00 0.  1.
         35    2    1    2    0    0  0.00000000000E+00  0.00000000000E+00  0.13465822754E+03  0.30458540701E+03  0.27320218139E+03 0.  0.
         25    1    3    3    0    0  0.53256506873E+01 -0.57551939655E+02  0.33526802700E+02  0.13734858868E+03  0.12000000000E+03 0.  0.
         25    1    3    3    0    0 -0.53256506873E+01  0.57551939655E+02  0.10113142484E+03  0.16723681833E+03  0.12000000000E+03 0.  0.
<mgrwt>
<rscale>  0 0.27320218E+03</rscale>
<asrwt>0</asrwt>
<pdfrwt beam="1">  1        1 0.13071322E-01 0.27320218E+03</pdfrwt>
<pdfrwt beam="2">  1       -1 0.33787972E-01 0.27320218E+03</pdfrwt>
<totfact> 0.37018478E+03</totfact>
</mgrwt>
</event>
<event>
 5    1  0.1122238E+001  0.2735422E+03  0.7818608E-02  0.1099269E+00
         -2   -1    0    0    0  501 -0.00000000000E+00  0.00000000000E+00  0.48605923588E+02  0.48605923588E+02  0.00000000000E+00 0.  1.
          2   -1    0    0  501    0  0.00000000000E+00 -0.00000000000E+00 -0.38485713239E+03  0.38485713239E+03  0.00000000000E+00 0.  1.
         35    2    1    2    0    0  0.00000000000E+00  0.00000000000E+00 -0.33625120880E+03  0.43346305598E+03  0.27354221882E+03 0.  0.
         25    1    3    3    0    0 -0.48894766854E+01 -0.41559478954E+02 -0.24822762934E+03  0.27886924040E+03  0.12000000000E+03 0.  0.
         25    1    3    3    0    0  0.48894766854E+01  0.41559478954E+02 -0.88023579458E+02  0.15459381557E+03  0.12000000000E+03 0.  0.
<mgrwt>
<rscale>  0 0.27354222E+03</rscale>
<asrwt>0</asrwt>
<pdfrwt beam="1">  1        2 0.59208792E-01 0.27354222E+03</pdfrwt>
<pdfrwt beam="2">  1       -2 0.74778342E-02 0.27354222E+03</pdfrwt>
<totfact> 0.86927285E+03</totfact>
</mgrwt>
</event>
<event>
 5    1  0.1122238E+001  0.2752782E+03  0.7818608E-02  0.1098296E+00
         -1   -1    0    0    0  501 -0.00000000000E+00  0.00000000000E+00  0.32929323568E+02  0.32929323568E+02  0.00000000000E+00 0.  1.
          1   -1    0    0  501    0  0.00000000000E+00 -0.00000000000E+00 -0.57530846605E+03  0.57530846605E+03  0.00000000000E+00 0.  1.
         35    2    1    2    0    0  0.00000000000E+00  0.00000000000E+00 -0.54237914248E+03  0.60823778961E+03  0.27527817661E+03 0.  0.
         25    1    3    3    0    0  0.56626319775E+02  0.17763294953E+02 -0.20053807585E+03  0.24111738760E+03  0.12000000000E+03 0.  0.
         25    1    3    3    0    0 -0.56626319775E+02 -0.17763294953E+02 -0.34184106663E+03  0.36712040201E+03  0.12000000000E+03 0.  0.
<mgrwt>
<rscale>  0 0.27527818E+03</rscale>
<asrwt>0</asrwt>
<pdfrwt beam="1">  1        1 0.88508993E-01 0.27527818E+03</pdfrwt>
<pdfrwt beam="2">  1       -1 0.50660499E-02 0.27527818E+03</pdfrwt>
<totfact> 0.64100300E+03</totfact>
</mgrwt>
</event>
<event>
 5    1  0.1122238E+001  0.2749375E+03  0.7818608E-02  0.1098487E+00
          4   -1    0    0  501    0  0.00000000000E+00  0.00000000000E+00  0.56880566000E+03  0.56880566000E+03  0.00000000000E+00 0. -1.
         -4   -1    0    0    0  501 -0.00000000000E+00 -0.00000000000E+00 -0.33223399225E+02  0.33223399225E+02  0.00000000000E+00 0. -1.
         35    2    1    2    0    0  0.00000000000E+00  0.00000000000E+00  0.53558226077E+03  0.60202905922E+03  0.27493750216E+03 0.  0.
         25    1    3    3    0    0  0.26942161990E+02 -0.25405456236E+02  0.39022500428E+03  0.40993520374E+03  0.12000000000E+03 0.  0.
         25    1    3    3    0    0 -0.26942161990E+02  0.25405456236E+02  0.14535725649E+03  0.19209385548E+03  0.12000000000E+03 0.  0.
<mgrwt>
<rscale>  0 0.27493750E+03</rscale>
<asrwt>0</asrwt>
<pdfrwt beam="1">  1        4 0.87508556E-01 0.27493750E+03</pdfrwt>
<pdfrwt beam="2">  1       -4 0.51112926E-02 0.27493750E+03</pdfrwt>
<totfact> 0.50104708E+02</totfact>
</mgrwt>
</event>
<event>
 5    1  0.1122238E+001  0.2777096E+03  0.7818608E-02  0.1096947E+00
          3   -1    0    0  501    0  0.00000000000E+00  0.00000000000E+00  0.25332942118E+02  0.25332942118E+02  0.00000000000E+00 0. -1.
         -3   -1    0    0    0  501 -0.00000000000E+00 -0.00000000000E+00 -0.76109000418E+03  0.76109000418E+03  0.00000000000E+00 0. -1.
         35    2    1    2    0    0  0.00000000000E+00  0.00000000000E+00 -0.73575706206E+03  0.78642294630E+03  0.27770955347E+03 0.  0.
         25    1    3    3    0    0 -0.20972025205E+02 -0.38684818281E+02 -0.52153716833E+03  0.53697053826E+03  0.12000000000E+03 0.  0.
         25    1    3    3    0    0  0.20972025205E+02  0.38684818281E+02 -0.21421989373E+03  0.24945240804E+03  0.12000000000E+03 0.  0.
<mgrwt>
<rscale>  0 0.27770955E+03</rscale>
<asrwt>0</asrwt>
<pdfrwt beam="1">  1        3 0.38973764E-02 0.27770955E+03</pdfrwt>
<pdfrwt beam="2">  1       -3 0.11709075E+00 0.27770955E+03</pdfrwt>
<totfact> 0.53807919E+02</totfact>
</mgrwt>
</event>
<event>
 5    1  0.1122238E+001  0.2738060E+03  0.7818608E-02  0.1099121E+00
          2   -1    0    0  501    0  0.00000000000E+00  0.00000000000E+00  0.39403253328E+03  0.39403253328E+03  0.00000000000E+00 0.  1.
         -2   -1    0    0    0  501 -0.00000000000E+00 -0.00000000000E+00 -0.47565697624E+02  0.47565697624E+02  0.00000000000E+00 0.  1.
         35    2    1    2    0    0  0.00000000000E+00  0.00000000000E+00  0.34646683566E+03  0.44159823091E+03  0.27380600674E+03 0.  0.
         25    1    3    3    0    0  0.15729230125E+02  0.22694749993E+02  0.76734116971E+02  0.14508819754E+03  0.12000000000E+03 0.  0.
         25    1    3    3    0    0 -0.15729230125E+02 -0.22694749993E+02  0.26973271869E+03  0.29651003337E+03  0.12000000000E+03 0.  0.
<mgrwt>
<rscale>  0 0.27380601E+03</rscale>
<asrwt>0</asrwt>
<pdfrwt beam="1">  1        2 0.60620387E-01 0.27380601E+03</pdfrwt>
<pdfrwt beam="2">  1       -2 0.73177999E-02 0.27380601E+03</pdfrwt>
<totfact> 0.87634631E+03</totfact>
</mgrwt>
</event>
<event>
 5    1  0.1122238E+001  0.2731036E+03  0.7818608E-02  0.1099516E+00
         -2   -1    0    0    0  501 -0.00000000000E+00  0.00000000000E+00  0.13861256690E+02  0.13861256690E+02  0.00000000000E+00 0.  1.
          2   -1    0    0  501    0  0.00000000000E+00 -0.00000000000E+00 -0.13452168810E+04  0.13452168810E+04  0.00000000000E+00 0.  1.
         35    2    1    2    0    0  0.00000000000E+00  0.00000000000E+00 -0.13313556243E+04  0.13590781377E+04  0.27310361764E+03 0.  0.
         25    1    3    3    0    0 -0.56339074479E+02 -0.87004311419E+01 -0.82277886202E+03  0.83343556715E+03  0.12000000000E+03 0.  0.
         25    1    3    3    0    0  0.56339074479E+02  0.87004311419E+01 -0.50857676226E+03  0.52564257051E+03  0.12000000000E+03 0.  0.
<mgrwt>
<rscale>  0 0.27310362E+03</rscale>
<asrwt>0</asrwt>
<pdfrwt beam="1">  1        2 0.20695655E+00 0.27310362E+03</pdfrwt>
<pdfrwt beam="2">  1       -2 0.21324999E-02 0.27310362E+03</pdfrwt>
<totfact> 0.11638030E+04</totfact>
</mgrwt>
</event>
<event>
 5    1  0.1122238E+001  0.2738604E+03  0.7818608E-02  0.1099090E+00
         -2   -1    0    0    0  501 -0.00000000000E+00  0.00000000000E+00  0.43367036813E+01  0.43367036813E+01  0.00000000000E+00 0.  1.
          2   -1    0    0  501    0  0.00000000000E+00 -0.00000000000E+00 -0.43235338696E+04  0.43235338696E+04  0.00000000000E+00 0.  1.
         35    2    1    2    0    0  0.00000000000E+00  0.00000000000E+00 -0.43191971659E+04  0.43278705733E+04  0.27386044072E+03 0.  0.
         25    1    3    3    0    0 -0.46874065887E+02 -0.67853765176E+01 -0.28849405247E+04  0.28878235837E+04  0.12000000000E+03 0.  0.
         25    1    3    3    0    0  0.46874065887E+02  0.67853765176E+01 -0.14342566412E+04  0.14400469896E+04  0.12000000000E+03 0.  0.
<mgrwt>
<rscale>  0 0.27386044E+03</rscale>
<asrwt>0</asrwt>
<pdfrwt beam="1">  1        2 0.66515801E+00 0.27386044E+03</pdfrwt>
<pdfrwt beam="2">  1       -2 0.66718624E-03 0.27386044E+03</pdfrwt>
<totfact> 0.93619561E+02</totfact>
</mgrwt>
</event>
<event>
 5    1  0.1122238E+001  0.2759997E+03  0.7818608E-02  0.1097894E+00
          2   -1    0    0  501    0  0.00000000000E+00  0.00000000000E+00  0.15422969523E+04  0.15422969523E+04  0.00000000000E+00 0. -1.
         -2   -1    0    0    0  501 -0.00000000000E+00 -0.00000000000E+00 -0.12347790456E+02  0.12347790456E+02  0.00000000000E+00 0. -1.
         35    2    1    2    0    0  0.00000000000E+00  0.00000000000E+00  0.15299491619E+04  0.15546447428E+04  0.27599970716E+03 0.  0.
         25    1    3    3    0    0 -0.43878806159E+02 -0.51257822403E+02  0.81878030842E+03  0.83027339319E+03  0.12000000000E+03 0.  0.
         25    1    3    3    0    0  0.43878806159E+02  0.51257822403E+02  0.71116885344E+03  0.72437134958E+03  0.12000000000E+03 0.  0.
<mgrwt>
<rscale>  0 0.27599971E+03</rscale>
<asrwt>0</asrwt>
<pdfrwt beam="1">  1        2 0.23727630E+00 0.27599971E+03</pdfrwt>
<pdfrwt beam="2">  1       -2 0.18996613E-02 0.27599971E+03</pdfrwt>
<totfact> 0.10801861E+04</totfact>
</mgrwt>
</event>
<event>
 5    1  0.1122238E+001  0.2734299E+03  0.7818608E-02  0.1099332E+00
         -1   -1    0    0    0  501 -0.00000000000E+00  0.00000000000E+00  0.16765741662E+03  0.16765741662E+03  0.00000000000E+00 0. -1.
          1   -1    0    0  501    0  0.00000000000E+00 -0.00000000000E+00 -0.11148317334E+03  0.11148317334E+03  0.00000000000E+00 0. -1.
         35    2    1    2    0    0  0.00000000000E+00  0.00000000000E+00  0.56174243280E+02  0.27914058996E+03  0.27342992403E+03 0.  0.
         25    1    3    3    0    0  0.39766483783E+02 -0.11762639491E+02 -0.23679393149E+02  0.12915280322E+03  0.12000000000E+03 0.  0.
         25    1    3    3    0    0 -0.39766483783E+02  0.11762639491E+02  0.79853636428E+02  0.14998778674E+03  0.12000000000E+03 0.  0.
<mgrwt>
<rscale>  0 0.27342992E+03</rscale>
<asrwt>0</asrwt>
<pdfrwt beam="1">  1        1 0.17151257E-01 0.27342992E+03</pdfrwt>
<pdfrwt beam="2">  1       -1 0.25793449E-01 0.27342992E+03</pdfrwt>
<totfact> 0.40993452E+03</totfact>
</mgrwt>
</event>
<event>
 5    1  0.1122238E+001  0.2737078E+03  0.7818608E-02  0.1099176E+00
          1   -1    0    0  501    0  0.00000000000E+00  0.00000000000E+00  0.60520513119E+02  0.60520513119E+02  0.00000000000E+00 0.  1.
         -1   -1    0    0    0  501 -0.00000000000E+00 -0.00000000000E+00 -0.30946513624E+03  0.30946513624E+03  0.00000000000E+00 0.  1.
         35    2    1    2    0    0  0.00000000000E+00  0.00000000000E+00 -0.24894462312E+03  0.36998564936E+03  0.27370779191E+03 0.  0.
         25    1    3    3    0    0  0.26697211892E+02  0.42928045211E+02 -0.18139754539E+03  0.22329493425E+03  0.12000000000E+03 0.  0.
         25    1    3    3    0    0 -0.26697211892E+02 -0.42928045211E+02 -0.67547077726E+02  0.14669071510E+03  0.12000000000E+03 0.  0.
<mgrwt>
<rscale>  0 0.27370779E+03</rscale>
<asrwt>0</asrwt>
<pdfrwt beam="1">  1        1 0.93108481E-02 0.27370779E+03</pdfrwt>
<pdfrwt beam="2">  1       -1 0.47610021E-01 0.27370779E+03</pdfrwt>
<totfact> 0.31670072E+03</totfact>
</mgrwt>
</event>
<event>
 5    1  0.1122238E+001  0.2744729E+03  0.7818608E-02  0.1098747E+00
          2   -1    0    0  501    0  0.00000000000E+00  0.00000000000E+00  0.10378120409E+04  0.10378120409E+04  0.00000000000E+00 0. -1.
         -2   -1    0    0    0  501 -0.00000000000E+00 -0.00000000000E+00 -0.18147644941E+02  0.18147644941E+02  0.00000000000E+00 0. -1.
         35    2    1    2    0    0  0.00000000000E+00  0.00000000000E+00  0.10196643960E+04  0.10559596858E+04  0.27447290893E+03 0.  0.
         25    1    3    3    0    0  0.39953788347E+02 -0.52421960238E+01  0.71377366651E+03  0.72491146551E+03  0.12000000000E+03 0.  0.
         25    1    3    3    0    0 -0.39953788347E+02  0.52421960238E+01  0.30589072945E+03  0.33104822034E+03  0.12000000000E+03 0.  0.
<mgrwt>
<rscale>  0 0.27447291E+03</rscale>
<asrwt>0</asrwt>
<pdfrwt beam="1">  1        2 0.15966334E+00 0.27447291E+03</pdfrwt>
<pdfrwt beam="2">  1       -2 0.27919462E-02 0.27447291E+03</pdfrwt>
<totfact> 0.11710190E+04</totfact>
</mgrwt>
</event>
<event>
 5    1  0.1122238E+001  0.2781016E+03  0.7818608E-02  0.1096730E+00
         -2   -1    0    0    0  501 -0.00000000000E+00  0.00000000000E+00  0.97573176977E+01  0.97573176977E+01  0.00000000000E+00 0.  1.
          2   -1    0    0  501    0  0.00000000000E+00 -0.00000000000E+00 -0.19816018627E+04  0.19816018627E+04  0.00000000000E+00 0.  1.
         35    2    1    2    0    0  0.00000000000E+00  0.00000000000E+00 -0.19718445450E+04  0.19913591804E+04  0.27810155645E+03 0.  0.
         25    1    3    3    0    0  0.26234902528E+02 -0.99913775624E+00 -0.14525048653E+04  0.14576898340E+04  0.12000000000E+03 0.  0.
         25    1    3    3    0    0 -0.26234902528E+02  0.99913775624E+00 -0.51933967974E+03  0.53366934645E+03  0.12000000000E+03 0.  0.
<mgrwt>
<rscale>  0 0.27810156E+03</rscale>
<asrwt>0</asrwt>
<pdfrwt beam="1">  1        2 0.30486184E+00 0.27810156E+03</pdfrwt>
<pdfrwt beam="2">  1       -2 0.15011257E-02 0.27810156E+03</pdfrwt>
<totfact> 0.89542344E+03</totfact>
</mgrwt>
</event>
<event>
 5    1  0.1122238E+001  0.2807953E+03  0.7818608E-02  0.1095255E+00
          2   -1    0    0  501    0  0.00000000000E+00  0.00000000000E+00  0.83588278460E+03  0.83588278460E+03  0.00000000000E+00 0. -1.
         -2   -1    0    0    0  501 -0.00000000000E+00 -0.00000000000E+00 -0.23581648037E+02  0.23581648037E+02  0.00000000000E+00 0. -1.
         35    2    1    2    0    0  0.00000000000E+00  0.00000000000E+00  0.81230113657E+03  0.85946443264E+03  0.28079525371E+03 0.  0.
         25    1    3    3    0    0  0.11100484120E+02  0.13519864451E+02  0.62270210903E+03  0.63440044457E+03  0.12000000000E+03 0.  0.
         25    1    3    3    0    0 -0.11100484120E+02 -0.13519864451E+02  0.18959902754E+03  0.22506398807E+03  0.12000000000E+03 0.  0.
<mgrwt>
<rscale>  0 0.28079525E+03</rscale>
<asrwt>0</asrwt>
<pdfrwt beam="1">  1        2 0.12859733E+00 0.28079525E+03</pdfrwt>
<pdfrwt beam="2">  1       -2 0.36279465E-02 0.28079525E+03</pdfrwt>
<totfact> 0.10649128E+04</totfact>
</mgrwt>
</event>
<event>
 5    1  0.1122238E+001  0.2732484E+03  0.7818608E-02  0.1099435E+00
          1   -1    0    0  501    0  0.00000000000E+00  0.00000000000E+00  0.93984299084E+03  0.93984299084E+03  0.00000000000E+00 0.  1.
         -1   -1    0    0    0  501 -0.00000000000E+00 -0.00000000000E+00 -0.19860953320E+02  0.19860953320E+02  0.00000000000E+00 0.  1.
         35    2    1    2    0    0  0.00000000000E+00  0.00000000000E+00  0.91998203752E+03  0.95970394416E+03  0.27324844204E+03 0.  0.
         25    1    3    3    0    0  0.16636937882E+02  0.13429374129E+02  0.67675517253E+03  0.68764431165E+03  0.12000000000E+03 0.  0.
         25    1    3    3    0    0 -0.16636937882E+02 -0.13429374129E+02  0.24322686499E+03  0.27205963252E+03  0.12000000000E+03 0.  0.
<mgrwt>
<rscale>  0 0.27324844E+03</rscale>
<asrwt>0</asrwt>
<pdfrwt beam="1">  1        1 0.14459119E+00 0.27324844E+03</pdfrwt>
<pdfrwt beam="2">  1       -1 0.30555320E-02 0.27324844E+03</pdfrwt>
<totfact> 0.65170294E+03</totfact>
</mgrwt>
</event>
<event>
 5    1  0.1122238E+001  0.2757162E+03  0.7818608E-02  0.1098052E+00
          1   -1    0    0  501    0  0.00000000000E+00  0.00000000000E+00  0.14021394865E+03  0.14021394865E+03  0.00000000000E+00 0.  1.
         -1   -1    0    0    0  501 -0.00000000000E+00 -0.00000000000E+00 -0.13554181950E+03  0.13554181950E+03  0.00000000000E+00 0.  1.
         35    2    1    2    0    0  0.00000000000E+00  0.00000000000E+00  0.46721291513E+01  0.27575576815E+03  0.27571618537E+03 0.  0.
         25    1    3    3    0    0 -0.38193297220E+02  0.30627557525E+02  0.49333006292E+02  0.13867415312E+03  0.12000000000E+03 0.  0.
         25    1    3    3    0    0  0.38193297220E+02 -0.30627557525E+02 -0.44660877141E+02  0.13708161503E+03  0.12000000000E+03 0.  0.
<mgrwt>
<rscale>  0 0.27571619E+03</rscale>
<asrwt>0</asrwt>
<pdfrwt beam="1">  1        1 0.21571377E-01 0.27571619E+03</pdfrwt>
<pdfrwt beam="2">  1       -1 0.20852588E-01 0.27571619E+03</pdfrwt>
<totfact> 0.43307831E+03</totfact>
</mgrwt>
</event>
<event>
 5    1  0.1122238E+001  0.2759821E+03  0.7818608E-02  0.1097904E+00
         -1   -1    0    0    0  501 -0.00000000000E+00  0.00000000000E+00  0.26958170776E+03  0.26958170776E+03  0.00000000000E+00 0.  1.
          1   -1    0    0  501    0  0.00000000000E+00 -0.00000000000E+00 -0.70633599992E+02  0.70633599992E+02  0.00000000000E+00 0.  1.
         35    2    1    2    0    0  0.00000000000E+00  0.00000000000E+00  0.19894810777E+03  0.34021530775E+03  0.27598207558E+03 0.  0.
         25    1    3    3    0    0 -0.32150971150E+02 -0.28694256307E+02  0.34424380466E+02  0.13206847944E+03  0.12000000000E+03 0.  0.
         25    1    3    3    0    0  0.32150971150E+02  0.28694256307E+02  0.16452372730E+03  0.20814682831E+03  0.12000000000E+03 0.  0.
<mgrwt>
<rscale>  0 0.27598208E+03</rscale>
<asrwt>0</asrwt>
<pdfrwt beam="1">  1        1 0.10866708E-01 0.27598208E+03</pdfrwt>
<pdfrwt beam="2">  1       -1 0.41474109E-01 0.27598208E+03</pdfrwt>
<totfact> 0.33032814E+03</totfact>
</mgrwt>
</event>
<event>
 5    1  0.1122238E+001  0.2748321E+03  0.7818608E-02  0.1098545E+00
          2   -1    0    0  501    0  0.00000000000E+00  0.00000000000E+00  0.93054157246E+03  0.93054157246E+03  0.00000000000E+00 0. -1.
         -2   -1    0    0    0  501 -0.00000000000E+00 -0.00000000000E+00 -0.20292665093E+02  0.20292665093E+02  0.00000000000E+00 0. -1.
         35    2    1    2    0    0  0.00000000000E+00  0.00000000000E+00  0.91024890737E+03  0.95083423755E+03  0.27483208317E+03 0.  0.
         25    1    3    3    0    0 -0.18765912447E+02  0.44336020225E+02  0.29413439464E+03  0.32129874613E+03  0.12000000000E+03 0.  0.
         25    1    3    3    0    0  0.18765912447E+02 -0.44336020225E+02  0.61611451273E+03  0.62953549142E+03  0.12000000000E+03 0.  0.
<mgrwt>
<rscale>  0 0.27483208E+03</rscale>
<asrwt>0</asrwt>
<pdfrwt beam="1">  1        2 0.14316021E+00 0.27483208E+03</pdfrwt>
<pdfrwt beam="2">  1       -2 0.31219492E-02 0.27483208E+03</pdfrwt>
<totfact> 0.11552215E+04</totfact>
</mgrwt>
</event>
<event>
 5    1  0.1122238E+001  0.2747826E+03  0.7818608E-02  0.1098573E+00
         -2   -1    0    0    0  501 -0.00000000000E+00  0.00000000000E+00  0.16248350963E+02  0.16248350963E+02  0.00000000000E+00 0. -1.
          2   -1    0    0  501    0  0.00000000000E+00 -0.00000000000E+00 -0.11617408802E+04  0.11617408802E+04  0.00000000000E+00 0. -1.
         35    2    1    2    0    0  0.00000000000E+00  0.00000000000E+00 -0.11454925292E+04  0.11779892312E+04  0.27478263082E+03 0.  0.
         25    1    3    3    0    0 -0.51569231531E+02  0.12777876159E+02 -0.74708031362E+03  0.75851938325E+03  0.12000000000E+03 0.  0.
         25    1    3    3    0    0  0.51569231531E+02 -0.12777876159E+02 -0.39841221561E+03  0.41946984791E+03  0.12000000000E+03 0.  0.
<mgrwt>
<rscale>  0 0.27478263E+03</rscale>
<asrwt>0</asrwt>
<pdfrwt beam="1">  1        2 0.17872937E+00 0.27478263E+03</pdfrwt>
<pdfrwt beam="2">  1       -2 0.24997463E-02 0.27478263E+03</pdfrwt>
<totfact> 0.11665363E+04</totfact>
</mgrwt>
</event>
<event>
 5    1  0.1122238E+001  0.2771329E+03  0.7818608E-02  0.1097265E+00
          2   -1    0    0  501    0  0.00000000000E+00  0.00000000000E+00  0.16240685749E+04  0.16240685749E+04  0.00000000000E+00 0.  1.
         -2   -1    0    0    0  501 -0.00000000000E+00 -0.00000000000E+00 -0.11822568785E+02  0.11822568785E+02  0.00000000000E+00 0.  1.
         35    2    1    2    0    0  0.00000000000E+00  0.00000000000E+00  0.16122460061E+04  0.16358911436E+04  0.27713290990E+03 0.  0.
         25    1    3    3    0    0  0.50062905604E+02  0.19150995516E+02  0.10652875432E+04  0.10733641529E+04  0.12000000000E+03 0.  0.
         25    1    3    3    0    0 -0.50062905604E+02 -0.19150995516E+02  0.54695846287E+03  0.56252699069E+03  0.12000000000E+03 0.  0.
<mgrwt>
<rscale>  0 0.27713291E+03</rscale>
<asrwt>0</asrwt>
<pdfrwt beam="1">  1        2 0.24985653E+00 0.27713291E+03</pdfrwt>
<pdfrwt beam="2">  1       -2 0.18188580E-02 0.27713291E+03</pdfrwt>
<totfact> 0.10419626E+04</totfact>
</mgrwt>
</event>
<event>
 5    1  0.1122238E+001  0.2757176E+03  0.7818608E-02  0.1098051E+00
         -1   -1    0    0    0  501 -0.00000000000E+00  0.00000000000E+00  0.64755617069E+02  0.64755617069E+02  0.00000000000E+00 0. -1.
          1   -1    0    0  501    0  0.00000000000E+00 -0.00000000000E+00 -0.29348877498E+03  0.29348877498E+03  0.00000000000E+00 0. -1.
         35    2    1    2    0    0  0.00000000000E+00  0.00000000000E+00 -0.22873315792E+03  0.35824439205E+03  0.27571758542E+03 0.  0.
         25    1    3    3    0    0 -0.57491323635E+02 -0.30268674555E+02 -0.88918486276E+02  0.16287400699E+03  0.12000000000E+03 0.  0.
         25    1    3    3    0    0  0.57491323635E+02  0.30268674555E+02 -0.13981467164E+03  0.19537038506E+03  0.12000000000E+03 0.  0.
<mgrwt>
<rscale>  0 0.27571759E+03</rscale>
<asrwt>0</asrwt>
<pdfrwt beam="1">  1        1 0.45152120E-01 0.27571759E+03</pdfrwt>
<pdfrwt beam="2">  1       -1 0.99624025E-02 0.27571759E+03</pdfrwt>
<totfact> 0.54882261E+03</totfact>
</mgrwt>
</event>
<event>
 5    1  0.1122238E+001  0.2755490E+03  0.7818608E-02  0.1098145E+00
         -3   -1    0    0    0  501 -0.00000000000E+00  0.00000000000E+00  0.24275004770E+02  0.24275004770E+02  0.00000000000E+00 0.  1.
          3   -1    0    0  501    0  0.00000000000E+00 -0.00000000000E+00 -0.78194907590E+03  0.78194907590E+03  0.00000000000E+00 0.  1.
         35    2    1    2    0    0  0.00000000000E+00  0.00000000000E+00 -0.75767407113E+03  0.80622408067E+03  0.27554903409E+03 0.  0.
         25    1    3    3    0    0 -0.65098525240E+02 -0.18546771420E+02 -0.37845747707E+03  0.40275533847E+03  0.12000000000E+03 0.  0.
         25    1    3    3    0    0  0.65098525240E+02  0.18546771420E+02 -0.37921659406E+03  0.40346874219E+03  0.12000000000E+03 0.  0.
<mgrwt>
<rscale>  0 0.27554903E+03</rscale>
<asrwt>0</asrwt>
<pdfrwt beam="1">  1        3 0.12029985E+00 0.27554903E+03</pdfrwt>
<pdfrwt beam="2">  1       -3 0.37346164E-02 0.27554903E+03</pdfrwt>
<totfact> 0.54068944E+02</totfact>
</mgrwt>
</event>
<event>
 5    1  0.1122238E+001  0.2731922E+03  0.7818608E-02  0.1099466E+00
          1   -1    0    0  501    0  0.00000000000E+00  0.00000000000E+00  0.78597596387E+03  0.78597596387E+03  0.00000000000E+00 0. -1.
         -1   -1    0    0    0  501 -0.00000000000E+00 -0.00000000000E+00 -0.23739270586E+02  0.23739270586E+02  0.00000000000E+00 0. -1.
         35    2    1    2    0    0  0.00000000000E+00  0.00000000000E+00  0.76223669329E+03  0.80971523446E+03  0.27319221131E+03 0.  0.
         25    1    3    3    0    0  0.38135322199E+02  0.33254458640E+02  0.50326331532E+03  0.51984048165E+03  0.12000000000E+03 0.  0.
         25    1    3    3    0    0 -0.38135322199E+02 -0.33254458640E+02  0.25897337797E+03  0.28987475281E+03  0.12000000000E+03 0.  0.
<mgrwt>
<rscale>  0 0.27319221E+03</rscale>
<asrwt>0</asrwt>
<pdfrwt beam="1">  1        1 0.12091936E+00 0.27319221E+03</pdfrwt>
<pdfrwt beam="2">  1       -1 0.36521961E-02 0.27319221E+03</pdfrwt>
<totfact> 0.66545708E+03</totfact>
</mgrwt>
</event>
<event>
 5    1  0.1122238E+001  0.2741970E+03  0.7818608E-02  0.1098901E+00
          1   -1    0    0  501    0  0.00000000000E+00  0.00000000000E+00  0.17185193095E+04  0.17185193095E+04  0.00000000000E+00 0.  1.
         -1   -1    0    0    0  501 -0.00000000000E+00 -0.00000000000E+00 -0.10937319506E+02  0.10937319506E+02  0.00000000000E+00 0.  1.
         35    2    1    2    0    0  0.00000000000E+00  0.00000000000E+00  0.17075819900E+04  0.17294566290E+04  0.27419697129E+03 0.  0.
         25    1    3    3    0    0  0.13831486255E+02 -0.64510279229E+02  0.81237871692E+03  0.82383983021E+03  0.12000000000E+03 0.  0.
         25    1    3    3    0    0 -0.13831486255E+02  0.64510279229E+02  0.89520327308E+03  0.90561679880E+03  0.12000000000E+03 0.  0.
<mgrwt>
<rscale>  0 0.27419697E+03</rscale>
<asrwt>0</asrwt>
<pdfrwt beam="1">  1        1 0.26438737E+00 0.27419697E+03</pdfrwt>
<pdfrwt beam="2">  1       -1 0.16826659E-02 0.27419697E+03</pdfrwt>
<totfact> 0.45384766E+03</totfact>
</mgrwt>
</event>
<event>
 5    1  0.1122238E+001  0.2753866E+03  0.7818608E-02  0.1098236E+00
         -2   -1    0    0    0  501 -0.00000000000E+00  0.00000000000E+00  0.19118265783E+03  0.19118265783E+03  0.00000000000E+00 0.  1.
          2   -1    0    0  501    0  0.00000000000E+00 -0.00000000000E+00 -0.99169244379E+02  0.99169244379E+02  0.00000000000E+00 0.  1.
         35    2    1    2    0    0  0.00000000000E+00  0.00000000000E+00  0.92013413454E+02  0.29035190221E+03  0.27538656260E+03 0.  0.
         25    1    3    3    0    0 -0.45523784599E+02  0.35750767766E+02  0.82665523268E+02  0.15679324315E+03  0.12000000000E+03 0.  0.
         25    1    3    3    0    0  0.45523784599E+02 -0.35750767766E+02  0.93478901860E+01  0.13355865906E+03  0.12000000000E+03 0.  0.
<mgrwt>
<rscale>  0 0.27538656E+03</rscale>
<asrwt>0</asrwt>
<pdfrwt beam="1">  1        2 0.15256807E-01 0.27538656E+03</pdfrwt>
<pdfrwt beam="2">  1       -2 0.29412717E-01 0.27538656E+03</pdfrwt>
<totfact> 0.40265473E+03</totfact>
</mgrwt>
</event>
<event>
 5    1  0.1122238E+001  0.2736581E+03  0.7818608E-02  0.1099204E+00
          2   -1    0    0  501    0  0.00000000000E+00  0.00000000000E+00  0.23408405520E+04  0.23408405520E+04  0.00000000000E+00 0.  1.
         -2   -1    0    0    0  501 -0.00000000000E+00 -0.00000000000E+00 -0.79980611465E+01  0.79980611465E+01  0.00000000000E+00 0.  1.
         35    2    1    2    0    0  0.00000000000E+00  0.00000000000E+00  0.23328424908E+04  0.23488386131E+04  0.27365807767E+03 0.  0.
         25    1    3    3    0    0  0.39636858650E+02 -0.29056279072E+02  0.15412231589E+04  0.15466687342E+04  0.12000000000E+03 0.  0.
         25    1    3    3    0    0 -0.39636858650E+02  0.29056279072E+02  0.79161933195E+03  0.80216987891E+03  0.12000000000E+03 0.  0.
<mgrwt>
<rscale>  0 0.27365808E+03</rscale>
<asrwt>0</asrwt>
<pdfrwt beam="1">  1        2 0.36012877E+00 0.27365808E+03</pdfrwt>
<pdfrwt beam="2">  1       -2 0.12304728E-02 0.27365808E+03</pdfrwt>
<totfact> 0.77142675E+03</totfact>
</mgrwt>
</event>
<event>
 5    1  0.1122238E+001  0.2752563E+03  0.7818608E-02  0.1098308E+00
         -2   -1    0    0    0  501 -0.00000000000E+00  0.00000000000E+00  0.76181782868E+01  0.76181782868E+01  0.00000000000E+00 0.  1.
          2   -1    0    0  501    0  0.00000000000E+00 -0.00000000000E+00 -0.24863569933E+04  0.24863569933E+04  0.00000000000E+00 0.  1.
         35    2    1    2    0    0  0.00000000000E+00  0.00000000000E+00 -0.24787388150E+04  0.24939751715E+04  0.27525632316E+03 0.  0.
         25    1    3    3    0    0 -0.40169400197E+02  0.35159526683E+02 -0.16120367632E+04  0.16173782177E+04  0.12000000000E+03 0.  0.
         25    1    3    3    0    0  0.40169400197E+02 -0.35159526683E+02 -0.86670205177E+03  0.87659695389E+03  0.12000000000E+03 0.  0.
<mgrwt>
<rscale>  0 0.27525632E+03</rscale>
<asrwt>0</asrwt>
<pdfrwt beam="1">  1        2 0.38251690E+00 0.27525632E+03</pdfrwt>
<pdfrwt beam="2">  1       -2 0.11720261E-02 0.27525632E+03</pdfrwt>
<totfact> 0.69042662E+03</totfact>
</mgrwt>
</event>
<event>
 5    1  0.1122238E+001  0.2757575E+03  0.7818608E-02  0.1098029E+00
         -2   -1    0    0    0  501 -0.00000000000E+00  0.00000000000E+00  0.14428053397E+02  0.14428053397E+02  0.00000000000E+00 0. -1.
          2   -1    0    0  501    0  0.00000000000E+00 -0.00000000000E+00 -0.13176103487E+04  0.13176103487E+04  0.00000000000E+00 0. -1.
         35    2    1    2    0    0  0.00000000000E+00  0.00000000000E+00 -0.13031822953E+04  0.13320384021E+04  0.27575752006E+03 0.  0.
         25    1    3    3    0    0  0.35946360568E+02  0.52672330027E+02 -0.53892233678E+03  0.55579114807E+03  0.12000000000E+03 0.  0.
         25    1    3    3    0    0 -0.35946360568E+02 -0.52672330027E+02 -0.76425995854E+03  0.77624725404E+03  0.12000000000E+03 0.  0.
<mgrwt>
<rscale>  0 0.27575752E+03</rscale>
<asrwt>0</asrwt>
<pdfrwt beam="1">  1        2 0.20270930E+00 0.27575752E+03</pdfrwt>
<pdfrwt beam="2">  1       -2 0.22197003E-02 0.27575752E+03</pdfrwt>
<totfact> 0.11363393E+04</totfact>
</mgrwt>
</event>
<event>
 5    1  0.1122238E+001  0.2746015E+03  0.7818608E-02  0.1098675E+00
         -2   -1    0    0    0  501 -0.00000000000E+00  0.00000000000E+00  0.64213753248E+02  0.64213753248E+02  0.00000000000E+00 0.  1.
          2   -1    0    0  501    0  0.00000000000E+00 -0.00000000000E+00 -0.29357408268E+03  0.29357408268E+03  0.00000000000E+00 0.  1.
         35    2    1    2    0    0  0.00000000000E+00  0.00000000000E+00 -0.22936032944E+03  0.35778783593E+03  0.27460148365E+03 0.  0.
         25    1    3    3    0    0 -0.37363204901E+02  0.46269852230E+02 -0.75276662501E+02  0.15363425472E+03  0.12000000000E+03 0.  0.
         25    1    3    3    0    0  0.37363204901E+02 -0.46269852230E+02 -0.15408366693E+03  0.20415358121E+03  0.12000000000E+03 0.  0.
<mgrwt>
<rscale>  0 0.27460148E+03</rscale>
<asrwt>0</asrwt>
<pdfrwt beam="1">  1        2 0.45165243E-01 0.27460148E+03</pdfrwt>
<pdfrwt beam="2">  1       -2 0.98790391E-02 0.27460148E+03</pdfrwt>
<totfact> 0.75169829E+03</totfact>
</mgrwt>
</event>
<event>
 5    1  0.1122238E+001  0.2859984E+03  0.7818608E-02  0.1092457E+00
          2   -1    0    0  501    0  0.00000000000E+00  0.00000000000E+00  0.12001840296E+04  0.12001840296E+04  0.00000000000E+00 0.  1.
         -2   -1    0    0    0  501 -0.00000000000E+00 -0.00000000000E+00 -0.17038029149E+02  0.17038029149E+02  0.00000000000E+00 0.  1.
         35    2    1    2    0    0  0.00000000000E+00  0.00000000000E+00  0.11831460004E+04  0.12172220587E+04  0.28599839496E+03 0.  0.
         25    1    3    3    0    0 -0.31394718735E+02  0.70705747305E+02  0.55756738278E+03  0.57555739715E+03  0.12000000000E+03 0.  0.
         25    1    3    3    0    0  0.31394718735E+02 -0.70705747305E+02  0.62557861763E+03  0.64166466157E+03  0.12000000000E+03 0.  0.
<mgrwt>
<rscale>  0 0.28599839E+03</rscale>
<asrwt>0</asrwt>
<pdfrwt beam="1">  1        2 0.18464363E+00 0.28599839E+03</pdfrwt>
<pdfrwt beam="2">  1       -2 0.26212362E-02 0.28599839E+03</pdfrwt>
<totfact> 0.10347277E+04</totfact>
</mgrwt>
</event>
<event>
 5    1  0.1122238E+001  0.2751461E+03  0.7818608E-02  0.1098370E+00
          2   -1    0    0  501    0  0.00000000000E+00  0.00000000000E+00  0.18175431659E+03  0.18175431659E+03  0.00000000000E+00 0. -1.
         -2   -1    0    0    0  501 -0.00000000000E+00 -0.00000000000E+00 -0.10413146188E+03  0.10413146188E+03  0.00000000000E+00 0. -1.
         35    2    1    2    0    0  0.00000000000E+00  0.00000000000E+00  0.77622854708E+02  0.28588577847E+03  0.27514608984E+03 0.  0.
         25    1    3    3    0    0  0.52265478188E+02 -0.24837744775E+02  0.31535437935E+01  0.13326116694E+03  0.12000000000E+03 0.  0.
         25    1    3    3    0    0 -0.52265478188E+02  0.24837744775E+02  0.74469310915E+02  0.15262461153E+03  0.12000000000E+03 0.  0.
<mgrwt>
<rscale>  0 0.27514609E+03</rscale>
<asrwt>0</asrwt>
<pdfrwt beam="1">  1        2 0.27962203E-01 0.27514609E+03</pdfrwt>
<pdfrwt beam="2">  1       -2 0.16020225E-01 0.27514609E+03</pdfrwt>
<totfact> 0.57732037E+03</totfact>
</mgrwt>
</event>
<event>
 5    1  0.1122238E+001  0.2762965E+03  0.7818608E-02  0.1097729E+00
          2   -1    0    0  501    0  0.00000000000E+00  0.00000000000E+00  0.30031964879E+04  0.30031964879E+04  0.00000000000E+00 0. -1.
         -2   -1    0    0    0  501 -0.00000000000E+00 -0.00000000000E+00 -0.63548747876E+01  0.63548747876E+01  0.00000000000E+00 0. -1.
         35    2    1    2    0    0  0.00000000000E+00  0.00000000000E+00  0.29968416131E+04  0.30095513627E+04  0.27629649034E+03 0.  0.
         25    1    3    3    0    0  0.14271528804E+02  0.12572541049E+02  0.22146114934E+04  0.22179417964E+04  0.12000000000E+03 0.  0.
         25    1    3    3    0    0 -0.14271528804E+02 -0.12572541049E+02  0.78223011973E+03  0.79160956635E+03  0.12000000000E+03 0.  0.
<mgrwt>
<rscale>  0 0.27629649E+03</rscale>
<asrwt>0</asrwt>
<pdfrwt beam="1">  1        2 0.46202909E+00 0.27629649E+03</pdfrwt>
<pdfrwt beam="2">  1       -2 0.97767544E-03 0.27629649E+03</pdfrwt>
<totfact> 0.45702331E+03</totfact>
</mgrwt>
</event>
<event>
 5    1  0.1122238E+001  0.2751655E+03  0.7818608E-02  0.1098359E+00
          2   -1    0    0  501    0  0.00000000000E+00  0.00000000000E+00  0.27066715122E+04  0.27066715122E+04  0.00000000000E+00 0. -1.
         -2   -1    0    0    0  501 -0.00000000000E+00 -0.00000000000E+00 -0.69934652884E+01  0.69934652884E+01  0.00000000000E+00 0. -1.
         35    2    1    2    0    0  0.00000000000E+00  0.00000000000E+00  0.26996780469E+04  0.27136649775E+04  0.27516550124E+03 0.  0.
         25    1    3    3    0    0 -0.30215074764E+01 -0.45553400335E+02  0.86221916808E+03  0.87172595212E+03  0.12000000000E+03 0.  0.
         25    1    3    3    0    0  0.30215074764E+01  0.45553400335E+02  0.18374588788E+04  0.18419390254E+04  0.12000000000E+03 0.  0.
<mgrwt>
<rscale>  0 0.27516550E+03</rscale>
<asrwt>0</asrwt>
<pdfrwt beam="1">  1        2 0.41641016E+00 0.27516550E+03</pdfrwt>
<pdfrwt beam="2">  1       -2 0.10759199E-02 0.27516550E+03</pdfrwt>
<totfact> 0.59005443E+03</totfact>
</mgrwt>
</event>
<event>
 5    1  0.1122238E+001  0.2754259E+03  0.7818608E-02  0.1098214E+00
          3   -1    0    0  501    0  0.00000000000E+00  0.00000000000E+00  0.23060460239E+03  0.23060460239E+03  0.00000000000E+00 0.  1.
         -3   -1    0    0    0  501 -0.00000000000E+00 -0.00000000000E+00 -0.82239738770E+02  0.82239738770E+02  0.00000000000E+00 0.  1.
         35    2    1    2    0    0  0.00000000000E+00  0.00000000000E+00  0.14836486362E+03  0.31284434116E+03  0.27542594112E+03 0.  0.
         25    1    3    3    0    0  0.62209199621E+02 -0.19521713927E+02  0.94302821466E+02  0.16596416471E+03  0.12000000000E+03 0.  0.
         25    1    3    3    0    0 -0.62209199621E+02  0.19521713927E+02  0.54062042157E+02  0.14688017645E+03  0.12000000000E+03 0.  0.
<mgrwt>
<rscale>  0 0.27542594E+03</rscale>
<asrwt>0</asrwt>
<pdfrwt beam="1">  1        3 0.35477631E-01 0.27542594E+03</pdfrwt>
<pdfrwt beam="2">  1       -3 0.12652268E-01 0.27542594E+03</pdfrwt>
<totfact> 0.98866664E+02</totfact>
</mgrwt>
</event>
<event>
 5    1  0.1122238E+001  0.2754227E+03  0.7818608E-02  0.1098216E+00
          1   -1    0    0  501    0  0.00000000000E+00  0.00000000000E+00  0.18432255034E+03  0.18432255034E+03  0.00000000000E+00 0.  1.
         -1   -1    0    0    0  501 -0.00000000000E+00 -0.00000000000E+00 -0.10288710858E+03  0.10288710858E+03  0.00000000000E+00 0.  1.
         35    2    1    2    0    0  0.00000000000E+00  0.00000000000E+00  0.81435441761E+02  0.28720965893E+03  0.27542268789E+03 0.  0.
         25    1    3    3    0    0  0.31239426745E+02 -0.24373501972E+02  0.97781100541E+02  0.15978458313E+03  0.12000000000E+03 0.  0.
         25    1    3    3    0    0 -0.31239426745E+02  0.24373501972E+02 -0.16345658780E+02  0.12742507580E+03  0.12000000000E+03 0.  0.
<mgrwt>
<rscale>  0 0.27542269E+03</rscale>
<asrwt>0</asrwt>
<pdfrwt beam="1">  1        1 0.28357315E-01 0.27542269E+03</pdfrwt>
<pdfrwt beam="2">  1       -1 0.15828786E-01 0.27542269E+03</pdfrwt>
<totfact> 0.47668475E+03</totfact>
</mgrwt>
</event>
<event>
 5    1  0.1122238E+001  0.2756180E+03  0.7818608E-02  0.1098107E+00
          1   -1    0    0  501    0  0.00000000000E+00  0.00000000000E+00  0.32436693521E+03  0.32436693521E+03  0.00000000000E+00 0.  1.
         -1   -1    0    0    0  501 -0.00000000000E+00 -0.00000000000E+00 -0.58548872032E+02  0.58548872032E+02  0.00000000000E+00 0.  1.
         35    2    1    2    0    0  0.00000000000E+00  0.00000000000E+00  0.26581806317E+03  0.38291580724E+03  0.27561798331E+03 0.  0.
         25    1    3    3    0    0 -0.49772443264E+02  0.20930238836E+02  0.76033442600E+02  0.15197518021E+03  0.12000000000E+03 0.  0.
         25    1    3    3    0    0  0.49772443264E+02 -0.20930238836E+02  0.18978462057E+03  0.23094062703E+03  0.12000000000E+03 0.  0.
<mgrwt>
<rscale>  0 0.27561798E+03</rscale>
<asrwt>0</asrwt>
<pdfrwt beam="1">  1        1 0.49902604E-01 0.27561798E+03</pdfrwt>
<pdfrwt beam="2">  1       -1 0.90075190E-02 0.27561798E+03</pdfrwt>
<totfact> 0.56513425E+03</totfact>
</mgrwt>
</event>
<event>
 5    1  0.1122238E+001  0.2756203E+03  0.7818608E-02  0.1098105E+00
         -2   -1    0    0    0  501 -0.00000000000E+00  0.00000000000E+00  0.39008102847E+02  0.39008102847E+02  0.00000000000E+00 0.  1.
          2   -1    0    0  501    0  0.00000000000E+00 -0.00000000000E+00 -0.48686382514E+03  0.48686382514E+03  0.00000000000E+00 0.  1.
         35    2    1    2    0    0  0.00000000000E+00  0.00000000000E+00 -0.44785572229E+03  0.52587192799E+03  0.27562027620E+03 0.  0.
         25    1    3    3    0    0  0.30712752122E+01  0.22704958291E+02 -0.34559944481E+03  0.36655684977E+03  0.12000000000E+03 0.  0.
         25    1    3    3    0    0 -0.30712752122E+01 -0.22704958291E+02 -0.10225627749E+03  0.15931507822E+03  0.12000000000E+03 0.  0.
<mgrwt>
<rscale>  0 0.27562028E+03</rscale>
<asrwt>0</asrwt>
<pdfrwt beam="1">  1        2 0.74902120E-01 0.27562028E+03</pdfrwt>
<pdfrwt beam="2">  1       -2 0.60012471E-02 0.27562028E+03</pdfrwt>
<totfact> 0.94372577E+03</totfact>
</mgrwt>
</event>
<event>
 5    1  0.1122238E+001  0.2751949E+03  0.7818608E-02  0.1098343E+00
         -1   -1    0    0    0  501 -0.00000000000E+00  0.00000000000E+00  0.18540573319E+03  0.18540573319E+03  0.00000000000E+00 0.  1.
          1   -1    0    0  501    0  0.00000000000E+00 -0.00000000000E+00 -0.10211692275E+03  0.10211692275E+03  0.00000000000E+00 0.  1.
         35    2    1    2    0    0  0.00000000000E+00  0.00000000000E+00  0.83288810439E+02  0.28752265594E+03  0.27519493406E+03 0.  0.
         25    1    3    3    0    0  0.39520480243E+01 -0.48081114739E+02  0.90712590918E+02  0.15797527158E+03  0.12000000000E+03 0.  0.
         25    1    3    3    0    0 -0.39520480243E+01  0.48081114739E+02 -0.74237804794E+01  0.12954738436E+03  0.12000000000E+03 0.  0.
<mgrwt>
<rscale>  0 0.27519493E+03</rscale>
<asrwt>0</asrwt>
<pdfrwt beam="1">  1        1 0.15710296E-01 0.27519493E+03</pdfrwt>
<pdfrwt beam="2">  1       -1 0.28523959E-01 0.27519493E+03</pdfrwt>
<totfact> 0.38826696E+03</totfact>
</mgrwt>
</event>
<event>
 5    1  0.1122238E+001  0.2754658E+03  0.7818608E-02  0.1098192E+00
          2   -1    0    0  501    0  0.00000000000E+00  0.00000000000E+00  0.35636754629E+03  0.35636754629E+03  0.00000000000E+00 0. -1.
         -2   -1    0    0    0  501 -0.00000000000E+00 -0.00000000000E+00 -0.53232543145E+02  0.53232543145E+02  0.00000000000E+00 0. -1.
         35    2    1    2    0    0  0.00000000000E+00  0.00000000000E+00  0.30313500315E+03  0.40960008944E+03  0.27546579304E+03 0.  0.
         25    1    3    3    0    0  0.88094402056E+01  0.35732830519E+02  0.67244847640E+02  0.14239491194E+03  0.12000000000E+03 0.  0.
         25    1    3    3    0    0 -0.88094402056E+01 -0.35732830519E+02  0.23589015551E+03  0.26720517749E+03  0.12000000000E+03 0.  0.
<mgrwt>
<rscale>  0 0.27546579E+03</rscale>
<asrwt>0</asrwt>
<pdfrwt beam="1">  1        2 0.54825775E-01 0.27546579E+03</pdfrwt>
<pdfrwt beam="2">  1       -2 0.81896223E-02 0.27546579E+03</pdfrwt>
<totfact> 0.81999727E+03</totfact>
</mgrwt>
</event>
<event>
 5    1  0.1122238E+001  0.2740097E+03  0.7818608E-02  0.1099006E+00
          2   -1    0    0  501    0  0.00000000000E+00  0.00000000000E+00  0.93105927964E+02  0.93105927964E+02  0.00000000000E+00 0.  1.
         -2   -1    0    0    0  501 -0.00000000000E+00 -0.00000000000E+00 -0.20160187427E+03  0.20160187427E+03  0.00000000000E+00 0.  1.
         35    2    1    2    0    0  0.00000000000E+00  0.00000000000E+00 -0.10849594631E+03  0.29470780224E+03  0.27400970482E+03 0.  0.
         25    1    3    3    0    0  0.27085426062E+02  0.60216844947E+02 -0.57756413645E+02  0.14864552478E+03  0.12000000000E+03 0.  0.
         25    1    3    3    0    0 -0.27085426062E+02 -0.60216844947E+02 -0.50739532662E+02  0.14606227745E+03  0.12000000000E+03 0.  0.
<mgrwt>
<rscale>  0 0.27400970E+03</rscale>
<asrwt>0</asrwt>
<pdfrwt beam="1">  1        2 0.14323989E-01 0.27400970E+03</pdfrwt>
<pdfrwt beam="2">  1       -2 0.31015673E-01 0.27400970E+03</pdfrwt>
<totfact> 0.39400042E+03</totfact>
</mgrwt>
</event>
<event>
 5    1  0.1122238E+001  0.2748426E+03  0.7818608E-02  0.1098540E+00
         -2   -1    0    0    0  501 -0.00000000000E+00  0.00000000000E+00  0.13494097142E+02  0.13494097142E+02  0.00000000000E+00 0.  1.
          2   -1    0    0  501    0  0.00000000000E+00 -0.00000000000E+00 -0.13994724432E+04  0.13994724432E+04  0.00000000000E+00 0.  1.
         35    2    1    2    0    0  0.00000000000E+00  0.00000000000E+00 -0.13859783460E+04  0.14129665403E+04  0.27484262476E+03 0.  0.
         25    1    3    3    0    0 -0.12186054674E+02  0.18896749456E+02 -0.36869705101E+03  0.38838525009E+03  0.12000000000E+03 0.  0.
         25    1    3    3    0    0  0.12186054674E+02 -0.18896749456E+02 -0.10172812950E+04  0.10245812902E+04  0.12000000000E+03 0.  0.
<mgrwt>
<rscale>  0 0.27484262E+03</rscale>
<asrwt>0</asrwt>
<pdfrwt beam="1">  1        2 0.21530341E+00 0.27484262E+03</pdfrwt>
<pdfrwt beam="2">  1       -2 0.20760154E-02 0.27484262E+03</pdfrwt>
<totfact> 0.11311350E+04</totfact>
</mgrwt>
</event>
<event>
 5    1  0.1122238E+001  0.2769086E+03  0.7818608E-02  0.1097389E+00
          1   -1    0    0  501    0  0.00000000000E+00  0.00000000000E+00  0.10112779654E+03  0.10112779654E+03  0.00000000000E+00 0.  1.
         -1   -1    0    0    0  501 -0.00000000000E+00 -0.00000000000E+00 -0.18955813882E+03  0.18955813882E+03  0.00000000000E+00 0.  1.
         35    2    1    2    0    0  0.00000000000E+00  0.00000000000E+00 -0.88430342278E+02  0.29068593537E+03  0.27690862678E+03 0.  0.
         25    1    3    3    0    0  0.22031906883E+02  0.36629341757E+00 -0.11292441898E+03  0.16624519089E+03  0.12000000000E+03 0.  0.
         25    1    3    3    0    0 -0.22031906883E+02 -0.36629341757E+00  0.24494076705E+02  0.12444074447E+03  0.12000000000E+03 0.  0.
<mgrwt>
<rscale>  0 0.27690863E+03</rscale>
<asrwt>0</asrwt>
<pdfrwt beam="1">  1        1 0.15558122E-01 0.27690863E+03</pdfrwt>
<pdfrwt beam="2">  1       -1 0.29162791E-01 0.27690863E+03</pdfrwt>
<totfact> 0.37884279E+03</totfact>
</mgrwt>
</event>
<event>
 5    1  0.1122238E+001  0.2749093E+03  0.7818608E-02  0.1098502E+00
          2   -1    0    0  501    0  0.00000000000E+00  0.00000000000E+00  0.28793453272E+04  0.28793453272E+04  0.00000000000E+00 0.  1.
         -2   -1    0    0    0  501 -0.00000000000E+00 -0.00000000000E+00 -0.65618314811E+01  0.65618314811E+01  0.00000000000E+00 0.  1.
         35    2    1    2    0    0  0.00000000000E+00  0.00000000000E+00  0.28727834957E+04  0.28859071586E+04  0.27490928549E+03 0.  0.
         25    1    3    3    0    0 -0.23158996754E+02 -0.61334726223E+02  0.12896152989E+04  0.12968445963E+04  0.12000000000E+03 0.  0.
         25    1    3    3    0    0  0.23158996754E+02  0.61334726223E+02  0.15831681967E+04  0.15890625623E+04  0.12000000000E+03 0.  0.
<mgrwt>
<rscale>  0 0.27490929E+03</rscale>
<asrwt>0</asrwt>
<pdfrwt beam="1">  1        2 0.44297520E+00 0.27490929E+03</pdfrwt>
<pdfrwt beam="2">  1       -2 0.10095148E-02 0.27490929E+03</pdfrwt>
<totfact> 0.51570626E+03</totfact>
</mgrwt>
</event>
<event>
 4    1  0.1122238E+001  0.2584177E+03  0.7818608E-02  0.1108098E+00
          2   -1    0    0  501    0  0.00000000000E+00  0.00000000000E+00  0.10583163460E+03  0.10583163460E+03  0.00000000000E+00 0. -1.
         -2   -1    0    0    0  501 -0.00000000000E+00 -0.00000000000E+00 -0.15774988069E+03  0.15774988069E+03  0.00000000000E+00 0. -1.
         25    1    1    2    0    0  0.43929801734E+02  0.80504027220E+01 -0.43634310747E+02  0.13527227927E+03  0.12000000000E+03 0.  0.
         25    1    1    2    0    0 -0.43929801734E+02 -0.80504027220E+01 -0.82839353389E+01  0.12830923602E+03  0.12000000000E+03 0.  0.
<mgrwt>
<rscale>  0 0.25841771E+03</rscale>
<asrwt>0</asrwt>
<pdfrwt beam="1">  1        2 0.16281790E-01 0.25841771E+03</pdfrwt>
<pdfrwt beam="2">  1       -2 0.24269212E-01 0.25841771E+03</pdfrwt>
<totfact> 0.52414812E+03</totfact>
</mgrwt>
</event>
<event>
 5    1  0.1122238E+001  0.2748027E+03  0.7818608E-02  0.1098562E+00
         -1   -1    0    0    0  501 -0.00000000000E+00  0.00000000000E+00  0.12165943994E+02  0.12165943994E+02  0.00000000000E+00 0. -1.
          1   -1    0    0  501    0  0.00000000000E+00 -0.00000000000E+00 -0.15518021261E+04  0.15518021261E+04  0.00000000000E+00 0. -1.
         35    2    1    2    0    0  0.00000000000E+00  0.00000000000E+00 -0.15396361821E+04  0.15639680701E+04  0.27480274930E+03 0.  0.
         25    1    3    3    0    0  0.75279675800E+00  0.56182286560E+02 -0.97675717894E+03  0.98570360791E+03  0.12000000000E+03 0.  0.
         25    1    3    3    0    0 -0.75279675800E+00 -0.56182286560E+02 -0.56287900318E+03  0.57826446220E+03  0.12000000000E+03 0.  0.
<mgrwt>
<rscale>  0 0.27480275E+03</rscale>
<asrwt>0</asrwt>
<pdfrwt beam="1">  1        1 0.23873875E+00 0.27480275E+03</pdfrwt>
<pdfrwt beam="2">  1       -1 0.18716840E-02 0.27480275E+03</pdfrwt>
<totfact> 0.49967287E+03</totfact>
</mgrwt>
</event>
<event>
 5    1  0.1122238E+001  0.2747169E+03  0.7818608E-02  0.1098610E+00
         -1   -1    0    0    0  501 -0.00000000000E+00  0.00000000000E+00  0.25321047720E+03  0.25321047720E+03  0.00000000000E+00 0.  1.
          1   -1    0    0  501    0  0.00000000000E+00 -0.00000000000E+00 -0.74512500255E+02  0.74512500255E+02  0.00000000000E+00 0.  1.
         35    2    1    2    0    0  0.00000000000E+00  0.00000000000E+00  0.17869797695E+03  0.32772297746E+03  0.27471691428E+03 0.  0.
         25    1    3    3    0    0  0.98656171845E+01  0.52743952071E+02  0.13688898723E+03  0.18978369189E+03  0.12000000000E+03 0.  0.
         25    1    3    3    0    0 -0.98656171845E+01 -0.52743952071E+02  0.41808989722E+02  0.13793928557E+03  0.12000000000E+03 0.  0.
<mgrwt>
<rscale>  0 0.27471691E+03</rscale>
<asrwt>0</asrwt>
<pdfrwt beam="1">  1        1 0.11463462E-01 0.27471691E+03</pdfrwt>
<pdfrwt beam="2">  1       -1 0.38955458E-01 0.27471691E+03</pdfrwt>
<totfact> 0.34373471E+03</totfact>
</mgrwt>
</event>
<event>
 5    1  0.1122238E+001  0.2769426E+03  0.7818608E-02  0.1097371E+00
          2   -1    0    0  501    0  0.00000000000E+00  0.00000000000E+00  0.45686881247E+04  0.45686881247E+04  0.00000000000E+00 0. -1.
         -2   -1    0    0    0  501 -0.00000000000E+00 -0.00000000000E+00 -0.41968928362E+01  0.41968928362E+01  0.00000000000E+00 0. -1.
         35    2    1    2    0    0  0.00000000000E+00  0.00000000000E+00  0.45644912318E+04  0.45728850175E+04  0.27694255333E+03 0.  0.
         25    1    3    3    0    0  0.21781183404E+02 -0.12322630651E+02  0.33457061847E+04  0.33479510363E+04  0.12000000000E+03 0.  0.
         25    1    3    3    0    0 -0.21781183404E+02  0.12322630651E+02  0.12187850471E+04  0.12249339812E+04  0.12000000000E+03 0.  0.
<mgrwt>
<rscale>  0 0.27694255E+03</rscale>
<asrwt>0</asrwt>
<pdfrwt beam="1">  1        2 0.70287112E+00 0.27694255E+03</pdfrwt>
<pdfrwt beam="2">  1       -2 0.64567947E-03 0.27694255E+03</pdfrwt>
<totfact> 0.58748707E+02</totfact>
</mgrwt>
</event>
<event>
 5    1  0.1122238E+001  0.2744141E+03  0.7818608E-02  0.1098780E+00
         -2   -1    0    0    0  501 -0.00000000000E+00  0.00000000000E+00  0.92872085359E+01  0.92872085359E+01  0.00000000000E+00 0. -1.
          2   -1    0    0  501    0  0.00000000000E+00 -0.00000000000E+00 -0.20270651592E+04  0.20270651592E+04  0.00000000000E+00 0. -1.
         35    2    1    2    0    0  0.00000000000E+00  0.00000000000E+00 -0.20177779507E+04  0.20363523678E+04  0.27441411662E+03 0.  0.
         25    1    3    3    0    0 -0.30355775809E+02 -0.59194263042E+02 -0.10045432678E+04  0.10138701153E+04  0.12000000000E+03 0.  0.
         25    1    3    3    0    0  0.30355775809E+02  0.59194263042E+02 -0.10132346829E+04  0.10224822524E+04  0.12000000000E+03 0.  0.
<mgrwt>
<rscale>  0 0.27441412E+03</rscale>
<asrwt>0</asrwt>
<pdfrwt beam="1">  1        2 0.31185669E+00 0.27441412E+03</pdfrwt>
<pdfrwt beam="2">  1       -2 0.14287989E-02 0.27441412E+03</pdfrwt>
<totfact> 0.91077514E+03</totfact>
</mgrwt>
</event>
<event>
 5    1  0.1122238E+001  0.2751040E+03  0.7818608E-02  0.1098393E+00
         -2   -1    0    0    0  501 -0.00000000000E+00  0.00000000000E+00  0.57440168255E+01  0.57440168255E+01  0.00000000000E+00 0.  1.
          2   -1    0    0  501    0  0.00000000000E+00 -0.00000000000E+00 -0.32939582664E+04  0.32939582664E+04  0.00000000000E+00 0.  1.
         35    2    1    2    0    0  0.00000000000E+00  0.00000000000E+00 -0.32882142496E+04  0.32997022832E+04  0.27510399273E+03 0.  0.
         25    1    3    3    0    0 -0.34246016547E+02  0.45531927064E+02 -0.12158882685E+04  0.12231231448E+04  0.12000000000E+03 0.  0.
         25    1    3    3    0    0  0.34246016547E+02 -0.45531927064E+02 -0.20723259811E+04  0.20765791384E+04  0.12000000000E+03 0.  0.
<mgrwt>
<rscale>  0 0.27510399E+03</rscale>
<asrwt>0</asrwt>
<pdfrwt beam="1">  1        2 0.50676225E+00 0.27510399E+03</pdfrwt>
<pdfrwt beam="2">  1       -2 0.88369587E-03 0.27510399E+03</pdfrwt>
<totfact> 0.35156008E+03</totfact>
</mgrwt>
</event>
<event>
 5    1  0.1122238E+001  0.2728742E+03  0.7818608E-02  0.1099646E+00
         -2   -1    0    0    0  501 -0.00000000000E+00  0.00000000000E+00  0.14076605122E+03  0.14076605122E+03  0.00000000000E+00 0. -1.
          2   -1    0    0  501    0  0.00000000000E+00 -0.00000000000E+00 -0.13224125023E+03  0.13224125023E+03  0.00000000000E+00 0. -1.
         35    2    1    2    0    0  0.00000000000E+00  0.00000000000E+00  0.85248009907E+01  0.27300730145E+03  0.27287417322E+03 0.  0.
         25    1    3    3    0    0  0.29270107772E+02  0.57936488264E+02  0.29568802316E+01  0.13646288514E+03  0.12000000000E+03 0.  0.
         25    1    3    3    0    0 -0.29270107772E+02 -0.57936488264E+02  0.55679207591E+01  0.13654441630E+03  0.12000000000E+03 0.  0.
<mgrwt>
<rscale>  0 0.27287417E+03</rscale>
<asrwt>0</asrwt>
<pdfrwt beam="1">  1        2 0.20344808E-01 0.27287417E+03</pdfrwt>
<pdfrwt beam="2">  1       -2 0.21656316E-01 0.27287417E+03</pdfrwt>
<totfact> 0.49486932E+03</totfact>
</mgrwt>
</event>
<event>
 5    1  0.1122238E+001  0.2756563E+03  0.7818608E-02  0.1098085E+00
          4   -1    0    0  501    0  0.00000000000E+00  0.00000000000E+00  0.20543374884E+03  0.20543374884E+03  0.00000000000E+00 0. -1.
         -4   -1    0    0    0  501 -0.00000000000E+00 -0.00000000000E+00 -0.92470703050E+02  0.92470703050E+02  0.00000000000E+00 0. -1.
         35    2    1    2    0    0  0.00000000000E+00  0.00000000000E+00  0.11296304579E+03  0.29790445189E+03  0.27565633086E+03 0.  0.
         25    1    3    3    0    0 -0.63015144263E+02  0.67933625406E+01  0.82498246646E+02  0.15881756477E+03  0.12000000000E+03 0.  0.
         25    1    3    3    0    0  0.63015144263E+02 -0.67933625406E+01  0.30464799146E+02  0.13908688712E+03  0.12000000000E+03 0.  0.
<mgrwt>
<rscale>  0 0.27565633E+03</rscale>
<asrwt>0</asrwt>
<pdfrwt beam="1">  1        4 0.31605192E-01 0.27565633E+03</pdfrwt>
<pdfrwt beam="2">  1       -4 0.14226262E-01 0.27565633E+03</pdfrwt>
<totfact> 0.74676290E+02</totfact>
</mgrwt>
</event>
<event>
 4    1  0.1122238E+001  0.3353671E+03  0.7818608E-02  0.1068786E+00
         -2   -1    0    0    0  501 -0.00000000000E+00  0.00000000000E+00  0.22347220760E+02  0.22347220760E+02  0.00000000000E+00 0.  1.
          2   -1    0    0  501    0  0.00000000000E+00 -0.00000000000E+00 -0.12582220131E+04  0.12582220131E+04  0.00000000000E+00 0.  1.
         25    1    1    2    0    0 -0.28746129065E+02 -0.11247215730E+03 -0.67726903860E+03  0.69754546572E+03  0.12000000000E+03 0.  0.
         25    1    1    2    0    0  0.28746129065E+02  0.11247215730E+03 -0.55860575379E+03  0.58302376819E+03  0.12000000000E+03 0.  0.
<mgrwt>
<rscale>  0 0.33536705E+03</rscale>
<asrwt>0</asrwt>
<pdfrwt beam="1">  1        2 0.19357270E+00 0.33536705E+03</pdfrwt>
<pdfrwt beam="2">  1       -2 0.34380324E-02 0.33536705E+03</pdfrwt>
<totfact> 0.64157499E+03</totfact>
</mgrwt>
</event>
<event>
 5    1  0.1122238E+001  0.2709053E+03  0.7818608E-02  0.1100763E+00
         -1   -1    0    0    0  501 -0.00000000000E+00  0.00000000000E+00  0.63690902003E+02  0.63690902003E+02  0.00000000000E+00 0. -1.
          1   -1    0    0  501    0  0.00000000000E+00 -0.00000000000E+00 -0.28806980505E+03  0.28806980505E+03  0.00000000000E+00 0. -1.
         35    2    1    2    0    0  0.00000000000E+00  0.00000000000E+00 -0.22437890305E+03  0.35176070705E+03  0.27090533936E+03 0.  0.
         25    1    3    3    0    0  0.25720897223E+02 -0.56055160981E+02 -0.12775369683E+03  0.18580837624E+03  0.12000000000E+03 0.  0.
         25    1    3    3    0    0 -0.25720897223E+02  0.56055160981E+02 -0.96625206222E+02  0.16595233082E+03  0.12000000000E+03 0.  0.
<mgrwt>
<rscale>  0 0.27090534E+03</rscale>
<asrwt>0</asrwt>
<pdfrwt beam="1">  1        1 0.44318431E-01 0.27090534E+03</pdfrwt>
<pdfrwt beam="2">  1       -1 0.97986005E-02 0.27090534E+03</pdfrwt>
<totfact> 0.57605538E+03</totfact>
</mgrwt>
</event>
<event>
 5    1  0.1122238E+001  0.2746257E+03  0.7818608E-02  0.1098661E+00
          1   -1    0    0  501    0  0.00000000000E+00  0.00000000000E+00  0.76989526315E+03  0.76989526315E+03  0.00000000000E+00 0. -1.
         -1   -1    0    0    0  501 -0.00000000000E+00 -0.00000000000E+00 -0.24490100973E+02  0.24490100973E+02  0.00000000000E+00 0. -1.
         35    2    1    2    0    0  0.00000000000E+00  0.00000000000E+00  0.74540516218E+03  0.79438536412E+03  0.27462565600E+03 0.  0.
         25    1    3    3    0    0 -0.27863933304E+02 -0.17926829017E+02  0.20510468482E+03  0.23992853459E+03  0.12000000000E+03 0.  0.
         25    1    3    3    0    0  0.27863933304E+02  0.17926829017E+02  0.54030047736E+03  0.55445682953E+03  0.12000000000E+03 0.  0.
<mgrwt>
<rscale>  0 0.27462566E+03</rscale>
<asrwt>0</asrwt>
<pdfrwt beam="1">  1        1 0.11844541E+00 0.27462566E+03</pdfrwt>
<pdfrwt beam="2">  1       -1 0.37677084E-02 0.27462566E+03</pdfrwt>
<totfact> 0.65580375E+03</totfact>
</mgrwt>
</event>
<event>
 5    1  0.1122238E+001  0.2755447E+03  0.7818608E-02  0.1098147E+00
          2   -1    0    0  501    0  0.00000000000E+00  0.00000000000E+00  0.97795828032E+02  0.97795828032E+02  0.00000000000E+00 0.  1.
         -2   -1    0    0    0  501 -0.00000000000E+00 -0.00000000000E+00 -0.19409034583E+03  0.19409034583E+03  0.00000000000E+00 0.  1.
         35    2    1    2    0    0  0.00000000000E+00  0.00000000000E+00 -0.96294517794E+02  0.29188617386E+03  0.27554474107E+03 0.  0.
         25    1    3    3    0    0 -0.54358237508E+02 -0.33506368375E+02 -0.71922279314E+02  0.15378656953E+03  0.12000000000E+03 0.  0.
         25    1    3    3    0    0  0.54358237508E+02  0.33506368375E+02 -0.24372238480E+02  0.13809960433E+03  0.12000000000E+03 0.  0.
<mgrwt>
<rscale>  0 0.27554474E+03</rscale>
<asrwt>0</asrwt>
<pdfrwt beam="1">  1        2 0.15045512E-01 0.27554474E+03</pdfrwt>
<pdfrwt beam="2">  1       -2 0.29860053E-01 0.27554474E+03</pdfrwt>
<totfact> 0.39831796E+03</totfact>
</mgrwt>
</event>
<event>
 5    1  0.1122238E+001  0.2751720E+03  0.7818608E-02  0.1098355E+00
          1   -1    0    0  501    0  0.00000000000E+00  0.00000000000E+00  0.23018151770E+03  0.23018151770E+03  0.00000000000E+00 0. -1.
         -1   -1    0    0    0  501 -0.00000000000E+00 -0.00000000000E+00 -0.82239061880E+02  0.82239061880E+02  0.00000000000E+00 0. -1.
         35    2    1    2    0    0  0.00000000000E+00  0.00000000000E+00  0.14794245582E+03  0.31242057958E+03  0.27517203403E+03 0.  0.
         25    1    3    3    0    0  0.36733396133E+01  0.58464908787E+02  0.36345014721E+02  0.13839291556E+03  0.12000000000E+03 0.  0.
         25    1    3    3    0    0 -0.36733396133E+01 -0.58464908787E+02  0.11159744110E+03  0.17402766402E+03  0.12000000000E+03 0.  0.
<mgrwt>
<rscale>  0 0.27517203E+03</rscale>
<asrwt>0</asrwt>
<pdfrwt beam="1">  1        1 0.35412541E-01 0.27517203E+03</pdfrwt>
<pdfrwt beam="2">  1       -1 0.12652163E-01 0.27517203E+03</pdfrwt>
<totfact> 0.51329711E+03</totfact>
</mgrwt>
</event>
<event>
 5    1  0.1122238E+001  0.2755705E+03  0.7818608E-02  0.1098133E+00
          2   -1    0    0  501    0  0.00000000000E+00  0.00000000000E+00  0.66851975246E+02  0.66851975246E+02  0.00000000000E+00 0.  1.
         -2   -1    0    0    0  501 -0.00000000000E+00 -0.00000000000E+00 -0.28398223057E+03  0.28398223057E+03  0.00000000000E+00 0.  1.
         35    2    1    2    0    0  0.00000000000E+00  0.00000000000E+00 -0.21713025533E+03  0.35083420582E+03  0.27557048498E+03 0.  0.
         25    1    3    3    0    0 -0.47676558601E+02 -0.28999128915E+02 -0.59740210871E+02  0.14519950590E+03  0.12000000000E+03 0.  0.
         25    1    3    3    0    0  0.47676558601E+02  0.28999128915E+02 -0.15739004446E+03  0.20563469992E+03  0.12000000000E+03 0.  0.
<mgrwt>
<rscale>  0 0.27557048E+03</rscale>
<asrwt>0</asrwt>
<pdfrwt beam="1">  1        2 0.10284920E-01 0.27557048E+03</pdfrwt>
<pdfrwt beam="2">  1       -2 0.43689573E-01 0.27557048E+03</pdfrwt>
<totfact> 0.30930540E+03</totfact>
</mgrwt>
</event>
<event>
 5    1  0.1122238E+001  0.2756049E+03  0.7818608E-02  0.1098114E+00
         -2   -1    0    0    0  501 -0.00000000000E+00  0.00000000000E+00  0.56317002216E+02  0.56317002216E+02  0.00000000000E+00 0. -1.
          2   -1    0    0  501    0  0.00000000000E+00 -0.00000000000E+00 -0.33718985076E+03  0.33718985076E+03  0.00000000000E+00 0. -1.
         35    2    1    2    0    0  0.00000000000E+00  0.00000000000E+00 -0.28087284854E+03  0.39350685297E+03  0.27560494605E+03 0.  0.
         25    1    3    3    0    0 -0.48930482239E+01 -0.44202483301E+02 -0.67469068167E+02  0.14467161646E+03  0.12000000000E+03 0.  0.
         25    1    3    3    0    0  0.48930482239E+01  0.44202483301E+02 -0.21340378037E+03  0.24883523651E+03  0.12000000000E+03 0.  0.
<mgrwt>
<rscale>  0 0.27560495E+03</rscale>
<asrwt>0</asrwt>
<pdfrwt beam="1">  1        2 0.51875361E-01 0.27560495E+03</pdfrwt>
<pdfrwt beam="2">  1       -2 0.86641543E-02 0.27560495E+03</pdfrwt>
<totfact> 0.79686565E+03</totfact>
</mgrwt>
</event>
<event>
 5    1  0.1122238E+001  0.2757947E+03  0.7818608E-02  0.1098008E+00
          2   -1    0    0  501    0  0.00000000000E+00  0.00000000000E+00  0.43012434865E+03  0.43012434865E+03  0.00000000000E+00 0. -1.
         -2   -1    0    0    0  501 -0.00000000000E+00 -0.00000000000E+00 -0.44209711277E+02  0.44209711277E+02  0.00000000000E+00 0. -1.
         35    2    1    2    0    0  0.00000000000E+00  0.00000000000E+00  0.38591463737E+03  0.47433405993E+03  0.27579465743E+03 0.  0.
         25    1    3    3    0    0  0.35287369997E+02 -0.30306257755E+02  0.10779270436E+03  0.16787773781E+03  0.12000000000E+03 0.  0.
         25    1    3    3    0    0 -0.35287369997E+02  0.30306257755E+02  0.27812193301E+03  0.30645632211E+03  0.12000000000E+03 0.  0.
<mgrwt>
<rscale>  0 0.27579466E+03</rscale>
<asrwt>0</asrwt>
<pdfrwt beam="1">  1        2 0.66172974E-01 0.27579466E+03</pdfrwt>
<pdfrwt beam="2">  1       -2 0.68014943E-02 0.27579466E+03</pdfrwt>
<totfact> 0.89236310E+03</totfact>
</mgrwt>
</event>
<event>
 5    1  0.1122238E+001  0.2760122E+03  0.7818608E-02  0.1097887E+00
         -1   -1    0    0    0  501 -0.00000000000E+00  0.00000000000E+00  0.18508351915E+02  0.18508351915E+02  0.00000000000E+00 0. -1.
          1   -1    0    0  501    0  0.00000000000E+00 -0.00000000000E+00 -0.10290316818E+04  0.10290316818E+04  0.00000000000E+00 0. -1.
         35    2    1    2    0    0  0.00000000000E+00  0.00000000000E+00 -0.10105233299E+04  0.10475400337E+04  0.27601217726E+03 0.  0.
         25    1    3    3    0    0 -0.44396009873E+02 -0.44988870260E+02 -0.40845062168E+03  0.43037996525E+03  0.12000000000E+03 0.  0.
         25    1    3    3    0    0  0.44396009873E+02  0.44988870260E+02 -0.60207270822E+03  0.61716006847E+03  0.12000000000E+03 0.  0.
<mgrwt>
<rscale>  0 0.27601218E+03</rscale>
<asrwt>0</asrwt>
<pdfrwt beam="1">  1        1 0.15831254E+00 0.27601218E+03</pdfrwt>
<pdfrwt beam="2">  1       -1 0.28474393E-02 0.27601218E+03</pdfrwt>
<totfact> 0.61954971E+03</totfact>
</mgrwt>
</event>
<event>
 5    1  0.1122238E+001  0.2749696E+03  0.7818608E-02  0.1098469E+00
         -2   -1    0    0    0  501 -0.00000000000E+00  0.00000000000E+00  0.95600433746E+02  0.95600433746E+02  0.00000000000E+00 0. -1.
          2   -1    0    0  501    0  0.00000000000E+00 -0.00000000000E+00 -0.19771944067E+03  0.19771944067E+03  0.00000000000E+00 0. -1.
         35    2    1    2    0    0  0.00000000000E+00  0.00000000000E+00 -0.10211900692E+03  0.29331987441E+03  0.27496955677E+03 0.  0.
         25    1    3    3    0    0  0.22226680095E+02  0.60640069276E+02 -0.70461811589E+02  0.15341483045E+03  0.12000000000E+03 0.  0.
         25    1    3    3    0    0 -0.22226680095E+02 -0.60640069276E+02 -0.31657195333E+02  0.13990504396E+03  0.12000000000E+03 0.  0.
<mgrwt>
<rscale>  0 0.27496956E+03</rscale>
<asrwt>0</asrwt>
<pdfrwt beam="1">  1        2 0.30418376E-01 0.27496956E+03</pdfrwt>
<pdfrwt beam="2">  1       -2 0.14707759E-01 0.27496956E+03</pdfrwt>
<totfact> 0.60626965E+03</totfact>
</mgrwt>
</event>
<event>
 5    1  0.1122238E+001  0.2751853E+03  0.7818608E-02  0.1098348E+00
         -3   -1    0    0    0  501 -0.00000000000E+00  0.00000000000E+00  0.16752406158E+03  0.16752406158E+03  0.00000000000E+00 0. -1.
          3   -1    0    0  501    0  0.00000000000E+00 -0.00000000000E+00 -0.11300905694E+03  0.11300905694E+03  0.00000000000E+00 0. -1.
         35    2    1    2    0    0  0.00000000000E+00  0.00000000000E+00  0.54515004634E+02  0.28053311852E+03  0.27518529186E+03 0.  0.
         25    1    3    3    0    0  0.47893652070E+02  0.26847426311E+02 -0.12450056071E+02  0.13255033046E+03  0.12000000000E+03 0.  0.
         25    1    3    3    0    0 -0.47893652070E+02 -0.26847426311E+02  0.66965060705E+02  0.14798278806E+03  0.12000000000E+03 0.  0.
<mgrwt>
<rscale>  0 0.27518529E+03</rscale>
<asrwt>0</asrwt>
<pdfrwt beam="1">  1        3 0.17386009E-01 0.27518529E+03</pdfrwt>
<pdfrwt beam="2">  1       -3 0.25772933E-01 0.27518529E+03</pdfrwt>
<totfact> 0.10382924E+03</totfact>
</mgrwt>
</event>
<event>
 5    1  0.1122238E+001  0.2731847E+03  0.7818608E-02  0.1099471E+00
         -1   -1    0    0    0  501 -0.00000000000E+00  0.00000000000E+00  0.13163336026E+03  0.13163336026E+03  0.00000000000E+00 0. -1.
          1   -1    0    0  501    0  0.00000000000E+00 -0.00000000000E+00 -0.14173819132E+03  0.14173819132E+03  0.00000000000E+00 0. -1.
         35    2    1    2    0    0  0.00000000000E+00  0.00000000000E+00 -0.10104831067E+02  0.27337155158E+03  0.27318473164E+03 0.  0.
         25    1    3    3    0    0 -0.59127381780E+01 -0.24207142350E+01  0.59927760205E+02  0.13428386639E+03  0.12000000000E+03 0.  0.
         25    1    3    3    0    0  0.59127381780E+01  0.24207142350E+01 -0.70032591272E+02  0.13908768519E+03  0.12000000000E+03 0.  0.
<mgrwt>
<rscale>  0 0.27318473E+03</rscale>
<asrwt>0</asrwt>
<pdfrwt beam="1">  1        1 0.21805876E-01 0.27318473E+03</pdfrwt>
<pdfrwt beam="2">  1       -1 0.20251286E-01 0.27318473E+03</pdfrwt>
<totfact> 0.44784952E+03</totfact>
</mgrwt>
</event>
<event>
 5    1  0.1122238E+001  0.2750801E+03  0.7818608E-02  0.1098407E+00
          2   -1    0    0  501    0  0.00000000000E+00  0.00000000000E+00  0.14768314554E+04  0.14768314554E+04  0.00000000000E+00 0. -1.
         -2   -1    0    0    0  501 -0.00000000000E+00 -0.00000000000E+00 -0.12809358007E+02  0.12809358007E+02  0.00000000000E+00 0. -1.
         35    2    1    2    0    0  0.00000000000E+00  0.00000000000E+00  0.14640220974E+04  0.14896408134E+04  0.27508008163E+03 0.  0.
         25    1    3    3    0    0  0.11940497633E+02  0.39929069426E+02  0.44646728411E+03  0.46418739950E+03  0.12000000000E+03 0.  0.
         25    1    3    3    0    0 -0.11940497633E+02 -0.39929069426E+02  0.10175548133E+04  0.10254534139E+04  0.12000000000E+03 0.  0.
<mgrwt>
<rscale>  0 0.27508008E+03</rscale>
<asrwt>0</asrwt>
<pdfrwt beam="1">  1        2 0.22720470E+00 0.27508008E+03</pdfrwt>
<pdfrwt beam="2">  1       -2 0.19706716E-02 0.27508008E+03</pdfrwt>
<totfact> 0.11092911E+04</totfact>
</mgrwt>
</event>
<event>
 5    1  0.1122238E+001  0.2752266E+03  0.7818608E-02  0.1098325E+00
          1   -1    0    0  501    0  0.00000000000E+00  0.00000000000E+00  0.24729563821E+02  0.24729563821E+02  0.00000000000E+00 0.  1.
         -1   -1    0    0    0  501 -0.00000000000E+00 -0.00000000000E+00 -0.76578063697E+03  0.76578063697E+03  0.00000000000E+00 0.  1.
         35    2    1    2    0    0  0.00000000000E+00  0.00000000000E+00 -0.74105107315E+03  0.79051020079E+03  0.27522660580E+03 0.  0.
         25    1    3    3    0    0 -0.19875385750E+01 -0.39281303148E+02 -0.21345839493E+03  0.24801503473E+03  0.12000000000E+03 0.  0.
         25    1    3    3    0    0  0.19875385750E+01  0.39281303148E+02 -0.52759267822E+03  0.54249516606E+03  0.12000000000E+03 0.  0.
<mgrwt>
<rscale>  0 0.27522661E+03</rscale>
<asrwt>0</asrwt>
<pdfrwt beam="1">  1        1 0.38045485E-02 0.27522661E+03</pdfrwt>
<pdfrwt beam="2">  1       -1 0.11781240E+00 0.27522661E+03</pdfrwt>
<totfact> 0.16845872E+03</totfact>
</mgrwt>
</event>
<event>
 5    1  0.1122238E+001  0.2751674E+03  0.7818608E-02  0.1098358E+00
         -2   -1    0    0    0  501 -0.00000000000E+00  0.00000000000E+00  0.12339785470E+03  0.12339785470E+03  0.00000000000E+00 0.  1.
          2   -1    0    0  501    0  0.00000000000E+00 -0.00000000000E+00 -0.15340035094E+03  0.15340035094E+03  0.00000000000E+00 0.  1.
         35    2    1    2    0    0  0.00000000000E+00  0.00000000000E+00 -0.30002496239E+02  0.27679820563E+03  0.27516739789E+03 0.  0.
         25    1    3    3    0    0  0.14772199974E+02 -0.52460530034E+02  0.24716284688E+02  0.13409407083E+03  0.12000000000E+03 0.  0.
         25    1    3    3    0    0 -0.14772199974E+02  0.52460530034E+02 -0.54718780927E+02  0.14270413480E+03  0.12000000000E+03 0.  0.
<mgrwt>
<rscale>  0 0.27516740E+03</rscale>
<asrwt>0</asrwt>
<pdfrwt beam="1">  1        2 0.23600054E-01 0.27516740E+03</pdfrwt>
<pdfrwt beam="2">  1       -2 0.18984285E-01 0.27516740E+03</pdfrwt>
<totfact> 0.52429452E+03</totfact>
</mgrwt>
</event>
<event>
 5    1  0.1122238E+001  0.2756667E+03  0.7818608E-02  0.1098079E+00
         -2   -1    0    0    0  501 -0.00000000000E+00  0.00000000000E+00  0.43513428179E+02  0.43513428179E+02  0.00000000000E+00 0. -1.
          2   -1    0    0  501    0  0.00000000000E+00 -0.00000000000E+00 -0.43660168474E+03  0.43660168474E+03  0.00000000000E+00 0. -1.
         35    2    1    2    0    0  0.00000000000E+00  0.00000000000E+00 -0.39308825656E+03  0.48011511292E+03  0.27566672669E+03 0.  0.
         25    1    3    3    0    0 -0.17290526572E+01 -0.30368981496E+02 -0.30209406465E+03  0.32647524953E+03  0.12000000000E+03 0.  0.
         25    1    3    3    0    0  0.17290526572E+01  0.30368981496E+02 -0.90994191915E+02  0.15363986339E+03  0.12000000000E+03 0.  0.
<mgrwt>
<rscale>  0 0.27566673E+03</rscale>
<asrwt>0</asrwt>
<pdfrwt beam="1">  1        2 0.67169488E-01 0.27566673E+03</pdfrwt>
<pdfrwt beam="2">  1       -2 0.66943737E-02 0.27566673E+03</pdfrwt>
<totfact> 0.89964641E+03</totfact>
</mgrwt>
</event>
<event>
 5    1  0.1122238E+001  0.2753156E+03  0.7818608E-02  0.1098275E+00
          1   -1    0    0  501    0  0.00000000000E+00  0.00000000000E+00  0.21146268999E+02  0.21146268999E+02  0.00000000000E+00 0. -1.
         -1   -1    0    0    0  501 -0.00000000000E+00 -0.00000000000E+00 -0.89612324926E+03  0.89612324926E+03  0.00000000000E+00 0. -1.
         35    2    1    2    0    0  0.00000000000E+00  0.00000000000E+00 -0.87497698026E+03  0.91726951826E+03  0.27531555194E+03 0.  0.
         25    1    3    3    0    0 -0.19665742574E+02  0.55943074002E+02 -0.54458572045E+03  0.56079405835E+03  0.12000000000E+03 0.  0.
         25    1    3    3    0    0  0.19665742574E+02 -0.55943074002E+02 -0.33039125982E+03  0.35647545992E+03  0.12000000000E+03 0.  0.
<mgrwt>
<rscale>  0 0.27531555E+03</rscale>
<asrwt>0</asrwt>
<pdfrwt beam="1">  1        1 0.32532721E-02 0.27531555E+03</pdfrwt>
<pdfrwt beam="2">  1       -1 0.13786512E+00 0.27531555E+03</pdfrwt>
<totfact> 0.14287179E+03</totfact>
</mgrwt>
</event>
<event>
 5    1  0.1122238E+001  0.2748678E+03  0.7818608E-02  0.1098526E+00
          1   -1    0    0  501    0  0.00000000000E+00  0.00000000000E+00  0.16160414279E+04  0.16160414279E+04  0.00000000000E+00 0.  1.
         -1   -1    0    0    0  501 -0.00000000000E+00 -0.00000000000E+00 -0.11687867289E+02  0.11687867289E+02  0.00000000000E+00 0.  1.
         35    2    1    2    0    0  0.00000000000E+00  0.00000000000E+00  0.16043535606E+04  0.16277292952E+04  0.27486780635E+03 0.  0.
         25    1    3    3    0    0  0.46495384516E+02 -0.40678935949E+02  0.95562971906E+03  0.96511385678E+03  0.12000000000E+03 0.  0.
         25    1    3    3    0    0 -0.46495384516E+02  0.40678935949E+02  0.64872384155E+03  0.66261543840E+03  0.12000000000E+03 0.  0.
<mgrwt>
<rscale>  0 0.27486781E+03</rscale>
<asrwt>0</asrwt>
<pdfrwt beam="1">  1        1 0.24862158E+00 0.27486781E+03</pdfrwt>
<pdfrwt beam="2">  1       -1 0.17981347E-02 0.27486781E+03</pdfrwt>
<totfact> 0.48068711E+03</totfact>
</mgrwt>
</event>
<event>
 5    1  0.1122238E+001  0.2764319E+03  0.7818608E-02  0.1097654E+00
          1   -1    0    0  501    0  0.00000000000E+00  0.00000000000E+00  0.39031609110E+03  0.39031609110E+03  0.00000000000E+00 0. -1.
         -1   -1    0    0    0  501 -0.00000000000E+00 -0.00000000000E+00 -0.48944040300E+02  0.48944040300E+02  0.00000000000E+00 0. -1.
         35    2    1    2    0    0  0.00000000000E+00  0.00000000000E+00  0.34137205080E+03  0.43926013140E+03  0.27643188306E+03 0.  0.
         25    1    3    3    0    0  0.19369625592E+02 -0.65786555311E+02  0.16946212004E+03  0.21867890476E+03  0.12000000000E+03 0.  0.
         25    1    3    3    0    0 -0.19369625592E+02  0.65786555311E+02  0.17190993075E+03  0.22058122664E+03  0.12000000000E+03 0.  0.
<mgrwt>
<rscale>  0 0.27643188E+03</rscale>
<asrwt>0</asrwt>
<pdfrwt beam="1">  1        1 0.60048628E-01 0.27643188E+03</pdfrwt>
<pdfrwt beam="2">  1       -1 0.75298526E-02 0.27643188E+03</pdfrwt>
<totfact> 0.58769232E+03</totfact>
</mgrwt>
</event>
