<event>
 9    1  0.4342579E-036  0.9994252E+03  0.7818608E-02  0.8681586E-01
          2   -1    0    0  501    0  0.00000000000E+00  0.00000000000E+00  0.65848751835E+03  0.65848751835E+03  0.00000000000E+00 0. -1.
         -2   -1    0    0    0  501 -0.00000000000E+00 -0.00000000000E+00 -0.37922157411E+03  0.37922157411E+03  0.00000000000E+00 0. -1.
         36    2    1    2    0    0 -0.71054273576E-14  0.00000000000E+00  0.27926594423E+03  0.10377090925E+04  0.99942518128E+03 0.  0.
         25    2    3    3    0    0 -0.13165608004E+02 -0.17161145570E+02 -0.85747761458E+02  0.15296884763E+03  0.12481567049E+03 0.  0.
         35    2    3    3    0    0  0.13165608004E+02  0.17161145570E+02  0.36501370569E+03  0.88474024483E+03  0.80564412573E+03 0.  0.
         22    1    5    5    0    0 -0.21003442542E+03 -0.73627975042E+02  0.54190058662E+03  0.58582572865E+03  0.00000000000E+00 0. -1.
         22    1    5    5    0    0  0.22320003342E+03  0.90789120611E+02 -0.17688688093E+03  0.29891451618E+03  0.00000000000E+00 0. -1.
          5    1    4    4  502    0  0.74659325374E+01  0.52796162433E+02 -0.33925691482E+02  0.63373633783E+02  0.47000000000E+01 0. -1.
         -5    1    4    4    0  502 -0.20631540541E+02 -0.69957308002E+02 -0.51822069976E+02  0.89595213849E+02  0.47000000000E+01 0. -1.
<mgrwt>
<rscale>  0 0.99942518E+03</rscale>
<asrwt>0</asrwt>
<pdfrwt beam="1">  1        2 0.10130577E+00 0.99942518E+03</pdfrwt>
<pdfrwt beam="2">  1       -2 0.58341781E-01 0.99942518E+03</pdfrwt>
<totfact> 0.14709627E+02</totfact>
</mgrwt>
</event>
<event>
 9    1  0.4342579E-036  0.9972264E+03  0.7818608E-02  0.8683684E-01
          1   -1    0    0  501    0  0.00000000000E+00  0.00000000000E+00  0.47890293950E+03  0.47890293950E+03  0.00000000000E+00 0. -1.
         -1   -1    0    0    0  501 -0.00000000000E+00 -0.00000000000E+00 -0.51913467193E+03  0.51913467193E+03  0.00000000000E+00 0. -1.
         36    2    1    2    0    0 -0.14210854715E-13  0.00000000000E+00 -0.40231732423E+02  0.99803761143E+03  0.99722639432E+03 0.  0.
         25    2    3    3    0    0  0.81849323928E+02  0.88479655083E+02 -0.65348606842E+02  0.18744894379E+03  0.12782294363E+03 0.  0.
         35    2    3    3    0    0 -0.81849323928E+02 -0.88479655083E+02  0.25116874419E+02  0.81058866765E+03  0.80118360539E+03 0.  0.
         22    1    5    5    0    0  0.10733697549E+03  0.64498524042E+02 -0.34536191426E+03  0.36736376758E+03  0.00000000000E+00 0.  1.
         22    1    5    5    0    0 -0.18918629942E+03 -0.15297817913E+03  0.37047878868E+03  0.44322490006E+03  0.00000000000E+00 0.  1.
          5    1    4    4  502    0  0.11419707961E+03  0.74285104370E+02 -0.35236712619E+02  0.14079405399E+03  0.47000000000E+01 0. -1.
         -5    1    4    4    0  502 -0.32347755686E+02  0.14194550713E+02 -0.30111894223E+02  0.46654889793E+02  0.47000000000E+01 0. -1.
<mgrwt>
<rscale>  0 0.99722639E+03</rscale>
<asrwt>0</asrwt>
<pdfrwt beam="1">  1        1 0.73677375E-01 0.99722639E+03</pdfrwt>
<pdfrwt beam="2">  1       -1 0.79866873E-01 0.99722639E+03</pdfrwt>
<totfact> 0.87121546E+01</totfact>
</mgrwt>
</event>
<event>
 9    1  0.4342579E-036  0.9997771E+03  0.7818608E-02  0.8681250E-01
         -2   -1    0    0    0  501 -0.00000000000E+00  0.00000000000E+00  0.15766363150E+03  0.15766363150E+03  0.00000000000E+00 0. -1.
          2   -1    0    0  501    0  0.00000000000E+00 -0.00000000000E+00 -0.15849475324E+04  0.15849475324E+04  0.00000000000E+00 0. -1.
         36    2    1    2    0    0  0.00000000000E+00  0.71054273576E-14 -0.14272839009E+04  0.17426111639E+04  0.99977714257E+03 0.  0.
         25    2    3    3    0    0 -0.12858072710E+03  0.53334492499E+02 -0.23995635530E+03  0.30454586656E+03  0.12566447757E+03 0.  0.
         35    2    3    3    0    0  0.12858072710E+03 -0.53334492499E+02 -0.11873275456E+04  0.14380652973E+04  0.79931691300E+03 0.  0.
         22    1    5    5    0    0  0.31019253396E+03 -0.33582711180E+03 -0.53009056796E+03  0.69999661955E+03  0.00000000000E+00 0.  1.
         22    1    5    5    0    0 -0.18161180686E+03  0.28249261931E+03 -0.65723697764E+03  0.73806867778E+03  0.00000000000E+00 0.  1.
          5    1    4    4  502    0 -0.67985291678E+02  0.91266700223E+02 -0.12517750936E+03  0.16924275259E+03  0.47000000000E+01 0. -1.
         -5    1    4    4    0  502 -0.60595435418E+02 -0.37932207724E+02 -0.11477884593E+03  0.13530311397E+03  0.47000000000E+01 0. -1.
<mgrwt>
<rscale>  0 0.99977714E+03</rscale>
<asrwt>0</asrwt>
<pdfrwt beam="1">  1        2 0.24383809E+00 0.99977714E+03</pdfrwt>
<pdfrwt beam="2">  1       -2 0.24255942E-01 0.99977714E+03</pdfrwt>
<totfact> 0.20528784E+02</totfact>
</mgrwt>
</event>
<event>
 9    1  0.4342579E-036  0.1000006E+04  0.7818608E-02  0.8681032E-01
          1   -1    0    0  501    0  0.00000000000E+00  0.00000000000E+00  0.49074150494E+03  0.49074150494E+03  0.00000000000E+00 0. -1.
         -1   -1    0    0    0  501 -0.00000000000E+00 -0.00000000000E+00 -0.50943914711E+03  0.50943914711E+03  0.00000000000E+00 0. -1.
         36    2    1    2    0    0  0.21316282073E-13 -0.28421709430E-13 -0.18697642176E+02  0.10001806521E+04  0.10000058674E+04 0.  0.
         25    2    3    3    0    0  0.17483743585E+02 -0.13330629914E+03 -0.42701449732E+02  0.18867330841E+03  0.12529147144E+03 0.  0.
         35    2    3    3    0    0 -0.17483743585E+02  0.13330629914E+03  0.24003807556E+02  0.81150734364E+03  0.79993233172E+03 0.  0.
         22    1    5    5    0    0  0.34983562838E+03 -0.10127001071E+03  0.77655243956E+02  0.37238544395E+03  0.00000000000E+00 0.  1.
         22    1    5    5    0    0 -0.36731937196E+03  0.23457630985E+03 -0.53651436400E+02  0.43912189969E+03  0.00000000000E+00 0.  1.
          5    1    4    4  502    0  0.60877131367E+02 -0.64673940228E+02  0.13287617430E+02  0.89929941872E+02  0.47000000000E+01 0. -1.
         -5    1    4    4    0  502 -0.43393387782E+02 -0.68632358914E+02 -0.55989067162E+02  0.98743366536E+02  0.47000000000E+01 0. -1.
<mgrwt>
<rscale>  0 0.10000059E+04</rscale>
<asrwt>0</asrwt>
<pdfrwt beam="1">  1        1 0.75498693E-01 0.10000059E+04</pdfrwt>
<pdfrwt beam="2">  1       -1 0.78375254E-01 0.10000059E+04</pdfrwt>
<totfact> 0.87572251E+01</totfact>
</mgrwt>
</event>
<event>
 9    1  0.4342579E-036  0.1000081E+04  0.7818608E-02  0.8680961E-01
          1   -1    0    0  501    0  0.00000000000E+00  0.00000000000E+00  0.41442431711E+03  0.41442431711E+03  0.00000000000E+00 0. -1.
         -1   -1    0    0    0  501 -0.00000000000E+00 -0.00000000000E+00 -0.60334434153E+03  0.60334434153E+03  0.00000000000E+00 0. -1.
         36    2    1    2    0    0  0.00000000000E+00  0.00000000000E+00 -0.18892002443E+03  0.10177686586E+04  0.10000811301E+04 0.  0.
         25    2    3    3    0    0 -0.21818393665E+02 -0.10996806659E+03 -0.12130197446E+03  0.20780738070E+03  0.12609805904E+03 0.  0.
         35    2    3    3    0    0  0.21818393665E+02  0.10996806659E+03 -0.67618049964E+02  0.80996127794E+03  0.79930973540E+03 0.  0.
         22    1    5    5    0    0 -0.81462210459E+02  0.40374765866E+03 -0.21591727468E+03  0.46504680744E+03  0.00000000000E+00 0.  1.
         22    1    5    5    0    0  0.10328060412E+03 -0.29377959207E+03  0.14829922471E+03  0.34491447050E+03  0.00000000000E+00 0.  1.
          5    1    4    4  502    0 -0.60417914956E+02 -0.13654306567E+02 -0.63967898258E+02  0.89166958808E+02  0.47000000000E+01 0. -1.
         -5    1    4    4    0  502  0.38599521291E+02 -0.96313760020E+02 -0.57334076204E+02  0.11864042189E+03  0.47000000000E+01 0. -1.
<mgrwt>
<rscale>  0 0.10000811E+04</rscale>
<asrwt>0</asrwt>
<pdfrwt beam="1">  1        1 0.63757588E-01 0.10000811E+04</pdfrwt>
<pdfrwt beam="2">  1       -1 0.92822206E-01 0.10000811E+04</pdfrwt>
<totfact> 0.76969579E+01</totfact>
</mgrwt>
</event>
<event>
 9    1  0.4342579E-036  0.9908423E+03  0.7818608E-02  0.8689808E-01
          2   -1    0    0  501    0  0.00000000000E+00  0.00000000000E+00  0.91673830527E+03  0.91673830527E+03  0.00000000000E+00 0.  1.
         -2   -1    0    0    0  501 -0.00000000000E+00 -0.00000000000E+00 -0.26773409857E+03  0.26773409857E+03  0.00000000000E+00 0.  1.
         36    2    1    2    0    0 -0.14210854715E-13  0.00000000000E+00  0.64900420670E+03  0.11844724038E+04  0.99084227561E+03 0.  0.
         25    2    3    3    0    0  0.53807148561E+02  0.76381983457E+02  0.22998907811E+03  0.27771199695E+03  0.12449723116E+03 0.  0.
         35    2    3    3    0    0 -0.53807148561E+02 -0.76381983457E+02  0.41901512859E+03  0.90676040689E+03  0.79869352124E+03 0.  0.
         22    1    5    5    0    0  0.14491529722E+03 -0.16829801055E+03  0.58905837816E+03  0.62953509560E+03  0.00000000000E+00 0.  1.
         22    1    5    5    0    0 -0.19872244578E+03  0.91916027091E+02 -0.17004324957E+03  0.27722531128E+03  0.00000000000E+00 0.  1.
          5    1    4    4  502    0 -0.34406442051E+02  0.38250046255E+02  0.12525221866E+03  0.13548829312E+03  0.47000000000E+01 0.  1.
         -5    1    4    4    0  502  0.88213590612E+02  0.38131937201E+02  0.10473685945E+03  0.14222370383E+03  0.47000000000E+01 0.  1.
<mgrwt>
<rscale>  0 0.99084228E+03</rscale>
<asrwt>0</asrwt>
<pdfrwt beam="1">  1        2 0.14103666E+00 0.99084228E+03</pdfrwt>
<pdfrwt beam="2">  1       -2 0.41189862E-01 0.99084228E+03</pdfrwt>
<totfact> 0.19279726E+02</totfact>
</mgrwt>
</event>
<event>
 9    1  0.4342579E-036  0.1000559E+04  0.7818608E-02  0.8680506E-01
          2   -1    0    0  501    0  0.00000000000E+00  0.00000000000E+00  0.18430063031E+04  0.18430063031E+04  0.00000000000E+00 0. -1.
         -2   -1    0    0    0  501 -0.00000000000E+00 -0.00000000000E+00 -0.13579963602E+03  0.13579963602E+03  0.00000000000E+00 0. -1.
         36    2    1    2    0    0  0.14210854715E-13  0.14210854715E-13  0.17072066671E+04  0.19788059391E+04  0.10005590141E+04 0.  0.
         25    2    3    3    0    0 -0.27003439302E+02 -0.80424440621E+02  0.54336749899E+03  0.56407456393E+03  0.12543762726E+03 0.  0.
         35    2    3    3    0    0  0.27003439302E+02  0.80424440621E+02  0.11638391681E+04  0.14147313752E+04  0.79984122075E+03 0.  0.
         22    1    5    5    0    0  0.25340558687E+03 -0.24761566533E+03  0.30338789218E+03  0.46644626947E+03  0.00000000000E+00 0.  1.
         22    1    5    5    0    0 -0.22640214757E+03  0.32804010595E+03  0.86045127593E+03  0.94828510575E+03  0.00000000000E+00 0.  1.
          5    1    4    4  502    0 -0.46103765994E+02  0.18071003941E+02  0.21556629069E+03  0.22123072595E+03  0.47000000000E+01 0.  1.
         -5    1    4    4    0  502  0.19100326692E+02 -0.98495444562E+02  0.32780120829E+03  0.34284383797E+03  0.47000000000E+01 0.  1.
<mgrwt>
<rscale>  0 0.10005590E+04</rscale>
<asrwt>0</asrwt>
<pdfrwt beam="1">  1        2 0.28353941E+00 0.10005590E+04</pdfrwt>
<pdfrwt beam="2">  1       -2 0.20892253E-01 0.10005590E+04</pdfrwt>
<totfact> 0.19077367E+02</totfact>
</mgrwt>
</event>
<event>
 9    1  0.4342579E-036  0.9996293E+03  0.7818608E-02  0.8681391E-01
          2   -1    0    0  501    0  0.00000000000E+00  0.00000000000E+00  0.20797800641E+04  0.20797800641E+04  0.00000000000E+00 0. -1.
         -2   -1    0    0    0  501 -0.00000000000E+00 -0.00000000000E+00 -0.12011592487E+03  0.12011592487E+03  0.00000000000E+00 0. -1.
         36    2    1    2    0    0  0.00000000000E+00  0.00000000000E+00  0.19596641392E+04  0.21998959889E+04  0.99962934314E+03 0.  0.
         25    2    3    3    0    0  0.65197354265E+02  0.12505123066E+03  0.35362774386E+03  0.40067876595E+03  0.12490951512E+03 0.  0.
         35    2    3    3    0    0 -0.65197354265E+02 -0.12505123066E+03  0.16060363953E+04  0.17992172230E+04  0.79871221790E+03 0.  0.
         22    1    5    5    0    0  0.35054857102E+03  0.59201901596E+02  0.66501074917E+03  0.75407457345E+03  0.00000000000E+00 0. -1.
         22    1    5    5    0    0 -0.41574592529E+03 -0.18425313226E+03  0.94102564617E+03  0.10451426495E+04  0.00000000000E+00 0. -1.
          5    1    4    4  502    0 -0.19958719131E+02  0.90517489743E+02  0.21635122193E+03  0.23541815489E+03  0.47000000000E+01 0.  1.
         -5    1    4    4    0  502  0.85156073396E+02  0.34533740916E+02  0.13727652193E+03  0.16526061107E+03  0.47000000000E+01 0.  1.
<mgrwt>
<rscale>  0 0.99962934E+03</rscale>
<asrwt>0</asrwt>
<pdfrwt beam="1">  1        2 0.31996614E+00 0.99962934E+03</pdfrwt>
<pdfrwt beam="2">  1       -2 0.18479375E-01 0.99962934E+03</pdfrwt>
<totfact> 0.17294807E+02</totfact>
</mgrwt>
</event>
<event>
 9    1  0.4342579E-036  0.9997615E+03  0.7818608E-02  0.8681265E-01
          1   -1    0    0  501    0  0.00000000000E+00  0.00000000000E+00  0.14292232439E+04  0.14292232439E+04  0.00000000000E+00 0.  1.
         -1   -1    0    0    0  501 -0.00000000000E+00 -0.00000000000E+00 -0.17483676749E+03  0.17483676749E+03  0.00000000000E+00 0.  1.
         36    2    1    2    0    0  0.00000000000E+00  0.00000000000E+00  0.12543864764E+04  0.16040600114E+04  0.99976151552E+03 0.  0.
         25    2    3    3    0    0 -0.78176391939E+02 -0.10704206698E+03  0.26185934425E+03  0.31886112462E+03  0.12462964438E+03 0.  0.
         35    2    3    3    0    0  0.78176391939E+02  0.10704206698E+03  0.99252713214E+03  0.12851988868E+04  0.80564043972E+03 0.  0.
         22    1    5    5    0    0 -0.12952583148E+03 -0.20613049385E+03  0.84853512784E+03  0.88276757116E+03  0.00000000000E+00 0.  1.
         22    1    5    5    0    0  0.20770222342E+03  0.31317256083E+03  0.14399200430E+03  0.40243131559E+03  0.00000000000E+00 0.  1.
          5    1    4    4  502    0  0.15080160798E+02 -0.67121582460E+02  0.16367482901E+03  0.17760703177E+03  0.47000000000E+01 0. -1.
         -5    1    4    4    0  502 -0.93256552737E+02 -0.39920484518E+02  0.98184515241E+02  0.14125409285E+03  0.47000000000E+01 0. -1.
<mgrwt>
<rscale>  0 0.99976152E+03</rscale>
<asrwt>0</asrwt>
<pdfrwt beam="1">  1        1 0.21988049E+00 0.99976152E+03</pdfrwt>
<pdfrwt beam="2">  1       -1 0.26897965E-01 0.99976152E+03</pdfrwt>
<totfact> 0.98152044E+01</totfact>
</mgrwt>
</event>
<event>
 9    1  0.4342579E-036  0.1000288E+04  0.7818608E-02  0.8680764E-01
          2   -1    0    0  501    0  0.00000000000E+00  0.00000000000E+00  0.23622213173E+04  0.23622213173E+04  0.00000000000E+00 0.  1.
         -2   -1    0    0    0  501 -0.00000000000E+00 -0.00000000000E+00 -0.10589357200E+03  0.10589357200E+03  0.00000000000E+00 0.  1.
         36    2    1    2    0    0 -0.10658141036E-13  0.71054273576E-14  0.22563277453E+04  0.24681148893E+04  0.10002880648E+04 0.  0.
         25    2    3    3    0    0  0.58169651203E+01  0.51008765048E+02  0.10102923260E+03  0.16868543036E+03  0.12494853893E+03 0.  0.
         35    2    3    3    0    0 -0.58169651203E+01 -0.51008765048E+02  0.21552985127E+04  0.22994294589E+04  0.79964268680E+03 0.  0.
         22    1    5    5    0    0 -0.19452895846E+03 -0.35239074383E+03  0.76566842944E+03  0.86502537296E+03  0.00000000000E+00 0.  1.
         22    1    5    5    0    0  0.18871199334E+03  0.30138197878E+03  0.13896300833E+04  0.14344040860E+04  0.00000000000E+00 0.  1.
          5    1    4    4  502    0  0.18055762526E+02  0.13801368404E+02  0.12187638490E+03  0.12406623846E+03  0.47000000000E+01 0.  1.
         -5    1    4    4    0  502 -0.12238797405E+02  0.37207396644E+02 -0.20847152298E+02  0.44619191901E+02  0.47000000000E+01 0.  1.
<mgrwt>
<rscale>  0 0.10002881E+04</rscale>
<asrwt>0</asrwt>
<pdfrwt beam="1">  1        2 0.36341862E+00 0.10002881E+04</pdfrwt>
<pdfrwt beam="2">  1       -2 0.16291321E-01 0.10002881E+04</pdfrwt>
<totfact> 0.14665937E+02</totfact>
</mgrwt>
</event>
<event>
 9    1  0.4342579E-036  0.1000184E+04  0.7818608E-02  0.8680863E-01
          2   -1    0    0  501    0  0.00000000000E+00  0.00000000000E+00  0.48855627482E+03  0.48855627482E+03  0.00000000000E+00 0. -1.
         -2   -1    0    0    0  501 -0.00000000000E+00 -0.00000000000E+00 -0.51189975631E+03  0.51189975631E+03  0.00000000000E+00 0. -1.
         36    2    1    2    0    0  0.24868995752E-13 -0.28421709430E-13 -0.23343481494E+02  0.10004560311E+04  0.10001836592E+04 0.  0.
         25    2    3    3    0    0  0.26592493943E+02  0.16023250029E+02  0.13397995780E+03  0.18440479746E+03  0.12284378274E+03 0.  0.
         35    2    3    3    0    0 -0.26592493943E+02 -0.16023250029E+02 -0.15732343930E+03  0.81605123367E+03  0.80014064148E+03 0.  0.
         22    1    5    5    0    0  0.32924045578E+03  0.19849730353E+03 -0.93829044904E+02  0.39573267100E+03  0.00000000000E+00 0.  1.
         22    1    5    5    0    0 -0.35583294972E+03 -0.21452055356E+03 -0.63494394394E+02  0.42031856267E+03  0.00000000000E+00 0.  1.
          5    1    4    4  502    0 -0.64612924592E+01 -0.41033013334E+02  0.10347345373E+03  0.11159884458E+03  0.47000000000E+01 0. -1.
         -5    1    4    4    0  502  0.33053786402E+02  0.57056263363E+02  0.30506504072E+02  0.72805952883E+02  0.47000000000E+01 0. -1.
<mgrwt>
<rscale>  0 0.10001837E+04</rscale>
<asrwt>0</asrwt>
<pdfrwt beam="1">  1        2 0.75162504E-01 0.10001837E+04</pdfrwt>
<pdfrwt beam="2">  1       -2 0.78753809E-01 0.10001837E+04</pdfrwt>
<totfact> 0.10922515E+02</totfact>
</mgrwt>
</event>
<event>
 9    1  0.4342579E-036  0.9991101E+03  0.7818608E-02  0.8681886E-01
          2   -1    0    0  501    0  0.00000000000E+00  0.00000000000E+00  0.13329063009E+04  0.13329063009E+04  0.00000000000E+00 0. -1.
         -2   -1    0    0    0  501 -0.00000000000E+00 -0.00000000000E+00 -0.18722638493E+03  0.18722638493E+03  0.00000000000E+00 0. -1.
         36    2    1    2    0    0  0.00000000000E+00 -0.14210854715E-13  0.11456799160E+04  0.15201326859E+04  0.99911006034E+03 0.  0.
         25    2    3    3    0    0 -0.55246252406E+02  0.60748549968E+02  0.38565226290E+03  0.41365180243E+03  0.12505043401E+03 0.  0.
         35    2    3    3    0    0  0.55246252406E+02 -0.60748549968E+02  0.76002765309E+03  0.11064808834E+04  0.79994710899E+03 0.  0.
         22    1    5    5    0    0 -0.24858510569E+02  0.98575700318E+02  0.88365951335E+03  0.88948819541E+03  0.00000000000E+00 0. -1.
         22    1    5    5    0    0  0.80104762975E+02 -0.15932425029E+03 -0.12363186025E+03  0.21699268801E+03  0.00000000000E+00 0. -1.
          5    1    4    4  502    0 -0.25371893808E+02  0.98157345600E+02  0.26027134538E+03  0.27935973353E+03  0.47000000000E+01 0. -1.
         -5    1    4    4    0  502 -0.29874358598E+02 -0.37408795632E+02  0.12538091752E+03  0.13429206890E+03  0.47000000000E+01 0. -1.
<mgrwt>
<rscale>  0 0.99911006E+03</rscale>
<asrwt>0</asrwt>
<pdfrwt beam="1">  1        2 0.20506250E+00 0.99911006E+03</pdfrwt>
<pdfrwt beam="2">  1       -2 0.28804060E-01 0.99911006E+03</pdfrwt>
<totfact> 0.21001191E+02</totfact>
</mgrwt>
</event>
<event>
 9    1  0.4342579E-036  0.9969304E+03  0.7818608E-02  0.8683967E-01
          1   -1    0    0  501    0  0.00000000000E+00  0.00000000000E+00  0.40321100678E+03  0.40321100678E+03  0.00000000000E+00 0. -1.
         -1   -1    0    0    0  501 -0.00000000000E+00 -0.00000000000E+00 -0.61622213295E+03  0.61622213295E+03  0.00000000000E+00 0. -1.
         36    2    1    2    0    0  0.28421709430E-13  0.00000000000E+00 -0.21301112617E+03  0.10194331397E+04  0.99693038198E+03 0.  0.
         25    2    3    3    0    0  0.82081221930E+02  0.10771757360E+03 -0.59045221848E+02  0.19304390324E+03  0.12425460837E+03 0.  0.
         35    2    3    3    0    0 -0.82081221930E+02 -0.10771757360E+03 -0.15396590433E+03  0.82638923649E+03  0.80054560634E+03 0.  0.
         22    1    5    5    0    0 -0.28795278476E+03  0.38950790858E+02 -0.38608043874E+03  0.48321017739E+03  0.00000000000E+00 0. -1.
         22    1    5    5    0    0  0.20587156283E+03 -0.14666836446E+03  0.23211453441E+03  0.34317905910E+03  0.00000000000E+00 0. -1.
          5    1    4    4  502    0  0.99170710744E+02  0.10340045501E+03 -0.80880565114E+02  0.16459112910E+03  0.47000000000E+01 0.  1.
         -5    1    4    4    0  502 -0.17089488814E+02  0.43171185921E+01  0.21835343266E+02  0.28452774142E+02  0.47000000000E+01 0.  1.
<mgrwt>
<rscale>  0 0.99693038E+03</rscale>
<asrwt>0</asrwt>
<pdfrwt beam="1">  1        1 0.62032463E-01 0.99693038E+03</pdfrwt>
<pdfrwt beam="2">  1       -1 0.94803405E-01 0.99693038E+03</pdfrwt>
<totfact> 0.76295771E+01</totfact>
</mgrwt>
</event>
<event>
 9    1  0.4342579E-036  0.9996578E+03  0.7818608E-02  0.8681364E-01
         -1   -1    0    0    0  501 -0.00000000000E+00  0.00000000000E+00  0.21883023737E+03  0.21883023737E+03  0.00000000000E+00 0. -1.
          1   -1    0    0  501    0  0.00000000000E+00 -0.00000000000E+00 -0.11416564314E+04  0.11416564314E+04  0.00000000000E+00 0. -1.
         36    2    1    2    0    0 -0.14210854715E-13  0.00000000000E+00 -0.92282619402E+03  0.13604866688E+04  0.99965783721E+03 0.  0.
         25    2    3    3    0    0  0.11548299533E+03 -0.61567821387E+02 -0.16257999319E+03  0.24331312413E+03  0.12506839468E+03 0.  0.
         35    2    3    3    0    0 -0.11548299533E+03  0.61567821387E+02 -0.76024620083E+03  0.11171735446E+04  0.80806900949E+03 0.  0.
         22    1    5    5    0    0 -0.14324294974E+03 -0.19599777481E+03 -0.81671680065E+03  0.85203286488E+03  0.00000000000E+00 0.  1.
         22    1    5    5    0    0  0.27759954409E+02  0.25756559620E+03  0.56470599816E+02  0.26514067975E+03  0.00000000000E+00 0.  1.
          5    1    4    4  502    0  0.86305183295E+02  0.13747648296E+02 -0.39495206923E+02  0.96018455868E+02  0.47000000000E+01 0.  1.
         -5    1    4    4    0  502  0.29177812034E+02 -0.75315469683E+02 -0.12308478626E+03  0.14729466826E+03  0.47000000000E+01 0.  1.
<mgrwt>
<rscale>  0 0.99965784E+03</rscale>
<asrwt>0</asrwt>
<pdfrwt beam="1">  1        1 0.17563945E+00 0.99965784E+03</pdfrwt>
<pdfrwt beam="2">  1       -1 0.33666190E-01 0.99965784E+03</pdfrwt>
<totfact> 0.10868399E+02</totfact>
</mgrwt>
</event>
<event>
 9    1  0.4342579E-036  0.1003865E+04  0.7818608E-02  0.8677366E-01
         -2   -1    0    0    0  501 -0.00000000000E+00  0.00000000000E+00  0.11687830861E+03  0.11687830861E+03  0.00000000000E+00 0.  1.
          2   -1    0    0  501    0  0.00000000000E+00 -0.00000000000E+00 -0.21555430746E+04  0.21555430746E+04  0.00000000000E+00 0.  1.
         36    2    1    2    0    0  0.00000000000E+00  0.14210854715E-13 -0.20386647660E+04  0.22724213832E+04  0.10038649883E+04 0.  0.
         25    2    3    3    0    0  0.12866904436E+03  0.44965035192E+02 -0.46727956972E+03  0.50246553230E+03  0.12467492732E+03 0.  0.
         35    2    3    3    0    0 -0.12866904436E+03 -0.44965035192E+02 -0.15713851963E+04  0.17699558509E+04  0.80306581409E+03 0.  0.
         22    1    5    5    0    0  0.25183562017E+03 -0.25415634088E+03 -0.50818656179E+03  0.62150640124E+03  0.00000000000E+00 0.  1.
         22    1    5    5    0    0 -0.38050466453E+03  0.20919130569E+03 -0.10631986345E+04  0.11484494497E+04  0.00000000000E+00 0.  1.
          5    1    4    4  502    0  0.67555235640E+02  0.83514136350E+02 -0.33271269216E+03  0.34965432409E+03  0.47000000000E+01 0.  1.
         -5    1    4    4    0  502  0.61113808716E+02 -0.38549101158E+02 -0.13456687757E+03  0.15281120821E+03  0.47000000000E+01 0.  1.
<mgrwt>
<rscale>  0 0.10038650E+04</rscale>
<asrwt>0</asrwt>
<pdfrwt beam="1">  1        2 0.33162199E+00 0.10038650E+04</pdfrwt>
<pdfrwt beam="2">  1       -2 0.17981279E-01 0.10038650E+04</pdfrwt>
<totfact> 0.16389991E+02</totfact>
</mgrwt>
</event>
<event>
 9    1  0.4342579E-036  0.1000372E+04  0.7818608E-02  0.8680683E-01
          2   -1    0    0  501    0  0.00000000000E+00  0.00000000000E+00  0.13972745803E+04  0.13972745803E+04  0.00000000000E+00 0. -1.
         -2   -1    0    0    0  501 -0.00000000000E+00 -0.00000000000E+00 -0.17905304387E+03  0.17905304387E+03  0.00000000000E+00 0. -1.
         36    2    1    2    0    0 -0.42632564146E-13 -0.28421709430E-13  0.12182215364E+04  0.15763276242E+04  0.10003724641E+04 0.  0.
         25    2    3    3    0    0 -0.36393582367E+02 -0.89828570152E+02  0.38532656699E+03  0.41625391339E+03  0.12408502058E+03 0.  0.
         35    2    3    3    0    0  0.36393582367E+02  0.89828570152E+02  0.83289496942E+03  0.11600737108E+04  0.80166284651E+03 0.  0.
         22    1    5    5    0    0 -0.26018958051E+03 -0.24186100665E+03  0.44799844741E+03  0.57174992193E+03  0.00000000000E+00 0.  1.
         22    1    5    5    0    0  0.29658316287E+03  0.33168957680E+03  0.38489652202E+03  0.58832378885E+03  0.00000000000E+00 0.  1.
          5    1    4    4  502    0 -0.53201898229E+02  0.46148503217E+01  0.81009176708E+02  0.97140699656E+02  0.47000000000E+01 0. -1.
         -5    1    4    4    0  502  0.16808315861E+02 -0.94443420474E+02  0.30431739028E+03  0.31911321374E+03  0.47000000000E+01 0. -1.
<mgrwt>
<rscale>  0 0.10003725E+04</rscale>
<asrwt>0</asrwt>
<pdfrwt beam="1">  1        2 0.21496531E+00 0.10003725E+04</pdfrwt>
<pdfrwt beam="2">  1       -2 0.27546623E-01 0.10003725E+04</pdfrwt>
<totfact> 0.20907593E+02</totfact>
</mgrwt>
</event>
<event>
 9    1  0.4342579E-036  0.1000620E+04  0.7818608E-02  0.8680448E-01
         -1   -1    0    0    0  501 -0.00000000000E+00  0.00000000000E+00  0.32254395664E+03  0.32254395664E+03  0.00000000000E+00 0. -1.
          1   -1    0    0  501    0  0.00000000000E+00 -0.00000000000E+00 -0.77604880185E+03  0.77604880185E+03  0.00000000000E+00 0. -1.
         36    2    1    2    0    0 -0.28421709430E-13 -0.71054273576E-14 -0.45350484521E+03  0.10985927585E+04  0.10006195103E+04 0.  0.
         25    2    3    3    0    0  0.69714264071E+02 -0.15096034831E+02 -0.21805291145E+03  0.26134695864E+03  0.12516865309E+03 0.  0.
         35    2    3    3    0    0 -0.69714264071E+02  0.15096034831E+02 -0.23545193376E+03  0.83724579985E+03  0.80028429160E+03 0.  0.
         22    1    5    5    0    0 -0.42768686106E+03  0.88029894918E+02 -0.15343403121E+03  0.46282536173E+03  0.00000000000E+00 0. -1.
         22    1    5    5    0    0  0.35797259699E+03 -0.72933860086E+02 -0.82017902545E+02  0.37442043812E+03  0.00000000000E+00 0. -1.
          5    1    4    4  502    0  0.18909578755E+02  0.31483813399E+02 -0.17732529760E+03  0.18114953449E+03  0.47000000000E+01 0.  1.
         -5    1    4    4    0  502  0.50804685315E+02 -0.46579848231E+02 -0.40727613850E+02  0.80197424155E+02  0.47000000000E+01 0.  1.
<mgrwt>
<rscale>  0 0.10006195E+04</rscale>
<asrwt>0</asrwt>
<pdfrwt beam="1">  1        1 0.11939212E+00 0.10006195E+04</pdfrwt>
<pdfrwt beam="2">  1       -1 0.49622148E-01 0.10006195E+04</pdfrwt>
<totfact> 0.10789036E+02</totfact>
</mgrwt>
</event>
<event>
 9    1  0.4342579E-036  0.1000316E+04  0.7818608E-02  0.8680737E-01
          2   -1    0    0  501    0  0.00000000000E+00  0.00000000000E+00  0.81259976411E+03  0.81259976411E+03  0.00000000000E+00 0. -1.
         -2   -1    0    0    0  501 -0.00000000000E+00 -0.00000000000E+00 -0.30784908320E+03  0.30784908320E+03  0.00000000000E+00 0. -1.
         36    2    1    2    0    0  0.14210854715E-13  0.24868995752E-13  0.50475068092E+03  0.11204488473E+04  0.10003161348E+04 0.  0.
         25    2    3    3    0    0 -0.93124068635E+02 -0.16689255816E+02  0.21319764430E+03  0.26454410883E+03  0.12481877488E+03 0.  0.
         35    2    3    3    0    0  0.93124068635E+02  0.16689255816E+02  0.29155303662E+03  0.85590473849E+03  0.79913648695E+03 0.  0.
         22    1    5    5    0    0  0.76944035547E+02  0.21822661008E+03  0.50891190570E+03  0.55904791003E+03  0.00000000000E+00 0. -1.
         22    1    5    5    0    0  0.16180033088E+02 -0.20153735426E+03 -0.21735886908E+03  0.29685682845E+03  0.00000000000E+00 0. -1.
          5    1    4    4  502    0 -0.11658640989E+03  0.14111674815E+02  0.16382758676E+03  0.20162613551E+03  0.47000000000E+01 0. -1.
         -5    1    4    4    0  502  0.23462341255E+02 -0.30800930631E+02  0.49370057537E+02  0.62917973316E+02  0.47000000000E+01 0. -1.
<mgrwt>
<rscale>  0 0.10003161E+04</rscale>
<asrwt>0</asrwt>
<pdfrwt beam="1">  1        2 0.12501535E+00 0.10003161E+04</pdfrwt>
<pdfrwt beam="2">  1       -2 0.47361398E-01 0.10003161E+04</pdfrwt>
<totfact> 0.17250242E+02</totfact>
</mgrwt>
</event>
<event>
 9    1  0.4342579E-036  0.9995237E+03  0.7818608E-02  0.8681492E-01
         -1   -1    0    0    0  501 -0.00000000000E+00  0.00000000000E+00  0.16919435416E+03  0.16919435416E+03  0.00000000000E+00 0.  1.
          1   -1    0    0  501    0  0.00000000000E+00 -0.00000000000E+00 -0.14761834589E+04  0.14761834589E+04  0.00000000000E+00 0.  1.
         36    2    1    2    0    0 -0.10658141036E-13  0.28421709430E-13 -0.13069891047E+04  0.16453778131E+04  0.99952370046E+03 0.  0.
         25    2    3    3    0    0 -0.18606219311E+02  0.13468398784E+03 -0.19423807336E+03  0.26764972850E+03  0.12418526501E+03 0.  0.
         35    2    3    3    0    0  0.18606219311E+02 -0.13468398784E+03 -0.11127510314E+04  0.13777280846E+04  0.80089565435E+03 0.  0.
         22    1    5    5    0    0  0.30198405642E+03  0.16972801929E+03 -0.74889364689E+03  0.82513251373E+03  0.00000000000E+00 0. -1.
         22    1    5    5    0    0 -0.28337783711E+03 -0.30441200713E+03 -0.36385738450E+03  0.55259557083E+03  0.00000000000E+00 0. -1.
          5    1    4    4  502    0 -0.17545630567E+02  0.57448478074E+02 -0.18487709725E+01  0.60280052581E+02  0.47000000000E+01 0. -1.
         -5    1    4    4    0  502 -0.10605887431E+01  0.77235509769E+02 -0.19238930238E+03  0.20736967592E+03  0.47000000000E+01 0. -1.
<mgrwt>
<rscale>  0 0.99952370E+03</rscale>
<asrwt>0</asrwt>
<pdfrwt beam="1">  1        1 0.22710514E+00 0.99952370E+03</pdfrwt>
<pdfrwt beam="2">  1       -1 0.26029902E-01 0.99952370E+03</pdfrwt>
<totfact> 0.96023549E+01</totfact>
</mgrwt>
</event>
<event>
 9    1  0.4342579E-036  0.1001350E+04  0.7818608E-02  0.8679753E-01
         -1   -1    0    0    0  501 -0.00000000000E+00  0.00000000000E+00  0.35152244708E+03  0.35152244708E+03  0.00000000000E+00 0.  1.
          1   -1    0    0  501    0  0.00000000000E+00 -0.00000000000E+00 -0.71311435011E+03  0.71311435011E+03  0.00000000000E+00 0.  1.
         36    2    1    2    0    0  0.56843418861E-13  0.00000000000E+00 -0.36159190303E+03  0.10646367972E+04  0.10013504909E+04 0.  0.
         25    2    3    3    0    0  0.13742886814E+03  0.10601807941E+02 -0.38377543652E+02  0.19007789021E+03  0.12513063717E+03 0.  0.
         35    2    3    3    0    0 -0.13742886814E+03 -0.10601807941E+02 -0.32321435938E+03  0.87455890698E+03  0.80086619828E+03 0.  0.
         22    1    5    5    0    0  0.16659993492E+03 -0.21754908410E+02  0.20496372400E+03  0.26502630531E+03  0.00000000000E+00 0. -1.
         22    1    5    5    0    0 -0.30402880306E+03  0.11153100469E+02 -0.52817808338E+03  0.60953260167E+03  0.00000000000E+00 0. -1.
          5    1    4    4  502    0  0.85708188597E+02 -0.25525883319E+02  0.32321213099E+02  0.95206171691E+02  0.47000000000E+01 0. -1.
         -5    1    4    4    0  502  0.51720679543E+02  0.36127691260E+02 -0.70698756751E+02  0.94871718517E+02  0.47000000000E+01 0. -1.
<mgrwt>
<rscale>  0 0.10013505E+04</rscale>
<asrwt>0</asrwt>
<pdfrwt beam="1">  1        1 0.10970990E+00 0.10013505E+04</pdfrwt>
<pdfrwt beam="2">  1       -1 0.54080377E-01 0.10013505E+04</pdfrwt>
<totfact> 0.10501581E+02</totfact>
</mgrwt>
</event>
<event>
 9    1  0.4342579E-036  0.9994207E+03  0.7818608E-02  0.8681590E-01
          2   -1    0    0  501    0  0.00000000000E+00  0.00000000000E+00  0.40225567691E+04  0.40225567691E+04  0.00000000000E+00 0. -1.
         -2   -1    0    0    0  501 -0.00000000000E+00 -0.00000000000E+00 -0.62077546577E+02  0.62077546577E+02  0.00000000000E+00 0. -1.
         36    2    1    2    0    0  0.00000000000E+00  0.00000000000E+00  0.39604792225E+04  0.40846343157E+04  0.99942074262E+03 0.  0.
         25    2    3    3    0    0  0.10151322260E+03 -0.94500015499E+02  0.71123881874E+03  0.73538806333E+03  0.12529867962E+03 0.  0.
         35    2    3    3    0    0 -0.10151322260E+03  0.94500015499E+02  0.32492404038E+04  0.33492462524E+04  0.80040743999E+03 0.  0.
         22    1    5    5    0    0 -0.30267726381E+02 -0.33413031909E+02  0.31915596972E+04  0.31918781097E+04  0.00000000000E+00 0.  1.
         22    1    5    5    0    0 -0.71245496218E+02  0.12791304741E+03  0.57680706579E+02  0.15736814271E+03  0.00000000000E+00 0.  1.
          5    1    4    4  502    0  0.66338248162E+02 -0.10453516292E+03  0.33207802493E+03  0.35443796086E+03  0.47000000000E+01 0.  1.
         -5    1    4    4    0  502  0.35174974436E+02  0.10035147422E+02  0.37916079381E+03  0.38095010247E+03  0.47000000000E+01 0.  1.
<mgrwt>
<rscale>  0 0.99942074E+03</rscale>
<asrwt>0</asrwt>
<pdfrwt beam="1">  1        2 0.61885468E+00 0.99942074E+03</pdfrwt>
<pdfrwt beam="2">  1       -2 0.95503949E-02 0.99942074E+03</pdfrwt>
<totfact> 0.23385024E+01</totfact>
</mgrwt>
</event>
<event>
 9    1  0.4342579E-036  0.1000180E+04  0.7818608E-02  0.8680867E-01
         -1   -1    0    0    0  501 -0.00000000000E+00  0.00000000000E+00  0.14718587910E+03  0.14718587910E+03  0.00000000000E+00 0. -1.
          1   -1    0    0  501    0  0.00000000000E+00 -0.00000000000E+00 -0.16991433322E+04  0.16991433322E+04  0.00000000000E+00 0. -1.
         36    2    1    2    0    0 -0.28421709430E-13  0.00000000000E+00 -0.15519574531E+04  0.18463292113E+04  0.10001797940E+04 0.  0.
         25    2    3    3    0    0  0.60969609215E+02  0.12395676108E+03 -0.25034860016E+03  0.31216094809E+03  0.12524960699E+03 0.  0.
         35    2    3    3    0    0 -0.60969609215E+02 -0.12395676108E+03 -0.13016088529E+04  0.15341682632E+04  0.80025251133E+03 0.  0.
         22    1    5    5    0    0 -0.26413386779E+03 -0.20712698715E+03 -0.16036443806E+03  0.37200140042E+03  0.00000000000E+00 0.  1.
         22    1    5    5    0    0  0.20316425857E+03  0.83170226069E+02 -0.11412444149E+04  0.11621668628E+04  0.00000000000E+00 0.  1.
          5    1    4    4  502    0 -0.37133562035E+02  0.39482234975E+02 -0.52023877632E+02  0.75274976931E+02  0.47000000000E+01 0. -1.
         -5    1    4    4    0  502  0.98103171251E+02  0.84474526105E+02 -0.19832472252E+03  0.23688597116E+03  0.47000000000E+01 0. -1.
<mgrwt>
<rscale>  0 0.10001798E+04</rscale>
<asrwt>0</asrwt>
<pdfrwt beam="1">  1        1 0.26140667E+00 0.10001798E+04</pdfrwt>
<pdfrwt beam="2">  1       -1 0.22643981E-01 0.10001798E+04</pdfrwt>
<totfact> 0.84292804E+01</totfact>
</mgrwt>
</event>
<event>
 9    1  0.4342579E-036  0.1000861E+04  0.7818608E-02  0.8680219E-01
          4   -1    0    0  501    0  0.00000000000E+00  0.00000000000E+00  0.73087218584E+03  0.73087218584E+03  0.00000000000E+00 0. -1.
         -4   -1    0    0    0  501 -0.00000000000E+00 -0.00000000000E+00 -0.34264606416E+03  0.34264606416E+03  0.00000000000E+00 0. -1.
         36    2    1    2    0    0 -0.14210854715E-13  0.14210854715E-13  0.38822612169E+03  0.10735182500E+04  0.10008605855E+04 0.  0.
         25    2    3    3    0    0 -0.99939500075E+02  0.75604436251E+02  0.14503788568E+03  0.22852805021E+03  0.12443933059E+03 0.  0.
         35    2    3    3    0    0  0.99939500075E+02 -0.75604436251E+02  0.24318823601E+03  0.84499019978E+03  0.79947731997E+03 0.  0.
         22    1    5    5    0    0 -0.11269048446E+03 -0.17201174401E+03  0.47400421435E+03  0.51668866892E+03  0.00000000000E+00 0. -1.
         22    1    5    5    0    0  0.21262998454E+03  0.96407307763E+02 -0.23081597834E+03  0.32830153087E+03  0.00000000000E+00 0. -1.
          5    1    4    4  502    0 -0.10923633809E+03  0.10109456298E+03  0.12579945985E+03  0.19493661103E+03  0.47000000000E+01 0.  1.
         -5    1    4    4    0  502  0.92968380156E+01 -0.25490126730E+02  0.19238425830E+02  0.33591439180E+02  0.47000000000E+01 0.  1.
<mgrwt>
<rscale>  0 0.10008606E+04</rscale>
<asrwt>0</asrwt>
<pdfrwt beam="1">  1        4 0.11244187E+00 0.10008606E+04</pdfrwt>
<pdfrwt beam="2">  1       -4 0.52714779E-01 0.10008606E+04</pdfrwt>
<totfact> 0.46967364E+00</totfact>
</mgrwt>
</event>
<event>
 9    1  0.4342579E-036  0.9999632E+03  0.7818608E-02  0.8681073E-01
         -1   -1    0    0    0  501 -0.00000000000E+00  0.00000000000E+00  0.20319244581E+03  0.20319244581E+03  0.00000000000E+00 0.  1.
          1   -1    0    0  501    0  0.00000000000E+00 -0.00000000000E+00 -0.12302700382E+04  0.12302700382E+04  0.00000000000E+00 0.  1.
         36    2    1    2    0    0 -0.25757174171E-13  0.28421709430E-13 -0.10270775924E+04  0.14334624840E+04  0.99996315545E+03 0.  0.
         25    2    3    3    0    0  0.24603456942E+01 -0.11222872162E+03 -0.72763735651E+02  0.18289283650E+03  0.12471523227E+03 0.  0.
         35    2    3    3    0    0 -0.24603456942E+01  0.11222872162E+03 -0.95431385671E+03  0.12505696475E+04  0.80038001401E+03 0.  0.
         22    1    5    5    0    0 -0.20619354318E+03 -0.23121506957E+03 -0.72892436023E+03  0.79202708829E+03  0.00000000000E+00 0. -1.
         22    1    5    5    0    0  0.20373319748E+03  0.34344379119E+03 -0.22538949648E+03  0.45854255919E+03  0.00000000000E+00 0. -1.
          5    1    4    4  502    0  0.88231607681E+01 -0.13690384982E+03 -0.43929782787E+02  0.14412643088E+03  0.47000000000E+01 0.  1.
         -5    1    4    4    0  502 -0.63628150738E+01  0.24675128201E+02 -0.28833952864E+02  0.38766405626E+02  0.47000000000E+01 0.  1.
<mgrwt>
<rscale>  0 0.99996316E+03</rscale>
<asrwt>0</asrwt>
<pdfrwt beam="1">  1        1 0.18927231E+00 0.99996316E+03</pdfrwt>
<pdfrwt beam="2">  1       -1 0.31260376E-01 0.99996316E+03</pdfrwt>
<totfact> 0.10600839E+02</totfact>
</mgrwt>
</event>
<event>
 9    1  0.4342579E-036  0.9999475E+03  0.7818608E-02  0.8681088E-01
          2   -1    0    0  501    0  0.00000000000E+00  0.00000000000E+00  0.12350453497E+04  0.12350453497E+04  0.00000000000E+00 0.  1.
         -2   -1    0    0    0  501 -0.00000000000E+00 -0.00000000000E+00 -0.20240047486E+03  0.20240047486E+03  0.00000000000E+00 0.  1.
         36    2    1    2    0    0  0.14210854715E-13  0.00000000000E+00  0.10326448749E+04  0.14374458246E+04  0.99994752913E+03 0.  0.
         25    2    3    3    0    0 -0.75297427618E+02 -0.56741160854E+02  0.42450792820E+02  0.16100719289E+03  0.12341792581E+03 0.  0.
         35    2    3    3    0    0  0.75297427618E+02  0.56741160854E+02  0.99019408207E+03  0.12764386317E+04  0.79995124752E+03 0.  0.
         22    1    5    5    0    0  0.39015617958E+03  0.10640550472E+03  0.26286712600E+03  0.48233090491E+03  0.00000000000E+00 0.  1.
         22    1    5    5    0    0 -0.31485875196E+03 -0.49664343868E+02  0.72732695606E+03  0.79410772679E+03  0.00000000000E+00 0.  1.
          5    1    4    4  502    0 -0.28527951318E+02 -0.21018677152E+02 -0.43769366252E+02  0.56510850442E+02  0.47000000000E+01 0.  1.
         -5    1    4    4    0  502 -0.46769476300E+02 -0.35722483702E+02  0.86220159071E+02  0.10449634245E+03  0.47000000000E+01 0.  1.
<mgrwt>
<rscale>  0 0.99994753E+03</rscale>
<asrwt>0</asrwt>
<pdfrwt beam="1">  1        2 0.19000697E+00 0.99994753E+03</pdfrwt>
<pdfrwt beam="2">  1       -2 0.31138535E-01 0.99994753E+03</pdfrwt>
<totfact> 0.20772532E+02</totfact>
</mgrwt>
</event>
<event>
 9    1  0.4342579E-036  0.1001739E+04  0.7818608E-02  0.8679383E-01
          2   -1    0    0  501    0  0.00000000000E+00  0.00000000000E+00  0.17787817975E+04  0.17787817975E+04  0.00000000000E+00 0. -1.
         -2   -1    0    0    0  501 -0.00000000000E+00 -0.00000000000E+00 -0.14103498988E+03  0.14103498988E+03  0.00000000000E+00 0. -1.
         36    2    1    2    0    0 -0.14210854715E-13  0.00000000000E+00  0.16377468076E+04  0.19198167874E+04  0.10017394328E+04 0.  0.
         25    2    3    3    0    0  0.63417865221E+01  0.12931280980E+03  0.20068723860E+03  0.26954722090E+03  0.12497325922E+03 0.  0.
         35    2    3    3    0    0 -0.63417865221E+01 -0.12931280980E+03  0.14370595690E+04  0.16502695665E+04  0.80092909557E+03 0.  0.
         22    1    5    5    0    0 -0.36616110393E+03 -0.23007236992E+03  0.86347166028E+03  0.96570728357E+03  0.00000000000E+00 0. -1.
         22    1    5    5    0    0  0.35981931741E+03  0.10075956012E+03  0.57358790872E+03  0.68456228290E+03  0.00000000000E+00 0. -1.
          5    1    4    4  502    0  0.32204143732E+02  0.14031254367E+03  0.13276952499E+03  0.19589424073E+03  0.47000000000E+01 0.  1.
         -5    1    4    4    0  502 -0.25862357209E+02 -0.10999733867E+02  0.67917713615E+02  0.73652980173E+02  0.47000000000E+01 0.  1.
<mgrwt>
<rscale>  0 0.10017394E+04</rscale>
<asrwt>0</asrwt>
<pdfrwt beam="1">  1        2 0.27365872E+00 0.10017394E+04</pdfrwt>
<pdfrwt beam="2">  1       -2 0.21697692E-01 0.10017394E+04</pdfrwt>
<totfact> 0.19415659E+02</totfact>
</mgrwt>
</event>
<event>
 9    1  0.4342579E-036  0.9993172E+03  0.7818608E-02  0.8681688E-01
         -2   -1    0    0    0  501 -0.00000000000E+00  0.00000000000E+00  0.15365309753E+03  0.15365309753E+03  0.00000000000E+00 0. -1.
          2   -1    0    0  501    0  0.00000000000E+00 -0.00000000000E+00 -0.16248205212E+04  0.16248205212E+04  0.00000000000E+00 0. -1.
         36    2    1    2    0    0  0.00000000000E+00  0.00000000000E+00 -0.14711674237E+04  0.17784736187E+04  0.99931717890E+03 0.  0.
         25    2    3    3    0    0  0.90366585750E+02 -0.10586366791E+03 -0.26284640565E+03  0.32256343179E+03  0.12484269528E+03 0.  0.
         35    2    3    3    0    0 -0.90366585750E+02  0.10586366791E+03 -0.12083210180E+04  0.14559101869E+04  0.80016345444E+03 0.  0.
         22    1    5    5    0    0  0.11080685143E+03 -0.24167376218E+03 -0.11224162512E+03  0.28858715851E+03  0.00000000000E+00 0.  1.
         22    1    5    5    0    0 -0.20117343718E+03  0.34753743009E+03 -0.10960793929E+04  0.11673230284E+04  0.00000000000E+00 0.  1.
          5    1    4    4  502    0  0.56224955910E+02 -0.71560018463E+02 -0.49415182789E+02  0.10366307057E+03  0.47000000000E+01 0. -1.
         -5    1    4    4    0  502  0.34141629839E+02 -0.34303649449E+02 -0.21343122286E+03  0.21890036123E+03  0.47000000000E+01 0. -1.
<mgrwt>
<rscale>  0 0.99931718E+03</rscale>
<asrwt>0</asrwt>
<pdfrwt beam="1">  1        2 0.24997241E+00 0.99931718E+03</pdfrwt>
<pdfrwt beam="2">  1       -2 0.23638936E-01 0.99931718E+03</pdfrwt>
<totfact> 0.20400695E+02</totfact>
</mgrwt>
</event>
<event>
 9    1  0.4342579E-036  0.9997146E+03  0.7818608E-02  0.8681310E-01
         -2   -1    0    0    0  501 -0.00000000000E+00  0.00000000000E+00  0.43917254972E+03  0.43917254972E+03  0.00000000000E+00 0.  1.
          2   -1    0    0  501    0  0.00000000000E+00 -0.00000000000E+00 -0.56892748077E+03  0.56892748077E+03  0.00000000000E+00 0.  1.
         36    2    1    2    0    0  0.14210854715E-13  0.71054273576E-14 -0.12975493105E+03  0.10081000305E+04  0.99971462394E+03 0.  0.
         25    2    3    3    0    0  0.40341498048E+02  0.33872727893E+02 -0.15294990986E+03  0.20467960487E+03  0.12540042888E+03 0.  0.
         35    2    3    3    0    0 -0.40341498048E+02 -0.33872727893E+02  0.23194978809E+02  0.80342042561E+03  0.80135608507E+03 0.  0.
         22    1    5    5    0    0 -0.29190324877E+03 -0.88819966377E+02  0.29823245130E+03  0.42666038963E+03  0.00000000000E+00 0.  1.
         22    1    5    5    0    0  0.25156175072E+03  0.54947238484E+02 -0.27503747249E+03  0.37676003598E+03  0.00000000000E+00 0.  1.
          5    1    4    4  502    0  0.82866853318E+02  0.63031329693E+01 -0.11087034365E+03  0.13863970559E+03  0.47000000000E+01 0. -1.
         -5    1    4    4    0  502 -0.42525355270E+02  0.27569594923E+02 -0.42079566206E+02  0.66039899282E+02  0.47000000000E+01 0. -1.
<mgrwt>
<rscale>  0 0.99971462E+03</rscale>
<asrwt>0</asrwt>
<pdfrwt beam="1">  1        2 0.87527305E-01 0.99971462E+03</pdfrwt>
<pdfrwt beam="2">  1       -2 0.67565008E-01 0.99971462E+03</pdfrwt>
<totfact> 0.12844521E+02</totfact>
</mgrwt>
</event>
<event>
 9    1  0.4342579E-036  0.9997703E+03  0.7818608E-02  0.8681257E-01
          2   -1    0    0  501    0  0.00000000000E+00  0.00000000000E+00  0.29521374653E+04  0.29521374653E+04  0.00000000000E+00 0.  1.
         -2   -1    0    0    0  501 -0.00000000000E+00 -0.00000000000E+00 -0.84645500928E+02  0.84645500928E+02  0.00000000000E+00 0.  1.
         36    2    1    2    0    0  0.00000000000E+00  0.28421709430E-13  0.28674919643E+04  0.30367829662E+04  0.99977028272E+03 0.  0.
         25    2    3    3    0    0  0.89050682155E+02  0.10032350091E+03  0.42482551626E+03  0.46265285338E+03  0.12480430540E+03 0.  0.
         35    2    3    3    0    0 -0.89050682155E+02 -0.10032350091E+03  0.24426664481E+04  0.25741301128E+04  0.80095669815E+03 0.  0.
         22    1    5    5    0    0  0.71353064009E+02 -0.32402622572E+03  0.21377427190E+04  0.21633372801E+04  0.00000000000E+00 0. -1.
         22    1    5    5    0    0 -0.16040374616E+03  0.22370272482E+03  0.30492372905E+03  0.41079283272E+03  0.00000000000E+00 0. -1.
          5    1    4    4  502    0  0.24826758330E+02  0.52823805470E+01  0.36007587219E+01  0.26063901028E+02  0.47000000000E+01 0. -1.
         -5    1    4    4    0  502  0.64223923825E+02  0.95041120358E+02  0.42122475754E+03  0.43658895235E+03  0.47000000000E+01 0. -1.
<mgrwt>
<rscale>  0 0.99977028E+03</rscale>
<asrwt>0</asrwt>
<pdfrwt beam="1">  1        2 0.45417492E+00 0.99977028E+03</pdfrwt>
<pdfrwt beam="2">  1       -2 0.13022387E-01 0.99977028E+03</pdfrwt>
<totfact> 0.91131554E+01</totfact>
</mgrwt>
</event>
<event>
 9    1  0.4342579E-036  0.9999613E+03  0.7818608E-02  0.8681075E-01
          1   -1    0    0  501    0  0.00000000000E+00  0.00000000000E+00  0.35558314220E+03  0.35558314220E+03  0.00000000000E+00 0.  1.
         -1   -1    0    0    0  501 -0.00000000000E+00 -0.00000000000E+00 -0.70301604423E+03  0.70301604423E+03  0.00000000000E+00 0.  1.
         36    2    1    2    0    0  0.00000000000E+00  0.00000000000E+00 -0.34743290203E+03  0.10585991864E+04  0.99996130730E+03 0.  0.
         25    2    3    3    0    0  0.11359452292E+02 -0.13686321517E+03 -0.42736446063E+02  0.19025924523E+03  0.12454557299E+03 0.  0.
         35    2    3    3    0    0 -0.11359452292E+02  0.13686321517E+03 -0.30469645597E+03  0.86833994121E+03  0.80144478686E+03 0.  0.
         22    1    5    5    0    0 -0.87442549412E+02  0.38334760800E+03  0.83776340808E+02  0.40201997872E+03  0.00000000000E+00 0.  1.
         22    1    5    5    0    0  0.76083097120E+02 -0.24648439284E+03 -0.38847279677E+03  0.46631996249E+03  0.00000000000E+00 0.  1.
          5    1    4    4  502    0  0.12394932837E+01 -0.64856429840E+02  0.42827625010E+02  0.77872898361E+02  0.47000000000E+01 0. -1.
         -5    1    4    4    0  502  0.10119959008E+02 -0.72006785327E+02 -0.85564071073E+02  0.11238634687E+03  0.47000000000E+01 0. -1.
<mgrwt>
<rscale>  0 0.99996131E+03</rscale>
<asrwt>0</asrwt>
<pdfrwt beam="1">  1        1 0.54705100E-01 0.99996131E+03</pdfrwt>
<pdfrwt beam="2">  1       -1 0.10815631E+00 0.99996131E+03</pdfrwt>
<totfact> 0.66970157E+01</totfact>
</mgrwt>
</event>
<event>
 9    1  0.4342579E-036  0.9995422E+03  0.7818608E-02  0.8681474E-01
         -2   -1    0    0    0  501 -0.00000000000E+00  0.00000000000E+00  0.31603850892E+03  0.31603850892E+03  0.00000000000E+00 0.  1.
          2   -1    0    0  501    0  0.00000000000E+00 -0.00000000000E+00 -0.79031874304E+03  0.79031874304E+03  0.00000000000E+00 0.  1.
         36    2    1    2    0    0 -0.28421709430E-13  0.71054273576E-14 -0.47428023412E+03  0.11063572520E+04  0.99954220945E+03 0.  0.
         25    2    3    3    0    0  0.11527271775E+03 -0.29127868422E+01 -0.17611280067E+03  0.24517675762E+03  0.12569661941E+03 0.  0.
         35    2    3    3    0    0 -0.11527271775E+03  0.29127868422E+01 -0.29816743345E+03  0.86118049433E+03  0.79964475967E+03 0.  0.
         22    1    5    5    0    0  0.20414683774E+03 -0.19030252405E+03  0.11720808441E+03  0.30270235722E+03  0.00000000000E+00 0. -1.
         22    1    5    5    0    0 -0.31941955549E+03  0.19321531089E+03 -0.41537551786E+03  0.55847813711E+03  0.00000000000E+00 0. -1.
          5    1    4    4  502    0  0.62012344144E+02  0.59373031169E+02 -0.11097188716E+03  0.14038353677E+03  0.47000000000E+01 0. -1.
         -5    1    4    4    0  502  0.53260373607E+02 -0.62285818011E+02 -0.65140913511E+02  0.10479322084E+03  0.47000000000E+01 0. -1.
<mgrwt>
<rscale>  0 0.99954221E+03</rscale>
<asrwt>0</asrwt>
<pdfrwt beam="1">  1        2 0.12158750E+00 0.99954221E+03</pdfrwt>
<pdfrwt beam="2">  1       -2 0.48621310E-01 0.99954221E+03</pdfrwt>
<totfact> 0.16974300E+02</totfact>
</mgrwt>
</event>
<event>
 9    1  0.4342579E-036  0.1001025E+04  0.7818608E-02  0.8680063E-01
          2   -1    0    0  501    0  0.00000000000E+00  0.00000000000E+00  0.63810212400E+03  0.63810212400E+03  0.00000000000E+00 0.  1.
         -2   -1    0    0    0  501 -0.00000000000E+00 -0.00000000000E+00 -0.39259007606E+03  0.39259007606E+03  0.00000000000E+00 0.  1.
         36    2    1    2    0    0  0.00000000000E+00  0.00000000000E+00  0.24551204793E+03  0.10306922001E+04  0.10010245979E+04 0.  0.
         25    2    3    3    0    0  0.99157771983E+02  0.75844765324E+02  0.89442991997E+02  0.20597657798E+03  0.13726474306E+03 0.  0.
         35    2    3    3    0    0 -0.99157771983E+02 -0.75844765324E+02  0.15606905593E+03  0.82471562208E+03  0.80013349818E+03 0.  0.
         22    1    5    5    0    0  0.27146278046E+03  0.15329284789E+03  0.22377612604E+03  0.38375316673E+03  0.00000000000E+00 0. -1.
         22    1    5    5    0    0 -0.37062055244E+03 -0.22913761321E+03 -0.67707070107E+02  0.44096245535E+03  0.00000000000E+00 0. -1.
          5    1    4    4  502    0  0.70905441760E+02  0.50293158500E+02  0.12588131144E+03  0.15305286025E+03  0.47000000000E+01 0.  1.
         -5    1    4    4    0  502  0.28252330223E+02  0.25551606825E+02 -0.36438319441E+02  0.52923717727E+02  0.47000000000E+01 0.  1.
<mgrwt>
<rscale>  0 0.10010246E+04</rscale>
<asrwt>0</asrwt>
<pdfrwt beam="1">  1        2 0.98169557E-01 0.10010246E+04</pdfrwt>
<pdfrwt beam="2">  1       -2 0.60398473E-01 0.10010246E+04</pdfrwt>
<totfact> 0.14215000E+02</totfact>
</mgrwt>
</event>
<event>
 9    1  0.4342579E-036  0.1002923E+04  0.7818608E-02  0.8678259E-01
          2   -1    0    0  501    0  0.00000000000E+00  0.00000000000E+00  0.10788525310E+04  0.10788525310E+04  0.00000000000E+00 0. -1.
         -2   -1    0    0    0  501 -0.00000000000E+00 -0.00000000000E+00 -0.23308439924E+03  0.23308439924E+03  0.00000000000E+00 0. -1.
         36    2    1    2    0    0  0.10658141036E-13  0.00000000000E+00  0.84576813178E+03  0.13119369303E+04  0.10029231158E+04 0.  0.
         25    2    3    3    0    0  0.19966180392E+02  0.51470534839E+02 -0.13613320376E+02  0.13686483272E+03  0.12449415901E+03 0.  0.
         35    2    3    3    0    0 -0.19966180392E+02 -0.51470534839E+02  0.85938145216E+03  0.11750720975E+04  0.79950615368E+03 0.  0.
         22    1    5    5    0    0  0.13715789002E+03  0.15354604443E+02  0.96465814339E+03  0.97448108462E+03  0.00000000000E+00 0. -1.
         22    1    5    5    0    0 -0.15712407041E+03 -0.66825139282E+02 -0.10527669123E+03  0.20059101291E+03  0.00000000000E+00 0. -1.
          5    1    4    4  502    0  0.16227721965E+02  0.87350607240E+02  0.15450995145E+02  0.90301111823E+02  0.47000000000E+01 0. -1.
         -5    1    4    4    0  502  0.37384584271E+01 -0.35880072402E+02 -0.29064315522E+02  0.46563720896E+02  0.47000000000E+01 0. -1.
<mgrwt>
<rscale>  0 0.10029231E+04</rscale>
<asrwt>0</asrwt>
<pdfrwt beam="1">  1        2 0.16597731E+00 0.10029231E+04</pdfrwt>
<pdfrwt beam="2">  1       -2 0.35859139E-01 0.10029231E+04</pdfrwt>
<totfact> 0.19827081E+02</totfact>
</mgrwt>
</event>
<event>
 9    1  0.4342579E-036  0.1002167E+04  0.7818608E-02  0.8678977E-01
         -2   -1    0    0    0  501 -0.00000000000E+00  0.00000000000E+00  0.60260179521E+02  0.60260179521E+02  0.00000000000E+00 0. -1.
          2   -1    0    0  501    0  0.00000000000E+00 -0.00000000000E+00 -0.41666774468E+04  0.41666774468E+04  0.00000000000E+00 0. -1.
         36    2    1    2    0    0 -0.35527136788E-14  0.00000000000E+00 -0.41064172673E+04  0.42269376264E+04  0.10021671137E+04 0.  0.
         25    2    3    3    0    0  0.12745230497E+02  0.14159286597E+03 -0.73492505460E+03  0.75886280057E+03  0.12468734343E+03 0.  0.
         35    2    3    3    0    0 -0.12745230497E+02 -0.14159286597E+03 -0.33714922127E+04  0.34680748258E+04  0.80023263886E+03 0.  0.
         22    1    5    5    0    0  0.33124758880E+03 -0.28689651365E+03 -0.17291205096E+04  0.17837859489E+04  0.00000000000E+00 0.  1.
         22    1    5    5    0    0 -0.34399281930E+03  0.14530364768E+03 -0.16423717031E+04  0.16842888769E+04  0.00000000000E+00 0.  1.
          5    1    4    4  502    0  0.59097347814E+01  0.52026906613E+02 -0.55717256197E+03  0.55964727980E+03  0.47000000000E+01 0.  1.
         -5    1    4    4    0  502  0.68354957157E+01  0.89565959362E+02 -0.17775249264E+03  0.19921552077E+03  0.47000000000E+01 0.  1.
<mgrwt>
<rscale>  0 0.10021671E+04</rscale>
<asrwt>0</asrwt>
<pdfrwt beam="1">  1        2 0.64102727E+00 0.10021671E+04</pdfrwt>
<pdfrwt beam="2">  1       -2 0.92707973E-02 0.10021671E+04</pdfrwt>
<totfact> 0.18227204E+01</totfact>
</mgrwt>
</event>
<event>
 9    1  0.4342579E-036  0.9998034E+03  0.7818608E-02  0.8681225E-01
         -1   -1    0    0    0  501 -0.00000000000E+00  0.00000000000E+00  0.27605997663E+03  0.27605997663E+03  0.00000000000E+00 0.  1.
          1   -1    0    0  501    0  0.00000000000E+00 -0.00000000000E+00 -0.90524424638E+03  0.90524424638E+03  0.00000000000E+00 0.  1.
         36    2    1    2    0    0  0.71054273576E-14  0.00000000000E+00 -0.62918426974E+03  0.11813042230E+04  0.99980339168E+03 0.  0.
         25    2    3    3    0    0  0.24445345392E+02 -0.78504624605E+02  0.21944647120E+02  0.14586088183E+03  0.11846213875E+03 0.  0.
         35    2    3    3    0    0 -0.24445345392E+02  0.78504624605E+02 -0.65112891686E+03  0.10354433412E+04  0.80088294739E+03 0.  0.
         22    1    5    5    0    0  0.15712559149E+03  0.66629158927E+02  0.14180909136E+03  0.22189572937E+03  0.00000000000E+00 0. -1.
         22    1    5    5    0    0 -0.18157093688E+03  0.11875465678E+02 -0.79293800822E+03  0.81354761181E+03  0.00000000000E+00 0. -1.
          5    1    4    4  502    0 -0.20330028319E+02 -0.61898271476E+02 -0.32773929202E+02  0.73081642692E+02  0.47000000000E+01 0. -1.
         -5    1    4    4    0  502  0.44775373711E+02 -0.16606353129E+02  0.54718576322E+02  0.72779239141E+02  0.47000000000E+01 0. -1.
<mgrwt>
<rscale>  0 0.99980339E+03</rscale>
<asrwt>0</asrwt>
<pdfrwt beam="1">  1        1 0.13926835E+00 0.99980339E+03</pdfrwt>
<pdfrwt beam="2">  1       -1 0.42470765E-01 0.99980339E+03</pdfrwt>
<totfact> 0.11085166E+02</totfact>
</mgrwt>
</event>
<event>
 9    1  0.4342579E-036  0.1000131E+04  0.7818608E-02  0.8680913E-01
          2   -1    0    0  501    0  0.00000000000E+00  0.00000000000E+00  0.22916527328E+04  0.22916527328E+04  0.00000000000E+00 0. -1.
         -2   -1    0    0    0  501 -0.00000000000E+00 -0.00000000000E+00 -0.10912015858E+03  0.10912015858E+03  0.00000000000E+00 0. -1.
         36    2    1    2    0    0  0.00000000000E+00 -0.35527136788E-13  0.21825325743E+04  0.24007728914E+04  0.10001310106E+04 0.  0.
         25    2    3    3    0    0  0.13760583586E+03 -0.28007273757E+02  0.40295716982E+03  0.44472202487E+03  0.12523348295E+03 0.  0.
         35    2    3    3    0    0 -0.13760583586E+03  0.28007273757E+02  0.17795754044E+04  0.19560508666E+04  0.79970406962E+03 0.  0.
         22    1    5    5    0    0 -0.12985848934E+03  0.40082472286E+03  0.11444861722E+04  0.12195787322E+04  0.00000000000E+00 0. -1.
         22    1    5    5    0    0 -0.77473465187E+01 -0.37281744911E+03  0.63508923225E+03  0.73647213434E+03  0.00000000000E+00 0. -1.
          5    1    4    4  502    0  0.10740813427E+03 -0.75549142627E+02  0.27128885440E+03  0.30143641582E+03  0.47000000000E+01 0.  1.
         -5    1    4    4    0  502  0.30197701596E+02  0.47541868870E+02  0.13166831541E+03  0.14328560905E+03  0.47000000000E+01 0.  1.
<mgrwt>
<rscale>  0 0.10001310E+04</rscale>
<asrwt>0</asrwt>
<pdfrwt beam="1">  1        2 0.35256192E+00 0.10001310E+04</pdfrwt>
<pdfrwt beam="2">  1       -2 0.16787718E-01 0.10001310E+04</pdfrwt>
<totfact> 0.15345577E+02</totfact>
</mgrwt>
</event>
<event>
 9    1  0.4342579E-036  0.1000264E+04  0.7818608E-02  0.8680787E-01
          2   -1    0    0  501    0  0.00000000000E+00  0.00000000000E+00  0.43530763227E+03  0.43530763227E+03  0.00000000000E+00 0. -1.
         -2   -1    0    0    0  501 -0.00000000000E+00 -0.00000000000E+00 -0.57460944171E+03  0.57460944171E+03  0.00000000000E+00 0. -1.
         36    2    1    2    0    0 -0.14210854715E-13  0.00000000000E+00 -0.13930180944E+03  0.10099170740E+04  0.10002637163E+04 0.  0.
         25    2    3    3    0    0  0.65857777908E+02  0.70902254294E+02 -0.13108169621E+03  0.20415152904E+03  0.12300837026E+03 0.  0.
         35    2    3    3    0    0 -0.65857777908E+02 -0.70902254294E+02 -0.82201132359E+01  0.80576554494E+03  0.79989134673E+03 0.  0.
         22    1    5    5    0    0  0.24750949363E+02 -0.27759873719E+03  0.30921658329E+03  0.41627942991E+03  0.00000000000E+00 0.  1.
         22    1    5    5    0    0 -0.90608727271E+02  0.20669648290E+03 -0.31743669653E+03  0.38948611503E+03  0.00000000000E+00 0.  1.
          5    1    4    4  502    0 -0.28474375028E+02  0.36449277482E+02 -0.11442273275E+02  0.47878549267E+02  0.47000000000E+01 0. -1.
         -5    1    4    4    0  502  0.94332152936E+02  0.34452976812E+02 -0.11963942293E+03  0.15627297978E+03  0.47000000000E+01 0. -1.
<mgrwt>
<rscale>  0 0.10002637E+04</rscale>
<asrwt>0</asrwt>
<pdfrwt beam="1">  1        2 0.66970405E-01 0.10002637E+04</pdfrwt>
<pdfrwt beam="2">  1       -2 0.88401452E-01 0.10002637E+04</pdfrwt>
<totfact> 0.95181510E+01</totfact>
</mgrwt>
</event>
<event>
 9    1  0.4342579E-036  0.9936763E+03  0.7818608E-02  0.8687083E-01
          2   -1    0    0  501    0  0.00000000000E+00  0.00000000000E+00  0.34677185474E+04  0.34677185474E+04  0.00000000000E+00 0. -1.
         -2   -1    0    0    0  501 -0.00000000000E+00 -0.00000000000E+00 -0.71184602749E+02  0.71184602749E+02  0.00000000000E+00 0. -1.
         36    2    1    2    0    0 -0.14210854715E-13  0.35527136788E-14  0.33965339447E+04  0.35389031502E+04  0.99367634015E+03 0.  0.
         25    2    3    3    0    0  0.63413959420E+02 -0.21665547035E+02  0.10245968144E+04  0.10346941030E+04  0.12768135550E+03 0.  0.
         35    2    3    3    0    0 -0.63413959420E+02  0.21665547035E+02  0.23719371302E+04  0.25042090471E+04  0.80030398958E+03 0.  0.
         22    1    5    5    0    0 -0.31273141098E+03 -0.22651507578E+03  0.73895828329E+03  0.83376816887E+03  0.00000000000E+00 0. -1.
         22    1    5    5    0    0  0.24931745156E+03  0.24818062281E+03  0.16329788470E+04  0.16704408783E+04  0.00000000000E+00 0. -1.
          5    1    4    4  502    0  0.99633511649E+01  0.31708495660E+02  0.72187699125E+03  0.72265702623E+03  0.47000000000E+01 0. -1.
         -5    1    4    4    0  502  0.53450608255E+02 -0.53374042695E+02  0.30271982317E+03  0.31203707680E+03  0.47000000000E+01 0. -1.
<mgrwt>
<rscale>  0 0.99367634E+03</rscale>
<asrwt>0</asrwt>
<pdfrwt beam="1">  1        2 0.53349503E+00 0.99367634E+03</pdfrwt>
<pdfrwt beam="2">  1       -2 0.10951480E-01 0.99367634E+03</pdfrwt>
<totfact> 0.52651022E+01</totfact>
</mgrwt>
</event>
<event>
 9    1  0.4342579E-036  0.9997724E+03  0.7818608E-02  0.8681255E-01
         -1   -1    0    0    0  501 -0.00000000000E+00  0.00000000000E+00  0.19146152642E+03  0.19146152642E+03  0.00000000000E+00 0.  1.
          1   -1    0    0  501    0  0.00000000000E+00 -0.00000000000E+00 -0.13051510539E+04  0.13051510539E+04  0.00000000000E+00 0.  1.
         36    2    1    2    0    0  0.00000000000E+00  0.00000000000E+00 -0.11136895274E+04  0.14966125803E+04  0.99977240006E+03 0.  0.
         25    2    3    3    0    0 -0.59899943599E+02  0.62423548093E+02 -0.37838604428E+03  0.40762023322E+03  0.12447310322E+03 0.  0.
         35    2    3    3    0    0  0.59899943599E+02 -0.62423548093E+02 -0.73530348316E+03  0.10889923471E+04  0.79859152074E+03 0.  0.
         22    1    5    5    0    0 -0.15568162075E+03  0.11249983708E+03  0.94439497660E+02  0.21403691060E+03  0.00000000000E+00 0.  1.
         22    1    5    5    0    0  0.21558156435E+03 -0.17492338517E+03 -0.82974298082E+03  0.87495543646E+03  0.00000000000E+00 0.  1.
          5    1    4    4  502    0 -0.85934769544E+02  0.32275859222E+01 -0.23393059546E+03  0.24928059575E+03  0.47000000000E+01 0.  1.
         -5    1    4    4    0  502  0.26034825945E+02  0.59195962170E+02 -0.14445544882E+03  0.15833963747E+03  0.47000000000E+01 0.  1.
<mgrwt>
<rscale>  0 0.99977240E+03</rscale>
<asrwt>0</asrwt>
<pdfrwt beam="1">  1        1 0.20079247E+00 0.99977240E+03</pdfrwt>
<pdfrwt beam="2">  1       -1 0.29455619E-01 0.99977240E+03</pdfrwt>
<totfact> 0.10340500E+02</totfact>
</mgrwt>
</event>
<event>
 9    1  0.4342579E-036  0.1000211E+04  0.7818608E-02  0.8680837E-01
          2   -1    0    0  501    0  0.00000000000E+00  0.00000000000E+00  0.14873479774E+04  0.14873479774E+04  0.00000000000E+00 0.  1.
         -2   -1    0    0    0  501 -0.00000000000E+00 -0.00000000000E+00 -0.16815529433E+03  0.16815529433E+03  0.00000000000E+00 0.  1.
         36    2    1    2    0    0  0.00000000000E+00  0.71054273576E-14  0.13191926831E+04  0.16555032718E+04  0.10002108516E+04 0.  0.
         25    2    3    3    0    0  0.14153868415E+03 -0.57929053551E+01  0.23715145744E+03  0.30220836681E+03  0.12256560017E+03 0.  0.
         35    2    3    3    0    0 -0.14153868415E+03  0.57929053551E+01  0.10820412257E+04  0.13532949049E+04  0.80032938772E+03 0.  0.
         22    1    5    5    0    0 -0.34746580488E+03  0.14378431707E+03  0.17829239045E+03  0.41616654346E+03  0.00000000000E+00 0. -1.
         22    1    5    5    0    0  0.20592712073E+03 -0.13799141172E+03  0.90374883520E+03  0.93712836148E+03  0.00000000000E+00 0. -1.
          5    1    4    4  502    0  0.11894494936E+03 -0.56338696839E+02  0.17022517282E+03  0.21522232505E+03  0.47000000000E+01 0. -1.
         -5    1    4    4    0  502  0.22593734788E+02  0.50545791484E+02  0.66926284622E+02  0.86986041764E+02  0.47000000000E+01 0. -1.
<mgrwt>
<rscale>  0 0.10002109E+04</rscale>
<asrwt>0</asrwt>
<pdfrwt beam="1">  1        2 0.22882276E+00 0.10002109E+04</pdfrwt>
<pdfrwt beam="2">  1       -2 0.25870046E-01 0.10002109E+04</pdfrwt>
<totfact> 0.20791513E+02</totfact>
</mgrwt>
</event>
<event>
 9    1  0.4342579E-036  0.9997462E+03  0.7818608E-02  0.8681280E-01
          2   -1    0    0  501    0  0.00000000000E+00  0.00000000000E+00  0.85362254238E+03  0.85362254238E+03  0.00000000000E+00 0. -1.
         -2   -1    0    0    0  501 -0.00000000000E+00 -0.00000000000E+00 -0.29272087873E+03  0.29272087873E+03  0.00000000000E+00 0. -1.
         36    2    1    2    0    0 -0.14210854715E-13  0.28421709430E-13  0.56090166365E+03  0.11463434211E+04  0.99974624923E+03 0.  0.
         25    2    3    3    0    0  0.11281147060E+03 -0.86397552679E+02  0.72885683869E+02  0.19825973782E+03  0.11748887488E+03 0.  0.
         35    2    3    3    0    0 -0.11281147060E+03  0.86397552679E+02  0.48801597978E+03  0.94808368329E+03  0.80032000411E+03 0.  0.
         22    1    5    5    0    0  0.11562215224E+03  0.35729760054E+03  0.41176253508E+02  0.37779034039E+03  0.00000000000E+00 0. -1.
         22    1    5    5    0    0 -0.22843362285E+03 -0.27090004786E+03  0.44683972627E+03  0.57029334290E+03  0.00000000000E+00 0. -1.
          5    1    4    4  502    0  0.97652658759E+02 -0.11533889426E+03  0.63046877131E+02  0.16381727933E+03  0.47000000000E+01 0. -1.
         -5    1    4    4    0  502  0.15158811845E+02  0.28941341580E+02  0.98388067384E+01  0.34442458493E+02  0.47000000000E+01 0. -1.
<mgrwt>
<rscale>  0 0.99974625E+03</rscale>
<asrwt>0</asrwt>
<pdfrwt beam="1">  1        2 0.13132654E+00 0.99974625E+03</pdfrwt>
<pdfrwt beam="2">  1       -2 0.45033982E-01 0.99974625E+03</pdfrwt>
<totfact> 0.17854793E+02</totfact>
</mgrwt>
</event>
<event>
 9    1  0.4342579E-036  0.9993987E+03  0.7818608E-02  0.8681611E-01
         -3   -1    0    0    0  501 -0.00000000000E+00  0.00000000000E+00  0.91610661048E+02  0.91610661048E+02  0.00000000000E+00 0.  1.
          3   -1    0    0  501    0  0.00000000000E+00 -0.00000000000E+00 -0.27256592243E+04  0.27256592243E+04  0.00000000000E+00 0.  1.
         36    2    1    2    0    0 -0.14210854715E-13 -0.71054273576E-14 -0.26340485632E+04  0.28172698853E+04  0.99939870588E+03 0.  0.
         25    2    3    3    0    0 -0.12251012877E+03 -0.10899958532E+02 -0.68119595272E+03  0.70346716558E+03  0.12534187771E+03 0.  0.
         35    2    3    3    0    0  0.12251012877E+03  0.10899958532E+02 -0.19528526105E+04  0.21138027197E+04  0.79962558667E+03 0.  0.
         22    1    5    5    0    0  0.11476626651E+03  0.21868725695E+03 -0.18759009625E+04  0.18920887488E+04  0.00000000000E+00 0.  1.
         22    1    5    5    0    0  0.77438622657E+01 -0.20778729842E+03 -0.76951648067E+02  0.22171397098E+03  0.00000000000E+00 0.  1.
          5    1    4    4  502    0 -0.10785410803E+03  0.36764285622E+02 -0.57301268585E+03  0.58425144370E+03  0.47000000000E+01 0. -1.
         -5    1    4    4    0  502 -0.14656020742E+02 -0.47664244155E+02 -0.10818326686E+03  0.11921572188E+03  0.47000000000E+01 0. -1.
<mgrwt>
<rscale>  0 0.99939871E+03</rscale>
<asrwt>0</asrwt>
<pdfrwt beam="1">  1        3 0.41933216E+00 0.99939871E+03</pdfrwt>
<pdfrwt beam="2">  1       -3 0.14093949E-01 0.99939871E+03</pdfrwt>
<totfact> 0.33364148E+00</totfact>
</mgrwt>
</event>
<event>
 9    1  0.4342579E-036  0.1000038E+04  0.7818608E-02  0.8681002E-01
          2   -1    0    0  501    0  0.00000000000E+00  0.00000000000E+00  0.22448424961E+04  0.22448424961E+04  0.00000000000E+00 0.  1.
         -2   -1    0    0    0  501 -0.00000000000E+00 -0.00000000000E+00 -0.11137474274E+03  0.11137474274E+03  0.00000000000E+00 0.  1.
         36    2    1    2    0    0  0.14210854715E-13 -0.28421709430E-13  0.21334677534E+04  0.23562172389E+04  0.10000375103E+04 0.  0.
         25    2    3    3    0    0  0.43597723711E+02 -0.10451407891E+03  0.19967787423E+03  0.26094822016E+03  0.12409176420E+03 0.  0.
         35    2    3    3    0    0 -0.43597723711E+02  0.10451407891E+03  0.19337898791E+04  0.20952690187E+04  0.79861443128E+03 0.  0.
         22    1    5    5    0    0  0.26559116764E+03  0.30268473854E+03  0.13194388702E+04  0.13795200802E+04  0.00000000000E+00 0.  1.
         22    1    5    5    0    0 -0.30918889135E+03 -0.19817065963E+03  0.61435100891E+03  0.71574893854E+03  0.00000000000E+00 0.  1.
          5    1    4    4  502    0  0.80900722054E+02 -0.35379537203E+02  0.11887236566E+03  0.14815319031E+03  0.47000000000E+01 0.  1.
         -5    1    4    4    0  502 -0.37302998342E+02 -0.69134541707E+02  0.80805508579E+02  0.11279502985E+03  0.47000000000E+01 0.  1.
<mgrwt>
<rscale>  0 0.10000375E+04</rscale>
<asrwt>0</asrwt>
<pdfrwt beam="1">  1        2 0.34536035E+00 0.10000375E+04</pdfrwt>
<pdfrwt beam="2">  1       -2 0.17134577E-01 0.10000375E+04</pdfrwt>
<totfact> 0.15789918E+02</totfact>
</mgrwt>
</event>
<event>
 9    1  0.4342579E-036  0.9986095E+03  0.7818608E-02  0.8682363E-01
          1   -1    0    0  501    0  0.00000000000E+00  0.00000000000E+00  0.16935368357E+04  0.16935368357E+04  0.00000000000E+00 0.  1.
         -1   -1    0    0    0  501 -0.00000000000E+00 -0.00000000000E+00 -0.14720980886E+03  0.14720980886E+03  0.00000000000E+00 0.  1.
         36    2    1    2    0    0  0.00000000000E+00  0.00000000000E+00  0.15463270269E+04  0.18407466446E+04  0.99860950101E+03 0.  0.
         25    2    3    3    0    0 -0.11884861608E+03 -0.66210453527E+02  0.27375387518E+03  0.33045880694E+03  0.12551104019E+03 0.  0.
         35    2    3    3    0    0  0.11884861608E+03  0.66210453527E+02  0.12725731517E+04  0.15102878377E+04  0.80188409912E+03 0.  0.
         22    1    5    5    0    0  0.35687207741E+03  0.17524850327E+03  0.28650725409E+03  0.49005726623E+03  0.00000000000E+00 0. -1.
         22    1    5    5    0    0 -0.23802346134E+03 -0.10903804974E+03  0.98606589761E+03  0.10202305714E+04  0.00000000000E+00 0. -1.
          5    1    4    4  502    0 -0.11394700704E+03 -0.90610977787E+02  0.17098923272E+03  0.22461896049E+03  0.47000000000E+01 0. -1.
         -5    1    4    4    0  502 -0.49016090381E+01  0.24400524260E+02  0.10276464246E+03  0.10583984644E+03  0.47000000000E+01 0. -1.
<mgrwt>
<rscale>  0 0.99860950E+03</rscale>
<asrwt>0</asrwt>
<pdfrwt beam="1">  1        1 0.26054411E+00 0.99860950E+03</pdfrwt>
<pdfrwt beam="2">  1       -1 0.22647664E-01 0.99860950E+03</pdfrwt>
<totfact> 0.85049535E+01</totfact>
</mgrwt>
</event>
<event>
 9    1  0.4342579E-036  0.1000254E+04  0.7818608E-02  0.8680796E-01
          3   -1    0    0  501    0  0.00000000000E+00  0.00000000000E+00  0.16701796217E+04  0.16701796217E+04  0.00000000000E+00 0. -1.
         -3   -1    0    0    0  501 -0.00000000000E+00 -0.00000000000E+00 -0.14976053980E+03  0.14976053980E+03  0.00000000000E+00 0. -1.
         36    2    1    2    0    0  0.00000000000E+00  0.14210854715E-13  0.15204190819E+04  0.18199401615E+04  0.10002539712E+04 0.  0.
         25    2    3    3    0    0 -0.11972896051E+03 -0.89219584940E+01  0.44248034980E+03  0.47283966344E+03  0.11564541510E+03 0.  0.
         35    2    3    3    0    0  0.11972896051E+03  0.89219584940E+01  0.10779387321E+04  0.13471004980E+04  0.79894506468E+03 0.  0.
         22    1    5    5    0    0 -0.81690155607E+01  0.38817081592E+03  0.67796345828E+03  0.78126677000E+03  0.00000000000E+00 0. -1.
         22    1    5    5    0    0  0.12789797608E+03 -0.37924885742E+03  0.39997527379E+03  0.56583372803E+03  0.00000000000E+00 0. -1.
          5    1    4    4  502    0 -0.12600480892E+03  0.27177007157E+02  0.36176533211E+03  0.38407297107E+03  0.47000000000E+01 0. -1.
         -5    1    4    4    0  502  0.62758484011E+01 -0.36098965651E+02  0.80715017687E+02  0.88766692371E+02  0.47000000000E+01 0. -1.
<mgrwt>
<rscale>  0 0.10002540E+04</rscale>
<asrwt>0</asrwt>
<pdfrwt beam="1">  1        3 0.25695070E+00 0.10002540E+04</pdfrwt>
<pdfrwt beam="2">  1       -3 0.23040084E-01 0.10002540E+04</pdfrwt>
<totfact> 0.48195422E+00</totfact>
</mgrwt>
</event>
<event>
 9    1  0.4342579E-036  0.1001122E+04  0.7818608E-02  0.8679970E-01
          2   -1    0    0  501    0  0.00000000000E+00  0.00000000000E+00  0.10733939555E+04  0.10733939555E+04  0.00000000000E+00 0.  1.
         -2   -1    0    0    0  501 -0.00000000000E+00 -0.00000000000E+00 -0.23342908049E+03  0.23342908049E+03  0.00000000000E+00 0.  1.
         36    2    1    2    0    0  0.71054273576E-14  0.21316282073E-13  0.83996487504E+03  0.13068230360E+04  0.10011220985E+04 0.  0.
         25    2    3    3    0    0 -0.34795743502E+02 -0.27933702078E+02 -0.16946975237E+02  0.13380904721E+03  0.12500650251E+03 0.  0.
         35    2    3    3    0    0  0.34795743502E+02  0.27933702078E+02  0.85691185028E+03  0.11730139888E+04  0.79979551344E+03 0.  0.
         22    1    5    5    0    0  0.92745681496E+02  0.20469067159E+03  0.94202083403E+03  0.96845406923E+03  0.00000000000E+00 0.  1.
         22    1    5    5    0    0 -0.57949937994E+02 -0.17675696951E+03 -0.85108983746E+02  0.20455991958E+03  0.00000000000E+00 0.  1.
          5    1    4    4  502    0 -0.36396815359E+02 -0.74805177817E+02 -0.22611787185E+02  0.86336120576E+02  0.47000000000E+01 0. -1.
         -5    1    4    4    0  502  0.16010718570E+01  0.46871475739E+02  0.56648119480E+01  0.47472926637E+02  0.47000000000E+01 0. -1.
<mgrwt>
<rscale>  0 0.10011221E+04</rscale>
<asrwt>0</asrwt>
<pdfrwt beam="1">  1        2 0.16513753E+00 0.10011221E+04</pdfrwt>
<pdfrwt beam="2">  1       -2 0.35912167E-01 0.10011221E+04</pdfrwt>
<totfact> 0.19925034E+02</totfact>
</mgrwt>
</event>
<event>
 9    1  0.4342579E-036  0.1000223E+04  0.7818608E-02  0.8680825E-01
         -2   -1    0    0    0  501 -0.00000000000E+00  0.00000000000E+00  0.33408425681E+03  0.33408425681E+03  0.00000000000E+00 0. -1.
          2   -1    0    0  501    0  0.00000000000E+00 -0.00000000000E+00 -0.74864857358E+03  0.74864857358E+03  0.00000000000E+00 0. -1.
         36    2    1    2    0    0 -0.14210854715E-13  0.28421709430E-13 -0.41456431678E+03  0.10827328304E+04  0.10002233797E+04 0.  0.
         25    2    3    3    0    0  0.65816541524E+02 -0.10469154407E+03 -0.47686445471E+01  0.17583121590E+03  0.12490692525E+03 0.  0.
         35    2    3    3    0    0 -0.65816541524E+02  0.10469154407E+03 -0.40979567223E+03  0.90690161449E+03  0.79952855412E+03 0.  0.
         22    1    5    5    0    0 -0.17432927599E+03 -0.31756869141E+03 -0.25996133071E+03  0.44589288365E+03  0.00000000000E+00 0.  1.
         22    1    5    5    0    0  0.10851273447E+03  0.42226023548E+03 -0.14983434152E+03  0.46100873084E+03  0.00000000000E+00 0.  1.
          5    1    4    4  502    0  0.28687884347E+02 -0.80524535551E+02  0.54649439200E+02  0.10156695692E+03  0.47000000000E+01 0.  1.
         -5    1    4    4    0  502  0.37128657177E+02 -0.24167008520E+02 -0.59418083747E+02  0.74264258973E+02  0.47000000000E+01 0.  1.
<mgrwt>
<rscale>  0 0.10002234E+04</rscale>
<asrwt>0</asrwt>
<pdfrwt beam="1">  1        2 0.11517670E+00 0.10002234E+04</pdfrwt>
<pdfrwt beam="2">  1       -2 0.51397579E-01 0.10002234E+04</pdfrwt>
<totfact> 0.16271893E+02</totfact>
</mgrwt>
</event>
<event>
 9    1  0.4342579E-036  0.9991495E+03  0.7818608E-02  0.8681848E-01
         -2   -1    0    0    0  501 -0.00000000000E+00  0.00000000000E+00  0.45161447870E+03  0.45161447870E+03  0.00000000000E+00 0.  1.
          2   -1    0    0  501    0  0.00000000000E+00 -0.00000000000E+00 -0.55262823571E+03  0.55262823571E+03  0.00000000000E+00 0.  1.
         36    2    1    2    0    0  0.14210854715E-13  0.14210854715E-13 -0.10101375701E+03  0.10042427144E+04  0.99914946347E+03 0.  0.
         25    2    3    3    0    0  0.12748178025E+03 -0.57943954644E+02 -0.15594714294E+02  0.18855134858E+03  0.12529688649E+03 0.  0.
         35    2    3    3    0    0 -0.12748178025E+03  0.57943954644E+02 -0.85419042716E+02  0.81569136583E+03  0.79902871366E+03 0.  0.
         22    1    5    5    0    0  0.93235532842E+02  0.29063514870E+03  0.21729621861E+03  0.37467225794E+03  0.00000000000E+00 0.  1.
         22    1    5    5    0    0 -0.22071731309E+03 -0.23269119406E+03 -0.30271526132E+03  0.44101910789E+03  0.00000000000E+00 0.  1.
          5    1    4    4  502    0  0.68695813079E+02 -0.12896070460E+02  0.52727515397E+02  0.87679554332E+02  0.47000000000E+01 0.  1.
         -5    1    4    4    0  502  0.58785967167E+02 -0.45047884185E+02 -0.68322229691E+02  0.10087179425E+03  0.47000000000E+01 0.  1.
<mgrwt>
<rscale>  0 0.99914946E+03</rscale>
<asrwt>0</asrwt>
<pdfrwt beam="1">  1        2 0.85019727E-01 0.99914946E+03</pdfrwt>
<pdfrwt beam="2">  1       -2 0.69479152E-01 0.99914946E+03</pdfrwt>
<totfact> 0.12510839E+02</totfact>
</mgrwt>
</event>
<event>
 9    1  0.4342579E-036  0.1000585E+04  0.7818608E-02  0.8680481E-01
          2   -1    0    0  501    0  0.00000000000E+00  0.00000000000E+00  0.16953881144E+04  0.16953881144E+04  0.00000000000E+00 0.  1.
         -2   -1    0    0    0  501 -0.00000000000E+00 -0.00000000000E+00 -0.14763139565E+03  0.14763139565E+03  0.00000000000E+00 0.  1.
         36    2    1    2    0    0  0.00000000000E+00  0.39968028887E-13  0.15477567187E+04  0.18430195100E+04  0.10005848560E+04 0.  0.
         25    2    3    3    0    0  0.11053500319E+03 -0.23329322919E+01  0.46281051973E+03  0.49184753397E+03  0.12448690692E+03 0.  0.
         35    2    3    3    0    0 -0.11053500319E+03  0.23329322919E+01  0.10849461990E+04  0.13511719761E+04  0.79770547490E+03 0.  0.
         22    1    5    5    0    0 -0.67112098375E+02 -0.28474058128E+03  0.10097213058E+04  0.10512460929E+04  0.00000000000E+00 0. -1.
         22    1    5    5    0    0 -0.43422904812E+02  0.28707351358E+03  0.75224893199E+02  0.29992588320E+03  0.00000000000E+00 0. -1.
          5    1    4    4  502    0 -0.86645836847E+00  0.79135605106E+01 -0.52151848835E+01  0.10614299008E+02  0.47000000000E+01 0. -1.
         -5    1    4    4    0  502  0.11140146156E+03 -0.10246492802E+02  0.46802570461E+03  0.48123323496E+03  0.47000000000E+01 0. -1.
<mgrwt>
<rscale>  0 0.10005849E+04</rscale>
<asrwt>0</asrwt>
<pdfrwt beam="1">  1        2 0.26082893E+00 0.10005849E+04</pdfrwt>
<pdfrwt beam="2">  1       -2 0.22712524E-01 0.10005849E+04</pdfrwt>
<totfact> 0.19970963E+02</totfact>
</mgrwt>
</event>
<event>
 9    1  0.4342579E-036  0.9987056E+03  0.7818608E-02  0.8682272E-01
          4   -1    0    0  501    0  0.00000000000E+00  0.00000000000E+00  0.35562592006E+03  0.35562592006E+03  0.00000000000E+00 0. -1.
         -4   -1    0    0    0  501 -0.00000000000E+00 -0.00000000000E+00 -0.70116719831E+03  0.70116719831E+03  0.00000000000E+00 0. -1.
         36    2    1    2    0    0  0.00000000000E+00  0.00000000000E+00 -0.34554127825E+03  0.10567931184E+04  0.99870562232E+03 0.  0.
         25    2    3    3    0    0 -0.11098499857E+03  0.32121524833E+02 -0.14433398478E+03  0.22283533775E+03  0.12439383554E+03 0.  0.
         35    2    3    3    0    0  0.11098499857E+03 -0.32121524833E+02 -0.20120729347E+03  0.83395778062E+03  0.80103167393E+03 0.  0.
         22    1    5    5    0    0  0.16691444094E+03  0.35109935165E+03 -0.21913240015E+03  0.44626247223E+03  0.00000000000E+00 0.  1.
         22    1    5    5    0    0 -0.55929442367E+02 -0.38322087649E+03  0.17925106680E+02  0.38769530839E+03  0.00000000000E+00 0.  1.
          5    1    4    4  502    0 -0.21787618804E+02  0.39904180591E+02 -0.12222272738E+03  0.13048957449E+03  0.47000000000E+01 0. -1.
         -5    1    4    4    0  502 -0.89197379769E+02 -0.77826557581E+01 -0.22111257397E+02  0.92345763259E+02  0.47000000000E+01 0. -1.
<mgrwt>
<rscale>  0 0.99870562E+03</rscale>
<asrwt>0</asrwt>
<pdfrwt beam="1">  1        4 0.54711681E-01 0.99870562E+03</pdfrwt>
<pdfrwt beam="2">  1       -4 0.10787188E+00 0.99870562E+03</pdfrwt>
<totfact> 0.48664862E+00</totfact>
</mgrwt>
</event>
<event>
 9    1  0.4342579E-036  0.1004646E+04  0.7818608E-02  0.8676626E-01
          2   -1    0    0  501    0  0.00000000000E+00  0.00000000000E+00  0.87572319670E+03  0.87572319670E+03  0.00000000000E+00 0.  1.
         -2   -1    0    0    0  501 -0.00000000000E+00 -0.00000000000E+00 -0.28813705761E+03  0.28813705761E+03  0.00000000000E+00 0.  1.
         36    2    1    2    0    0 -0.28421709430E-13 -0.71054273576E-14  0.58758613909E+03  0.11638602543E+04  0.10046458185E+04 0.  0.
         25    2    3    3    0    0 -0.13529019479E+03  0.49654617874E+02  0.12554154417E+03  0.22918183284E+03  0.12646981977E+03 0.  0.
         35    2    3    3    0    0  0.13529019479E+03 -0.49654617874E+02  0.46204459492E+03  0.93467842147E+03  0.79960585664E+03 0.  0.
         22    1    5    5    0    0 -0.31894765070E+03  0.18535807765E+02  0.32407306435E+03  0.45507640138E+03  0.00000000000E+00 0. -1.
         22    1    5    5    0    0  0.45423784549E+03 -0.68190425638E+02  0.13797153058E+03  0.47960202009E+03  0.00000000000E+00 0. -1.
          5    1    4    4  502    0 -0.14740916139E+03  0.26060052587E+02  0.13398197476E+03  0.20095234948E+03  0.47000000000E+01 0. -1.
         -5    1    4    4    0  502  0.12118966596E+02  0.23594565287E+02 -0.84404305936E+01  0.28229483365E+02  0.47000000000E+01 0. -1.
<mgrwt>
<rscale>  0 0.10046458E+04</rscale>
<asrwt>0</asrwt>
<pdfrwt beam="1">  1        2 0.13472664E+00 0.10046458E+04</pdfrwt>
<pdfrwt beam="2">  1       -2 0.44328779E-01 0.10046458E+04</pdfrwt>
<totfact> 0.17793958E+02</totfact>
</mgrwt>
</event>
<event>
 9    1  0.4342579E-036  0.1012631E+04  0.7818608E-02  0.8669102E-01
          2   -1    0    0  501    0  0.00000000000E+00  0.00000000000E+00  0.11162660019E+04  0.11162660019E+04  0.00000000000E+00 0.  1.
         -2   -1    0    0    0  501 -0.00000000000E+00 -0.00000000000E+00 -0.22965419534E+03  0.22965419534E+03  0.00000000000E+00 0.  1.
         36    2    1    2    0    0  0.00000000000E+00 -0.14210854715E-13  0.88661180653E+03  0.13459201972E+04  0.10126305752E+04 0.  0.
         25    2    3    3    0    0  0.10595851217E+03 -0.92072633190E+02  0.24759119722E+03  0.31073071898E+03  0.12469002645E+03 0.  0.
         35    2    3    3    0    0 -0.10595851217E+03  0.92072633190E+02  0.63902060931E+03  0.10351894782E+04  0.80222524308E+03 0.  0.
         22    1    5    5    0    0 -0.48739098245E+02  0.44316788450E+03  0.44531391641E+03  0.63014106175E+03  0.00000000000E+00 0.  1.
         22    1    5    5    0    0 -0.57219413927E+02 -0.35109525131E+03  0.19370669290E+03  0.40504841648E+03  0.00000000000E+00 0.  1.
          5    1    4    4  502    0  0.58723789129E+02 -0.29395830530E+02  0.21631952949E+03  0.22611684391E+03  0.47000000000E+01 0. -1.
         -5    1    4    4    0  502  0.47234723044E+02 -0.62676802660E+02  0.31271667733E+02  0.84613875076E+02  0.47000000000E+01 0. -1.
<mgrwt>
<rscale>  0 0.10126306E+04</rscale>
<asrwt>0</asrwt>
<pdfrwt beam="1">  1        2 0.17173323E+00 0.10126306E+04</pdfrwt>
<pdfrwt beam="2">  1       -2 0.35331415E-01 0.10126306E+04</pdfrwt>
<totfact> 0.19344879E+02</totfact>
</mgrwt>
</event>
<event>
 9    1  0.4342579E-036  0.1007871E+04  0.7818608E-02  0.8673578E-01
          1   -1    0    0  501    0  0.00000000000E+00  0.00000000000E+00  0.94439232953E+03  0.94439232953E+03  0.00000000000E+00 0. -1.
         -1   -1    0    0    0  501 -0.00000000000E+00 -0.00000000000E+00 -0.26890417986E+03  0.26890417986E+03  0.00000000000E+00 0. -1.
         36    2    1    2    0    0  0.00000000000E+00  0.00000000000E+00  0.67548814967E+03  0.12132965094E+04  0.10078711125E+04 0.  0.
         25    2    3    3    0    0  0.68519366514E+02 -0.13237969931E+03  0.12784256007E+03  0.23304130987E+03  0.12548005245E+03 0.  0.
         35    2    3    3    0    0 -0.68519366514E+02  0.13237969931E+03  0.54764558959E+03  0.98025519952E+03  0.79922792494E+03 0.  0.
         22    1    5    5    0    0 -0.23099130518E+03  0.19208559918E+03 -0.94700676145E+02  0.31499536273E+03  0.00000000000E+00 0. -1.
         22    1    5    5    0    0  0.16247193867E+03 -0.59705899870E+02  0.64234626574E+03  0.66525983679E+03  0.00000000000E+00 0. -1.
          5    1    4    4  502    0  0.71667634880E+02 -0.15357147233E+03  0.97409745388E+02  0.19552799160E+03  0.47000000000E+01 0. -1.
         -5    1    4    4    0  502 -0.31482683662E+01  0.21191773023E+02  0.30432814684E+02  0.37513318263E+02  0.47000000000E+01 0. -1.
<mgrwt>
<rscale>  0 0.10078711E+04</rscale>
<asrwt>0</asrwt>
<pdfrwt beam="1">  1        1 0.14529113E+00 0.10078711E+04</pdfrwt>
<pdfrwt beam="2">  1       -1 0.41369874E-01 0.10078711E+04</pdfrwt>
<totfact> 0.10781776E+02</totfact>
</mgrwt>
</event>
<event>
 9    1  0.4342579E-036  0.9936875E+03  0.7818608E-02  0.8687073E-01
         -1   -1    0    0    0  501 -0.00000000000E+00  0.00000000000E+00  0.12938628993E+03  0.12938628993E+03  0.00000000000E+00 0. -1.
          1   -1    0    0  501    0  0.00000000000E+00 -0.00000000000E+00 -0.19078813887E+04  0.19078813887E+04  0.00000000000E+00 0. -1.
         36    2    1    2    0    0  0.00000000000E+00 -0.14210854715E-13 -0.17784950988E+04  0.20372676787E+04  0.99368746499E+03 0.  0.
         25    2    3    3    0    0 -0.20621543258E+02  0.72388762146E+02 -0.55196699710E+03  0.57105999184E+03  0.12560480670E+03 0.  0.
         35    2    3    3    0    0  0.20621543258E+02 -0.72388762146E+02 -0.12265281017E+04  0.14662076868E+04  0.79983024180E+03 0.  0.
         22    1    5    5    0    0  0.12416303280E+03  0.22604794680E+03 -0.10934140069E+04  0.11234181427E+04  0.00000000000E+00 0.  1.
         22    1    5    5    0    0 -0.10354148954E+03 -0.29843670894E+03 -0.13311409483E+03  0.34278954410E+03  0.00000000000E+00 0.  1.
          5    1    4    4  502    0 -0.38398260792E+02  0.23551420400E+02 -0.54494059311E+02  0.70857521372E+02  0.47000000000E+01 0.  1.
         -5    1    4    4    0  502  0.17776717535E+02  0.48837341745E+02 -0.49747293778E+03  0.50020247047E+03  0.47000000000E+01 0.  1.
<mgrwt>
<rscale>  0 0.99368746E+03</rscale>
<asrwt>0</asrwt>
<pdfrwt beam="1">  1        1 0.29352020E+00 0.99368746E+03</pdfrwt>
<pdfrwt beam="2">  1       -1 0.19905584E-01 0.99368746E+03</pdfrwt>
<totfact> 0.74514464E+01</totfact>
</mgrwt>
</event>
<event>
 9    1  0.4342579E-036  0.9990766E+03  0.7818608E-02  0.8681918E-01
          3   -1    0    0  501    0  0.00000000000E+00  0.00000000000E+00  0.66688582705E+03  0.66688582705E+03  0.00000000000E+00 0. -1.
         -3   -1    0    0    0  501 -0.00000000000E+00 -0.00000000000E+00 -0.37418474816E+03  0.37418474816E+03  0.00000000000E+00 0. -1.
         36    2    1    2    0    0 -0.14210854715E-13  0.00000000000E+00  0.29270107889E+03  0.10410705752E+04  0.99907658415E+03 0.  0.
         25    2    3    3    0    0  0.11602536793E+03 -0.49705495637E+02 -0.91642234167E+01  0.17667156735E+03  0.12327342543E+03 0.  0.
         35    2    3    3    0    0 -0.11602536793E+03  0.49705495637E+02  0.30186530231E+03  0.86439900786E+03  0.80008153444E+03 0.  0.
         22    1    5    5    0    0 -0.42524438804E+03  0.45012608060E+02  0.34850498255E+03  0.55164721272E+03  0.00000000000E+00 0.  1.
         22    1    5    5    0    0  0.30921902011E+03  0.46928875771E+01 -0.46639680239E+02  0.31275179514E+03  0.00000000000E+00 0.  1.
          5    1    4    4  502    0 -0.17097893515E+02  0.98140127719E+01 -0.22359049649E+02  0.30177307874E+02  0.47000000000E+01 0.  1.
         -5    1    4    4    0  502  0.13312326145E+03 -0.59519508409E+02  0.13194826233E+02  0.14649425948E+03  0.47000000000E+01 0.  1.
<mgrwt>
<rscale>  0 0.99907658E+03</rscale>
<asrwt>0</asrwt>
<pdfrwt beam="1">  1        3 0.10259782E+00 0.99907658E+03</pdfrwt>
<pdfrwt beam="2">  1       -3 0.57566884E-01 0.99907658E+03</pdfrwt>
<totfact> 0.10120592E+01</totfact>
</mgrwt>
</event>
<event>
 9    1  0.4342579E-036  0.1000453E+04  0.7818608E-02  0.8680607E-01
          2   -1    0    0  501    0  0.00000000000E+00  0.00000000000E+00  0.18788219232E+04  0.18788219232E+04  0.00000000000E+00 0.  1.
         -2   -1    0    0    0  501 -0.00000000000E+00 -0.00000000000E+00 -0.13318265423E+03  0.13318265423E+03  0.00000000000E+00 0.  1.
         36    2    1    2    0    0  0.28421709430E-13  0.00000000000E+00  0.17456392690E+04  0.20120045774E+04  0.10004528786E+04 0.  0.
         25    2    3    3    0    0 -0.42986251126E+02 -0.13003213028E+03  0.40126469890E+03  0.44189595989E+03  0.12450906831E+03 0.  0.
         35    2    3    3    0    0  0.42986251126E+02  0.13003213028E+03  0.13443745701E+04  0.15701086175E+04  0.79946351609E+03 0.  0.
         22    1    5    5    0    0 -0.19170300230E+03  0.33554103899E+03  0.32779239120E+03  0.50674025069E+03  0.00000000000E+00 0. -1.
         22    1    5    5    0    0  0.23468925343E+03 -0.20550890872E+03  0.10165821789E+04  0.10633683669E+04  0.00000000000E+00 0. -1.
          5    1    4    4  502    0 -0.84230730794E+02 -0.59449396000E+02  0.22275561505E+03  0.24550193631E+03  0.47000000000E+01 0.  1.
         -5    1    4    4    0  502  0.41244479668E+02 -0.70582734276E+02  0.17850908385E+03  0.19639402358E+03  0.47000000000E+01 0.  1.
<mgrwt>
<rscale>  0 0.10004529E+04</rscale>
<asrwt>0</asrwt>
<pdfrwt beam="1">  1        2 0.28904951E+00 0.10004529E+04</pdfrwt>
<pdfrwt beam="2">  1       -2 0.20489641E-01 0.10004529E+04</pdfrwt>
<totfact> 0.18834318E+02</totfact>
</mgrwt>
</event>
<event>
 9    1  0.4342579E-036  0.1000372E+04  0.7818608E-02  0.8680684E-01
          2   -1    0    0  501    0  0.00000000000E+00  0.00000000000E+00  0.32281461015E+04  0.32281461015E+04  0.00000000000E+00 0.  1.
         -2   -1    0    0    0  501 -0.00000000000E+00 -0.00000000000E+00 -0.77501386459E+02  0.77501386459E+02  0.00000000000E+00 0.  1.
         36    2    1    2    0    0  0.00000000000E+00  0.14210854715E-13  0.31506447151E+04  0.33056474880E+04  0.10003715281E+04 0.  0.
         25    2    3    3    0    0  0.39052146562E+02 -0.12222011724E+03  0.78407034930E+03  0.80444832788E+03  0.12612681064E+03 0.  0.
         35    2    3    3    0    0 -0.39052146562E+02  0.12222011724E+03  0.23665743658E+04  0.25011991601E+04  0.79928729667E+03 0.  0.
         22    1    5    5    0    0  0.11471722043E+03  0.23934122355E+03  0.22693747269E+04  0.22848426451E+04  0.00000000000E+00 0.  1.
         22    1    5    5    0    0 -0.15376936699E+03 -0.11712110631E+03  0.97199638847E+02  0.21635651495E+03  0.00000000000E+00 0.  1.
          5    1    4    4  502    0  0.16006828219E+02 -0.72555570114E+02  0.14477582896E+03  0.16279637574E+03  0.47000000000E+01 0. -1.
         -5    1    4    4    0  502  0.23045318343E+02 -0.49664547121E+02  0.63929452035E+03  0.64165195214E+03  0.47000000000E+01 0. -1.
<mgrwt>
<rscale>  0 0.10003715E+04</rscale>
<asrwt>0</asrwt>
<pdfrwt beam="1">  1        2 0.49663776E+00 0.10003715E+04</pdfrwt>
<pdfrwt beam="2">  1       -2 0.11923293E-01 0.10003715E+04</pdfrwt>
<totfact> 0.68343705E+01</totfact>
</mgrwt>
</event>
<event>
 9    1  0.4342579E-036  0.9995763E+03  0.7818608E-02  0.8681442E-01
          2   -1    0    0  501    0  0.00000000000E+00  0.00000000000E+00  0.76052945890E+03  0.76052945890E+03  0.00000000000E+00 0.  1.
         -2   -1    0    0    0  501 -0.00000000000E+00 -0.00000000000E+00 -0.32843988951E+03  0.32843988951E+03  0.00000000000E+00 0.  1.
         36    2    1    2    0    0  0.14210854715E-13  0.71054273576E-14  0.43208956940E+03  0.10889693484E+04  0.99957633315E+03 0.  0.
         25    2    3    3    0    0 -0.95747334690E+02 -0.34749180358E+02 -0.20908600035E+02  0.16427197524E+03  0.12717332526E+03 0.  0.
         35    2    3    3    0    0  0.95747334690E+02  0.34749180358E+02  0.45299816943E+03  0.92469737317E+03  0.79967670518E+03 0.  0.
         22    1    5    5    0    0 -0.17526611496E+03  0.29486537818E+02 -0.16959038818E+03  0.24565945276E+03  0.00000000000E+00 0. -1.
         22    1    5    5    0    0  0.27101344965E+03  0.52626425408E+01  0.62258855761E+03  0.67903792042E+03  0.00000000000E+00 0. -1.
          5    1    4    4  502    0 -0.11711766172E+03 -0.50336157209E+02  0.40146388581E+01  0.12762634028E+03  0.47000000000E+01 0.  1.
         -5    1    4    4    0  502  0.21370327027E+02  0.15586976851E+02 -0.24923238893E+02  0.36645634958E+02  0.47000000000E+01 0.  1.
<mgrwt>
<rscale>  0 0.99957633E+03</rscale>
<asrwt>0</asrwt>
<pdfrwt beam="1">  1        2 0.11700453E+00 0.99957633E+03</pdfrwt>
<pdfrwt beam="2">  1       -2 0.50529214E-01 0.99957633E+03</pdfrwt>
<totfact> 0.16507777E+02</totfact>
</mgrwt>
</event>
<event>
 9    1  0.4342579E-036  0.1001443E+04  0.7818608E-02  0.8679665E-01
          2   -1    0    0  501    0  0.00000000000E+00  0.00000000000E+00  0.15304060408E+04  0.15304060408E+04  0.00000000000E+00 0. -1.
         -2   -1    0    0    0  501 -0.00000000000E+00 -0.00000000000E+00 -0.16382725171E+03  0.16382725171E+03  0.00000000000E+00 0. -1.
         36    2    1    2    0    0  0.71054273576E-14  0.00000000000E+00  0.13665787891E+04  0.16942332925E+04  0.10014433896E+04 0.  0.
         25    2    3    3    0    0  0.27734347540E+02  0.29007505930E+02  0.29412235033E+02  0.13450575346E+03  0.12496434975E+03 0.  0.
         35    2    3    3    0    0 -0.27734347540E+02 -0.29007505930E+02  0.13371665541E+04  0.15597275391E+04  0.80195073000E+03 0.  0.
         22    1    5    5    0    0  0.37096472402E+03  0.46864063212E+02  0.45684258069E+03  0.59035261533E+03  0.00000000000E+00 0.  1.
         22    1    5    5    0    0 -0.39869907156E+03 -0.75871569143E+02  0.88032397336E+03  0.96937492373E+03  0.00000000000E+00 0.  1.
          5    1    4    4  502    0 -0.34669381694E+02  0.53264402155E+02  0.19613115600E+02  0.66677034034E+02  0.47000000000E+01 0.  1.
         -5    1    4    4    0  502  0.62403729234E+02 -0.24256896225E+02  0.97991194331E+01  0.67828719422E+02  0.47000000000E+01 0.  1.
<mgrwt>
<rscale>  0 0.10014434E+04</rscale>
<asrwt>0</asrwt>
<pdfrwt beam="1">  1        2 0.23544707E+00 0.10014434E+04</pdfrwt>
<pdfrwt beam="2">  1       -2 0.25204194E-01 0.10014434E+04</pdfrwt>
<totfact> 0.20590318E+02</totfact>
</mgrwt>
</event>
<event>
 9    1  0.4342579E-036  0.9997058E+03  0.7818608E-02  0.8681318E-01
         -2   -1    0    0    0  501 -0.00000000000E+00  0.00000000000E+00  0.17860868730E+03  0.17860868730E+03  0.00000000000E+00 0. -1.
          2   -1    0    0  501    0  0.00000000000E+00 -0.00000000000E+00 -0.13988844365E+04  0.13988844365E+04  0.00000000000E+00 0. -1.
         36    2    1    2    0    0 -0.14210854715E-13 -0.71054273576E-14 -0.12202757492E+04  0.15774931238E+04  0.99970578251E+03 0.  0.
         25    2    3    3    0    0 -0.74524645406E+02  0.25007508321E+02 -0.41651560301E+03  0.44151793832E+03  0.12358618071E+03 0.  0.
         35    2    3    3    0    0  0.74524645406E+02 -0.25007508321E+02 -0.80376014619E+03  0.11359751855E+04  0.79889295353E+03 0.  0.
         22    1    5    5    0    0 -0.33484894906E+02  0.22804260334E+03  0.52674661552E+02  0.23643030071E+03  0.00000000000E+00 0.  1.
         22    1    5    5    0    0  0.10800954031E+03 -0.25305011166E+03 -0.85643480775E+03  0.89954488478E+03  0.00000000000E+00 0.  1.
          5    1    4    4  502    0 -0.21576597116E+02 -0.23595023092E+02 -0.18913039884E+02  0.37444194950E+02  0.47000000000E+01 0.  1.
         -5    1    4    4    0  502 -0.52948048290E+02  0.48602531412E+02 -0.39760256312E+03  0.40407374337E+03  0.47000000000E+01 0.  1.
<mgrwt>
<rscale>  0 0.99970578E+03</rscale>
<asrwt>0</asrwt>
<pdfrwt beam="1">  1        2 0.21521299E+00 0.99970578E+03</pdfrwt>
<pdfrwt beam="2">  1       -2 0.27478260E-01 0.99970578E+03</pdfrwt>
<totfact> 0.20956888E+02</totfact>
</mgrwt>
</event>
<event>
 9    1  0.4342579E-036  0.1000411E+04  0.7818608E-02  0.8680646E-01
         -2   -1    0    0    0  501 -0.00000000000E+00  0.00000000000E+00  0.12693270689E+03  0.12693270689E+03  0.00000000000E+00 0. -1.
          2   -1    0    0  501    0  0.00000000000E+00 -0.00000000000E+00 -0.19711682258E+04  0.19711682258E+04  0.00000000000E+00 0. -1.
         36    2    1    2    0    0  0.42632564146E-13  0.21316282073E-13 -0.18442355189E+04  0.20981009326E+04  0.10004113527E+04 0.  0.
         25    2    3    3    0    0  0.12359523756E+03 -0.17818377917E+02 -0.47947472542E+03  0.51101972692E+03  0.12510744041E+03 0.  0.
         35    2    3    3    0    0 -0.12359523756E+03  0.17818377917E+02 -0.13647607934E+04  0.15870812057E+04  0.80041330130E+03 0.  0.
         22    1    5    5    0    0 -0.34066245261E+03  0.14966650838E+03 -0.26105966658E+03  0.45453615903E+03  0.00000000000E+00 0.  1.
         22    1    5    5    0    0  0.21706721505E+03 -0.13184813046E+03 -0.11037011269E+04  0.11325450467E+04  0.00000000000E+00 0.  1.
          5    1    4    4  502    0  0.26369241908E+02 -0.61564475414E+02 -0.23191186875E+03  0.24143472496E+03  0.47000000000E+01 0. -1.
         -5    1    4    4    0  502  0.97225995656E+02  0.43746097497E+02 -0.24756285667E+03  0.26958500196E+03  0.47000000000E+01 0. -1.
<mgrwt>
<rscale>  0 0.10004114E+04</rscale>
<asrwt>0</asrwt>
<pdfrwt beam="1">  1        2 0.30325665E+00 0.10004114E+04</pdfrwt>
<pdfrwt beam="2">  1       -2 0.19528109E-01 0.10004114E+04</pdfrwt>
<totfact> 0.18141931E+02</totfact>
</mgrwt>
</event>
<event>
 9    1  0.4342579E-036  0.1001221E+04  0.7818608E-02  0.8679876E-01
         -1   -1    0    0    0  501 -0.00000000000E+00  0.00000000000E+00  0.32421143471E+03  0.32421143471E+03  0.00000000000E+00 0. -1.
          1   -1    0    0  501    0  0.00000000000E+00 -0.00000000000E+00 -0.77298591752E+03  0.77298591752E+03  0.00000000000E+00 0. -1.
         36    2    1    2    0    0  0.00000000000E+00  0.00000000000E+00 -0.44877448281E+03  0.10971973522E+04  0.10012210012E+04 0.  0.
         25    2    3    3    0    0  0.82202639573E+02 -0.89441639178E+02 -0.16097857038E+03  0.23698594785E+03  0.12446348294E+03 0.  0.
         35    2    3    3    0    0 -0.82202639573E+02  0.89441639178E+02 -0.28779591243E+03  0.86021140438E+03  0.80148617720E+03 0.  0.
         22    1    5    5    0    0  0.11939472134E+03 -0.47067361949E+02  0.24379938138E+03  0.27551510740E+03  0.00000000000E+00 0.  1.
         22    1    5    5    0    0 -0.20159736091E+03  0.13650900113E+03 -0.53159529380E+03  0.58469629699E+03  0.00000000000E+00 0.  1.
          5    1    4    4  502    0 -0.28086822029E+02 -0.10378963173E+02 -0.59255890262E+01  0.30883572551E+02  0.47000000000E+01 0. -1.
         -5    1    4    4    0  502  0.11028946160E+03 -0.79062676006E+02 -0.15505298135E+03  0.20610237530E+03  0.47000000000E+01 0. -1.
<mgrwt>
<rscale>  0 0.10012210E+04</rscale>
<asrwt>0</asrwt>
<pdfrwt beam="1">  1        1 0.11892091E+00 0.10012210E+04</pdfrwt>
<pdfrwt beam="2">  1       -1 0.49878683E-01 0.10012210E+04</pdfrwt>
<totfact> 0.10754140E+02</totfact>
</mgrwt>
</event>
<event>
 9    1  0.4342579E-036  0.1000299E+04  0.7818608E-02  0.8680753E-01
          1   -1    0    0  501    0  0.00000000000E+00  0.00000000000E+00  0.19194615640E+03  0.19194615640E+03  0.00000000000E+00 0.  1.
         -1   -1    0    0    0  501 -0.00000000000E+00 -0.00000000000E+00 -0.13032272561E+04  0.13032272561E+04  0.00000000000E+00 0.  1.
         36    2    1    2    0    0 -0.42632564146E-13  0.00000000000E+00 -0.11112810997E+04  0.14951734125E+04  0.10002988808E+04 0.  0.
         25    2    3    3    0    0  0.92202716541E+02  0.48625666073E+02 -0.35414657402E+03  0.38828326077E+03  0.12032580093E+03 0.  0.
         35    2    3    3    0    0 -0.92202716541E+02 -0.48625666073E+02 -0.75713452565E+03  0.11068901517E+04  0.80067928763E+03 0.  0.
         22    1    5    5    0    0  0.33309609379E+03 -0.11951516107E+03 -0.21452897226E+03  0.41383518623E+03  0.00000000000E+00 0.  1.
         22    1    5    5    0    0 -0.42529881033E+03  0.70889494995E+02 -0.54260555339E+03  0.69305496546E+03  0.00000000000E+00 0.  1.
          5    1    4    4  502    0  0.42363371246E+02  0.85298921944E+02 -0.24205829910E+03  0.26016316317E+03  0.47000000000E+01 0. -1.
         -5    1    4    4    0  502  0.49839345295E+02 -0.36673255872E+02 -0.11208827491E+03  0.12812009760E+03  0.47000000000E+01 0. -1.
<mgrwt>
<rscale>  0 0.10002989E+04</rscale>
<asrwt>0</asrwt>
<pdfrwt beam="1">  1        1 0.29530178E-01 0.10002989E+04</pdfrwt>
<pdfrwt beam="2">  1       -1 0.20049650E+00 0.10002989E+04</pdfrwt>
<totfact> 0.24204386E+01</totfact>
</mgrwt>
</event>
<event>
 9    1  0.4342579E-036  0.9998339E+03  0.7818608E-02  0.8681196E-01
          2   -1    0    0  501    0  0.00000000000E+00  0.00000000000E+00  0.95451300134E+03  0.95451300134E+03  0.00000000000E+00 0. -1.
         -2   -1    0    0    0  501 -0.00000000000E+00 -0.00000000000E+00 -0.26182664430E+03  0.26182664430E+03  0.00000000000E+00 0. -1.
         36    2    1    2    0    0  0.42632564146E-13  0.14210854715E-13  0.69268635704E+03  0.12163396456E+04  0.99983385836E+03 0.  0.
         25    2    3    3    0    0 -0.37555825004E+02  0.11891845241E+03  0.20679826863E+03  0.27174662522E+03  0.12461406859E+03 0.  0.
         35    2    3    3    0    0  0.37555825004E+02 -0.11891845241E+03  0.48588808841E+03  0.94459302042E+03  0.80038534560E+03 0.  0.
         22    1    5    5    0    0  0.29552342744E+03 -0.30176739255E+03  0.46428089125E+03  0.62765786966E+03  0.00000000000E+00 0.  1.
         22    1    5    5    0    0 -0.25796760244E+03  0.18284894013E+03  0.21607197163E+02  0.31693515076E+03  0.00000000000E+00 0.  1.
          5    1    4    4  502    0 -0.39986367116E+02  0.99104220510E+02  0.58274576675E+02  0.12181367889E+03  0.47000000000E+01 0. -1.
         -5    1    4    4    0  502  0.24305421119E+01  0.19814231903E+02  0.14852369196E+03  0.14993294633E+03  0.47000000000E+01 0. -1.
<mgrwt>
<rscale>  0 0.99983386E+03</rscale>
<asrwt>0</asrwt>
<pdfrwt beam="1">  1        2 0.14684815E+00 0.99983386E+03</pdfrwt>
<pdfrwt beam="2">  1       -2 0.40281023E-01 0.99983386E+03</pdfrwt>
<totfact> 0.19021088E+02</totfact>
</mgrwt>
</event>
<event>
 9    1  0.4342579E-036  0.1000247E+04  0.7818608E-02  0.8680803E-01
         -4   -1    0    0    0  501 -0.00000000000E+00  0.00000000000E+00  0.51289970093E+03  0.51289970093E+03  0.00000000000E+00 0.  1.
          4   -1    0    0  501    0  0.00000000000E+00 -0.00000000000E+00 -0.48766553968E+03  0.48766553968E+03  0.00000000000E+00 0.  1.
         36    2    1    2    0    0  0.71054273576E-14 -0.28421709430E-13  0.25234161248E+02  0.10005652406E+04  0.10002469884E+04 0.  0.
         25    2    3    3    0    0 -0.54308750507E+01  0.11794845375E+03 -0.66887824878E+02  0.18624475917E+03  0.12756095427E+03 0.  0.
         35    2    3    3    0    0  0.54308750507E+01 -0.11794845375E+03  0.92121986126E+02  0.81432048144E+03  0.80043116757E+03 0.  0.
         22    1    5    5    0    0  0.37751767514E+03 -0.97150804046E+02 -0.89183999262E+02  0.39988955912E+03  0.00000000000E+00 0. -1.
         22    1    5    5    0    0 -0.37208680009E+03 -0.20797649700E+02  0.18130598539E+03  0.41443092232E+03  0.00000000000E+00 0. -1.
          5    1    4    4  502    0 -0.50771013721E+02  0.55797302000E+01 -0.98158420125E+01  0.52223270462E+02  0.47000000000E+01 0.  1.
         -5    1    4    4    0  502  0.45340138670E+02  0.11236872355E+03 -0.57071982865E+02  0.13402148870E+03  0.47000000000E+01 0.  1.
<mgrwt>
<rscale>  0 0.10002470E+04</rscale>
<asrwt>0</asrwt>
<pdfrwt beam="1">  1        4 0.75025468E-01 0.10002470E+04</pdfrwt>
<pdfrwt beam="2">  1       -4 0.78907646E-01 0.10002470E+04</pdfrwt>
<totfact> 0.53011267E+00</totfact>
</mgrwt>
</event>
<event>
 9    1  0.4342579E-036  0.9996563E+03  0.7818608E-02  0.8681365E-01
          1   -1    0    0  501    0  0.00000000000E+00  0.00000000000E+00  0.88922928274E+03  0.88922928274E+03  0.00000000000E+00 0. -1.
         -1   -1    0    0    0  501 -0.00000000000E+00 -0.00000000000E+00 -0.28094909295E+03  0.28094909295E+03  0.00000000000E+00 0. -1.
         36    2    1    2    0    0  0.00000000000E+00 -0.14210854715E-13  0.60828018979E+03  0.11701783757E+04  0.99965626174E+03 0.  0.
         25    2    3    3    0    0  0.93982618515E+02 -0.10162044706E+03  0.14512511149E+03  0.23614170953E+03  0.12466820424E+03 0.  0.
         35    2    3    3    0    0 -0.93982618515E+02  0.10162044706E+03  0.46315507830E+03  0.93403666616E+03  0.79921988171E+03 0.  0.
         22    1    5    5    0    0 -0.33895512408E+03  0.16346649404E+02  0.56195407574E+03  0.65646795224E+03  0.00000000000E+00 0. -1.
         22    1    5    5    0    0  0.24497250556E+03  0.85273797661E+02 -0.98798997441E+02  0.27756871391E+03  0.00000000000E+00 0. -1.
          5    1    4    4  502    0  0.95229261240E+01  0.64704262724E+01  0.85660203673E+02  0.86558148267E+02  0.47000000000E+01 0. -1.
         -5    1    4    4    0  502  0.84459692391E+02 -0.10809087334E+03  0.59464907820E+02  0.14958356126E+03  0.47000000000E+01 0. -1.
<mgrwt>
<rscale>  0 0.99965626E+03</rscale>
<asrwt>0</asrwt>
<pdfrwt beam="1">  1        1 0.13680450E+00 0.99965626E+03</pdfrwt>
<pdfrwt beam="2">  1       -1 0.43222938E-01 0.99965626E+03</pdfrwt>
<totfact> 0.11075634E+02</totfact>
</mgrwt>
</event>
<event>
 9    1  0.4342579E-036  0.1001126E+04  0.7818608E-02  0.8679966E-01
          2   -1    0    0  501    0  0.00000000000E+00  0.00000000000E+00  0.33450169444E+04  0.33450169444E+04  0.00000000000E+00 0. -1.
         -2   -1    0    0    0  501 -0.00000000000E+00 -0.00000000000E+00 -0.74906484021E+02  0.74906484021E+02  0.00000000000E+00 0. -1.
         36    2    1    2    0    0 -0.28421709430E-13 -0.14210854715E-13  0.32701104604E+04  0.34199234284E+04  0.10011262823E+04 0.  0.
         25    2    3    3    0    0  0.91126718608E+02 -0.86883728008E+02  0.42556893571E+03  0.46226869703E+03  0.12934669759E+03 0.  0.
         35    2    3    3    0    0 -0.91126718608E+02  0.86883728008E+02  0.28445415247E+04  0.29576547314E+04  0.80028255229E+03 0.  0.
         22    1    5    5    0    0  0.11549670885E+03 -0.52692265252E+02  0.27875231714E+02  0.12997304765E+03  0.00000000000E+00 0.  1.
         22    1    5    5    0    0 -0.20662342746E+03  0.13957599326E+03  0.28166662930E+04  0.28276816838E+04  0.00000000000E+00 0.  1.
          5    1    4    4  502    0  0.94021449197E+02 -0.34102318887E+02  0.14184006942E+03  0.17361940086E+03  0.47000000000E+01 0.  1.
         -5    1    4    4    0  502 -0.28947305891E+01 -0.52781409121E+02  0.28372886629E+03  0.28864929617E+03  0.47000000000E+01 0.  1.
<mgrwt>
<rscale>  0 0.10011263E+04</rscale>
<asrwt>0</asrwt>
<pdfrwt beam="1">  1        2 0.51461788E+00 0.10011263E+04</pdfrwt>
<pdfrwt beam="2">  1       -2 0.11524077E-01 0.10011263E+04</pdfrwt>
<totfact> 0.59630723E+01</totfact>
</mgrwt>
</event>
<event>
 9    1  0.4342579E-036  0.1000890E+04  0.7818608E-02  0.8680191E-01
          1   -1    0    0  501    0  0.00000000000E+00  0.00000000000E+00  0.10722451227E+04  0.10722451227E+04  0.00000000000E+00 0.  1.
         -1   -1    0    0    0  501 -0.00000000000E+00 -0.00000000000E+00 -0.23357071846E+03  0.23357071846E+03  0.00000000000E+00 0.  1.
         36    2    1    2    0    0  0.00000000000E+00 -0.71054273576E-14  0.83867440420E+03  0.13058158411E+04  0.10008897315E+04 0.  0.
         25    2    3    3    0    0  0.76441022640E+02 -0.62570002309E+02  0.28738693457E+03  0.32915804794E+03  0.12647345663E+03 0.  0.
         35    2    3    3    0    0 -0.76441022640E+02  0.62570002309E+02  0.55128746963E+03  0.97665779318E+03  0.80011520150E+03 0.  0.
         22    1    5    5    0    0 -0.21259828870E+03 -0.32644013563E+03  0.31932362009E+03  0.50371496787E+03  0.00000000000E+00 0. -1.
         22    1    5    5    0    0  0.13615726606E+03  0.38901013793E+03  0.23196384954E+03  0.47294282531E+03  0.00000000000E+00 0. -1.
          5    1    4    4  502    0  0.47858686995E+02 -0.39723893989E-01  0.24178914224E+03  0.24652491721E+03  0.47000000000E+01 0. -1.
         -5    1    4    4    0  502  0.28582335645E+02 -0.62530278415E+02  0.45597792332E+02  0.82633130735E+02  0.47000000000E+01 0. -1.
<mgrwt>
<rscale>  0 0.10008897E+04</rscale>
<asrwt>0</asrwt>
<pdfrwt beam="1">  1        1 0.16496079E+00 0.10008897E+04</pdfrwt>
<pdfrwt beam="2">  1       -1 0.35933957E-01 0.10008897E+04</pdfrwt>
<totfact> 0.10962490E+02</totfact>
</mgrwt>
</event>
<event>
 9    1  0.4342579E-036  0.9996590E+03  0.7818608E-02  0.8681363E-01
          2   -1    0    0  501    0  0.00000000000E+00  0.00000000000E+00  0.23756877366E+04  0.23756877366E+04  0.00000000000E+00 0.  1.
         -2   -1    0    0    0  501 -0.00000000000E+00 -0.00000000000E+00 -0.10516092674E+03  0.10516092674E+03  0.00000000000E+00 0.  1.
         36    2    1    2    0    0 -0.14210854715E-13  0.28421709430E-13  0.22705268099E+04  0.24808486633E+04  0.99965898990E+03 0.  0.
         25    2    3    3    0    0 -0.46118241210E+02  0.13168181948E+03  0.43385765753E+03  0.47261515461E+03  0.12516238897E+03 0.  0.
         35    2    3    3    0    0  0.46118241210E+02 -0.13168181948E+03  0.18366691523E+04  0.20082335087E+04  0.80011327742E+03 0.  0.
         22    1    5    5    0    0  0.17987522798E+03 -0.11984708278E+03  0.57038024989E+02  0.22354363598E+03  0.00000000000E+00 0. -1.
         22    1    5    5    0    0 -0.13375698677E+03 -0.11834736704E+02  0.17796311274E+04  0.17846898728E+04  0.00000000000E+00 0. -1.
          5    1    4    4  502    0 -0.65473105031E+02  0.37803815504E+02  0.28966972551E+03  0.29941024670E+03  0.47000000000E+01 0.  1.
         -5    1    4    4    0  502  0.19354863821E+02  0.93878003978E+02  0.14418793202E+03  0.17320490791E+03  0.47000000000E+01 0.  1.
<mgrwt>
<rscale>  0 0.99965899E+03</rscale>
<asrwt>0</asrwt>
<pdfrwt beam="1">  1        2 0.36549038E+00 0.99965899E+03</pdfrwt>
<pdfrwt beam="2">  1       -2 0.16178606E-01 0.99965899E+03</pdfrwt>
<totfact> 0.14567566E+02</totfact>
</mgrwt>
</event>
<event>
 9    1  0.4342579E-036  0.1000246E+04  0.7818608E-02  0.8680803E-01
         -2   -1    0    0    0  501 -0.00000000000E+00  0.00000000000E+00  0.64190124781E+03  0.64190124781E+03  0.00000000000E+00 0.  1.
          2   -1    0    0  501    0  0.00000000000E+00 -0.00000000000E+00 -0.38965991318E+03  0.38965991318E+03  0.00000000000E+00 0.  1.
         36    2    1    2    0    0  0.00000000000E+00 -0.14210854715E-13  0.25224133463E+03  0.10315611610E+04  0.10002463386E+04 0.  0.
         25    2    3    3    0    0 -0.28230284303E+02  0.66614532387E+02  0.17221231650E+03  0.22484176728E+03  0.12514908503E+03 0.  0.
         35    2    3    3    0    0  0.28230284303E+02 -0.66614532387E+02  0.80029018129E+02  0.80671939370E+03  0.79947300864E+03 0.  0.
         22    1    5    5    0    0 -0.37909111619E+03 -0.66367062699E+02  0.10410033197E+03  0.39868727156E+03  0.00000000000E+00 0. -1.
         22    1    5    5    0    0  0.40732140050E+03 -0.24746968788E+00 -0.24071313845E+02  0.40803212214E+03  0.00000000000E+00 0. -1.
          5    1    4    4  502    0  0.34964696472E+02  0.32032371698E+02  0.13594027397E+03  0.14405016807E+03  0.47000000000E+01 0. -1.
         -5    1    4    4    0  502 -0.63194980775E+02  0.34582160689E+02  0.36272042536E+02  0.80791599209E+02  0.47000000000E+01 0. -1.
<mgrwt>
<rscale>  0 0.10002463E+04</rscale>
<asrwt>0</asrwt>
<pdfrwt beam="1">  1        2 0.59947679E-01 0.10002463E+04</pdfrwt>
<pdfrwt beam="2">  1       -2 0.98754038E-01 0.10002463E+04</pdfrwt>
<totfact> 0.82864479E+01</totfact>
</mgrwt>
</event>
<event>
 9    1  0.4342579E-036  0.9958659E+03  0.7818608E-02  0.8684985E-01
          2   -1    0    0  501    0  0.00000000000E+00  0.00000000000E+00  0.14034348217E+04  0.14034348217E+04  0.00000000000E+00 0. -1.
         -2   -1    0    0    0  501 -0.00000000000E+00 -0.00000000000E+00 -0.17666457638E+03  0.17666457638E+03  0.00000000000E+00 0. -1.
         36    2    1    2    0    0  0.28421709430E-13 -0.14210854715E-13  0.12267702453E+04  0.15800993981E+04  0.99586589109E+03 0.  0.
         25    2    3    3    0    0 -0.13171023173E+03 -0.68776172985E+01  0.28289907725E+03  0.33588338096E+03  0.12405994897E+03 0.  0.
         35    2    3    3    0    0  0.13171023173E+03  0.68776172985E+01  0.94387116806E+03  0.12442160171E+04  0.79986613167E+03 0.  0.
         22    1    5    5    0    0  0.41855455963E+02 -0.14891091761E+03  0.10322880413E+04  0.10438126943E+04  0.00000000000E+00 0.  1.
         22    1    5    5    0    0  0.89854775765E+02  0.15578853491E+03 -0.88416873210E+02  0.20040332284E+03  0.00000000000E+00 0.  1.
          5    1    4    4  502    0 -0.34836170590E+02 -0.39333031946E+02  0.19179195069E+03  0.19891427434E+03  0.47000000000E+01 0.  1.
         -5    1    4    4    0  502 -0.96874061138E+02  0.32455414648E+02  0.91107126556E+02  0.13696910663E+03  0.47000000000E+01 0.  1.
<mgrwt>
<rscale>  0 0.99586589E+03</rscale>
<asrwt>0</asrwt>
<pdfrwt beam="1">  1        2 0.21591304E+00 0.99586589E+03</pdfrwt>
<pdfrwt beam="2">  1       -2 0.27179166E-01 0.99586589E+03</pdfrwt>
<totfact> 0.21246063E+02</totfact>
</mgrwt>
</event>
<event>
 9    1  0.4342579E-036  0.1000252E+04  0.7818608E-02  0.8680798E-01
          2   -1    0    0  501    0  0.00000000000E+00  0.00000000000E+00  0.44228209253E+04  0.44228209253E+04  0.00000000000E+00 0.  1.
         -2   -1    0    0    0  501 -0.00000000000E+00 -0.00000000000E+00 -0.56553486155E+02  0.56553486155E+02  0.00000000000E+00 0.  1.
         36    2    1    2    0    0  0.00000000000E+00  0.28421709430E-13  0.43662674391E+04  0.44793744114E+04  0.10002518522E+04 0.  0.
         25    2    3    3    0    0 -0.29248263396E+02 -0.68651440562E+02  0.28832945103E+03  0.32295047785E+03  0.12487857146E+03 0.  0.
         35    2    3    3    0    0  0.29248263396E+02  0.68651440562E+02  0.40779379881E+04  0.41564239336E+04  0.80044562571E+03 0.  0.
         22    1    5    5    0    0 -0.57044289388E+02 -0.35703086080E+03  0.21477694802E+04  0.21779896296E+04  0.00000000000E+00 0. -1.
         22    1    5    5    0    0  0.86292552785E+02  0.42568230136E+03  0.19301685079E+04  0.19784343040E+04  0.00000000000E+00 0. -1.
          5    1    4    4  502    0 -0.19149327685E+02 -0.20818189908E+01 -0.62096279116E+01  0.20776915072E+02  0.47000000000E+01 0.  1.
         -5    1    4    4    0  502 -0.10098935711E+02 -0.66569621571E+02  0.29453907894E+03  0.30217356278E+03  0.47000000000E+01 0.  1.
<mgrwt>
<rscale>  0 0.10002519E+04</rscale>
<asrwt>0</asrwt>
<pdfrwt beam="1">  1        2 0.68043372E+00 0.10002519E+04</pdfrwt>
<pdfrwt beam="2">  1       -2 0.87005398E-02 0.10002519E+04</pdfrwt>
<totfact> 0.11434307E+01</totfact>
</mgrwt>
</event>
<event>
 9    1  0.4342579E-036  0.9992969E+03  0.7818608E-02  0.8681708E-01
          2   -1    0    0  501    0  0.00000000000E+00  0.00000000000E+00  0.89348995914E+03  0.89348995914E+03  0.00000000000E+00 0. -1.
         -2   -1    0    0    0  501 -0.00000000000E+00 -0.00000000000E+00 -0.27940837964E+03  0.27940837964E+03  0.00000000000E+00 0. -1.
         36    2    1    2    0    0  0.00000000000E+00 -0.28421709430E-13  0.61408157951E+03  0.11728983388E+04  0.99929691625E+03 0.  0.
         25    2    3    3    0    0 -0.42078098576E+02 -0.12906055879E+03  0.17836237837E+03  0.25625048481E+03  0.12419331194E+03 0.  0.
         35    2    3    3    0    0  0.42078098576E+02  0.12906055879E+03  0.43571920113E+03  0.91664785398E+03  0.79496218259E+03 0.  0.
         22    1    5    5    0    0 -0.15911596583E+03  0.27190876393E+03 -0.96933411786E+02  0.32961849584E+03  0.00000000000E+00 0.  1.
         22    1    5    5    0    0  0.20119406440E+03 -0.14284820514E+03  0.53265261292E+03  0.58702935813E+03  0.00000000000E+00 0.  1.
          5    1    4    4  502    0 -0.43689122155E+02  0.40571774872E+01  0.77425884792E+02  0.89118223275E+02  0.47000000000E+01 0.  1.
         -5    1    4    4    0  502  0.16110235789E+01 -0.13311773627E+03  0.10093649358E+03  0.16713226153E+03  0.47000000000E+01 0.  1.
<mgrwt>
<rscale>  0 0.99929692E+03</rscale>
<asrwt>0</asrwt>
<pdfrwt beam="1">  1        2 0.13745999E+00 0.99929692E+03</pdfrwt>
<pdfrwt beam="2">  1       -2 0.42985905E-01 0.99929692E+03</pdfrwt>
<totfact> 0.18386931E+02</totfact>
</mgrwt>
</event>
<event>
 9    1  0.4342579E-036  0.9967021E+03  0.7818608E-02  0.8684185E-01
         -2   -1    0    0    0  501 -0.00000000000E+00  0.00000000000E+00  0.15260580882E+03  0.15260580882E+03  0.00000000000E+00 0.  1.
          2   -1    0    0  501    0  0.00000000000E+00 -0.00000000000E+00 -0.16274203097E+04  0.16274203097E+04  0.00000000000E+00 0.  1.
         36    2    1    2    0    0  0.00000000000E+00  0.14210854715E-13 -0.14748145009E+04  0.17800261185E+04  0.99670214738E+03 0.  0.
         25    2    3    3    0    0  0.92755378313E+02  0.36507499264E+02 -0.44271680198E+03  0.47088856567E+03  0.12570408432E+03 0.  0.
         35    2    3    3    0    0 -0.92755378313E+02 -0.36507499264E+02 -0.10320976989E+04  0.13091375529E+04  0.79917402015E+03 0.  0.
         22    1    5    5    0    0  0.12342072469E+03 -0.30543826653E+03 -0.86530676126E+03  0.92589470299E+03  0.00000000000E+00 0.  1.
         22    1    5    5    0    0 -0.21617610301E+03  0.26893076726E+03 -0.16679093766E+03  0.38324284987E+03  0.00000000000E+00 0.  1.
          5    1    4    4  502    0 -0.85939912989E+01 -0.34427174865E+02 -0.80445601885E+02  0.88049258477E+02  0.47000000000E+01 0. -1.
         -5    1    4    4    0  502  0.10134936961E+03  0.70934674130E+02 -0.36227120010E+03  0.38283930720E+03  0.47000000000E+01 0. -1.
<mgrwt>
<rscale>  0 0.99670215E+03</rscale>
<asrwt>0</asrwt>
<pdfrwt beam="1">  1        2 0.25037236E+00 0.99670215E+03</pdfrwt>
<pdfrwt beam="2">  1       -2 0.23477816E-01 0.99670215E+03</pdfrwt>
<totfact> 0.20578436E+02</totfact>
</mgrwt>
</event>
<event>
 9    1  0.4342579E-036  0.1000568E+04  0.7818608E-02  0.8680497E-01
         -2   -1    0    0    0  501 -0.00000000000E+00  0.00000000000E+00  0.23260708430E+03  0.23260708430E+03  0.00000000000E+00 0. -1.
          2   -1    0    0  501    0  0.00000000000E+00 -0.00000000000E+00 -0.10759945474E+04  0.10759945474E+04  0.00000000000E+00 0. -1.
         36    2    1    2    0    0  0.14210854715E-13  0.00000000000E+00 -0.84338746305E+03  0.13086016317E+04  0.10005677476E+04 0.  0.
         25    2    3    3    0    0 -0.86054979089E+02 -0.73190616581E+02 -0.48197783764E+02  0.17496616953E+03  0.12461062690E+03 0.  0.
         35    2    3    3    0    0  0.86054979089E+02  0.73190616581E+02 -0.79518967929E+03  0.11336354621E+04  0.80002525532E+03 0.  0.
         22    1    5    5    0    0  0.83808848070E+02 -0.16153580843E+02  0.15623160177E+03  0.17802576943E+03  0.00000000000E+00 0.  1.
         22    1    5    5    0    0  0.22461310188E+01  0.89344197424E+02 -0.95142128106E+03  0.95560969270E+03  0.00000000000E+00 0.  1.
          5    1    4    4  502    0  0.30165274910E+02 -0.27961397185E+02 -0.61566511814E+00  0.41403533503E+02  0.47000000000E+01 0.  1.
         -5    1    4    4    0  502 -0.11622025400E+03 -0.45229219396E+02 -0.47582118646E+02  0.13356263602E+03  0.47000000000E+01 0.  1.
<mgrwt>
<rscale>  0 0.10005677E+04</rscale>
<asrwt>0</asrwt>
<pdfrwt beam="1">  1        2 0.16553762E+00 0.10005677E+04</pdfrwt>
<pdfrwt beam="2">  1       -2 0.35785706E-01 0.10005677E+04</pdfrwt>
<totfact> 0.19983974E+02</totfact>
</mgrwt>
</event>
<event>
 9    1  0.4342579E-036  0.9995434E+03  0.7818608E-02  0.8681473E-01
         -2   -1    0    0    0  501 -0.00000000000E+00  0.00000000000E+00  0.10547735250E+03  0.10547735250E+03  0.00000000000E+00 0.  1.
          2   -1    0    0  501    0  0.00000000000E+00 -0.00000000000E+00 -0.23680132945E+04  0.23680132945E+04  0.00000000000E+00 0.  1.
         36    2    1    2    0    0 -0.56843418861E-13  0.71054273576E-14 -0.22625359420E+04  0.24734906470E+04  0.99954344176E+03 0.  0.
         25    2    3    3    0    0 -0.13072735230E+03 -0.53597957530E+01 -0.30555480437E+03  0.35518720474E+03  0.12520321037E+03 0.  0.
         35    2    3    3    0    0  0.13072735230E+03  0.53597957530E+01 -0.19569811376E+04  0.21183034423E+04  0.80019743339E+03 0.  0.
         22    1    5    5    0    0 -0.17925996720E+03 -0.24912910691E+03 -0.36653148471E+03  0.47806357007E+03  0.00000000000E+00 0. -1.
         22    1    5    5    0    0  0.30998731951E+03  0.25448890266E+03 -0.15904496529E+04  0.16402398722E+04  0.00000000000E+00 0. -1.
          5    1    4    4  502    0  0.21788716015E+02 -0.54685874211E+01 -0.16291945642E+02  0.28145534046E+02  0.47000000000E+01 0. -1.
         -5    1    4    4    0  502 -0.15251606832E+03  0.10879166808E+00 -0.28926285873E+03  0.32704167069E+03  0.47000000000E+01 0. -1.
<mgrwt>
<rscale>  0 0.99954344E+03</rscale>
<asrwt>0</asrwt>
<pdfrwt beam="1">  1        2 0.36430974E+00 0.99954344E+03</pdfrwt>
<pdfrwt beam="2">  1       -2 0.16227285E-01 0.99954344E+03</pdfrwt>
<totfact> 0.14647287E+02</totfact>
</mgrwt>
</event>
<event>
 9    1  0.4342579E-036  0.1000733E+04  0.7818608E-02  0.8680341E-01
          1   -1    0    0  501    0  0.00000000000E+00  0.00000000000E+00  0.12660800465E+04  0.12660800465E+04  0.00000000000E+00 0. -1.
         -1   -1    0    0    0  501 -0.00000000000E+00 -0.00000000000E+00 -0.19774933805E+03  0.19774933805E+03  0.00000000000E+00 0. -1.
         36    2    1    2    0    0 -0.14210854715E-13  0.00000000000E+00  0.10683307084E+04  0.14638293846E+04  0.10007327138E+04 0.  0.
         25    2    3    3    0    0 -0.13857274177E+02  0.13743884756E+03  0.28032991028E+03  0.33279147797E+03  0.11438465083E+03 0.  0.
         35    2    3    3    0    0  0.13857274177E+02 -0.13743884756E+03  0.78800079817E+03  0.11310379066E+04  0.79951236847E+03 0.  0.
         22    1    5    5    0    0  0.10752753841E+03 -0.43774780364E+03  0.64146512413E+03  0.78400434730E+03  0.00000000000E+00 0. -1.
         22    1    5    5    0    0 -0.93670264232E+02  0.30030895608E+03  0.14653567404E+03  0.34703355928E+03  0.00000000000E+00 0. -1.
          5    1    4    4  502    0  0.40446262654E+02  0.99480244102E+02  0.21086014510E+03  0.23667764981E+03  0.47000000000E+01 0. -1.
         -5    1    4    4    0  502 -0.54303536831E+02  0.37958603461E+02  0.69469765181E+02  0.96113828159E+02  0.47000000000E+01 0. -1.
<mgrwt>
<rscale>  0 0.10007327E+04</rscale>
<asrwt>0</asrwt>
<pdfrwt beam="1">  1        1 0.19478154E+00 0.10007327E+04</pdfrwt>
<pdfrwt beam="2">  1       -1 0.30422976E-01 0.10007327E+04</pdfrwt>
<totfact> 0.10450354E+02</totfact>
</mgrwt>
</event>
<event>
 9    1  0.4342579E-036  0.9999553E+03  0.7818608E-02  0.8681080E-01
          2   -1    0    0  501    0  0.00000000000E+00  0.00000000000E+00  0.11260862101E+04  0.11260862101E+04  0.00000000000E+00 0.  1.
         -2   -1    0    0    0  501 -0.00000000000E+00 -0.00000000000E+00 -0.22198804117E+03  0.22198804117E+03  0.00000000000E+00 0.  1.
         36    2    1    2    0    0 -0.28421709430E-13 -0.71054273576E-14  0.90409816889E+03  0.13480742512E+04  0.99995534291E+03 0.  0.
         25    2    3    3    0    0  0.87687388269E+02 -0.46614633328E+02  0.33380682911E+02  0.16349486069E+03  0.12551612398E+03 0.  0.
         35    2    3    3    0    0 -0.87687388269E+02  0.46614633328E+02  0.87071748598E+03  0.11845793905E+04  0.79700526346E+03 0.  0.
         22    1    5    5    0    0  0.18606491963E+03 -0.22175163058E+03  0.71396423470E+03  0.77041473793E+03  0.00000000000E+00 0. -1.
         22    1    5    5    0    0 -0.27375230790E+03  0.26836626391E+03  0.15675325128E+03  0.41416465261E+03  0.00000000000E+00 0. -1.
          5    1    4    4  502    0 -0.35694264456E+01 -0.65421102830E+02  0.23131278717E+02  0.69640559703E+02  0.47000000000E+01 0.  1.
         -5    1    4    4    0  502  0.91256814715E+02  0.18806469502E+02  0.10249404194E+02  0.93854300985E+02  0.47000000000E+01 0.  1.
<mgrwt>
<rscale>  0 0.99995534E+03</rscale>
<asrwt>0</asrwt>
<pdfrwt beam="1">  1        2 0.17324403E+00 0.99995534E+03</pdfrwt>
<pdfrwt beam="2">  1       -2 0.34152007E-01 0.99995534E+03</pdfrwt>
<totfact> 0.20331971E+02</totfact>
</mgrwt>
</event>
<event>
 9    1  0.4342579E-036  0.1000935E+04  0.7818608E-02  0.8680148E-01
         -1   -1    0    0    0  501 -0.00000000000E+00  0.00000000000E+00  0.33880529191E+03  0.33880529191E+03  0.00000000000E+00 0.  1.
          1   -1    0    0  501    0  0.00000000000E+00 -0.00000000000E+00 -0.73926768747E+03  0.73926768747E+03  0.00000000000E+00 0.  1.
         36    2    1    2    0    0  0.00000000000E+00  0.00000000000E+00 -0.40046239556E+03  0.10780729794E+04  0.10009351720E+04 0.  0.
         25    2    3    3    0    0  0.62698226921E+01 -0.20164766965E+02  0.75444175786E+02  0.14721480943E+03  0.12463726550E+03 0.  0.
         35    2    3    3    0    0 -0.62698226921E+01  0.20164766965E+02 -0.47590657134E+03  0.93085816995E+03  0.79972741569E+03 0.  0.
         22    1    5    5    0    0 -0.19106220955E+03  0.33285416523E+03 -0.77133119138E+02  0.39146670522E+03  0.00000000000E+00 0. -1.
         22    1    5    5    0    0  0.18479238686E+03 -0.31268939827E+03 -0.39877345221E+03  0.53939146472E+03  0.00000000000E+00 0. -1.
          5    1    4    4  502    0 -0.23207642511E+02  0.11685822053E+02  0.95567258197E+02  0.99148090992E+02  0.47000000000E+01 0.  1.
         -5    1    4    4    0  502  0.29477465203E+02 -0.31850589018E+02 -0.20123082412E+02  0.48066718437E+02  0.47000000000E+01 0.  1.
<mgrwt>
<rscale>  0 0.10009352E+04</rscale>
<asrwt>0</asrwt>
<pdfrwt beam="1">  1        1 0.11373349E+00 0.10009352E+04</pdfrwt>
<pdfrwt beam="2">  1       -1 0.52123891E-01 0.10009352E+04</pdfrwt>
<totfact> 0.10636918E+02</totfact>
</mgrwt>
</event>
<event>
 9    1  0.4342579E-036  0.9995157E+03  0.7818608E-02  0.8681499E-01
          1   -1    0    0  501    0  0.00000000000E+00  0.00000000000E+00  0.13694053386E+04  0.13694053386E+04  0.00000000000E+00 0.  1.
         -1   -1    0    0    0  501 -0.00000000000E+00 -0.00000000000E+00 -0.18238422657E+03  0.18238422657E+03  0.00000000000E+00 0.  1.
         36    2    1    2    0    0  0.00000000000E+00  0.71054273576E-14  0.11870211120E+04  0.15517895651E+04  0.99951574982E+03 0.  0.
         25    2    3    3    0    0  0.11680357710E+03  0.38911695237E+02  0.32265822603E+03  0.36736774014E+03  0.12527382017E+03 0.  0.
         35    2    3    3    0    0 -0.11680357710E+03 -0.38911695237E+02  0.86436288598E+03  0.11844218250E+04  0.80035908518E+03 0.  0.
         22    1    5    5    0    0  0.10499033805E+03 -0.97560470518E+02 -0.11173247532E+03  0.18172826564E+03  0.00000000000E+00 0.  1.
         22    1    5    5    0    0 -0.22179391515E+03  0.58648775281E+02  0.97609536130E+03  0.10026935594E+04  0.00000000000E+00 0.  1.
          5    1    4    4  502    0 -0.23093660104E+02  0.13610859653E+02  0.95904785136E+02  0.99691476313E+02  0.47000000000E+01 0.  1.
         -5    1    4    4    0  502  0.13989723721E+03  0.25300835584E+02  0.22675344089E+03  0.26767626383E+03  0.47000000000E+01 0.  1.
<mgrwt>
<rscale>  0 0.99951575E+03</rscale>
<asrwt>0</asrwt>
<pdfrwt beam="1">  1        1 0.21067774E+00 0.99951575E+03</pdfrwt>
<pdfrwt beam="2">  1       -1 0.28059113E-01 0.99951575E+03</pdfrwt>
<totfact> 0.10088639E+02</totfact>
</mgrwt>
</event>
<event>
 9    1  0.4342579E-036  0.1007653E+04  0.7818608E-02  0.8673784E-01
         -1   -1    0    0    0  501 -0.00000000000E+00  0.00000000000E+00  0.82033290170E+03  0.82033290170E+03  0.00000000000E+00 0.  1.
          1   -1    0    0  501    0  0.00000000000E+00 -0.00000000000E+00 -0.30943666884E+03  0.30943666884E+03  0.00000000000E+00 0.  1.
         36    2    1    2    0    0 -0.71054273576E-14 -0.28421709430E-13  0.51089623286E+03  0.11297695705E+04  0.10076528776E+04 0.  0.
         25    2    3    3    0    0  0.15786744840E+02 -0.91276892379E+02 -0.31813718513E+02  0.15849362874E+03  0.12460908983E+03 0.  0.
         35    2    3    3    0    0 -0.15786744840E+02  0.91276892379E+02  0.54270995138E+03  0.97127594181E+03  0.80016384036E+03 0.  0.
         22    1    5    5    0    0 -0.31463758023E+03 -0.17825836877E+03  0.10475143086E+03  0.37649132154E+03  0.00000000000E+00 0. -1.
         22    1    5    5    0    0  0.29885083539E+03  0.26953526115E+03  0.43795852051E+03  0.59478462027E+03  0.00000000000E+00 0. -1.
          5    1    4    4  502    0 -0.46422022748E+02 -0.73959802474E+02 -0.33711483891E+02  0.93720919352E+02  0.47000000000E+01 0.  1.
         -5    1    4    4    0  502  0.62208767587E+02 -0.17317089905E+02  0.18977653780E+01  0.64772709384E+02  0.47000000000E+01 0.  1.
<mgrwt>
<rscale>  0 0.10076529E+04</rscale>
<asrwt>0</asrwt>
<pdfrwt beam="1">  1        1 0.47605642E-01 0.10076529E+04</pdfrwt>
<pdfrwt beam="2">  1       -1 0.12620506E+00 0.10076529E+04</pdfrwt>
<totfact> 0.55144984E+01</totfact>
</mgrwt>
</event>
<event>
 9    1  0.4342579E-036  0.9994086E+03  0.7818608E-02  0.8681601E-01
         -2   -1    0    0    0  501 -0.00000000000E+00  0.00000000000E+00  0.19111716808E+03  0.19111716808E+03  0.00000000000E+00 0.  1.
          2   -1    0    0  501    0  0.00000000000E+00 -0.00000000000E+00 -0.13065513794E+04  0.13065513794E+04  0.00000000000E+00 0.  1.
         36    2    1    2    0    0  0.71054273576E-14  0.00000000000E+00 -0.11154342113E+04  0.14976685474E+04  0.99940862429E+03 0.  0.
         25    2    3    3    0    0  0.27947652146E+02  0.11055687291E+03 -0.33088753259E+03  0.37157476468E+03  0.12480926695E+03 0.  0.
         35    2    3    3    0    0 -0.27947652146E+02 -0.11055687291E+03 -0.78454667869E+03  0.11260937828E+04  0.79973109426E+03 0.  0.
         22    1    5    5    0    0  0.62428671282E+02  0.33014805724E+03 -0.46752341464E+03  0.57573711183E+03  0.00000000000E+00 0.  1.
         22    1    5    5    0    0 -0.90376323428E+02 -0.44070493015E+03 -0.31702326405E+03  0.55035667094E+03  0.00000000000E+00 0.  1.
          5    1    4    4  502    0  0.54973845507E+02  0.11786568194E+03 -0.31036252209E+03  0.33654335202E+03  0.47000000000E+01 0.  1.
         -5    1    4    4    0  502 -0.27026193361E+02 -0.73088090378E+01 -0.20525010502E+02  0.35031412664E+02  0.47000000000E+01 0.  1.
<mgrwt>
<rscale>  0 0.99940862E+03</rscale>
<asrwt>0</asrwt>
<pdfrwt beam="1">  1        2 0.20100790E+00 0.99940862E+03</pdfrwt>
<pdfrwt beam="2">  1       -2 0.29402641E-01 0.99940862E+03</pdfrwt>
<totfact> 0.20954405E+02</totfact>
</mgrwt>
</event>
<event>
 9    1  0.4342579E-036  0.1004671E+04  0.7818608E-02  0.8676602E-01
          2   -1    0    0  501    0  0.00000000000E+00  0.00000000000E+00  0.23799188868E+04  0.23799188868E+04  0.00000000000E+00 0.  1.
         -2   -1    0    0    0  501 -0.00000000000E+00 -0.00000000000E+00 -0.10602925336E+03  0.10602925336E+03  0.00000000000E+00 0.  1.
         36    2    1    2    0    0  0.00000000000E+00  0.28421709430E-13  0.22738896334E+04  0.24859481401E+04  0.10046711355E+04 0.  0.
         25    2    3    3    0    0 -0.11867702857E+03  0.78286161659E+02  0.50277118733E+03  0.53733136909E+03  0.12543194643E+03 0.  0.
         35    2    3    3    0    0  0.11867702857E+03 -0.78286161659E+02  0.17711184461E+04  0.19486167711E+04  0.80002113104E+03 0.  0.
         22    1    5    5    0    0  0.37466572857E+03 -0.29088352346E+03  0.92768395409E+03  0.10419141764E+04  0.00000000000E+00 0.  1.
         22    1    5    5    0    0 -0.25598870000E+03  0.21259736180E+03  0.84343449201E+03  0.90670259462E+03  0.00000000000E+00 0.  1.
          5    1    4    4  502    0  0.20488417674E+02  0.32454935630E+02  0.64599126227E+02  0.75287683022E+02  0.47000000000E+01 0.  1.
         -5    1    4    4    0  502 -0.13916544624E+03  0.45831226029E+02  0.43817206110E+03  0.46204368607E+03  0.47000000000E+01 0.  1.
<mgrwt>
<rscale>  0 0.10046711E+04</rscale>
<asrwt>0</asrwt>
<pdfrwt beam="1">  1        2 0.36614133E+00 0.10046711E+04</pdfrwt>
<pdfrwt beam="2">  1       -2 0.16312195E-01 0.10046711E+04</pdfrwt>
<totfact> 0.14282126E+02</totfact>
</mgrwt>
</event>
<event>
 9    1  0.4342579E-036  0.1000069E+04  0.7818608E-02  0.8680972E-01
          1   -1    0    0  501    0  0.00000000000E+00  0.00000000000E+00  0.17214335724E+04  0.17214335724E+04  0.00000000000E+00 0.  1.
         -1   -1    0    0    0  501 -0.00000000000E+00 -0.00000000000E+00 -0.14524788595E+03  0.14524788595E+03  0.00000000000E+00 0.  1.
         36    2    1    2    0    0 -0.88817841970E-14  0.00000000000E+00  0.15761856864E+04  0.18666814583E+04  0.10000691720E+04 0.  0.
         25    2    3    3    0    0 -0.83291215153E+00 -0.12848580414E+03  0.39216944856E+03  0.43220320682E+03  0.12842678845E+03 0.  0.
         35    2    3    3    0    0  0.83291215153E+00  0.12848580414E+03  0.11840162378E+04  0.14344782515E+04  0.79957745523E+03 0.  0.
         22    1    5    5    0    0 -0.12751197803E+03  0.33816777511E+03  0.18567943261E+03  0.40631711798E+03  0.00000000000E+00 0.  1.
         22    1    5    5    0    0  0.12834489018E+03 -0.20968197097E+03  0.99833680523E+03  0.10281611335E+04  0.00000000000E+00 0.  1.
          5    1    4    4  502    0  0.24818263257E+01  0.64859419789E+01  0.18305384217E+03  0.18324580770E+03  0.47000000000E+01 0. -1.
         -5    1    4    4    0  502 -0.33147384772E+01 -0.13497174612E+03  0.20911560639E+03  0.24895739913E+03  0.47000000000E+01 0. -1.
<mgrwt>
<rscale>  0 0.10000692E+04</rscale>
<asrwt>0</asrwt>
<pdfrwt beam="1">  1        1 0.26483592E+00 0.10000692E+04</pdfrwt>
<pdfrwt beam="2">  1       -1 0.22345830E-01 0.10000692E+04</pdfrwt>
<totfact> 0.83116825E+01</totfact>
</mgrwt>
</event>
<event>
 9    1  0.4342579E-036  0.9996893E+03  0.7818608E-02  0.8681334E-01
          1   -1    0    0  501    0  0.00000000000E+00  0.00000000000E+00  0.72237187129E+03  0.72237187129E+03  0.00000000000E+00 0.  1.
         -1   -1    0    0    0  501 -0.00000000000E+00 -0.00000000000E+00 -0.34586712467E+03  0.34586712467E+03  0.00000000000E+00 0.  1.
         36    2    1    2    0    0 -0.28421709430E-13  0.28421709430E-13  0.37650474662E+03  0.10682389960E+04  0.99968931586E+03 0.  0.
         25    2    3    3    0    0  0.10300577659E+03  0.81650065467E+02  0.12192124205E+03  0.21861940623E+03  0.12511088008E+03 0.  0.
         35    2    3    3    0    0 -0.10300577659E+03 -0.81650065467E+02  0.25458350457E+03  0.84961958972E+03  0.79985233840E+03 0.  0.
         22    1    5    5    0    0 -0.89594133846E+02 -0.43055712595E+03  0.23802501623E+03  0.50006245197E+03  0.00000000000E+00 0. -1.
         22    1    5    5    0    0 -0.13411642743E+02  0.34890706048E+03  0.16558488337E+02  0.34955713775E+03  0.00000000000E+00 0. -1.
          5    1    4    4  502    0  0.86465570427E+02  0.41704302450E+02  0.77252104085E+01  0.96422573021E+02  0.47000000000E+01 0. -1.
         -5    1    4    4    0  502  0.16540206163E+02  0.39945763017E+02  0.11419603165E+03  0.12219683321E+03  0.47000000000E+01 0. -1.
<mgrwt>
<rscale>  0 0.99968932E+03</rscale>
<asrwt>0</asrwt>
<pdfrwt beam="1">  1        1 0.11113413E+00 0.99968932E+03</pdfrwt>
<pdfrwt beam="2">  1       -1 0.53210327E-01 0.99968932E+03</pdfrwt>
<totfact> 0.10612822E+02</totfact>
</mgrwt>
</event>
<event>
 9    1  0.4342579E-036  0.1000213E+04  0.7818608E-02  0.8680835E-01
          1   -1    0    0  501    0  0.00000000000E+00  0.00000000000E+00  0.31936947582E+03  0.31936947582E+03  0.00000000000E+00 0.  1.
         -1   -1    0    0    0  501 -0.00000000000E+00 -0.00000000000E+00 -0.78312588047E+03  0.78312588047E+03  0.00000000000E+00 0.  1.
         36    2    1    2    0    0  0.00000000000E+00  0.00000000000E+00 -0.46375640464E+03  0.11024953563E+04  0.10002129812E+04 0.  0.
         25    2    3    3    0    0  0.10082580301E+03  0.67293260366E+02 -0.16265571816E+03  0.23877031647E+03  0.12593711102E+03 0.  0.
         35    2    3    3    0    0 -0.10082580301E+03 -0.67293260366E+02 -0.30110068648E+03  0.86372503982E+03  0.80041557680E+03 0.  0.
         22    1    5    5    0    0  0.10245559535E+03  0.62611994416E+02  0.24161543564E+03  0.26980628162E+03  0.00000000000E+00 0. -1.
         22    1    5    5    0    0 -0.20328139836E+03 -0.12990525478E+03 -0.54271612212E+03  0.59391875821E+03  0.00000000000E+00 0. -1.
          5    1    4    4  502    0  0.59355061495E+02 -0.27044353131E+02 -0.33505309912E+02  0.73478678224E+02  0.47000000000E+01 0.  1.
         -5    1    4    4    0  502  0.41470741515E+02  0.94337613497E+02 -0.12915040825E+03  0.16529163824E+03  0.47000000000E+01 0.  1.
<mgrwt>
<rscale>  0 0.10002130E+04</rscale>
<asrwt>0</asrwt>
<pdfrwt beam="1">  1        1 0.49133766E-01 0.10002130E+04</pdfrwt>
<pdfrwt beam="2">  1       -1 0.12048090E+00 0.10002130E+04</pdfrwt>
<totfact> 0.59516988E+01</totfact>
</mgrwt>
</event>
<event>
 9    1  0.4342579E-036  0.9998662E+03  0.7818608E-02  0.8681165E-01
          2   -1    0    0  501    0  0.00000000000E+00  0.00000000000E+00  0.91387534950E+03  0.91387534950E+03  0.00000000000E+00 0.  1.
         -2   -1    0    0    0  501 -0.00000000000E+00 -0.00000000000E+00 -0.27348708763E+03  0.27348708763E+03  0.00000000000E+00 0.  1.
         36    2    1    2    0    0  0.17763568394E-13 -0.28421709430E-13  0.64038826186E+03  0.11873624371E+04  0.99986620664E+03 0.  0.
         25    2    3    3    0    0 -0.25566256426E+02 -0.13657959949E+03  0.91728613728E+02  0.20716602232E+03  0.12327206400E+03 0.  0.
         35    2    3    3    0    0  0.25566256426E+02  0.13657959949E+03  0.54865964814E+03  0.98019641482E+03  0.80028118912E+03 0.  0.
         22    1    5    5    0    0  0.29542378476E+03  0.21472383852E+03  0.16048380605E+01  0.36521790062E+03  0.00000000000E+00 0.  1.
         22    1    5    5    0    0 -0.26985752833E+03 -0.78144239033E+02  0.54705481008E+03  0.61497851419E+03  0.00000000000E+00 0.  1.
          5    1    4    4  502    0  0.50831722852E+01 -0.14314245471E+03  0.99583759579E+02  0.17451251002E+03  0.47000000000E+01 0. -1.
         -5    1    4    4    0  502 -0.30649428711E+02  0.65628552261E+01 -0.78551458510E+01  0.32653512298E+02  0.47000000000E+01 0. -1.
<mgrwt>
<rscale>  0 0.99986621E+03</rscale>
<asrwt>0</asrwt>
<pdfrwt beam="1">  1        2 0.14059621E+00 0.99986621E+03</pdfrwt>
<pdfrwt beam="2">  1       -2 0.42074937E-01 0.99986621E+03</pdfrwt>
<totfact> 0.18583133E+02</totfact>
</mgrwt>
</event>
<event>
 9    1  0.4342579E-036  0.9992693E+03  0.7818608E-02  0.8681734E-01
          1   -1    0    0  501    0  0.00000000000E+00  0.00000000000E+00  0.55303440420E+03  0.55303440420E+03  0.00000000000E+00 0. -1.
         -1   -1    0    0    0  501 -0.00000000000E+00 -0.00000000000E+00 -0.45139109762E+03  0.45139109762E+03  0.00000000000E+00 0. -1.
         36    2    1    2    0    0  0.00000000000E+00 -0.28421709430E-13  0.10164330658E+03  0.10044255018E+04  0.99926934655E+03 0.  0.
         25    2    3    3    0    0 -0.10398034397E+03 -0.91165131835E+02  0.37464846753E+02  0.19000351064E+03  0.12479874247E+03 0.  0.
         35    2    3    3    0    0  0.10398034397E+03  0.91165131835E+02  0.64178459827E+02  0.81442199118E+03  0.80002581947E+03 0.  0.
         22    1    5    5    0    0  0.15013317245E+03  0.39819760863E+03  0.20633523545E+03  0.47294347906E+03  0.00000000000E+00 0.  1.
         22    1    5    5    0    0 -0.46152828486E+02 -0.30703247680E+03 -0.14215677563E+03  0.34147851213E+03  0.00000000000E+00 0.  1.
          5    1    4    4  502    0 -0.48033848248E+02 -0.82634676778E+02  0.75296570690E+02  0.12176782802E+03  0.47000000000E+01 0.  1.
         -5    1    4    4    0  502 -0.55946495717E+02 -0.85304550562E+01 -0.37831723938E+02  0.68235682620E+02  0.47000000000E+01 0.  1.
<mgrwt>
<rscale>  0 0.99926935E+03</rscale>
<asrwt>0</asrwt>
<pdfrwt beam="1">  1        1 0.85082216E-01 0.99926935E+03</pdfrwt>
<pdfrwt beam="2">  1       -1 0.69444784E-01 0.99926935E+03</pdfrwt>
<totfact> 0.94571647E+01</totfact>
</mgrwt>
</event>
<event>
 9    1  0.4342579E-036  0.9989926E+03  0.7818608E-02  0.8681998E-01
         -2   -1    0    0    0  501 -0.00000000000E+00  0.00000000000E+00  0.12391992384E+03  0.12391992384E+03  0.00000000000E+00 0. -1.
          2   -1    0    0  501    0  0.00000000000E+00 -0.00000000000E+00 -0.20133693225E+04  0.20133693225E+04  0.00000000000E+00 0. -1.
         36    2    1    2    0    0  0.21316282073E-13 -0.14210854715E-13 -0.18894493987E+04  0.21372892464E+04  0.99899263883E+03 0.  0.
         25    2    3    3    0    0  0.41310284744E+02  0.66789033265E+02 -0.10672289610E+03  0.18207986216E+03  0.12488388632E+03 0.  0.
         35    2    3    3    0    0 -0.41310284744E+02 -0.66789033265E+02 -0.17827265026E+04  0.19552093842E+04  0.79910114408E+03 0.  0.
         22    1    5    5    0    0 -0.41353792381E+03  0.39206676030E+02 -0.88723210957E+03  0.97965891724E+03  0.00000000000E+00 0. -1.
         22    1    5    5    0    0  0.37222763906E+03 -0.10599570930E+03 -0.89549439300E+03  0.97555046695E+03  0.00000000000E+00 0. -1.
          5    1    4    4  502    0  0.25551639329E+02  0.28355620993E+01  0.24090873767E+02  0.35544154001E+02  0.47000000000E+01 0. -1.
         -5    1    4    4    0  502  0.15758645415E+02  0.63953471166E+02 -0.13081376987E+03  0.14653570816E+03  0.47000000000E+01 0. -1.
<mgrwt>
<rscale>  0 0.99899264E+03</rscale>
<asrwt>0</asrwt>
<pdfrwt beam="1">  1        2 0.30974908E+00 0.99899264E+03</pdfrwt>
<pdfrwt beam="2">  1       -2 0.19064607E-01 0.99899264E+03</pdfrwt>
<totfact> 0.17890991E+02</totfact>
</mgrwt>
</event>
<event>
 9    1  0.4342579E-036  0.9997439E+03  0.7818608E-02  0.8681282E-01
         -2   -1    0    0    0  501 -0.00000000000E+00  0.00000000000E+00  0.25005366930E+03  0.25005366930E+03  0.00000000000E+00 0. -1.
          2   -1    0    0  501    0  0.00000000000E+00 -0.00000000000E+00 -0.99927334514E+03  0.99927334514E+03  0.00000000000E+00 0. -1.
         36    2    1    2    0    0  0.14210854715E-13 -0.71054273576E-14 -0.74921967584E+03  0.12493270144E+04  0.99974390038E+03 0.  0.
         25    2    3    3    0    0  0.12365420006E+03  0.32358754385E+02 -0.69632229641E+02  0.19222916193E+03  0.12556254662E+03 0.  0.
         35    2    3    3    0    0 -0.12365420006E+03 -0.32358754385E+02 -0.67958744620E+03  0.10570978525E+04  0.79954944973E+03 0.  0.
         22    1    5    5    0    0 -0.88472671482E+01 -0.50390806955E+02 -0.84961194986E+03  0.85115096952E+03  0.00000000000E+00 0. -1.
         22    1    5    5    0    0 -0.11480693291E+03  0.18032052569E+02  0.17002450367E+03  0.20594688299E+03  0.00000000000E+00 0. -1.
          5    1    4    4  502    0  0.52155734977E+02  0.30249620071E+02  0.31562833649E+02  0.68217026272E+02  0.47000000000E+01 0.  1.
         -5    1    4    4    0  502  0.71498465085E+02  0.21091343142E+01 -0.10119506329E+03  0.12401213566E+03  0.47000000000E+01 0.  1.
<mgrwt>
<rscale>  0 0.99974390E+03</rscale>
<asrwt>0</asrwt>
<pdfrwt beam="1">  1        2 0.15373436E+00 0.99974390E+03</pdfrwt>
<pdfrwt beam="2">  1       -2 0.38469797E-01 0.99974390E+03</pdfrwt>
<totfact> 0.19452075E+02</totfact>
</mgrwt>
</event>
<event>
 9    1  0.4342579E-036  0.9984891E+03  0.7818608E-02  0.8682478E-01
         -2   -1    0    0    0  501 -0.00000000000E+00  0.00000000000E+00  0.12425279183E+03  0.12425279183E+03  0.00000000000E+00 0. -1.
          2   -1    0    0  501    0  0.00000000000E+00 -0.00000000000E+00 -0.20059517081E+04  0.20059517081E+04  0.00000000000E+00 0. -1.
         36    2    1    2    0    0 -0.28421709430E-13  0.00000000000E+00 -0.18816989163E+04  0.21302045000E+04  0.99848905856E+03 0.  0.
         25    2    3    3    0    0 -0.10105228743E+03  0.95554162855E+02 -0.36824024451E+03  0.41254416995E+03  0.12348947990E+03 0.  0.
         35    2    3    3    0    0  0.10105228743E+03 -0.95554162855E+02 -0.15134586718E+04  0.17176603300E+04  0.80028600841E+03 0.  0.
         22    1    5    5    0    0 -0.25912572359E+03  0.81661390343E+02 -0.18201878431E+03  0.32702532187E+03  0.00000000000E+00 0.  1.
         22    1    5    5    0    0  0.36017801102E+03 -0.17721555320E+03 -0.13314398875E+04  0.13906350082E+04  0.00000000000E+00 0.  1.
          5    1    4    4  502    0 -0.56312393969E+01 -0.15500730952E+01 -0.18015186520E+03  0.18030778719E+03  0.47000000000E+01 0. -1.
         -5    1    4    4    0  502 -0.95421048031E+02  0.97104235950E+02 -0.18808837931E+03  0.23223638276E+03  0.47000000000E+01 0. -1.
<mgrwt>
<rscale>  0 0.99848906E+03</rscale>
<asrwt>0</asrwt>
<pdfrwt beam="1">  1        2 0.30860795E+00 0.99848906E+03</pdfrwt>
<pdfrwt beam="2">  1       -2 0.19115815E-01 0.99848906E+03</pdfrwt>
<totfact> 0.17982965E+02</totfact>
</mgrwt>
</event>
<event>
 9    1  0.4342579E-036  0.1000547E+04  0.7818608E-02  0.8680517E-01
          1   -1    0    0  501    0  0.00000000000E+00  0.00000000000E+00  0.15950302476E+04  0.15950302476E+04  0.00000000000E+00 0.  1.
         -1   -1    0    0    0  501 -0.00000000000E+00 -0.00000000000E+00 -0.15690841539E+03  0.15690841539E+03  0.00000000000E+00 0.  1.
         36    2    1    2    0    0  0.14210854715E-13  0.28421709430E-13  0.14381218322E+04  0.17519386630E+04  0.10005471876E+04 0.  0.
         25    2    3    3    0    0  0.67923629723E+02  0.42182655278E+02  0.47677724577E+03  0.49916888189E+03  0.12433838778E+03 0.  0.
         35    2    3    3    0    0 -0.67923629723E+02 -0.42182655278E+02  0.96134458647E+03  0.12527697811E+04  0.79928450172E+03 0.  0.
         22    1    5    5    0    0 -0.12218399466E+03 -0.33581236029E+03  0.86996589421E+03  0.94049961561E+03  0.00000000000E+00 0.  1.
         22    1    5    5    0    0  0.54260364942E+02  0.29362970502E+03  0.91378692261E+02  0.31227016551E+03  0.00000000000E+00 0.  1.
          5    1    4    4  502    0  0.39769111499E+02  0.84765437083E+02  0.25917148569E+03  0.27560607858E+03  0.47000000000E+01 0.  1.
         -5    1    4    4    0  502  0.28154518223E+02 -0.42582781805E+02  0.21760576008E+03  0.22356280331E+03  0.47000000000E+01 0.  1.
<mgrwt>
<rscale>  0 0.10005472E+04</rscale>
<asrwt>0</asrwt>
<pdfrwt beam="1">  1        1 0.24538926E+00 0.10005472E+04</pdfrwt>
<pdfrwt beam="2">  1       -1 0.24139757E-01 0.10005472E+04</pdfrwt>
<totfact> 0.89722418E+01</totfact>
</mgrwt>
</event>
<event>
 9    1  0.4342579E-036  0.1000689E+04  0.7818608E-02  0.8680382E-01
          2   -1    0    0  501    0  0.00000000000E+00  0.00000000000E+00  0.22510610926E+04  0.22510610926E+04  0.00000000000E+00 0. -1.
         -2   -1    0    0    0  501 -0.00000000000E+00 -0.00000000000E+00 -0.11121179480E+03  0.11121179480E+03  0.00000000000E+00 0. -1.
         36    2    1    2    0    0  0.53290705182E-14  0.14210854715E-13  0.21398492978E+04  0.23622728874E+04  0.10006888514E+04 0.  0.
         25    2    3    3    0    0 -0.14705609566E+02 -0.70524452328E+02  0.11920387840E+03  0.18774259799E+03  0.12588790706E+03 0.  0.
         35    2    3    3    0    0  0.14705609566E+02  0.70524452328E+02  0.20206454194E+04  0.21745302894E+04  0.80024003606E+03 0.  0.
         22    1    5    5    0    0  0.11010672862E+03 -0.32901216412E+03  0.12951874637E+04  0.13408516182E+04  0.00000000000E+00 0.  1.
         22    1    5    5    0    0 -0.95401119049E+02  0.39953661645E+03  0.72545795574E+03  0.83367867128E+03  0.00000000000E+00 0.  1.
          5    1    4    4  502    0  0.49288643429E+01  0.34085639297E+02  0.49280504010E+02  0.60305742558E+02  0.47000000000E+01 0. -1.
         -5    1    4    4    0  502 -0.19634473909E+02 -0.10461009162E+03  0.69923374388E+02  0.12743685543E+03  0.47000000000E+01 0. -1.
<mgrwt>
<rscale>  0 0.10006889E+04</rscale>
<asrwt>0</asrwt>
<pdfrwt beam="1">  1        2 0.34631706E+00 0.10006889E+04</pdfrwt>
<pdfrwt beam="2">  1       -2 0.17109508E-01 0.10006889E+04</pdfrwt>
<totfact> 0.15697020E+02</totfact>
</mgrwt>
</event>
<event>
 9    1  0.4342579E-036  0.9998662E+03  0.7818608E-02  0.8681165E-01
          2   -1    0    0  501    0  0.00000000000E+00  0.00000000000E+00  0.15990001803E+04  0.15990001803E+04  0.00000000000E+00 0.  1.
         -2   -1    0    0    0  501 -0.00000000000E+00 -0.00000000000E+00 -0.15630587533E+03  0.15630587533E+03  0.00000000000E+00 0.  1.
         36    2    1    2    0    0  0.00000000000E+00 -0.71054273576E-14  0.14426943050E+04  0.17553060557E+04  0.99986623673E+03 0.  0.
         25    2    3    3    0    0 -0.92356376618E+02  0.32457376099E+02  0.45068576003E+03  0.47741267035E+03  0.12337755852E+03 0.  0.
         35    2    3    3    0    0  0.92356376618E+02 -0.32457376099E+02  0.99200854499E+03  0.12778933853E+04  0.79959200182E+03 0.  0.
         22    1    5    5    0    0 -0.27228512669E+03 -0.22447890960E+03  0.66103058238E+03  0.74932729959E+03  0.00000000000E+00 0.  1.
         22    1    5    5    0    0  0.36464150331E+03  0.19202153350E+03  0.33097796260E+03  0.52856608574E+03  0.00000000000E+00 0.  1.
          5    1    4    4  502    0 -0.31462123124E+02 -0.47114666133E+02  0.17834321703E+03  0.18718453466E+03  0.47000000000E+01 0. -1.
         -5    1    4    4    0  502 -0.60894253494E+02  0.79572042232E+02  0.27234254301E+03  0.29022813569E+03  0.47000000000E+01 0. -1.
<mgrwt>
<rscale>  0 0.99986624E+03</rscale>
<asrwt>0</asrwt>
<pdfrwt beam="1">  1        2 0.24600002E+00 0.99986624E+03</pdfrwt>
<pdfrwt beam="2">  1       -2 0.24047059E-01 0.99986624E+03</pdfrwt>
<totfact> 0.20468086E+02</totfact>
</mgrwt>
</event>
<event>
 9    1  0.4342579E-036  0.9975581E+03  0.7818608E-02  0.8683367E-01
          2   -1    0    0  501    0  0.00000000000E+00  0.00000000000E+00  0.39945173222E+03  0.39945173222E+03  0.00000000000E+00 0. -1.
         -2   -1    0    0    0  501 -0.00000000000E+00 -0.00000000000E+00 -0.62280506404E+03  0.62280506404E+03  0.00000000000E+00 0. -1.
         36    2    1    2    0    0  0.00000000000E+00  0.17763568394E-13 -0.22335333183E+03  0.10222567963E+04  0.99755814199E+03 0.  0.
         25    2    3    3    0    0  0.13287471520E+03  0.98521900152E+01 -0.79294842042E+02  0.19873112277E+03  0.12431263650E+03 0.  0.
         35    2    3    3    0    0 -0.13287471520E+03 -0.98521900152E+01 -0.14405848978E+03  0.82352567349E+03  0.79980555814E+03 0.  0.
         22    1    5    5    0    0 -0.32514794454E+03  0.23802110526E+03 -0.27046586745E+03  0.48531125872E+03  0.00000000000E+00 0.  1.
         22    1    5    5    0    0  0.19227322934E+03 -0.24787329527E+03  0.12640737767E+03  0.33821441477E+03  0.00000000000E+00 0.  1.
          5    1    4    4  502    0  0.45083229776E+02 -0.26359278499E+02  0.24579640315E+02  0.57909911829E+02  0.47000000000E+01 0.  1.
         -5    1    4    4    0  502  0.87791485427E+02  0.36211468514E+02 -0.10387448236E+03  0.14082121094E+03  0.47000000000E+01 0.  1.
<mgrwt>
<rscale>  0 0.99755814E+03</rscale>
<asrwt>0</asrwt>
<pdfrwt beam="1">  1        2 0.61454113E-01 0.99755814E+03</pdfrwt>
<pdfrwt beam="2">  1       -2 0.95816163E-01 0.99755814E+03</pdfrwt>
<totfact> 0.86685346E+01</totfact>
</mgrwt>
</event>
<event>
 9    1  0.4342579E-036  0.1000059E+04  0.7818608E-02  0.8680982E-01
         -2   -1    0    0    0  501 -0.00000000000E+00  0.00000000000E+00  0.79004945459E+03  0.79004945459E+03  0.00000000000E+00 0.  1.
          2   -1    0    0  501    0  0.00000000000E+00 -0.00000000000E+00 -0.31647299157E+03  0.31647299157E+03  0.00000000000E+00 0.  1.
         36    2    1    2    0    0 -0.14210854715E-13  0.10658141036E-13  0.47357646302E+03  0.11065224462E+04  0.10000586270E+04 0.  0.
         25    2    3    3    0    0  0.12110064037E+03 -0.28964394010E+02  0.16080002559E+03  0.23875994729E+03  0.12508142540E+03 0.  0.
         35    2    3    3    0    0 -0.12110064037E+03  0.28964394010E+02  0.31277643743E+03  0.86776249887E+03  0.79979894562E+03 0.  0.
         22    1    5    5    0    0 -0.10673161037E+03 -0.30530293647E+03  0.40729937583E+03  0.52009066634E+03  0.00000000000E+00 0. -1.
         22    1    5    5    0    0 -0.14369029996E+02  0.33426733048E+03 -0.94522938397E+02  0.34767183252E+03  0.00000000000E+00 0. -1.
          5    1    4    4  502    0  0.14643885245E+03 -0.18271296363E+02  0.12560715917E+03  0.19384897785E+03  0.47000000000E+01 0. -1.
         -5    1    4    4    0  502 -0.25338212084E+02 -0.10693097647E+02  0.35192866419E+02  0.44910969436E+02  0.47000000000E+01 0. -1.
<mgrwt>
<rscale>  0 0.10000586E+04</rscale>
<asrwt>0</asrwt>
<pdfrwt beam="1">  1        2 0.48688153E-01 0.10000586E+04</pdfrwt>
<pdfrwt beam="2">  1       -2 0.12154607E+00 0.10000586E+04</pdfrwt>
<totfact> 0.61933980E+01</totfact>
</mgrwt>
</event>
<event>
 9    1  0.4342579E-036  0.9985644E+03  0.7818608E-02  0.8682406E-01
          2   -1    0    0  501    0  0.00000000000E+00  0.00000000000E+00  0.57738557729E+03  0.57738557729E+03  0.00000000000E+00 0. -1.
         -2   -1    0    0    0  501 -0.00000000000E+00 -0.00000000000E+00 -0.43174389987E+03  0.43174389987E+03  0.00000000000E+00 0. -1.
         36    2    1    2    0    0  0.00000000000E+00  0.00000000000E+00  0.14564167742E+03  0.10091294772E+04  0.99856437122E+03 0.  0.
         25    2    3    3    0    0 -0.90988674741E+02  0.69105019859E+02  0.10225896679E+03  0.19839031400E+03  0.12588636820E+03 0.  0.
         35    2    3    3    0    0  0.90988674741E+02 -0.69105019859E+02  0.43382710622E+02  0.81073916315E+03  0.80147457127E+03 0.  0.
         22    1    5    5    0    0 -0.32319461573E+03 -0.55848829913E+02 -0.14120793006E+03  0.35709036804E+03  0.00000000000E+00 0. -1.
         22    1    5    5    0    0  0.41418329047E+03 -0.13256189946E+02  0.18459064068E+03  0.45364879511E+03  0.00000000000E+00 0. -1.
          5    1    4    4  502    0  0.27316646718E+02  0.36542512611E+02  0.39281307390E+02  0.60387627260E+02  0.47000000000E+01 0. -1.
         -5    1    4    4    0  502 -0.11830532146E+03  0.32562507248E+02  0.62977659404E+02  0.13800268674E+03  0.47000000000E+01 0. -1.
<mgrwt>
<rscale>  0 0.99856437E+03</rscale>
<asrwt>0</asrwt>
<pdfrwt beam="1">  1        2 0.88828551E-01 0.99856437E+03</pdfrwt>
<pdfrwt beam="2">  1       -2 0.66422138E-01 0.99856437E+03</pdfrwt>
<totfact> 0.13094880E+02</totfact>
</mgrwt>
</event>
<event>
 9    1  0.4342579E-036  0.9986766E+03  0.7818608E-02  0.8682299E-01
          1   -1    0    0  501    0  0.00000000000E+00  0.00000000000E+00  0.71499045069E+03  0.71499045069E+03  0.00000000000E+00 0. -1.
         -1   -1    0    0    0  501 -0.00000000000E+00 -0.00000000000E+00 -0.34873017471E+03  0.34873017471E+03  0.00000000000E+00 0. -1.
         36    2    1    2    0    0 -0.14210854715E-13  0.28421709430E-13  0.36626027598E+03  0.10637206254E+04  0.99867661390E+03 0.  0.
         25    2    3    3    0    0  0.48058005286E+02 -0.12111738615E+03  0.12338497078E+03  0.21886172446E+03  0.12529010463E+03 0.  0.
         35    2    3    3    0    0 -0.48058005286E+02  0.12111738615E+03  0.24287530520E+03  0.84485890095E+03  0.79863580908E+03 0.  0.
         22    1    5    5    0    0  0.17026461726E+03  0.27886868127E+03 -0.15717973716E+03  0.36257861363E+03  0.00000000000E+00 0. -1.
         22    1    5    5    0    0 -0.21832262255E+03 -0.15775129513E+03  0.40005504235E+03  0.48228028733E+03  0.00000000000E+00 0. -1.
          5    1    4    4  502    0  0.42340388730E+02  0.13417000822E+02  0.42823778975E+02  0.61876412910E+02  0.47000000000E+01 0. -1.
         -5    1    4    4    0  502  0.57176165567E+01 -0.13453438697E+03  0.80561191806E+02  0.15698531155E+03  0.47000000000E+01 0. -1.
<mgrwt>
<rscale>  0 0.99867661E+03</rscale>
<asrwt>0</asrwt>
<pdfrwt beam="1">  1        1 0.10999853E+00 0.99867661E+03</pdfrwt>
<pdfrwt beam="2">  1       -1 0.53650796E-01 0.99867661E+03</pdfrwt>
<totfact> 0.10619195E+02</totfact>
</mgrwt>
</event>
<event>
 9    1  0.4342579E-036  0.9995431E+03  0.7818608E-02  0.8681473E-01
         -1   -1    0    0    0  501 -0.00000000000E+00  0.00000000000E+00  0.11361051887E+03  0.11361051887E+03  0.00000000000E+00 0. -1.
          1   -1    0    0  501    0  0.00000000000E+00 -0.00000000000E+00 -0.21984900130E+04  0.21984900130E+04  0.00000000000E+00 0. -1.
         36    2    1    2    0    0 -0.88817841970E-14  0.28421709430E-13 -0.20848794941E+04  0.23121005319E+04  0.99954307780E+03 0.  0.
         25    2    3    3    0    0  0.11522568804E+02 -0.11527801968E+03 -0.21930829144E+03  0.27883932040E+03  0.12741055094E+03 0.  0.
         35    2    3    3    0    0 -0.11522568804E+02  0.11527801968E+03 -0.18655712027E+04  0.20332612115E+04  0.80023337242E+03 0.  0.
         22    1    5    5    0    0 -0.21825130016E+03  0.42581382257E+02 -0.83125856180E+02  0.23739568678E+03  0.00000000000E+00 0.  1.
         22    1    5    5    0    0  0.20672873136E+03  0.72696637422E+02 -0.17824453465E+04  0.17958655247E+04  0.00000000000E+00 0.  1.
          5    1    4    4  502    0  0.82840464271E+01 -0.75279606632E+02 -0.22553611658E+03  0.23795855623E+03  0.47000000000E+01 0.  1.
         -5    1    4    4    0  502  0.32385223770E+01 -0.39998413047E+02  0.62278251348E+01  0.40880764173E+02  0.47000000000E+01 0.  1.
<mgrwt>
<rscale>  0 0.99954308E+03</rscale>
<asrwt>0</asrwt>
<pdfrwt beam="1">  1        1 0.33822922E+00 0.99954308E+03</pdfrwt>
<pdfrwt beam="2">  1       -1 0.17478542E-01 0.99954308E+03</pdfrwt>
<totfact> 0.57685106E+01</totfact>
</mgrwt>
</event>
<event>
 9    1  0.4342579E-036  0.1000164E+04  0.7818608E-02  0.8680881E-01
          2   -1    0    0  501    0  0.00000000000E+00  0.00000000000E+00  0.16285148629E+04  0.16285148629E+04  0.00000000000E+00 0. -1.
         -2   -1    0    0    0  501 -0.00000000000E+00 -0.00000000000E+00 -0.15356455843E+03  0.15356455843E+03  0.00000000000E+00 0. -1.
         36    2    1    2    0    0  0.14210854715E-13  0.14210854715E-13  0.14749503045E+04  0.17820794213E+04  0.10001643181E+04 0.  0.
         25    2    3    3    0    0 -0.12023113838E+03 -0.56703270199E+02  0.32614840556E+03  0.37360353269E+03  0.12464361076E+03 0.  0.
         35    2    3    3    0    0  0.12023113838E+03  0.56703270199E+02  0.11488018989E+04  0.14084758886E+04  0.80398242420E+03 0.  0.
         22    1    5    5    0    0 -0.39645015584E+01 -0.17662351200E+03 -0.47806396918E+02  0.18302194910E+03  0.00000000000E+00 0. -1.
         22    1    5    5    0    0  0.12419563994E+03  0.23332678220E+03  0.11966082958E+04  0.12254539395E+04  0.00000000000E+00 0. -1.
          5    1    4    4  502    0 -0.13958174250E+03 -0.51395268439E+02  0.22087135667E+03  0.26632833618E+03  0.47000000000E+01 0.  1.
         -5    1    4    4    0  502  0.19350604121E+02 -0.53080017601E+01  0.10527704889E+03  0.10727519651E+03  0.47000000000E+01 0.  1.
<mgrwt>
<rscale>  0 0.10001643E+04</rscale>
<asrwt>0</asrwt>
<pdfrwt beam="1">  1        2 0.25054074E+00 0.10001643E+04</pdfrwt>
<pdfrwt beam="2">  1       -2 0.23625318E-01 0.10001643E+04</pdfrwt>
<totfact> 0.20323754E+02</totfact>
</mgrwt>
</event>
<event>
 9    1  0.4342579E-036  0.9983403E+03  0.7818608E-02  0.8682620E-01
          3   -1    0    0  501    0  0.00000000000E+00  0.00000000000E+00  0.18705713763E+04  0.18705713763E+04  0.00000000000E+00 0.  1.
         -3   -1    0    0    0  501 -0.00000000000E+00 -0.00000000000E+00 -0.13320574122E+03  0.13320574122E+03  0.00000000000E+00 0.  1.
         36    2    1    2    0    0  0.00000000000E+00  0.00000000000E+00  0.17373656350E+04  0.20037771175E+04  0.99834031607E+03 0.  0.
         25    2    3    3    0    0  0.10589483016E+03 -0.79489054279E+02  0.41156665059E+03  0.45000578359E+03  0.12484339222E+03 0.  0.
         35    2    3    3    0    0 -0.10589483016E+03  0.79489054279E+02  0.13257989845E+04  0.15537713339E+04  0.79933108661E+03 0.  0.
         22    1    5    5    0    0 -0.25035623856E+03 -0.16263851498E+03  0.12144910964E+04  0.12506470949E+04  0.00000000000E+00 0.  1.
         22    1    5    5    0    0  0.14446140841E+03  0.24212756926E+03  0.11130788804E+03  0.30312423897E+03  0.00000000000E+00 0.  1.
          5    1    4    4  502    0  0.90125596962E+02  0.88344703693E+01  0.17826672989E+03  0.20000447015E+03  0.47000000000E+01 0.  1.
         -5    1    4    4    0  502  0.15769233195E+02 -0.88323524648E+02  0.23329992070E+03  0.25000131343E+03  0.47000000000E+01 0.  1.
<mgrwt>
<rscale>  0 0.99834032E+03</rscale>
<asrwt>0</asrwt>
<pdfrwt beam="1">  1        3 0.28778019E+00 0.99834032E+03</pdfrwt>
<pdfrwt beam="2">  1       -3 0.20493192E-01 0.99834032E+03</pdfrwt>
<totfact> 0.42663158E+00</totfact>
</mgrwt>
</event>
<event>
 9    1  0.4342579E-036  0.9992741E+03  0.7818608E-02  0.8681730E-01
         -2   -1    0    0    0  501 -0.00000000000E+00  0.00000000000E+00  0.20350254451E+03  0.20350254451E+03  0.00000000000E+00 0. -1.
          2   -1    0    0  501    0  0.00000000000E+00 -0.00000000000E+00 -0.12267029655E+04  0.12267029655E+04  0.00000000000E+00 0. -1.
         36    2    1    2    0    0  0.28421709430E-13  0.00000000000E+00 -0.10232004210E+04  0.14302055100E+04  0.99927408618E+03 0.  0.
         25    2    3    3    0    0 -0.85944368005E+02  0.10697828449E+03 -0.23442589521E+03  0.29883203366E+03  0.12455639786E+03 0.  0.
         35    2    3    3    0    0  0.85944368005E+02 -0.10697828449E+03 -0.78877452575E+03  0.11313734763E+04  0.79938094968E+03 0.  0.
         22    1    5    5    0    0  0.16210701459E+03 -0.54426428279E+02 -0.93926852620E+03  0.95470743403E+03  0.00000000000E+00 0.  1.
         22    1    5    5    0    0 -0.76162646584E+02 -0.52551856213E+02  0.15049400045E+03  0.17666604229E+03  0.00000000000E+00 0.  1.
          5    1    4    4  502    0 -0.25045848445E+01  0.46044584386E+02 -0.43222491710E+01  0.46552642615E+02  0.47000000000E+01 0. -1.
         -5    1    4    4    0  502 -0.83439783161E+02  0.60933700106E+02 -0.23010364604E+03  0.25227939104E+03  0.47000000000E+01 0. -1.
<mgrwt>
<rscale>  0 0.99927409E+03</rscale>
<asrwt>0</asrwt>
<pdfrwt beam="1">  1        2 0.18872353E+00 0.99927409E+03</pdfrwt>
<pdfrwt beam="2">  1       -2 0.31308084E-01 0.99927409E+03</pdfrwt>
<totfact> 0.20800044E+02</totfact>
</mgrwt>
</event>
<event>
 9    1  0.4342579E-036  0.1000347E+04  0.7818608E-02  0.8680707E-01
          1   -1    0    0  501    0  0.00000000000E+00  0.00000000000E+00  0.30097392659E+03  0.30097392659E+03  0.00000000000E+00 0. -1.
         -1   -1    0    0    0  501 -0.00000000000E+00 -0.00000000000E+00 -0.83121353005E+03  0.83121353005E+03  0.00000000000E+00 0. -1.
         36    2    1    2    0    0  0.00000000000E+00 -0.14210854715E-13 -0.53023960345E+03  0.11321874566E+04  0.10003471397E+04 0.  0.
         25    2    3    3    0    0 -0.19444528054E+01 -0.14982934841E+02  0.58482120334E+02  0.13875617397E+03  0.12491936672E+03 0.  0.
         35    2    3    3    0    0  0.19444528054E+01  0.14982934841E+02 -0.58872172379E+03  0.99343128267E+03  0.80005260833E+03 0.  0.
         22    1    5    5    0    0 -0.29496292631E+03 -0.19317376482E+03 -0.51383358269E+03  0.62317267431E+03  0.00000000000E+00 0. -1.
         22    1    5    5    0    0  0.29690737911E+03  0.20815669966E+03 -0.74888141099E+02  0.37025860836E+03  0.00000000000E+00 0. -1.
          5    1    4    4  502    0  0.23957423340E+02 -0.57673713258E+02  0.12272398913E+01  0.62640334065E+02  0.47000000000E+01 0. -1.
         -5    1    4    4    0  502 -0.25901876146E+02  0.42690778417E+02  0.57254880443E+02  0.76115839903E+02  0.47000000000E+01 0. -1.
<mgrwt>
<rscale>  0 0.10003471E+04</rscale>
<asrwt>0</asrwt>
<pdfrwt beam="1">  1        1 0.46303681E-01 0.10003471E+04</pdfrwt>
<pdfrwt beam="2">  1       -1 0.12787900E+00 0.10003471E+04</pdfrwt>
<totfact> 0.55326799E+01</totfact>
</mgrwt>
</event>
<event>
 9    1  0.4342579E-036  0.9995064E+03  0.7818608E-02  0.8681508E-01
          1   -1    0    0  501    0  0.00000000000E+00  0.00000000000E+00  0.60105855327E+03  0.60105855327E+03  0.00000000000E+00 0.  1.
         -1   -1    0    0    0  501 -0.00000000000E+00 -0.00000000000E+00 -0.41552232545E+03  0.41552232545E+03  0.00000000000E+00 0.  1.
         36    2    1    2    0    0  0.71054273576E-14  0.00000000000E+00  0.18553622783E+03  0.10165808787E+04  0.99950637374E+03 0.  0.
         25    2    3    3    0    0  0.23207188625E+02  0.12379107971E+03 -0.35138572554E+02  0.17967229097E+03  0.12322584081E+03 0.  0.
         35    2    3    3    0    0 -0.23207188625E+02 -0.12379107971E+03  0.22067480038E+03  0.83690858775E+03  0.79740567574E+03 0.  0.
         22    1    5    5    0    0 -0.13080647666E+03 -0.91705885773E+02 -0.28077597921E+03  0.32304094837E+03  0.00000000000E+00 0. -1.
         22    1    5    5    0    0  0.10759928804E+03 -0.32085193935E+02  0.50145077959E+03  0.51386763938E+03  0.00000000000E+00 0. -1.
          5    1    4    4  502    0  0.63838375996E+02  0.98507028423E+02 -0.52329457483E+02  0.12860573478E+03  0.47000000000E+01 0.  1.
         -5    1    4    4    0  502 -0.40631187371E+02  0.25284051285E+02  0.17190884928E+02  0.51066556190E+02  0.47000000000E+01 0.  1.
<mgrwt>
<rscale>  0 0.99950637E+03</rscale>
<asrwt>0</asrwt>
<pdfrwt beam="1">  1        1 0.92470547E-01 0.99950637E+03</pdfrwt>
<pdfrwt beam="2">  1       -1 0.63926511E-01 0.99950637E+03</pdfrwt>
<totfact> 0.98646447E+01</totfact>
</mgrwt>
</event>
<event>
 9    1  0.4342579E-036  0.9979942E+03  0.7818608E-02  0.8682950E-01
          2   -1    0    0  501    0  0.00000000000E+00  0.00000000000E+00  0.59361299381E+03  0.59361299381E+03  0.00000000000E+00 0.  1.
         -2   -1    0    0    0  501 -0.00000000000E+00 -0.00000000000E+00 -0.41946198821E+03  0.41946198821E+03  0.00000000000E+00 0.  1.
         36    2    1    2    0    0  0.00000000000E+00  0.28421709430E-13  0.17415100560E+03  0.10130749820E+04  0.99799416152E+03 0.  0.
         25    2    3    3    0    0  0.35173179755E+02  0.99687589306E+02  0.12197397972E+03  0.20427383527E+03  0.12520135787E+03 0.  0.
         35    2    3    3    0    0 -0.35173179755E+02 -0.99687589306E+02  0.52177025876E+02  0.80880114675E+03  0.80016378630E+03 0.  0.
         22    1    5    5    0    0  0.20462079539E+02  0.14817269957E+03  0.37166264542E+03  0.40063320830E+03  0.00000000000E+00 0. -1.
         22    1    5    5    0    0 -0.55635259294E+02 -0.24786028888E+03 -0.31948561954E+03  0.40816793844E+03  0.00000000000E+00 0. -1.
          5    1    4    4  502    0  0.13391730063E+02  0.81911978762E+02  0.43508821700E+01  0.83246206367E+02  0.47000000000E+01 0. -1.
         -5    1    4    4    0  502  0.21781449692E+02  0.17775610545E+02  0.11762309755E+03  0.12102762890E+03  0.47000000000E+01 0. -1.
<mgrwt>
<rscale>  0 0.99799416E+03</rscale>
<asrwt>0</asrwt>
<pdfrwt beam="1">  1        2 0.91325076E-01 0.99799416E+03</pdfrwt>
<pdfrwt beam="2">  1       -2 0.64532613E-01 0.99799416E+03</pdfrwt>
<totfact> 0.13478274E+02</totfact>
</mgrwt>
</event>
<event>
 9    1  0.4342579E-036  0.1000332E+04  0.7818608E-02  0.8680721E-01
          2   -1    0    0  501    0  0.00000000000E+00  0.00000000000E+00  0.10585509628E+04  0.10585509628E+04  0.00000000000E+00 0.  1.
         -2   -1    0    0    0  501 -0.00000000000E+00 -0.00000000000E+00 -0.23632895719E+03  0.23632895719E+03  0.00000000000E+00 0.  1.
         36    2    1    2    0    0  0.00000000000E+00 -0.14210854715E-13  0.82222200557E+03  0.12948799199E+04  0.10003324351E+04 0.  0.
         25    2    3    3    0    0  0.37222014618E+02 -0.11352941728E+03  0.25051710409E+03  0.30416058157E+03  0.12442038810E+03 0.  0.
         35    2    3    3    0    0 -0.37222014618E+02  0.11352941728E+03  0.57170490147E+03  0.99071933838E+03  0.80025240151E+03 0.  0.
         22    1    5    5    0    0 -0.12395526608E+03  0.43001262222E+03  0.18687014318E+03  0.48497032246E+03  0.00000000000E+00 0. -1.
         22    1    5    5    0    0  0.86733251466E+02 -0.31648320494E+03  0.38483475829E+03  0.50574901592E+03  0.00000000000E+00 0. -1.
          5    1    4    4  502    0  0.40376392162E+02 -0.39763620155E+02  0.21443800405E+03  0.22184937708E+03  0.47000000000E+01 0. -1.
         -5    1    4    4    0  502 -0.31543775440E+01 -0.73765797126E+02  0.36079100043E+02  0.82311204482E+02  0.47000000000E+01 0. -1.
<mgrwt>
<rscale>  0 0.10003324E+04</rscale>
<asrwt>0</asrwt>
<pdfrwt beam="1">  1        2 0.16285399E+00 0.10003324E+04</pdfrwt>
<pdfrwt beam="2">  1       -2 0.36358302E-01 0.10003324E+04</pdfrwt>
<totfact> 0.19881206E+02</totfact>
</mgrwt>
</event>
<event>
 9    1  0.4342579E-036  0.9992754E+03  0.7818608E-02  0.8681728E-01
         -2   -1    0    0    0  501 -0.00000000000E+00  0.00000000000E+00  0.70871823855E+03  0.70871823855E+03  0.00000000000E+00 0. -1.
          2   -1    0    0  501    0  0.00000000000E+00 -0.00000000000E+00 -0.35223848981E+03  0.35223848981E+03  0.00000000000E+00 0. -1.
         36    2    1    2    0    0  0.00000000000E+00  0.17763568394E-13  0.35647974874E+03  0.10609567284E+04  0.99927542159E+03 0.  0.
         25    2    3    3    0    0 -0.11593716720E+03 -0.50148547643E+01 -0.14504033290E+02  0.17039683811E+03  0.12392796275E+03 0.  0.
         35    2    3    3    0    0  0.11593716720E+03  0.50148547643E+01  0.37098378203E+03  0.89055989025E+03  0.80124988367E+03 0.  0.
         22    1    5    5    0    0 -0.11810239157E+03  0.16580881616E+03  0.52814251640E+03  0.56601701038E+03  0.00000000000E+00 0.  1.
         22    1    5    5    0    0  0.23403955876E+03 -0.16079396140E+03 -0.15715873436E+03  0.32454287987E+03  0.00000000000E+00 0.  1.
          5    1    4    4  502    0 -0.13065560139E+03  0.25800643611E+02 -0.69918866768E+00  0.13326341678E+03  0.47000000000E+01 0. -1.
         -5    1    4    4    0  502  0.14718434196E+02 -0.30815498376E+02 -0.13804844622E+02  0.37133421339E+02  0.47000000000E+01 0. -1.
<mgrwt>
<rscale>  0 0.99927542E+03</rscale>
<asrwt>0</asrwt>
<pdfrwt beam="1">  1        2 0.54190537E-01 0.99927542E+03</pdfrwt>
<pdfrwt beam="2">  1       -2 0.10903357E+00 0.99927542E+03</pdfrwt>
<totfact> 0.72644439E+01</totfact>
</mgrwt>
</event>
<event>
 9    1  0.4342579E-036  0.1000077E+04  0.7818608E-02  0.8680965E-01
          2   -1    0    0  501    0  0.00000000000E+00  0.00000000000E+00  0.12884965575E+04  0.12884965575E+04  0.00000000000E+00 0.  1.
         -2   -1    0    0    0  501 -0.00000000000E+00 -0.00000000000E+00 -0.19405440454E+03  0.19405440454E+03  0.00000000000E+00 0.  1.
         36    2    1    2    0    0  0.28421709430E-13  0.56843418861E-13  0.10944421529E+04  0.14825509620E+04  0.10000768615E+04 0.  0.
         25    2    3    3    0    0  0.60370360306E+02  0.12738217699E+03  0.20495656908E+03  0.27835577007E+03  0.12491573200E+03 0.  0.
         35    2    3    3    0    0 -0.60370360306E+02 -0.12738217699E+03  0.88948558386E+03  0.12041951920E+04  0.79939393107E+03 0.  0.
         22    1    5    5    0    0 -0.13964090866E+03  0.24885445867E+03  0.62391388175E+02  0.29209726170E+03  0.00000000000E+00 0.  1.
         22    1    5    5    0    0  0.79270548353E+02 -0.37623663567E+03  0.82709419569E+03  0.91209793027E+03  0.00000000000E+00 0.  1.
          5    1    4    4  502    0  0.96843627505E+02  0.92470153892E+02  0.12242881001E+03  0.18149468607E+03  0.47000000000E+01 0.  1.
         -5    1    4    4    0  502 -0.36473267199E+02  0.34912023103E+02  0.82527759065E+02  0.96861083999E+02  0.47000000000E+01 0.  1.
<mgrwt>
<rscale>  0 0.10000769E+04</rscale>
<asrwt>0</asrwt>
<pdfrwt beam="1">  1        2 0.19823023E+00 0.10000769E+04</pdfrwt>
<pdfrwt beam="2">  1       -2 0.29854525E-01 0.10000769E+04</pdfrwt>
<totfact> 0.20878708E+02</totfact>
</mgrwt>
</event>
<event>
 9    1  0.4342579E-036  0.9994185E+03  0.7818608E-02  0.8681592E-01
         -1   -1    0    0    0  501 -0.00000000000E+00  0.00000000000E+00  0.13490945967E+03  0.13490945967E+03  0.00000000000E+00 0.  1.
          1   -1    0    0  501    0  0.00000000000E+00 -0.00000000000E+00 -0.18509402890E+04  0.18509402890E+04  0.00000000000E+00 0.  1.
         36    2    1    2    0    0 -0.35527136788E-13  0.00000000000E+00 -0.17160308293E+04  0.19858497487E+04  0.99941853950E+03 0.  0.
         25    2    3    3    0    0  0.23981831022E+02 -0.12636153332E+03 -0.40983464301E+03  0.44781259085E+03  0.12660693737E+03 0.  0.
         35    2    3    3    0    0 -0.23981831022E+02  0.12636153332E+03 -0.13061961863E+04  0.15380371578E+04  0.80179015731E+03 0.  0.
         22    1    5    5    0    0  0.30918275870E+03  0.19721589156E+03 -0.29387142172E+03  0.46994520815E+03  0.00000000000E+00 0.  1.
         22    1    5    5    0    0 -0.33316458972E+03 -0.70854358242E+02 -0.10123247646E+04  0.10680919497E+04  0.00000000000E+00 0.  1.
          5    1    4    4  502    0  0.29062101356E+02 -0.53614580221E+02 -0.34418837469E+03  0.34958097233E+03  0.47000000000E+01 0. -1.
         -5    1    4    4    0  502 -0.50802703336E+01 -0.72746953096E+02 -0.65646268321E+02  0.98231618514E+02  0.47000000000E+01 0. -1.
<mgrwt>
<rscale>  0 0.99941854E+03</rscale>
<asrwt>0</asrwt>
<pdfrwt beam="1">  1        1 0.28476003E+00 0.99941854E+03</pdfrwt>
<pdfrwt beam="2">  1       -1 0.20755302E-01 0.99941854E+03</pdfrwt>
<totfact> 0.76205983E+01</totfact>
</mgrwt>
</event>
<event>
 9    1  0.4342579E-036  0.9997646E+03  0.7818608E-02  0.8681262E-01
          3   -1    0    0  501    0  0.00000000000E+00  0.00000000000E+00  0.21665794745E+03  0.21665794745E+03  0.00000000000E+00 0. -1.
         -3   -1    0    0    0  501 -0.00000000000E+00 -0.00000000000E+00 -0.11533492949E+04  0.11533492949E+04  0.00000000000E+00 0. -1.
         36    2    1    2    0    0  0.00000000000E+00 -0.56843418861E-13 -0.93669134746E+03  0.13700072424E+04  0.99976455413E+03 0.  0.
         25    2    3    3    0    0  0.18274127213E+02  0.12078961196E+03 -0.27133909683E+03  0.32167936014E+03  0.12218277779E+03 0.  0.
         35    2    3    3    0    0 -0.18274127213E+02 -0.12078961196E+03 -0.66535225064E+03  0.10483278822E+04  0.80085807552E+03 0.  0.
         22    1    5    5    0    0 -0.94095459275E+02 -0.45633663010E+03 -0.39361236308E+03  0.60994079040E+03  0.00000000000E+00 0.  1.
         22    1    5    5    0    0  0.75821332061E+02  0.33554701814E+03 -0.27173988756E+03  0.43838709182E+03  0.00000000000E+00 0.  1.
          5    1    4    4  502    0  0.40510201224E+00  0.37629144744E+02 -0.21777083206E+03  0.22104827965E+03  0.47000000000E+01 0. -1.
         -5    1    4    4    0  502  0.17869025201E+02  0.83160467215E+02 -0.53568264769E+02  0.10063108048E+03  0.47000000000E+01 0. -1.
<mgrwt>
<rscale>  0 0.99976455E+03</rscale>
<asrwt>0</asrwt>
<pdfrwt beam="1">  1        3 0.33331992E-01 0.99976455E+03</pdfrwt>
<pdfrwt beam="2">  1       -3 0.17743835E+00 0.99976455E+03</pdfrwt>
<totfact> 0.53984633E+00</totfact>
</mgrwt>
</event>
<event>
 9    1  0.4342579E-036  0.9995100E+03  0.7818608E-02  0.8681505E-01
         -2   -1    0    0    0  501 -0.00000000000E+00  0.00000000000E+00  0.19161140162E+03  0.19161140162E+03  0.00000000000E+00 0. -1.
          2   -1    0    0  501    0  0.00000000000E+00 -0.00000000000E+00 -0.13034455962E+04  0.13034455962E+04  0.00000000000E+00 0. -1.
         36    2    1    2    0    0 -0.71054273576E-14  0.14210854715E-13 -0.11118341946E+04  0.14950569979E+04  0.99950995521E+03 0.  0.
         25    2    3    3    0    0 -0.58715955828E+02  0.11927619741E+03 -0.27783137457E+03  0.33232367871E+03  0.12479735574E+03 0.  0.
         35    2    3    3    0    0  0.58715955828E+02 -0.11927619741E+03 -0.83400282006E+03  0.11627333192E+04  0.79919565370E+03 0.  0.
         22    1    5    5    0    0 -0.41659614541E+02 -0.11193010445E+03  0.13972830348E+03  0.18381477242E+03  0.00000000000E+00 0.  1.
         22    1    5    5    0    0  0.10037557037E+03 -0.73460929636E+01 -0.97373112354E+03  0.97891854675E+03  0.00000000000E+00 0.  1.
          5    1    4    4  502    0  0.24895484492E+01  0.68087996918E+02 -0.22829192091E+03  0.23828861561E+03  0.47000000000E+01 0.  1.
         -5    1    4    4    0  502 -0.61205504277E+02  0.51188200492E+02 -0.49539453651E+02  0.94035063096E+02  0.47000000000E+01 0.  1.
<mgrwt>
<rscale>  0 0.99950996E+03</rscale>
<asrwt>0</asrwt>
<pdfrwt beam="1">  1        2 0.20053009E+00 0.99950996E+03</pdfrwt>
<pdfrwt beam="2">  1       -2 0.29478678E-01 0.99950996E+03</pdfrwt>
<totfact> 0.20942909E+02</totfact>
</mgrwt>
</event>
<event>
 9    1  0.4342579E-036  0.9993084E+03  0.7818608E-02  0.8681697E-01
         -2   -1    0    0    0  501 -0.00000000000E+00  0.00000000000E+00  0.13159129059E+03  0.13159129059E+03  0.00000000000E+00 0.  1.
          2   -1    0    0  501    0  0.00000000000E+00 -0.00000000000E+00 -0.18971949956E+04  0.18971949956E+04  0.00000000000E+00 0.  1.
         36    2    1    2    0    0 -0.14210854715E-13  0.14210854715E-13 -0.17656037050E+04  0.20287862861E+04  0.99930843681E+03 0.  0.
         25    2    3    3    0    0  0.89805838711E+02 -0.36624540693E+02 -0.15053260302E+03  0.21870649273E+03  0.12556281193E+03 0.  0.
         35    2    3    3    0    0 -0.89805838711E+02  0.36624540693E+02 -0.16150711019E+04  0.18100797934E+04  0.81149722647E+03 0.  0.
         22    1    5    5    0    0 -0.23897762988E+03  0.28904908563E+03 -0.13920653989E+04  0.14417023813E+04  0.00000000000E+00 0. -1.
         22    1    5    5    0    0  0.14917179117E+03 -0.25242454493E+03 -0.22300570308E+03  0.36837741214E+03  0.00000000000E+00 0. -1.
          5    1    4    4  502    0  0.15743354123E+02 -0.62617336319E+02 -0.22652886984E+02  0.68585911786E+02  0.47000000000E+01 0.  1.
         -5    1    4    4    0  502  0.74062484588E+02  0.25992795626E+02 -0.12787971604E+03  0.15012058094E+03  0.47000000000E+01 0.  1.
<mgrwt>
<rscale>  0 0.99930844E+03</rscale>
<asrwt>0</asrwt>
<pdfrwt beam="1">  1        2 0.29187614E+00 0.99930844E+03</pdfrwt>
<pdfrwt beam="2">  1       -2 0.20244815E-01 0.99930844E+03</pdfrwt>
<totfact> 0.18775670E+02</totfact>
</mgrwt>
</event>
<event>
 9    1  0.4342579E-036  0.9998738E+03  0.7818608E-02  0.8681158E-01
         -2   -1    0    0    0  501 -0.00000000000E+00  0.00000000000E+00  0.16501539487E+03  0.16501539487E+03  0.00000000000E+00 0.  1.
          2   -1    0    0  501    0  0.00000000000E+00 -0.00000000000E+00 -0.15146278139E+04  0.15146278139E+04  0.00000000000E+00 0.  1.
         36    2    1    2    0    0 -0.71054273576E-14  0.14210854715E-13 -0.13496124190E+04  0.16796432088E+04  0.99987380563E+03 0.  0.
         25    2    3    3    0    0 -0.90096762385E+01  0.12563378410E+03 -0.35700909647E+03  0.39871481654E+03  0.12511190190E+03 0.  0.
         35    2    3    3    0    0  0.90096762385E+01 -0.12563378410E+03 -0.99260332257E+03  0.12809283922E+04  0.79978195034E+03 0.  0.
         22    1    5    5    0    0  0.72921419361E+02 -0.27384450553E+02 -0.11113520436E+04  0.11140784561E+04  0.00000000000E+00 0.  1.
         22    1    5    5    0    0 -0.63911743123E+02 -0.98249333552E+02  0.11874872101E+03  0.16684993615E+03  0.00000000000E+00 0.  1.
          5    1    4    4  502    0  0.42245462298E+02  0.56550898715E+02 -0.25775927800E+03  0.26729126179E+03  0.47000000000E+01 0. -1.
         -5    1    4    4    0  502 -0.51255138536E+02  0.69082885389E+02 -0.99249818463E+02  0.13142355476E+03  0.47000000000E+01 0. -1.
<mgrwt>
<rscale>  0 0.99987381E+03</rscale>
<asrwt>0</asrwt>
<pdfrwt beam="1">  1        2 0.23301967E+00 0.99987381E+03</pdfrwt>
<pdfrwt beam="2">  1       -2 0.25386983E-01 0.99987381E+03</pdfrwt>
<totfact> 0.20749898E+02</totfact>
</mgrwt>
</event>
<event>
 9    1  0.4342579E-036  0.9996303E+03  0.7818608E-02  0.8681390E-01
         -1   -1    0    0    0  501 -0.00000000000E+00  0.00000000000E+00  0.54948101887E+03  0.54948101887E+03  0.00000000000E+00 0.  1.
          1   -1    0    0  501    0  0.00000000000E+00 -0.00000000000E+00 -0.45463843949E+03  0.45463843949E+03  0.00000000000E+00 0.  1.
         36    2    1    2    0    0  0.14210854715E-13  0.00000000000E+00  0.94842579381E+02  0.10041194584E+04  0.99963031757E+03 0.  0.
         25    2    3    3    0    0  0.12620854090E+03  0.60342947413E+02  0.32430341950E+01  0.18663568334E+03  0.12350098755E+03 0.  0.
         35    2    3    3    0    0 -0.12620854090E+03 -0.60342947413E+02  0.91599545186E+02  0.81748377503E+03  0.80019958677E+03 0.  0.
         22    1    5    5    0    0  0.25385731754E+03 -0.19269732956E+03  0.22874990611E+03  0.39230385932E+03  0.00000000000E+00 0.  1.
         22    1    5    5    0    0 -0.38006585844E+03  0.13235438215E+03 -0.13715036092E+03  0.42517991572E+03  0.00000000000E+00 0.  1.
          5    1    4    4  502    0  0.10098792785E+03 -0.18331965618E+02  0.11896785902E+02  0.10343232594E+03  0.47000000000E+01 0. -1.
         -5    1    4    4    0  502  0.25220613045E+02  0.78674913030E+02 -0.86537517075E+01  0.83203357392E+02  0.47000000000E+01 0. -1.
<mgrwt>
<rscale>  0 0.99963032E+03</rscale>
<asrwt>0</asrwt>
<pdfrwt beam="1">  1        1 0.69944375E-01 0.99963032E+03</pdfrwt>
<pdfrwt beam="2">  1       -1 0.84535541E-01 0.99963032E+03</pdfrwt>
<totfact> 0.82965598E+01</totfact>
</mgrwt>
</event>
<event>
 9    1  0.4342579E-036  0.1007678E+04  0.7818608E-02  0.8673760E-01
         -2   -1    0    0    0  501 -0.00000000000E+00  0.00000000000E+00  0.35924656024E+03  0.35924656024E+03  0.00000000000E+00 0.  1.
          2   -1    0    0  501    0  0.00000000000E+00 -0.00000000000E+00 -0.70662837612E+03  0.70662837612E+03  0.00000000000E+00 0.  1.
         36    2    1    2    0    0  0.71054273576E-14  0.00000000000E+00 -0.34738181589E+03  0.10658749364E+04  0.10076781500E+04 0.  0.
         25    2    3    3    0    0 -0.30478282106E+02 -0.12295264879E+03 -0.14968037245E+03  0.23245505829E+03  0.12483933956E+03 0.  0.
         35    2    3    3    0    0  0.30478282106E+02  0.12295264879E+03 -0.19770144344E+03  0.83341987807E+03  0.79966027343E+03 0.  0.
         22    1    5    5    0    0 -0.22188978738E+03  0.56868755566E+02 -0.42799537342E+03  0.48543709455E+03  0.00000000000E+00 0.  1.
         22    1    5    5    0    0  0.25236806949E+03  0.66083893224E+02  0.23029392998E+03  0.34798278352E+03  0.00000000000E+00 0.  1.
          5    1    4    4  502    0  0.45545001970E+02 -0.20692652038E+02 -0.45785439864E+02  0.67977419459E+02  0.47000000000E+01 0. -1.
         -5    1    4    4    0  502 -0.76023284076E+02 -0.10225999675E+03 -0.10389493258E+03  0.16447763883E+03  0.47000000000E+01 0. -1.
<mgrwt>
<rscale>  0 0.10076781E+04</rscale>
<asrwt>0</asrwt>
<pdfrwt beam="1">  1        2 0.10871206E+00 0.10076781E+04</pdfrwt>
<pdfrwt beam="2">  1       -2 0.55268703E-01 0.10076781E+04</pdfrwt>
<totfact> 0.15084697E+02</totfact>
</mgrwt>
</event>
<event>
 9    1  0.4342579E-036  0.1000398E+04  0.7818608E-02  0.8680659E-01
         -2   -1    0    0    0  501 -0.00000000000E+00  0.00000000000E+00  0.23675782374E+03  0.23675782374E+03  0.00000000000E+00 0. -1.
          2   -1    0    0  501    0  0.00000000000E+00 -0.00000000000E+00 -0.10567728037E+04  0.10567728037E+04  0.00000000000E+00 0. -1.
         36    2    1    2    0    0  0.00000000000E+00 -0.28421709430E-13 -0.82001497991E+03  0.12935306274E+04  0.10003983790E+04 0.  0.
         25    2    3    3    0    0 -0.12111111150E+03  0.80934632039E+02 -0.18360851663E+03  0.26447524800E+03  0.12254286365E+03 0.  0.
         35    2    3    3    0    0  0.12111111150E+03 -0.80934632039E+02 -0.63640646328E+03  0.10290553794E+04  0.79543916887E+03 0.  0.
         22    1    5    5    0    0  0.22313373371E+03 -0.40157234933E+03 -0.45589126984E+03  0.64721392505E+03  0.00000000000E+00 0. -1.
         22    1    5    5    0    0 -0.10202262221E+03  0.32063771729E+03 -0.18051519344E+03  0.38184145434E+03  0.00000000000E+00 0. -1.
          5    1    4    4  502    0 -0.97768408193E+02  0.56005174642E+02 -0.44624136005E+02  0.12127920160E+03  0.47000000000E+01 0.  1.
         -5    1    4    4    0  502 -0.23342703303E+02  0.24929457396E+02 -0.13898438063E+03  0.14319604639E+03  0.47000000000E+01 0.  1.
<mgrwt>
<rscale>  0 0.10003984E+04</rscale>
<asrwt>0</asrwt>
<pdfrwt beam="1">  1        2 0.16258043E+00 0.10003984E+04</pdfrwt>
<pdfrwt beam="2">  1       -2 0.36424280E-01 0.10003984E+04</pdfrwt>
<totfact> 0.19863535E+02</totfact>
</mgrwt>
</event>
<event>
 9    1  0.4342579E-036  0.9997817E+03  0.7818608E-02  0.8681246E-01
          1   -1    0    0  501    0  0.00000000000E+00  0.00000000000E+00  0.22345691665E+04  0.22345691665E+04  0.00000000000E+00 0.  1.
         -1   -1    0    0    0  501 -0.00000000000E+00 -0.00000000000E+00 -0.11182954353E+03  0.11182954353E+03  0.00000000000E+00 0.  1.
         36    2    1    2    0    0 -0.14210854715E-13  0.14210854715E-13  0.21227396230E+04  0.23463987100E+04  0.99978167591E+03 0.  0.
         25    2    3    3    0    0 -0.10448264722E+02  0.53402831461E+02  0.69612395946E+03  0.70962739301E+03  0.12657583234E+03 0.  0.
         35    2    3    3    0    0  0.10448264722E+02 -0.53402831461E+02  0.14266156635E+04  0.16367713170E+04  0.80051674822E+03 0.  0.
         22    1    5    5    0    0  0.26945174038E+03 -0.32788571102E+03  0.78601655174E+03  0.89327224266E+03  0.00000000000E+00 0. -1.
         22    1    5    5    0    0 -0.25900347566E+03  0.27448287956E+03  0.64059911179E+03  0.74349907438E+03  0.00000000000E+00 0. -1.
          5    1    4    4  502    0  0.41598119181E+02  0.45495670912E+02  0.56316794423E+03  0.56655139484E+03  0.47000000000E+01 0. -1.
         -5    1    4    4    0  502 -0.52046383903E+02  0.79071605500E+01  0.13295601523E+03  0.14307599817E+03  0.47000000000E+01 0. -1.
<mgrwt>
<rscale>  0 0.99978168E+03</rscale>
<asrwt>0</asrwt>
<pdfrwt beam="1">  1        1 0.34377984E+00 0.99978168E+03</pdfrwt>
<pdfrwt beam="2">  1       -1 0.17204547E-01 0.99978168E+03</pdfrwt>
<totfact> 0.55837934E+01</totfact>
</mgrwt>
</event>
<event>
 9    1  0.4342579E-036  0.1000138E+04  0.7818608E-02  0.8680907E-01
          1   -1    0    0  501    0  0.00000000000E+00  0.00000000000E+00  0.17610930101E+04  0.17610930101E+04  0.00000000000E+00 0.  1.
         -1   -1    0    0    0  501 -0.00000000000E+00 -0.00000000000E+00 -0.14199637409E+03  0.14199637409E+03  0.00000000000E+00 0.  1.
         36    2    1    2    0    0  0.00000000000E+00  0.14210854715E-13  0.16190966360E+04  0.19030893842E+04  0.10001376343E+04 0.  0.
         25    2    3    3    0    0  0.41747754602E+02  0.10589644441E+03  0.45979058552E+03  0.48998823065E+03  0.12539597954E+03 0.  0.
         35    2    3    3    0    0 -0.41747754602E+02 -0.10589644441E+03  0.11593060505E+04  0.14131011535E+04  0.79994213509E+03 0.  0.
         22    1    5    5    0    0 -0.12253598965E+03 -0.21147348221E+03 -0.17930349790E+01  0.24441627895E+03  0.00000000000E+00 0.  1.
         22    1    5    5    0    0  0.80788235050E+02  0.10557703781E+03  0.11610990855E+04  0.11686848746E+04  0.00000000000E+00 0.  1.
          5    1    4    4  502    0  0.47645270656E+02  0.79532931781E+02  0.45206753946E+03  0.46150049760E+03  0.47000000000E+01 0.  1.
         -5    1    4    4    0  502 -0.58975160545E+01  0.26363512624E+02  0.77230460618E+01  0.28487733043E+02  0.47000000000E+01 0.  1.
<mgrwt>
<rscale>  0 0.10001376E+04</rscale>
<asrwt>0</asrwt>
<pdfrwt beam="1">  1        1 0.27093737E+00 0.10001376E+04</pdfrwt>
<pdfrwt beam="2">  1       -1 0.21845597E-01 0.10001376E+04</pdfrwt>
<totfact> 0.80939139E+01</totfact>
</mgrwt>
</event>
<event>
 9    1  0.4342579E-036  0.9997664E+03  0.7818608E-02  0.8681260E-01
          1   -1    0    0  501    0  0.00000000000E+00  0.00000000000E+00  0.19885031213E+04  0.19885031213E+04  0.00000000000E+00 0. -1.
         -1   -1    0    0    0  501 -0.00000000000E+00 -0.00000000000E+00 -0.12566396941E+03  0.12566396941E+03  0.00000000000E+00 0. -1.
         36    2    1    2    0    0  0.00000000000E+00  0.00000000000E+00  0.18628391519E+04  0.21141670908E+04  0.99976636352E+03 0.  0.
         25    2    3    3    0    0 -0.63890535999E+02 -0.12367063383E+03  0.37880257671E+03  0.42259423662E+03  0.12537172904E+03 0.  0.
         35    2    3    3    0    0  0.63890535999E+02  0.12367063383E+03  0.14840365752E+04  0.16915728541E+04  0.79979856086E+03 0.  0.
         22    1    5    5    0    0  0.27244132207E+03 -0.22614768223E+03  0.98939079206E+03  0.10508383261E+04  0.00000000000E+00 0. -1.
         22    1    5    5    0    0 -0.20855078607E+03  0.34981831607E+03  0.49464578316E+03  0.64073452804E+03  0.00000000000E+00 0. -1.
          5    1    4    4  502    0 -0.80478799550E+02 -0.46173898241E+02  0.28470308041E+03  0.29947754515E+03  0.47000000000E+01 0. -1.
         -5    1    4    4    0  502  0.16588263551E+02 -0.77496735592E+02  0.94099496298E+02  0.12311669147E+03  0.47000000000E+01 0. -1.
<mgrwt>
<rscale>  0 0.99976636E+03</rscale>
<asrwt>0</asrwt>
<pdfrwt beam="1">  1        1 0.30592353E+00 0.99976636E+03</pdfrwt>
<pdfrwt beam="2">  1       -1 0.19332920E-01 0.99976636E+03</pdfrwt>
<totfact> 0.68625638E+01</totfact>
</mgrwt>
</event>
<event>
 9    1  0.4342579E-036  0.1001922E+04  0.7818608E-02  0.8679210E-01
          1   -1    0    0  501    0  0.00000000000E+00  0.00000000000E+00  0.13479154198E+04  0.13479154198E+04  0.00000000000E+00 0. -1.
         -1   -1    0    0    0  501 -0.00000000000E+00 -0.00000000000E+00 -0.18618503625E+03  0.18618503625E+03  0.00000000000E+00 0. -1.
         36    2    1    2    0    0  0.00000000000E+00  0.28421709430E-13  0.11617303836E+04  0.15341004561E+04  0.10019215165E+04 0.  0.
         25    2    3    3    0    0 -0.31866277978E+02  0.83182155561E+02  0.38900585227E+03  0.41828196263E+03  0.12529771139E+03 0.  0.
         35    2    3    3    0    0  0.31866277978E+02 -0.83182155561E+02  0.77272453132E+03  0.11158184935E+04  0.80000811144E+03 0.  0.
         22    1    5    5    0    0  0.13127733668E+03 -0.42704560401E+03  0.41547346014E+03  0.61009825693E+03  0.00000000000E+00 0.  1.
         22    1    5    5    0    0 -0.99411058697E+02  0.34386344845E+03  0.35725107118E+03  0.50572023652E+03  0.00000000000E+00 0.  1.
          5    1    4    4  502    0 -0.34119319405E+02  0.10862618149E+03  0.36685556274E+03  0.38414693696E+03  0.47000000000E+01 0. -1.
         -5    1    4    4    0  502  0.22530414273E+01 -0.25444025925E+02  0.22150289530E+02  0.34135025666E+02  0.47000000000E+01 0. -1.
<mgrwt>
<rscale>  0 0.10019215E+04</rscale>
<asrwt>0</asrwt>
<pdfrwt beam="1">  1        1 0.20737160E+00 0.10019215E+04</pdfrwt>
<pdfrwt beam="2">  1       -1 0.28643853E-01 0.10019215E+04</pdfrwt>
<totfact> 0.10093592E+02</totfact>
</mgrwt>
</event>
<event>
 9    1  0.4342579E-036  0.9976911E+03  0.7818608E-02  0.8683240E-01
         -2   -1    0    0    0  501 -0.00000000000E+00  0.00000000000E+00  0.15897996945E+04  0.15897996945E+04  0.00000000000E+00 0.  1.
          2   -1    0    0  501    0  0.00000000000E+00 -0.00000000000E+00 -0.15652720225E+03  0.15652720225E+03  0.00000000000E+00 0.  1.
         36    2    1    2    0    0  0.14210854715E-13  0.14210854715E-13  0.14332724922E+04  0.17463268967E+04  0.99769113120E+03 0.  0.
         25    2    3    3    0    0  0.12268282095E+03  0.49424088529E+02  0.33347373997E+03  0.37989059429E+03  0.12497325032E+03 0.  0.
         35    2    3    3    0    0 -0.12268282095E+03 -0.49424088529E+02  0.10997987522E+04  0.13664363024E+04  0.80006065900E+03 0.  0.
         22    1    5    5    0    0 -0.28229919575E+03 -0.30203152280E+03  0.94153436339E+03  0.10283009453E+04  0.00000000000E+00 0.  1.
         22    1    5    5    0    0  0.15961637480E+03  0.25260743427E+03  0.15826438885E+03  0.33813535712E+03  0.00000000000E+00 0.  1.
          5    1    4    4  502    0  0.42744045398E+02 -0.24272400728E+02  0.20807310986E+03  0.21385207948E+03  0.47000000000E+01 0. -1.
         -5    1    4    4    0  502  0.79938775553E+02  0.73696489258E+02  0.12540063012E+03  0.16603851481E+03  0.47000000000E+01 0. -1.
<mgrwt>
<rscale>  0 0.99769113E+03</rscale>
<asrwt>0</asrwt>
<pdfrwt beam="1">  1        2 0.24081109E-01 0.99769113E+03</pdfrwt>
<pdfrwt beam="2">  1       -2 0.24458456E+00 0.99769113E+03</pdfrwt>
<totfact> 0.17036141E+01</totfact>
</mgrwt>
</event>
<event>
 9    1  0.4342579E-036  0.1000305E+04  0.7818608E-02  0.8680748E-01
         -2   -1    0    0    0  501 -0.00000000000E+00  0.00000000000E+00  0.40243107981E+03  0.40243107981E+03  0.00000000000E+00 0. -1.
          2   -1    0    0  501    0  0.00000000000E+00 -0.00000000000E+00 -0.62160305175E+03  0.62160305175E+03  0.00000000000E+00 0. -1.
         36    2    1    2    0    0 -0.28421709430E-13 -0.42632564146E-13 -0.21917197194E+03  0.10240341316E+04  0.10003047282E+04 0.  0.
         25    2    3    3    0    0  0.96785499020E+02 -0.96391501795E+02 -0.91591864110E+02  0.20282503991E+03  0.11870203371E+03 0.  0.
         35    2    3    3    0    0 -0.96785499020E+02  0.96391501795E+02 -0.12758010783E+03  0.82120909165E+03  0.79965550949E+03 0.  0.
         22    1    5    5    0    0  0.17282794925E+03  0.37365280976E+03 -0.13838119831E+03  0.43432163005E+03  0.00000000000E+00 0. -1.
         22    1    5    5    0    0 -0.26961344827E+03 -0.27726130797E+03  0.10801090482E+02  0.38688746160E+03  0.00000000000E+00 0. -1.
          5    1    4    4  502    0  0.51566262975E+02 -0.58951487321E+02  0.16084185525E+02  0.80094621284E+02  0.47000000000E+01 0.  1.
         -5    1    4    4    0  502  0.45219236045E+02 -0.37440014473E+02 -0.10767604963E+03  0.12273041863E+03  0.47000000000E+01 0.  1.
<mgrwt>
<rscale>  0 0.10003047E+04</rscale>
<asrwt>0</asrwt>
<pdfrwt beam="1">  1        2 0.95631238E-01 0.10003047E+04</pdfrwt>
<pdfrwt beam="2">  1       -2 0.61912474E-01 0.10003047E+04</pdfrwt>
<totfact> 0.13926990E+02</totfact>
</mgrwt>
</event>
<event>
 9    1  0.4342579E-036  0.9988154E+03  0.7818608E-02  0.8682167E-01
          2   -1    0    0  501    0  0.00000000000E+00  0.00000000000E+00  0.80270270731E+03  0.80270270731E+03  0.00000000000E+00 0.  1.
         -2   -1    0    0    0  501 -0.00000000000E+00 -0.00000000000E+00 -0.31071039440E+03  0.31071039440E+03  0.00000000000E+00 0.  1.
         36    2    1    2    0    0 -0.28421709430E-13  0.14210854715E-13  0.49199231291E+03  0.11134131017E+04  0.99881544796E+03 0.  0.
         25    2    3    3    0    0  0.13220496310E+02  0.12165928191E+03  0.16359556063E+03  0.23942160136E+03  0.12483362265E+03 0.  0.
         35    2    3    3    0    0 -0.13220496310E+02 -0.12165928191E+03  0.32839675228E+03  0.87399150034E+03  0.80065033152E+03 0.  0.
         22    1    5    5    0    0 -0.33902001012E+03  0.10470348214E+03 -0.64066938911E+01  0.35487805252E+03  0.00000000000E+00 0. -1.
         22    1    5    5    0    0  0.32579951381E+03 -0.22636276405E+03  0.33480344617E+03  0.51911344782E+03  0.00000000000E+00 0. -1.
          5    1    4    4  502    0 -0.45799411742E+02  0.10059377171E+03  0.11821812206E+03  0.16190833025E+03  0.47000000000E+01 0. -1.
         -5    1    4    4    0  502  0.59019908053E+02  0.21065510199E+02  0.45377438572E+02  0.77513271108E+02  0.47000000000E+01 0. -1.
<mgrwt>
<rscale>  0 0.99881545E+03</rscale>
<asrwt>0</asrwt>
<pdfrwt beam="1">  1        2 0.12349272E+00 0.99881545E+03</pdfrwt>
<pdfrwt beam="2">  1       -2 0.47801600E-01 0.99881545E+03</pdfrwt>
<totfact> 0.17208945E+02</totfact>
</mgrwt>
</event>
<event>
 9    1  0.4342579E-036  0.1000108E+04  0.7818608E-02  0.8680935E-01
         -2   -1    0    0    0  501 -0.00000000000E+00  0.00000000000E+00  0.15666463295E+03  0.15666463295E+03  0.00000000000E+00 0.  1.
          2   -1    0    0  501    0  0.00000000000E+00 -0.00000000000E+00 -0.15961113631E+04  0.15961113631E+04  0.00000000000E+00 0.  1.
         36    2    1    2    0    0  0.42632564146E-13  0.24868995752E-13 -0.14394467302E+04  0.17527759961E+04  0.10001083958E+04 0.  0.
         25    2    3    3    0    0  0.12440715820E+03 -0.29314597622E+02 -0.21051271513E+03  0.27615341140E+03  0.12493444980E+03 0.  0.
         35    2    3    3    0    0 -0.12440715820E+03  0.29314597622E+02 -0.12289340150E+04  0.14766225847E+04  0.80857835588E+03 0.  0.
         22    1    5    5    0    0  0.18723470698E+03 -0.14340765862E+03 -0.44823202075E+02  0.24006605652E+03  0.00000000000E+00 0. -1.
         22    1    5    5    0    0 -0.31164186519E+03  0.17272225624E+03 -0.11841108130E+04  0.12365565281E+04  0.00000000000E+00 0. -1.
          5    1    4    4  502    0  0.11782935537E+03  0.27669298781E+02 -0.14578702228E+03  0.18953968699E+03  0.47000000000E+01 0. -1.
         -5    1    4    4    0  502  0.65778028390E+01 -0.56983896404E+02 -0.64725692852E+02  0.86613724402E+02  0.47000000000E+01 0. -1.
<mgrwt>
<rscale>  0 0.10001084E+04</rscale>
<asrwt>0</asrwt>
<pdfrwt beam="1">  1        2 0.24555558E+00 0.10001084E+04</pdfrwt>
<pdfrwt beam="2">  1       -2 0.24102253E-01 0.10001084E+04</pdfrwt>
<totfact> 0.20461930E+02</totfact>
</mgrwt>
</event>
<event>
 9    1  0.4342579E-036  0.1000131E+04  0.7818608E-02  0.8680913E-01
         -2   -1    0    0    0  501 -0.00000000000E+00  0.00000000000E+00  0.25471132690E+03  0.25471132690E+03  0.00000000000E+00 0. -1.
          2   -1    0    0  501    0  0.00000000000E+00 -0.00000000000E+00 -0.98176019959E+03  0.98176019959E+03  0.00000000000E+00 0. -1.
         36    2    1    2    0    0  0.14210854715E-13  0.21316282073E-13 -0.72704887269E+03  0.12364715265E+04  0.10001308777E+04 0.  0.
         25    2    3    3    0    0 -0.12205154593E+03  0.41243710836E+02 -0.76840880095E+02  0.19738840600E+03  0.12829668126E+03 0.  0.
         35    2    3    3    0    0  0.12205154593E+03 -0.41243710836E+02 -0.65020799260E+03  0.10390831205E+04  0.80020352041E+03 0.  0.
         22    1    5    5    0    0  0.39930332832E+02 -0.23245083785E+03 -0.76561987678E+03  0.80112522069E+03  0.00000000000E+00 0.  1.
         22    1    5    5    0    0  0.82121213102E+02  0.19120712701E+03  0.11541188419E+03  0.23795789979E+03  0.00000000000E+00 0.  1.
          5    1    4    4  502    0  0.26683690170E+02  0.12493420340E+02 -0.17739070488E+02  0.34711230094E+02  0.47000000000E+01 0. -1.
         -5    1    4    4    0  502 -0.14873523611E+03  0.28750290496E+02 -0.59101809607E+02  0.16267717591E+03  0.47000000000E+01 0. -1.
<mgrwt>
<rscale>  0 0.10001309E+04</rscale>
<asrwt>0</asrwt>
<pdfrwt beam="1">  1        2 0.15104003E+00 0.10001309E+04</pdfrwt>
<pdfrwt beam="2">  1       -2 0.39186358E-01 0.10001309E+04</pdfrwt>
<totfact> 0.19264392E+02</totfact>
</mgrwt>
</event>
<event>
 9    1  0.4342579E-036  0.1001413E+04  0.7818608E-02  0.8679694E-01
         -3   -1    0    0    0  501 -0.00000000000E+00  0.00000000000E+00  0.15533033389E+04  0.15533033389E+04  0.00000000000E+00 0.  1.
          1   -1    0    0  501    0  0.00000000000E+00 -0.00000000000E+00 -0.16140236464E+03  0.16140236464E+03  0.00000000000E+00 0.  1.
         36    2    1    2    0    0 -0.56843418861E-13  0.71054273576E-14  0.13919009743E+04  0.17147057036E+04  0.10014126660E+04 0.  0.
         25    2    3    3    0    0  0.12548694084E+03  0.62587517333E+02  0.24025906938E+03  0.30523000628E+03  0.12560559966E+03 0.  0.
         35    2    3    3    0    0 -0.12548694084E+03 -0.62587517333E+02  0.11516419049E+04  0.14094756973E+04  0.80042394672E+03 0.  0.
         22    1    5    5    0    0  0.34222196758E+03 -0.30684163091E+02  0.50348195020E+03  0.60955021707E+03  0.00000000000E+00 0. -1.
         22    1    5    5    0    0 -0.46770890842E+03 -0.31903354243E+02  0.64815995470E+03  0.79992548022E+03  0.00000000000E+00 0. -1.
          5    1    4    4  502    0  0.42943856012E+02  0.78357765614E+02  0.64325117756E+02  0.11019947811E+03  0.47000000000E+01 0.  1.
         -5    1    4    4    0  502  0.82543084830E+02 -0.15770248280E+02  0.17593395162E+03  0.19503052817E+03  0.47000000000E+01 0.  1.
<mgrwt>
<rscale>  0 0.10014127E+04</rscale>
<asrwt>0</asrwt>
<pdfrwt beam="1">  1        1 0.24831134E-01 0.10014127E+04</pdfrwt>
<pdfrwt beam="2">  1       -3 0.23896973E+00 0.10014127E+04</pdfrwt>
<totfact> 0.67860627E+00</totfact>
</mgrwt>
</event>
<event>
 9    1  0.4342579E-036  0.1006858E+04  0.7818608E-02  0.8674534E-01
          1   -1    0    0  501    0  0.00000000000E+00  0.00000000000E+00  0.66935926072E+03  0.66935926072E+03  0.00000000000E+00 0.  1.
         -1   -1    0    0    0  501 -0.00000000000E+00 -0.00000000000E+00 -0.37863199238E+03  0.37863199238E+03  0.00000000000E+00 0.  1.
         36    2    1    2    0    0  0.00000000000E+00 -0.14210854715E-13  0.29072726833E+03  0.10479912531E+04  0.10068581439E+04 0.  0.
         25    2    3    3    0    0 -0.58434115219E+02 -0.10599783150E+03 -0.34979885895E+02  0.17713400703E+03  0.12451015190E+03 0.  0.
         35    2    3    3    0    0  0.58434115219E+02  0.10599783150E+03  0.32570715423E+03  0.87085724607E+03  0.79853434905E+03 0.  0.
         22    1    5    5    0    0  0.10539742161E+02  0.16173800575E+03  0.58204598186E+03  0.60419185171E+03  0.00000000000E+00 0.  1.
         22    1    5    5    0    0  0.47894373059E+02 -0.55740174247E+02 -0.25633882763E+03  0.26666539436E+03  0.00000000000E+00 0.  1.
          5    1    4    4  502    0 -0.57760031932E+02 -0.38689639718E+02  0.36648124906E+02  0.78729184992E+02  0.47000000000E+01 0. -1.
         -5    1    4    4    0  502 -0.67408328718E+00 -0.67308191784E+02 -0.71628010801E+02  0.98404822041E+02  0.47000000000E+01 0. -1.
<mgrwt>
<rscale>  0 0.10068581E+04</rscale>
<asrwt>0</asrwt>
<pdfrwt beam="1">  1        1 0.10297835E+00 0.10068581E+04</pdfrwt>
<pdfrwt beam="2">  1       -1 0.58251076E-01 0.10068581E+04</pdfrwt>
<totfact> 0.10046476E+02</totfact>
</mgrwt>
</event>
<event>
 9    1  0.4342579E-036  0.1003027E+04  0.7818608E-02  0.8678161E-01
          2   -1    0    0  501    0  0.00000000000E+00  0.00000000000E+00  0.25386123386E+04  0.25386123386E+04  0.00000000000E+00 0.  1.
         -2   -1    0    0    0  501 -0.00000000000E+00 -0.00000000000E+00 -0.99076037657E+02  0.99076037657E+02  0.00000000000E+00 0.  1.
         36    2    1    2    0    0  0.00000000000E+00 -0.14210854715E-13  0.24395363009E+04  0.26376883762E+04  0.10030267228E+04 0.  0.
         25    2    3    3    0    0 -0.11655086790E+03  0.44781480571E+02  0.25251402718E+03  0.30551936724E+03  0.11827621917E+03 0.  0.
         35    2    3    3    0    0  0.11655086790E+03 -0.44781480571E+02  0.21870222737E+04  0.23321690090E+04  0.80022270331E+03 0.  0.
         22    1    5    5    0    0 -0.27820067912E+03 -0.23500672703E+03  0.83647528883E+03  0.91231282378E+03  0.00000000000E+00 0. -1.
         22    1    5    5    0    0  0.39475154702E+03  0.19022524645E+03  0.13505469849E+04  0.14198561852E+04  0.00000000000E+00 0. -1.
          5    1    4    4  502    0  0.42447107997E+01  0.50382513455E+02  0.81287841757E+02  0.95844762242E+02  0.47000000000E+01 0.  1.
         -5    1    4    4    0  502 -0.12079557870E+03 -0.56010328835E+01  0.17122618543E+03  0.20967460499E+03  0.47000000000E+01 0.  1.
<mgrwt>
<rscale>  0 0.10030267E+04</rscale>
<asrwt>0</asrwt>
<pdfrwt beam="1">  1        2 0.39055570E+00 0.10030267E+04</pdfrwt>
<pdfrwt beam="2">  1       -2 0.15242469E-01 0.10030267E+04</pdfrwt>
<totfact> 0.12838748E+02</totfact>
</mgrwt>
</event>
<event>
 9    1  0.4342579E-036  0.9995013E+03  0.7818608E-02  0.8681513E-01
         -1   -1    0    0    0  501 -0.00000000000E+00  0.00000000000E+00  0.73236386227E+03  0.73236386227E+03  0.00000000000E+00 0.  1.
          1   -1    0    0  501    0  0.00000000000E+00 -0.00000000000E+00 -0.34102001723E+03  0.34102001723E+03  0.00000000000E+00 0.  1.
         36    2    1    2    0    0 -0.28421709430E-13  0.14210854715E-13  0.39134384504E+03  0.10733838795E+04  0.99950134954E+03 0.  0.
         25    2    3    3    0    0 -0.82936848426E+02 -0.99719223139E+02  0.19699574920E+02  0.18251252391E+03  0.12688697271E+03 0.  0.
         35    2    3    3    0    0  0.82936848426E+02  0.99719223139E+02  0.37164427012E+03  0.89087135559E+03  0.79919325849E+03 0.  0.
         22    1    5    5    0    0  0.25345746499E+03  0.16706967304E+03 -0.14952509711E+03  0.33839432158E+03  0.00000000000E+00 0. -1.
         22    1    5    5    0    0 -0.17052061656E+03 -0.67350449904E+02  0.52116936723E+03  0.55247703402E+03  0.00000000000E+00 0. -1.
          5    1    4    4  502    0  0.11966588974E+02  0.20723650999E+02 -0.98124376602E+01  0.26287694750E+02  0.47000000000E+01 0.  1.
         -5    1    4    4    0  502 -0.94903437400E+02 -0.12044287414E+03  0.29512012580E+02  0.15622482916E+03  0.47000000000E+01 0.  1.
<mgrwt>
<rscale>  0 0.99950135E+03</rscale>
<asrwt>0</asrwt>
<pdfrwt beam="1">  1        1 0.52464618E-01 0.99950135E+03</pdfrwt>
<pdfrwt beam="2">  1       -1 0.11267136E+00 0.99950135E+03</pdfrwt>
<totfact> 0.64275888E+01</totfact>
</mgrwt>
</event>
<event>
 9    1  0.4342579E-036  0.1000050E+04  0.7818608E-02  0.8680991E-01
         -2   -1    0    0    0  501 -0.00000000000E+00  0.00000000000E+00  0.48614808376E+03  0.48614808376E+03  0.00000000000E+00 0.  1.
          2   -1    0    0  501    0  0.00000000000E+00 -0.00000000000E+00 -0.51429781579E+03  0.51429781579E+03  0.00000000000E+00 0.  1.
         36    2    1    2    0    0  0.00000000000E+00  0.14210854715E-13 -0.28149732033E+02  0.10004458995E+04  0.10000497940E+04 0.  0.
         25    2    3    3    0    0  0.14025675101E+03 -0.76502512657E+01 -0.94519796011E+01  0.18840962873E+03  0.12521328097E+03 0.  0.
         35    2    3    3    0    0 -0.14025675101E+03  0.76502512657E+01 -0.18697752432E+02  0.81203627082E+03  0.79957664837E+03 0.  0.
         22    1    5    5    0    0  0.19857740893E+03 -0.28825747082E+03  0.60605808418E+02  0.35524417073E+03  0.00000000000E+00 0. -1.
         22    1    5    5    0    0 -0.33883415995E+03  0.29590772209E+03 -0.79303560850E+02  0.45679210009E+03  0.00000000000E+00 0. -1.
          5    1    4    4  502    0  0.36809996719E+01 -0.43221274575E+02  0.12769130851E+02  0.45461731568E+02  0.47000000000E+01 0. -1.
         -5    1    4    4    0  502  0.13657575134E+03  0.35571023309E+02 -0.22221110453E+02  0.14294789717E+03  0.47000000000E+01 0. -1.
<mgrwt>
<rscale>  0 0.10000498E+04</rscale>
<asrwt>0</asrwt>
<pdfrwt beam="1">  1        2 0.79122740E-01 0.10000498E+04</pdfrwt>
<pdfrwt beam="2">  1       -2 0.74792013E-01 0.10000498E+04</pdfrwt>
<totfact> 0.11566144E+02</totfact>
</mgrwt>
</event>
<event>
 9    1  0.4342579E-036  0.9969762E+03  0.7818608E-02  0.8683923E-01
         -2   -1    0    0    0  501 -0.00000000000E+00  0.00000000000E+00  0.52089454254E+03  0.52089454254E+03  0.00000000000E+00 0. -1.
          2   -1    0    0  501    0  0.00000000000E+00 -0.00000000000E+00 -0.47704548895E+03  0.47704548895E+03  0.00000000000E+00 0. -1.
         36    2    1    2    0    0  0.00000000000E+00 -0.71054273576E-14  0.43849053587E+02  0.99794003149E+03  0.99697621183E+03 0.  0.
         25    2    3    3    0    0  0.40126168417E+02 -0.35535610870E+02  0.13572670826E+03  0.19112788234E+03  0.12343111051E+03 0.  0.
         35    2    3    3    0    0 -0.40126168417E+02  0.35535610870E+02 -0.91877654669E+02  0.80681214915E+03  0.79976962406E+03 0.  0.
         22    1    5    5    0    0  0.52370687651E+02 -0.21324410019E+03 -0.36500549795E+03  0.42596331852E+03  0.00000000000E+00 0.  1.
         22    1    5    5    0    0 -0.92496856069E+02  0.24877971106E+03  0.27312784328E+03  0.38084883063E+03  0.00000000000E+00 0.  1.
          5    1    4    4  502    0  0.59802941142E+01 -0.31519072944E+02  0.15010424559E+03  0.15356624115E+03  0.47000000000E+01 0.  1.
         -5    1    4    4    0  502  0.34145874303E+02 -0.40165379262E+01 -0.14377537334E+02  0.37561641187E+02  0.47000000000E+01 0.  1.
<mgrwt>
<rscale>  0 0.99697621E+03</rscale>
<asrwt>0</asrwt>
<pdfrwt beam="1">  1        2 0.73391614E-01 0.99697621E+03</pdfrwt>
<pdfrwt beam="2">  1       -2 0.80137622E-01 0.99697621E+03</pdfrwt>
<totfact> 0.10787124E+02</totfact>
</mgrwt>
</event>
<event>
 9    1  0.4342579E-036  0.1001646E+04  0.7818608E-02  0.8679472E-01
         -2   -1    0    0    0  501 -0.00000000000E+00  0.00000000000E+00  0.44898113712E+03  0.44898113712E+03  0.00000000000E+00 0.  1.
          2   -1    0    0  501    0  0.00000000000E+00 -0.00000000000E+00 -0.55865056430E+03  0.55865056430E+03  0.00000000000E+00 0.  1.
         36    2    1    2    0    0 -0.14210854715E-13 -0.28421709430E-13 -0.10966942717E+03  0.10076317014E+04  0.10016457769E+04 0.  0.
         25    2    3    3    0    0  0.12031372747E+03  0.57225277376E+02 -0.62803977258E+02  0.19403415137E+03  0.12631225970E+03 0.  0.
         35    2    3    3    0    0 -0.12031372747E+03 -0.57225277376E+02 -0.46865449916E+02  0.81359755005E+03  0.80124557887E+03 0.  0.
         22    1    5    5    0    0  0.44136619020E+02  0.31861869082E+03  0.15421801033E+03  0.35671992653E+03  0.00000000000E+00 0.  1.
         22    1    5    5    0    0 -0.16445034649E+03 -0.37584396819E+03 -0.20108346024E+03  0.45687762352E+03  0.00000000000E+00 0.  1.
          5    1    4    4  502    0  0.25700260358E+02 -0.32038659495E+02  0.13089247141E+02  0.43363550078E+02  0.47000000000E+01 0. -1.
         -5    1    4    4    0  502  0.94613467111E+02  0.89263936871E+02 -0.75893224399E+02  0.15067060129E+03  0.47000000000E+01 0. -1.
<mgrwt>
<rscale>  0 0.10016458E+04</rscale>
<asrwt>0</asrwt>
<pdfrwt beam="1">  1        2 0.85946240E-01 0.10016458E+04</pdfrwt>
<pdfrwt beam="2">  1       -2 0.69074022E-01 0.10016458E+04</pdfrwt>
<totfact> 0.12510122E+02</totfact>
</mgrwt>
</event>
<event>
 9    1  0.4342579E-036  0.9991386E+03  0.7818608E-02  0.8681859E-01
          2   -1    0    0  501    0  0.00000000000E+00  0.00000000000E+00  0.11044713621E+04  0.11044713621E+04  0.00000000000E+00 0.  1.
         -2   -1    0    0    0  501 -0.00000000000E+00 -0.00000000000E+00 -0.22596281995E+03  0.22596281995E+03  0.00000000000E+00 0.  1.
         36    2    1    2    0    0  0.28421709430E-13  0.14210854715E-13  0.87850854217E+03  0.13304341821E+04  0.99913855602E+03 0.  0.
         25    2    3    3    0    0  0.68331854803E+02  0.97899474470E+02  0.25952370520E+03  0.31204552490E+03  0.12556395409E+03 0.  0.
         35    2    3    3    0    0 -0.68331854803E+02 -0.97899474470E+02  0.61898483696E+03  0.10183886572E+04  0.79982478028E+03 0.  0.
         22    1    5    5    0    0 -0.28447357733E+02  0.43163201376E+02  0.79082678983E+03  0.79251455862E+03  0.00000000000E+00 0. -1.
         22    1    5    5    0    0 -0.39884497070E+02 -0.14106267585E+03 -0.17184195287E+03  0.22587409853E+03  0.00000000000E+00 0. -1.
          5    1    4    4  502    0 -0.16687163190E+02  0.28576617136E+02  0.16128888692E+03  0.16471575367E+03  0.47000000000E+01 0. -1.
         -5    1    4    4    0  502  0.85019017993E+02  0.69322857334E+02  0.98234818285E+02  0.14732977124E+03  0.47000000000E+01 0. -1.
<mgrwt>
<rscale>  0 0.99913856E+03</rscale>
<asrwt>0</asrwt>
<pdfrwt beam="1">  1        2 0.16991867E+00 0.99913856E+03</pdfrwt>
<pdfrwt beam="2">  1       -2 0.34763511E-01 0.99913856E+03</pdfrwt>
<totfact> 0.20271259E+02</totfact>
</mgrwt>
</event>
<event>
 9    1  0.4342579E-036  0.1000446E+04  0.7818608E-02  0.8680614E-01
         -1   -1    0    0    0  501 -0.00000000000E+00  0.00000000000E+00  0.25213256379E+03  0.25213256379E+03  0.00000000000E+00 0.  1.
          1   -1    0    0  501    0  0.00000000000E+00 -0.00000000000E+00 -0.99242594857E+03  0.99242594857E+03  0.00000000000E+00 0.  1.
         36    2    1    2    0    0 -0.28421709430E-13  0.00000000000E+00 -0.74029338478E+03  0.12445585124E+04  0.10004456982E+04 0.  0.
         25    2    3    3    0    0  0.71954571583E+02  0.42042816291E+02 -0.31059460395E+03  0.34522982647E+03  0.12557693383E+03 0.  0.
         35    2    3    3    0    0 -0.71954571583E+02 -0.42042816291E+02 -0.42969878083E+03  0.89932868589E+03  0.78562458226E+03 0.  0.
         22    1    5    5    0    0  0.29513621934E+03 -0.15980625646E+03 -0.38574321110E+03  0.51131326257E+03  0.00000000000E+00 0.  1.
         22    1    5    5    0    0 -0.36709079093E+03  0.11776344017E+03 -0.43955569730E+02  0.38801542332E+03  0.00000000000E+00 0.  1.
          5    1    4    4  502    0  0.21353196390E+02  0.38208630070E+02 -0.28466557850E+03  0.28804937075E+03  0.47000000000E+01 0. -1.
         -5    1    4    4    0  502  0.50601375192E+02  0.38341862205E+01 -0.25929025448E+02  0.57180455717E+02  0.47000000000E+01 0. -1.
<mgrwt>
<rscale>  0 0.10004457E+04</rscale>
<asrwt>0</asrwt>
<pdfrwt beam="1">  1        1 0.15268091E+00 0.10004457E+04</pdfrwt>
<pdfrwt beam="2">  1       -1 0.38789626E-01 0.10004457E+04</pdfrwt>
<totfact> 0.11068702E+02</totfact>
</mgrwt>
</event>
<event>
 9    1  0.4342579E-036  0.1000241E+04  0.7818608E-02  0.8680808E-01
          2   -1    0    0  501    0  0.00000000000E+00  0.00000000000E+00  0.11017938611E+04  0.11017938611E+04  0.00000000000E+00 0.  1.
         -2   -1    0    0    0  501 -0.00000000000E+00 -0.00000000000E+00 -0.22701214259E+03  0.22701214259E+03  0.00000000000E+00 0.  1.
         36    2    1    2    0    0  0.00000000000E+00  0.00000000000E+00  0.87478171849E+03  0.13288060037E+04  0.10002411411E+04 0.  0.
         25    2    3    3    0    0  0.65279601147E+02 -0.12493812518E+03  0.16800339610E+03  0.25233848913E+03  0.12481430424E+03 0.  0.
         35    2    3    3    0    0 -0.65279601147E+02  0.12493812518E+03  0.70677832239E+03  0.10764675145E+04  0.79960974945E+03 0.  0.
         22    1    5    5    0    0 -0.36332050203E+03 -0.13017743854E+03  0.50414785611E+03  0.63491181555E+03  0.00000000000E+00 0. -1.
         22    1    5    5    0    0  0.29804090088E+03  0.25511556372E+03  0.20263046628E+03  0.44155569899E+03  0.00000000000E+00 0. -1.
          5    1    4    4  502    0 -0.78951114060E+01 -0.39829263444E+02 -0.97865615138E+01  0.42030581686E+02  0.47000000000E+01 0.  1.
         -5    1    4    4    0  502  0.73174712553E+02 -0.85108861736E+02  0.17778995762E+03  0.21030790744E+03  0.47000000000E+01 0.  1.
<mgrwt>
<rscale>  0 0.10002411E+04</rscale>
<asrwt>0</asrwt>
<pdfrwt beam="1">  1        2 0.16950674E+00 0.10002411E+04</pdfrwt>
<pdfrwt beam="2">  1       -2 0.34924946E-01 0.10002411E+04</pdfrwt>
<totfact> 0.20171918E+02</totfact>
</mgrwt>
</event>
<event>
 9    1  0.4342579E-036  0.1000324E+04  0.7818608E-02  0.8680730E-01
          1   -1    0    0  501    0  0.00000000000E+00  0.00000000000E+00  0.31940265728E+04  0.31940265728E+04  0.00000000000E+00 0.  1.
         -1   -1    0    0    0  501 -0.00000000000E+00 -0.00000000000E+00 -0.78321810884E+02  0.78321810884E+02  0.00000000000E+00 0.  1.
         36    2    1    2    0    0  0.00000000000E+00 -0.14210854715E-13  0.31157047620E+04  0.32723483837E+04  0.10003238380E+04 0.  0.
         25    2    3    3    0    0 -0.88771586951E+02  0.98489846393E+02  0.43382431465E+03  0.47058162901E+03  0.12515146460E+03 0.  0.
         35    2    3    3    0    0  0.88771586951E+02 -0.98489846393E+02  0.26818804473E+04  0.28017667547E+04  0.79989597428E+03 0.  0.
         22    1    5    5    0    0 -0.10381277253E+03 -0.16979652927E+03  0.25498929985E+04  0.25576477977E+04  0.00000000000E+00 0. -1.
         22    1    5    5    0    0  0.19258435948E+03  0.71306682873E+02  0.13198744877E+03  0.24411895701E+03  0.00000000000E+00 0. -1.
          5    1    4    4  502    0 -0.40524239451E+02 -0.25855937218E+02  0.13232121907E+03  0.14086070598E+03  0.47000000000E+01 0. -1.
         -5    1    4    4    0  502 -0.48247347500E+02  0.12434578361E+03  0.30150309558E+03  0.32972092303E+03  0.47000000000E+01 0. -1.
<mgrwt>
<rscale>  0 0.10003238E+04</rscale>
<asrwt>0</asrwt>
<pdfrwt beam="1">  1        1 0.49138860E+00 0.10003238E+04</pdfrwt>
<pdfrwt beam="2">  1       -1 0.12049512E-01 0.10003238E+04</pdfrwt>
<totfact> 0.20527038E+01</totfact>
</mgrwt>
</event>
<event>
 9    1  0.4342579E-036  0.1000312E+04  0.7818608E-02  0.8680741E-01
         -1   -1    0    0    0  501 -0.00000000000E+00  0.00000000000E+00  0.10515255926E+03  0.10515255926E+03  0.00000000000E+00 0. -1.
          1   -1    0    0  501    0  0.00000000000E+00 -0.00000000000E+00 -0.23789835241E+04  0.23789835241E+04  0.00000000000E+00 0. -1.
         36    2    1    2    0    0  0.28421709430E-13  0.42632564146E-13 -0.22738309649E+04  0.24841360834E+04  0.10003123632E+04 0.  0.
         25    2    3    3    0    0  0.12551908902E+03  0.73894276510E+02 -0.49596494985E+03  0.52980459519E+03  0.11617345564E+03 0.  0.
         35    2    3    3    0    0 -0.12551908902E+03 -0.73894276510E+02 -0.17778660150E+04  0.19543314882E+04  0.79836620207E+03 0.  0.
         22    1    5    5    0    0  0.12632126408E+03 -0.38274006547E+03 -0.74100759586E+03  0.84352787541E+03  0.00000000000E+00 0.  1.
         22    1    5    5    0    0 -0.25184035310E+03  0.30884578896E+03 -0.10368584192E+04  0.11108036128E+04  0.00000000000E+00 0.  1.
          5    1    4    4  502    0  0.14742085053E+03  0.60562256559E+02 -0.40765102661E+03  0.43772382113E+03  0.47000000000E+01 0.  1.
         -5    1    4    4    0  502 -0.21901761507E+02  0.13332019951E+02 -0.88313923238E+02  0.92080774056E+02  0.47000000000E+01 0.  1.
<mgrwt>
<rscale>  0 0.10003124E+04</rscale>
<asrwt>0</asrwt>
<pdfrwt beam="1">  1        1 0.36599747E+00 0.10003124E+04</pdfrwt>
<pdfrwt beam="2">  1       -1 0.16177317E-01 0.10003124E+04</pdfrwt>
<totfact> 0.48860184E+01</totfact>
</mgrwt>
</event>
<event>
 9    1  0.4342579E-036  0.9995879E+03  0.7818608E-02  0.8681430E-01
         -2   -1    0    0    0  501 -0.00000000000E+00  0.00000000000E+00  0.20197298495E+03  0.20197298495E+03  0.00000000000E+00 0. -1.
          2   -1    0    0  501    0  0.00000000000E+00 -0.00000000000E+00 -0.12367694441E+04  0.12367694441E+04  0.00000000000E+00 0. -1.
         36    2    1    2    0    0  0.20428103653E-13  0.00000000000E+00 -0.10347964591E+04  0.14387424290E+04  0.99958794774E+03 0.  0.
         25    2    3    3    0    0  0.75948504590E+01  0.13494139711E+03 -0.24224866098E+03  0.30443003526E+03  0.12540482534E+03 0.  0.
         35    2    3    3    0    0 -0.75948504590E+01 -0.13494139711E+03 -0.79254779816E+03  0.11343123938E+04  0.80016606519E+03 0.  0.
         22    1    5    5    0    0 -0.30198387622E+03 -0.13117874291E+02 -0.25039433577E+02  0.30330399496E+03  0.00000000000E+00 0.  1.
         22    1    5    5    0    0  0.29438902576E+03 -0.12182352282E+03 -0.76750836458E+03  0.83100839881E+03  0.00000000000E+00 0.  1.
          5    1    4    4  502    0  0.12156072990E+02  0.98974900777E+02 -0.55667685138E+02  0.11430127848E+03  0.47000000000E+01 0.  1.
         -5    1    4    4    0  502 -0.45612225313E+01  0.35966496332E+02 -0.18658097584E+03  0.19012875678E+03  0.47000000000E+01 0.  1.
<mgrwt>
<rscale>  0 0.99958795E+03</rscale>
<asrwt>0</asrwt>
<pdfrwt beam="1">  1        2 0.19027222E+00 0.99958795E+03</pdfrwt>
<pdfrwt beam="2">  1       -2 0.31072768E-01 0.99958795E+03</pdfrwt>
<totfact> 0.20804698E+02</totfact>
</mgrwt>
</event>
<event>
 9    1  0.4342579E-036  0.1014257E+04  0.7818608E-02  0.8667579E-01
         -2   -1    0    0    0  501 -0.00000000000E+00  0.00000000000E+00  0.18107112059E+03  0.18107112059E+03  0.00000000000E+00 0.  1.
          2   -1    0    0  501    0  0.00000000000E+00 -0.00000000000E+00 -0.14203212548E+04  0.14203212548E+04  0.00000000000E+00 0.  1.
         36    2    1    2    0    0  0.00000000000E+00  0.71054273576E-14 -0.12392501342E+04  0.16013923754E+04  0.10142566957E+04 0.  0.
         25    2    3    3    0    0 -0.14783517592E+03 -0.20305152601E+02 -0.16444853343E+03  0.25364638947E+03  0.12257908585E+03 0.  0.
         35    2    3    3    0    0  0.14783517592E+03  0.20305152601E+02 -0.10748016007E+04  0.13477459859E+04  0.79934549666E+03 0.  0.
         22    1    5    5    0    0 -0.25199802316E+03 -0.19824762969E+03 -0.25441102895E+03  0.40930440751E+03  0.00000000000E+00 0. -1.
         22    1    5    5    0    0  0.39983319908E+03  0.21855278229E+03 -0.82039057180E+03  0.93844157838E+03  0.00000000000E+00 0. -1.
          5    1    4    4  502    0  0.18626680070E+02  0.76930705194E+01 -0.47621571571E+01  0.21234516365E+02  0.47000000000E+01 0.  1.
         -5    1    4    4    0  502 -0.16646185599E+03 -0.27998223121E+02 -0.15968637627E+03  0.23241187311E+03  0.47000000000E+01 0.  1.
<mgrwt>
<rscale>  0 0.10142567E+04</rscale>
<asrwt>0</asrwt>
<pdfrwt beam="1">  1        2 0.21851097E+00 0.10142567E+04</pdfrwt>
<pdfrwt beam="2">  1       -2 0.27857095E-01 0.10142567E+04</pdfrwt>
<totfact> 0.19876285E+02</totfact>
</mgrwt>
</event>
<event>
 9    1  0.4342579E-036  0.9994350E+03  0.7818608E-02  0.8681576E-01
         -2   -1    0    0    0  501 -0.00000000000E+00  0.00000000000E+00  0.72072626935E+03  0.72072626935E+03  0.00000000000E+00 0. -1.
          2   -1    0    0  501    0  0.00000000000E+00 -0.00000000000E+00 -0.34648050836E+03  0.34648050836E+03  0.00000000000E+00 0. -1.
         36    2    1    2    0    0  0.00000000000E+00  0.00000000000E+00  0.37424576099E+03  0.10672067777E+04  0.99943504880E+03 0.  0.
         25    2    3    3    0    0 -0.10052214622E+03  0.33787683773E+02  0.16617271148E+03  0.23353677199E+03  0.12521878603E+03 0.  0.
         35    2    3    3    0    0  0.10052214622E+03 -0.33787683773E+02  0.20807304951E+03  0.83367000573E+03  0.80029055665E+03 0.  0.
         22    1    5    5    0    0  0.66778508411E+02  0.24562007235E+02  0.51476461528E+03  0.51965880203E+03  0.00000000000E+00 0. -1.
         22    1    5    5    0    0  0.33743637810E+02 -0.58349691008E+02 -0.30669156577E+03  0.31401120369E+03  0.00000000000E+00 0. -1.
          5    1    4    4  502    0 -0.85857968373E+02  0.11088866608E+02  0.18219462426E+03  0.20177097117E+03  0.47000000000E+01 0.  1.
         -5    1    4    4    0  502 -0.14664177849E+02  0.22698817164E+02 -0.16021912783E+02  0.31765800822E+02  0.47000000000E+01 0.  1.
<mgrwt>
<rscale>  0 0.99943505E+03</rscale>
<asrwt>0</asrwt>
<pdfrwt beam="1">  1        2 0.53304694E-01 0.99943505E+03</pdfrwt>
<pdfrwt beam="2">  1       -2 0.11088096E+00 0.99943505E+03</pdfrwt>
<totfact> 0.70923350E+01</totfact>
</mgrwt>
</event>
<event>
 9    1  0.4342579E-036  0.1000549E+04  0.7818608E-02  0.8680516E-01
         -2   -1    0    0    0  501 -0.00000000000E+00  0.00000000000E+00  0.16855287433E+03  0.16855287433E+03  0.00000000000E+00 0. -1.
          2   -1    0    0  501    0  0.00000000000E+00 -0.00000000000E+00 -0.14848417580E+04  0.14848417580E+04  0.00000000000E+00 0. -1.
         36    2    1    2    0    0  0.14210854715E-13  0.14210854715E-13 -0.13162888836E+04  0.16533946323E+04  0.10005485420E+04 0.  0.
         25    2    3    3    0    0 -0.51710985989E+02 -0.89751035196E+02 -0.40787400481E+03  0.43844708691E+03  0.12306652604E+03 0.  0.
         35    2    3    3    0    0  0.51710985989E+02  0.89751035196E+02 -0.90841487882E+03  0.12149475454E+04  0.80009416417E+03 0.  0.
         22    1    5    5    0    0 -0.31109390417E+03 -0.12527178276E+03 -0.61721777529E+03  0.70244588325E+03  0.00000000000E+00 0.  1.
         22    1    5    5    0    0  0.36280489016E+03  0.21502281796E+03 -0.29119710353E+03  0.51250166211E+03  0.00000000000E+00 0.  1.
          5    1    4    4  502    0 -0.73506337136E+02 -0.40884026551E+02 -0.34782104068E+03  0.35787742533E+03  0.47000000000E+01 0.  1.
         -5    1    4    4    0  502  0.21795351147E+02 -0.48867008646E+02 -0.60052964132E+02  0.80569661577E+02  0.47000000000E+01 0.  1.
<mgrwt>
<rscale>  0 0.10005485E+04</rscale>
<asrwt>0</asrwt>
<pdfrwt beam="1">  1        2 0.22843719E+00 0.10005485E+04</pdfrwt>
<pdfrwt beam="2">  1       -2 0.25931212E-01 0.10005485E+04</pdfrwt>
<totfact> 0.20771893E+02</totfact>
</mgrwt>
</event>
<event>
 9    1  0.4342579E-036  0.1000131E+04  0.7818608E-02  0.8680914E-01
          2   -1    0    0  501    0  0.00000000000E+00  0.00000000000E+00  0.12890864098E+04  0.12890864098E+04  0.00000000000E+00 0. -1.
         -2   -1    0    0    0  501 -0.00000000000E+00 -0.00000000000E+00 -0.19398647504E+03  0.19398647504E+03  0.00000000000E+00 0. -1.
         36    2    1    2    0    0  0.00000000000E+00 -0.28421709430E-13  0.10950999348E+04  0.14830728848E+04  0.10001306488E+04 0.  0.
         25    2    3    3    0    0 -0.24479536331E+02 -0.88833045147E+02  0.44486285916E+02  0.15937119298E+03  0.12218670103E+03 0.  0.
         35    2    3    3    0    0  0.24479536331E+02  0.88833045147E+02  0.10506136489E+04  0.13237016919E+04  0.79994160555E+03 0.  0.
         22    1    5    5    0    0 -0.39232339089E+02  0.32957231847E+03  0.10201923125E+04  0.10728231187E+04  0.00000000000E+00 0. -1.
         22    1    5    5    0    0  0.63711875420E+02 -0.24073927332E+03  0.30421336397E+02  0.25087857321E+03  0.00000000000E+00 0. -1.
          5    1    4    4  502    0  0.24263717811E+02 -0.44672650208E+02  0.71714098408E+02  0.88030537821E+02  0.47000000000E+01 0.  1.
         -5    1    4    4    0  502 -0.48743254142E+02 -0.44160394939E+02 -0.27227812492E+02  0.71340655160E+02  0.47000000000E+01 0.  1.
<mgrwt>
<rscale>  0 0.10001306E+04</rscale>
<asrwt>0</asrwt>
<pdfrwt beam="1">  1        2 0.19832098E+00 0.10001306E+04</pdfrwt>
<pdfrwt beam="2">  1       -2 0.29844074E-01 0.10001306E+04</pdfrwt>
<totfact> 0.20875537E+02</totfact>
</mgrwt>
</event>
<event>
 9    1  0.4342579E-036  0.1002475E+04  0.7818608E-02  0.8678684E-01
          2   -1    0    0  501    0  0.00000000000E+00  0.00000000000E+00  0.12023564193E+04  0.12023564193E+04  0.00000000000E+00 0. -1.
         -2   -1    0    0    0  501 -0.00000000000E+00 -0.00000000000E+00 -0.20895558700E+03  0.20895558700E+03  0.00000000000E+00 0. -1.
         36    2    1    2    0    0  0.00000000000E+00 -0.14210854715E-13  0.99340083232E+03  0.14113120063E+04  0.10024751197E+04 0.  0.
         25    2    3    3    0    0  0.13078067733E+03  0.35190592579E+02  0.25621376694E+03  0.31560268025E+03  0.12497037267E+03 0.  0.
         35    2    3    3    0    0 -0.13078067733E+03 -0.35190592579E+02  0.73718706539E+03  0.10957093261E+04  0.79924476507E+03 0.  0.
         22    1    5    5    0    0 -0.76243240868E+02 -0.12859883346E+03 -0.14419880423E+03  0.20771130659E+03  0.00000000000E+00 0.  1.
         22    1    5    5    0    0 -0.54537436466E+02  0.93408240883E+02  0.88138586962E+03  0.88799801948E+03  0.00000000000E+00 0.  1.
          5    1    4    4  502    0  0.15350121647E+03  0.16766049005E+02  0.20986713136E+03  0.26059552314E+03  0.47000000000E+01 0. -1.
         -5    1    4    4    0  502 -0.22720539131E+02  0.18424543574E+02  0.46346635579E+02  0.55007157114E+02  0.47000000000E+01 0. -1.
<mgrwt>
<rscale>  0 0.10024751E+04</rscale>
<asrwt>0</asrwt>
<pdfrwt beam="1">  1        2 0.18497791E+00 0.10024751E+04</pdfrwt>
<pdfrwt beam="2">  1       -2 0.32147014E-01 0.10024751E+04</pdfrwt>
<totfact> 0.20478775E+02</totfact>
</mgrwt>
</event>
<event>
 9    1  0.4342579E-036  0.9968711E+03  0.7818608E-02  0.8684023E-01
         -2   -1    0    0    0  501 -0.00000000000E+00  0.00000000000E+00  0.10105477760E+03  0.10105477760E+03  0.00000000000E+00 0. -1.
          2   -1    0    0  501    0  0.00000000000E+00 -0.00000000000E+00 -0.24584488260E+04  0.24584488260E+04  0.00000000000E+00 0. -1.
         36    2    1    2    0    0  0.14210854715E-13  0.28421709430E-13 -0.23573940484E+04  0.25595036036E+04  0.99687110369E+03 0.  0.
         25    2    3    3    0    0  0.18523203146E+02  0.13812655108E+03 -0.44778884239E+03  0.48515727721E+03  0.12426054520E+03 0.  0.
         35    2    3    3    0    0 -0.18523203146E+02 -0.13812655108E+03 -0.19096052060E+04  0.20743463264E+04  0.79805926208E+03 0.  0.
         22    1    5    5    0    0 -0.23926150051E+03  0.25095420918E+03 -0.63464061425E+03  0.72318240437E+03  0.00000000000E+00 0.  1.
         22    1    5    5    0    0  0.22073829736E+03 -0.38908076025E+03 -0.12749645918E+04  0.13511639220E+04  0.00000000000E+00 0.  1.
          5    1    4    4  502    0  0.50571167668E+02  0.11999153333E+03 -0.23100846921E+03  0.26522144317E+03  0.47000000000E+01 0. -1.
         -5    1    4    4    0  502 -0.32047964522E+02  0.18135017747E+02 -0.21678037318E+03  0.21993583404E+03  0.47000000000E+01 0. -1.
<mgrwt>
<rscale>  0 0.99687110E+03</rscale>
<asrwt>0</asrwt>
<pdfrwt beam="1">  1        2 0.37822283E+00 0.99687110E+03</pdfrwt>
<pdfrwt beam="2">  1       -2 0.15546891E-01 0.99687110E+03</pdfrwt>
<totfact> 0.13896800E+02</totfact>
</mgrwt>
</event>
<event>
 9    1  0.4342579E-036  0.9993616E+03  0.7818608E-02  0.8681646E-01
         -1   -1    0    0    0  501 -0.00000000000E+00  0.00000000000E+00  0.22228045488E+03  0.22228045488E+03  0.00000000000E+00 0. -1.
          1   -1    0    0  501    0  0.00000000000E+00 -0.00000000000E+00 -0.11232696371E+04  0.11232696371E+04  0.00000000000E+00 0. -1.
         36    2    1    2    0    0 -0.10658141036E-13  0.10658141036E-13 -0.90098918226E+03  0.13455500920E+04  0.99936156800E+03 0.  0.
         25    2    3    3    0    0 -0.30793294619E+01 -0.21628845661E+02  0.17167783292E+02  0.12751734282E+03  0.12445340776E+03 0.  0.
         35    2    3    3    0    0  0.30793294619E+01  0.21628845661E+02 -0.91815696555E+03  0.12180327492E+04  0.80007141900E+03 0.  0.
         22    1    5    5    0    0 -0.99423083353E+02 -0.35156562803E+03 -0.65505838563E+03  0.75005655047E+03  0.00000000000E+00 0.  1.
         22    1    5    5    0    0  0.10250241282E+03  0.37319447369E+03 -0.26309857993E+03  0.46797619874E+03  0.00000000000E+00 0.  1.
          5    1    4    4  502    0  0.13475088434E+02 -0.28886346556E+02 -0.49067023530E+02  0.58699759997E+02  0.47000000000E+01 0.  1.
         -5    1    4    4    0  502 -0.16554417896E+02  0.72575008948E+01  0.66234806822E+02  0.68817582825E+02  0.47000000000E+01 0.  1.
<mgrwt>
<rscale>  0 0.99936157E+03</rscale>
<asrwt>0</asrwt>
<pdfrwt beam="1">  1        1 0.17281071E+00 0.99936157E+03</pdfrwt>
<pdfrwt beam="2">  1       -1 0.34196994E-01 0.99936157E+03</pdfrwt>
<totfact> 0.10922832E+02</totfact>
</mgrwt>
</event>
<event>
 9    1  0.4342579E-036  0.1000418E+04  0.7818608E-02  0.8680640E-01
          1   -1    0    0  501    0  0.00000000000E+00  0.00000000000E+00  0.11142991374E+04  0.11142991374E+04  0.00000000000E+00 0.  1.
         -1   -1    0    0    0  501 -0.00000000000E+00 -0.00000000000E+00 -0.22454393541E+03  0.22454393541E+03  0.00000000000E+00 0.  1.
         36    2    1    2    0    0 -0.28421709430E-13  0.00000000000E+00  0.88975520194E+03  0.13388430728E+04  0.10004181396E+04 0.  0.
         25    2    3    3    0    0 -0.27688690354E+02 -0.97984949000E+01 -0.16854184575E+02  0.12893798816E+03  0.12441168425E+03 0.  0.
         35    2    3    3    0    0  0.27688690354E+02  0.97984949000E+01  0.90660938652E+03  0.12099050846E+04  0.80066663473E+03 0.  0.
         22    1    5    5    0    0 -0.26743688125E+03  0.23377124061E+03  0.18914029456E+03  0.40242456363E+03  0.00000000000E+00 0. -1.
         22    1    5    5    0    0  0.29512557160E+03 -0.22397274571E+03  0.71746909196E+03  0.80748052098E+03  0.00000000000E+00 0. -1.
          5    1    4    4  502    0 -0.64752537598E+02 -0.39978224680E+02  0.44998265456E+01  0.76377274192E+02  0.47000000000E+01 0. -1.
         -5    1    4    4    0  502  0.37063847244E+02  0.30179729780E+02 -0.21354011120E+02  0.52560713971E+02  0.47000000000E+01 0. -1.
<mgrwt>
<rscale>  0 0.10004181E+04</rscale>
<asrwt>0</asrwt>
<pdfrwt beam="1">  1        1 0.17143063E+00 0.10004181E+04</pdfrwt>
<pdfrwt beam="2">  1       -1 0.34545221E-01 0.10004181E+04</pdfrwt>
<totfact> 0.10901244E+02</totfact>
</mgrwt>
</event>
<event>
 9    1  0.4342579E-036  0.1001932E+04  0.7818608E-02  0.8679200E-01
          2   -1    0    0  501    0  0.00000000000E+00  0.00000000000E+00  0.44920616886E+03  0.44920616886E+03  0.00000000000E+00 0.  1.
         -2   -1    0    0    0  501 -0.00000000000E+00 -0.00000000000E+00 -0.55868972774E+03  0.55868972774E+03  0.00000000000E+00 0.  1.
         36    2    1    2    0    0 -0.28421709430E-13  0.00000000000E+00 -0.10948355888E+03  0.10078958966E+04  0.10019318783E+04 0.  0.
         25    2    3    3    0    0 -0.98980558062E+02 -0.56763696351E+02 -0.11954067970E+03  0.20057245687E+03  0.11366647815E+03 0.  0.
         35    2    3    3    0    0  0.98980558062E+02  0.56763696351E+02  0.10057120824E+02  0.80732343973E+03  0.79915625666E+03 0.  0.
         22    1    5    5    0    0  0.41111963719E+03  0.89745299229E+02 -0.16017545885E+03  0.45025520811E+03  0.00000000000E+00 0. -1.
         22    1    5    5    0    0 -0.31213907912E+03 -0.32981602878E+02  0.17023257968E+03  0.35706823161E+03  0.00000000000E+00 0. -1.
          5    1    4    4  502    0 -0.10625481060E+03 -0.49867992078E+02 -0.13664589963E+03  0.18019737316E+03  0.47000000000E+01 0.  1.
         -5    1    4    4    0  502  0.72742525340E+01 -0.68957042734E+01  0.17105219930E+02  0.20375083710E+02  0.47000000000E+01 0.  1.
<mgrwt>
<rscale>  0 0.10019319E+04</rscale>
<asrwt>0</asrwt>
<pdfrwt beam="1">  1        2 0.69108642E-01 0.10019319E+04</pdfrwt>
<pdfrwt beam="2">  1       -2 0.85952266E-01 0.10019319E+04</pdfrwt>
<totfact> 0.98097627E+01</totfact>
</mgrwt>
</event>
<event>
 9    1  0.4342579E-036  0.9998401E+03  0.7818608E-02  0.8681190E-01
          2   -1    0    0  501    0  0.00000000000E+00  0.00000000000E+00  0.46687527574E+03  0.46687527574E+03  0.00000000000E+00 0.  1.
         -2   -1    0    0    0  501 -0.00000000000E+00 -0.00000000000E+00 -0.53530368846E+03  0.53530368846E+03  0.00000000000E+00 0.  1.
         36    2    1    2    0    0  0.28421709430E-13 -0.14210854715E-13 -0.68428412714E+02  0.10021789642E+04  0.99984010152E+03 0.  0.
         25    2    3    3    0    0 -0.32914225427E+02 -0.99496683283E+02  0.81179679785E+02  0.18217365991E+03  0.12495665542E+03 0.  0.
         35    2    3    3    0    0  0.32914225427E+02  0.99496683283E+02 -0.14960809250E+03  0.82000530429E+03  0.79940176476E+03 0.  0.
         22    1    5    5    0    0  0.29299207036E+03  0.32957341776E+03  0.23133021679E+01  0.44098564869E+03  0.00000000000E+00 0. -1.
         22    1    5    5    0    0 -0.26007784493E+03 -0.23007673448E+03 -0.15192139467E+03  0.37901965560E+03  0.00000000000E+00 0. -1.
          5    1    4    4  502    0 -0.71526798683E+02 -0.68315317855E+02  0.87219900868E+02  0.13195630599E+03  0.47000000000E+01 0.  1.
         -5    1    4    4    0  502  0.38612573256E+02 -0.31181365428E+02 -0.60402210828E+01  0.50217353914E+02  0.47000000000E+01 0.  1.
<mgrwt>
<rscale>  0 0.99984010E+03</rscale>
<asrwt>0</asrwt>
<pdfrwt beam="1">  1        2 0.71826966E-01 0.99984010E+03</pdfrwt>
<pdfrwt beam="2">  1       -2 0.82354414E-01 0.99984010E+03</pdfrwt>
<totfact> 0.10377844E+02</totfact>
</mgrwt>
</event>
<event>
 9    1  0.4342579E-036  0.1008718E+04  0.7818608E-02  0.8672780E-01
         -2   -1    0    0    0  501 -0.00000000000E+00  0.00000000000E+00  0.30412798880E+03  0.30412798880E+03  0.00000000000E+00 0. -1.
          2   -1    0    0  501    0  0.00000000000E+00 -0.00000000000E+00 -0.83641761579E+03  0.83641761579E+03  0.00000000000E+00 0. -1.
         36    2    1    2    0    0  0.21316282073E-13  0.14210854715E-13 -0.53228962699E+03  0.11405456046E+04  0.10087180127E+04 0.  0.
         25    2    3    3    0    0 -0.31645476119E+02 -0.39924388012E+02 -0.26359178716E+03  0.29619667598E+03  0.12512572751E+03 0.  0.
         35    2    3    3    0    0  0.31645476119E+02  0.39924388012E+02 -0.26869783983E+03  0.84434892861E+03  0.79883114060E+03 0.  0.
         22    1    5    5    0    0 -0.13953532557E+03 -0.17414278532E+03 -0.45920365079E+03  0.51055245534E+03  0.00000000000E+00 0.  1.
         22    1    5    5    0    0  0.17118080168E+03  0.21406717333E+03  0.19050581095E+03  0.33379647327E+03  0.00000000000E+00 0.  1.
          5    1    4    4  502    0 -0.36945066378E+02 -0.78213609076E+02 -0.12390970773E+03  0.15118866440E+03  0.47000000000E+01 0. -1.
         -5    1    4    4    0  502  0.52995902590E+01  0.38289221064E+02 -0.13968207943E+03  0.14500801158E+03  0.47000000000E+01 0. -1.
<mgrwt>
<rscale>  0 0.10087180E+04</rscale>
<asrwt>0</asrwt>
<pdfrwt beam="1">  1        2 0.12867963E+00 0.10087180E+04</pdfrwt>
<pdfrwt beam="2">  1       -2 0.46788922E-01 0.10087180E+04</pdfrwt>
<totfact> 0.17011498E+02</totfact>
</mgrwt>
</event>
<event>
 9    1  0.4342579E-036  0.9999019E+03  0.7818608E-02  0.8681131E-01
          2   -1    0    0  501    0  0.00000000000E+00  0.00000000000E+00  0.50273545136E+03  0.50273545136E+03  0.00000000000E+00 0.  1.
         -2   -1    0    0    0  501 -0.00000000000E+00 -0.00000000000E+00 -0.49718185697E+03  0.49718185697E+03  0.00000000000E+00 0.  1.
         36    2    1    2    0    0  0.00000000000E+00 -0.14210854715E-13  0.55535943985E+01  0.99991730833E+03  0.99990188573E+03 0.  0.
         25    2    3    3    0    0  0.12935155296E+03 -0.41414922449E+02 -0.40364114107E+02  0.18829773021E+03  0.12401513391E+03 0.  0.
         35    2    3    3    0    0 -0.12935155296E+03  0.41414922449E+02  0.45917708506E+02  0.81161957812E+03  0.79885598426E+03 0.  0.
         22    1    5    5    0    0  0.27197374308E+03 -0.17274365359E+03  0.13282605459E+03  0.34850085733E+03  0.00000000000E+00 0.  1.
         22    1    5    5    0    0 -0.40132529604E+03  0.21415857604E+03 -0.86908346088E+02  0.46311872080E+03  0.00000000000E+00 0.  1.
          5    1    4    4  502    0  0.14764973882E+03 -0.11035987183E+02 -0.31726833435E+02  0.15149561164E+03  0.47000000000E+01 0.  1.
         -5    1    4    4    0  502 -0.18298185857E+02 -0.30378935266E+02 -0.86372806719E+01  0.36802118567E+02  0.47000000000E+01 0.  1.
<mgrwt>
<rscale>  0 0.99990189E+03</rscale>
<asrwt>0</asrwt>
<pdfrwt beam="1">  1        2 0.77343916E-01 0.99990189E+03</pdfrwt>
<pdfrwt beam="2">  1       -2 0.76489516E-01 0.99990189E+03</pdfrwt>
<totfact> 0.11291420E+02</totfact>
</mgrwt>
</event>
<event>
 9    1  0.4342579E-036  0.1002248E+04  0.7818608E-02  0.8678900E-01
          2   -1    0    0  501    0  0.00000000000E+00  0.00000000000E+00  0.98744433733E+03  0.98744433733E+03  0.00000000000E+00 0. -1.
         -2   -1    0    0    0  501 -0.00000000000E+00 -0.00000000000E+00 -0.25431855566E+03  0.25431855566E+03  0.00000000000E+00 0. -1.
         36    2    1    2    0    0 -0.56843418861E-13  0.14210854715E-13  0.73312578167E+03  0.12417628930E+04  0.10022483079E+04 0.  0.
         25    2    3    3    0    0 -0.90188754806E+02  0.82503517661E+02  0.22355201055E+03  0.28517481995E+03  0.12809502174E+03 0.  0.
         35    2    3    3    0    0  0.90188754806E+02 -0.82503517661E+02  0.50957377112E+03  0.95658807305E+03  0.80028399419E+03 0.  0.
         22    1    5    5    0    0 -0.33867555484E+03  0.83575211554E+02  0.24133149106E+03  0.42417783536E+03  0.00000000000E+00 0. -1.
         22    1    5    5    0    0  0.42886430964E+03 -0.16607872921E+03  0.26824228007E+03  0.53241023769E+03  0.00000000000E+00 0. -1.
          5    1    4    4  502    0 -0.76806815926E+02  0.10728874737E+03  0.21975370982E+03  0.25636681779E+03  0.47000000000E+01 0. -1.
         -5    1    4    4    0  502 -0.13381938879E+02 -0.24785229709E+02  0.37983007237E+01  0.28808002157E+02  0.47000000000E+01 0. -1.
<mgrwt>
<rscale>  0 0.10022483E+04</rscale>
<asrwt>0</asrwt>
<pdfrwt beam="1">  1        2 0.15191451E+00 0.10022483E+04</pdfrwt>
<pdfrwt beam="2">  1       -2 0.39125932E-01 0.10022483E+04</pdfrwt>
<totfact> 0.19161532E+02</totfact>
</mgrwt>
</event>
<event>
 9    1  0.4342579E-036  0.9994248E+03  0.7818608E-02  0.8681586E-01
          2   -1    0    0  501    0  0.00000000000E+00  0.00000000000E+00  0.24393202405E+04  0.24393202405E+04  0.00000000000E+00 0.  1.
         -2   -1    0    0    0  501 -0.00000000000E+00 -0.00000000000E+00 -0.10236970036E+03  0.10236970036E+03  0.00000000000E+00 0.  1.
         36    2    1    2    0    0 -0.28421709430E-13  0.00000000000E+00  0.23369505401E+04  0.25416899408E+04  0.99942479877E+03 0.  0.
         25    2    3    3    0    0  0.11123763030E+03 -0.83702158252E+02  0.48879443453E+03  0.52319743208E+03  0.12424046048E+03 0.  0.
         35    2    3    3    0    0 -0.11123763030E+03  0.83702158252E+02  0.18481561056E+04  0.20184925088E+04  0.79953183525E+03 0.  0.
         22    1    5    5    0    0  0.27758463736E+03 -0.16729877352E+03  0.52768715118E+03  0.61927040947E+03  0.00000000000E+00 0. -1.
         22    1    5    5    0    0 -0.38882226766E+03  0.25100093177E+03  0.13204689544E+04  0.13992220993E+04  0.00000000000E+00 0. -1.
          5    1    4    4  502    0  0.77925436958E+02 -0.11177113345E+03  0.42056994652E+03  0.44211574267E+03  0.47000000000E+01 0.  1.
         -5    1    4    4    0  502  0.33312193344E+02  0.28068975202E+02  0.68224488010E+02  0.81081689416E+02  0.47000000000E+01 0.  1.
<mgrwt>
<rscale>  0 0.99942480E+03</rscale>
<asrwt>0</asrwt>
<pdfrwt beam="1">  1        2 0.37527999E+00 0.99942480E+03</pdfrwt>
<pdfrwt beam="2">  1       -2 0.15749186E-01 0.99942480E+03</pdfrwt>
<totfact> 0.13962783E+02</totfact>
</mgrwt>
</event>
<event>
 9    1  0.4342579E-036  0.9984590E+03  0.7818608E-02  0.8682507E-01
         -2   -1    0    0    0  501 -0.00000000000E+00  0.00000000000E+00  0.15847989493E+03  0.15847989493E+03  0.00000000000E+00 0.  1.
          2   -1    0    0  501    0  0.00000000000E+00 -0.00000000000E+00 -0.15726290968E+04  0.15726290968E+04  0.00000000000E+00 0.  1.
         36    2    1    2    0    0  0.42632564146E-13 -0.71054273576E-14 -0.14141492018E+04  0.17311089917E+04  0.99845900070E+03 0.  0.
         25    2    3    3    0    0  0.83621602525E+02  0.17755310795E+02 -0.45067477393E+03  0.47547153821E+03  0.12513036532E+03 0.  0.
         35    2    3    3    0    0 -0.83621602525E+02 -0.17755310795E+02 -0.96347442791E+03  0.12556374535E+04  0.80064637505E+03 0.  0.
         22    1    5    5    0    0 -0.36970733145E+03 -0.23739818027E+03 -0.59910288303E+03  0.74294392210E+03  0.00000000000E+00 0.  1.
         22    1    5    5    0    0  0.28608572893E+03  0.21964286947E+03 -0.36437154487E+03  0.51269353138E+03  0.00000000000E+00 0.  1.
          5    1    4    4  502    0  0.91213564503E+02  0.46681344670E+02 -0.42011659582E+03  0.43245705726E+03  0.47000000000E+01 0.  1.
         -5    1    4    4    0  502 -0.75919619780E+01 -0.28926033876E+02 -0.30558178105E+02  0.43014480951E+02  0.47000000000E+01 0.  1.
<mgrwt>
<rscale>  0 0.99845900E+03</rscale>
<asrwt>0</asrwt>
<pdfrwt beam="1">  1        2 0.24194294E+00 0.99845900E+03</pdfrwt>
<pdfrwt beam="2">  1       -2 0.24381523E-01 0.99845900E+03</pdfrwt>
<totfact> 0.20670435E+02</totfact>
</mgrwt>
</event>
<event>
 9    1  0.4342579E-036  0.9987300E+03  0.7818608E-02  0.8682248E-01
          2   -1    0    0  501    0  0.00000000000E+00  0.00000000000E+00  0.97506427882E+03  0.97506427882E+03  0.00000000000E+00 0.  1.
         -2   -1    0    0    0  501 -0.00000000000E+00 -0.00000000000E+00 -0.25574251084E+03  0.25574251084E+03  0.00000000000E+00 0.  1.
         36    2    1    2    0    0  0.14210854715E-13  0.00000000000E+00  0.71932176799E+03  0.12308067897E+04  0.99872996730E+03 0.  0.
         25    2    3    3    0    0  0.17465840386E+02  0.26728641245E+02  0.28616094730E+03  0.31411154604E+03  0.12553286323E+03 0.  0.
         35    2    3    3    0    0 -0.17465840386E+02 -0.26728641245E+02  0.43316082068E+03  0.91669524362E+03  0.80726847904E+03 0.  0.
         22    1    5    5    0    0 -0.26305173750E+03 -0.31374226971E+03  0.12177108592E+03  0.42715175965E+03  0.00000000000E+00 0. -1.
         22    1    5    5    0    0  0.24558589712E+03  0.28701362846E+03  0.31138973476E+03  0.48954348397E+03  0.00000000000E+00 0. -1.
          5    1    4    4  502    0  0.25656127206E+02 -0.96380381246E+01  0.24400973371E+01  0.27913665419E+02  0.47000000000E+01 0. -1.
         -5    1    4    4    0  502 -0.81902868203E+01  0.36366679370E+02  0.28372084997E+03  0.28619788062E+03  0.47000000000E+01 0. -1.
<mgrwt>
<rscale>  0 0.99872997E+03</rscale>
<asrwt>0</asrwt>
<pdfrwt beam="1">  1        2 0.15000989E+00 0.99872997E+03</pdfrwt>
<pdfrwt beam="2">  1       -2 0.39345002E-01 0.99872997E+03</pdfrwt>
<totfact> 0.19304532E+02</totfact>
</mgrwt>
</event>
<event>
 9    1  0.4342579E-036  0.9999890E+03  0.7818608E-02  0.8681048E-01
         -2   -1    0    0    0  501 -0.00000000000E+00  0.00000000000E+00  0.16782621644E+03  0.16782621644E+03  0.00000000000E+00 0. -1.
          2   -1    0    0  501    0  0.00000000000E+00 -0.00000000000E+00 -0.14896032873E+04  0.14896032873E+04  0.00000000000E+00 0. -1.
         36    2    1    2    0    0  0.71054273576E-14  0.00000000000E+00 -0.13217770709E+04  0.16574295037E+04  0.99998896736E+03 0.  0.
         25    2    3    3    0    0 -0.38706876303E+02  0.12804577180E+03 -0.18055935467E+03  0.25716500717E+03  0.12505286244E+03 0.  0.
         35    2    3    3    0    0  0.38706876303E+02 -0.12804577180E+03 -0.11412177162E+04  0.14002644966E+04  0.80029297303E+03 0.  0.
         22    1    5    5    0    0  0.49772612002E+02  0.94296920967E+02 -0.11708393843E+04  0.11756845181E+04  0.00000000000E+00 0. -1.
         22    1    5    5    0    0 -0.11065735699E+02 -0.22234269276E+03  0.29621668093E+02  0.22457997852E+03  0.00000000000E+00 0. -1.
          5    1    4    4  502    0 -0.57037899748E+02  0.81321773474E+02 -0.38858627580E+02  0.10676439381E+03  0.47000000000E+01 0. -1.
         -5    1    4    4    0  502  0.18331023445E+02  0.46723998323E+02 -0.14170072709E+03  0.15040061336E+03  0.47000000000E+01 0. -1.
<mgrwt>
<rscale>  0 0.99998897E+03</rscale>
<asrwt>0</asrwt>
<pdfrwt beam="1">  1        2 0.22916975E+00 0.99998897E+03</pdfrwt>
<pdfrwt beam="2">  1       -2 0.25819417E-01 0.99998897E+03</pdfrwt>
<totfact> 0.20802990E+02</totfact>
</mgrwt>
</event>
<event>
 9    1  0.4342579E-036  0.9999842E+03  0.7818608E-02  0.8681053E-01
          1   -1    0    0  501    0  0.00000000000E+00  0.00000000000E+00  0.15730889083E+04  0.15730889083E+04  0.00000000000E+00 0. -1.
         -1   -1    0    0    0  501 -0.00000000000E+00 -0.00000000000E+00 -0.15891798166E+03  0.15891798166E+03  0.00000000000E+00 0. -1.
         36    2    1    2    0    0  0.14210854715E-13  0.00000000000E+00  0.14141709266E+04  0.17320068899E+04  0.99998422843E+03 0.  0.
         25    2    3    3    0    0  0.33329011084E+02  0.11278624185E+03  0.39799698728E+03  0.43352822595E+03  0.12535374540E+03 0.  0.
         35    2    3    3    0    0 -0.33329011084E+02 -0.11278624185E+03  0.10161739393E+04  0.12984786640E+04  0.79975359112E+03 0.  0.
         22    1    5    5    0    0 -0.37439287188E+03  0.43602219642E+02  0.27119398748E+03  0.46434615851E+03  0.00000000000E+00 0. -1.
         22    1    5    5    0    0  0.34106386080E+03 -0.15638846149E+03  0.74497995185E+03  0.83413250547E+03  0.00000000000E+00 0. -1.
          5    1    4    4  502    0 -0.46693907276E+02  0.41180434574E+02  0.11589546888E+03  0.13164345360E+03  0.47000000000E+01 0. -1.
         -5    1    4    4    0  502  0.80022918360E+02  0.71605807278E+02  0.28210151839E+03  0.30188477235E+03  0.47000000000E+01 0. -1.
<mgrwt>
<rscale>  0 0.99998423E+03</rscale>
<asrwt>0</asrwt>
<pdfrwt beam="1">  1        1 0.24201367E+00 0.99998423E+03</pdfrwt>
<pdfrwt beam="2">  1       -1 0.24448921E-01 0.99998423E+03</pdfrwt>
<totfact> 0.91032858E+01</totfact>
</mgrwt>
</event>
<event>
 9    1  0.4342579E-036  0.1000674E+04  0.7818608E-02  0.8680396E-01
         -2   -1    0    0    0  501 -0.00000000000E+00  0.00000000000E+00  0.23918760715E+03  0.23918760715E+03  0.00000000000E+00 0. -1.
          2   -1    0    0  501    0  0.00000000000E+00 -0.00000000000E+00 -0.10466143830E+04  0.10466143830E+04  0.00000000000E+00 0. -1.
         36    2    1    2    0    0  0.00000000000E+00  0.00000000000E+00 -0.80742677583E+03  0.12858019901E+04  0.10006741525E+04 0.  0.
         25    2    3    3    0    0  0.10499094077E+03 -0.75575643906E+02 -0.21947788322E+03  0.28401037639E+03  0.12552520496E+03 0.  0.
         35    2    3    3    0    0 -0.10499094077E+03  0.75575643906E+02 -0.58794889262E+03  0.10017916137E+04  0.80072951827E+03 0.  0.
         22    1    5    5    0    0 -0.10647286207E+03  0.39278526355E+03 -0.54724472433E+03  0.68197765501E+03  0.00000000000E+00 0. -1.
         22    1    5    5    0    0  0.14819212986E+01 -0.31720961964E+03 -0.40704168283E+02  0.31981395873E+03  0.00000000000E+00 0. -1.
          5    1    4    4  502    0  0.11304037077E+02 -0.32030307006E+01 -0.14174368583E+03  0.14230742473E+03  0.47000000000E+01 0. -1.
         -5    1    4    4    0  502  0.93686903692E+02 -0.72372613206E+02 -0.77734197383E+02  0.14170295166E+03  0.47000000000E+01 0. -1.
<mgrwt>
<rscale>  0 0.10006742E+04</rscale>
<asrwt>0</asrwt>
<pdfrwt beam="1">  1        2 0.16101760E+00 0.10006742E+04</pdfrwt>
<pdfrwt beam="2">  1       -2 0.36798092E-01 0.10006742E+04</pdfrwt>
<totfact> 0.19768529E+02</totfact>
</mgrwt>
</event>
<event>
 9    1  0.4342579E-036  0.9994727E+03  0.7818608E-02  0.8681540E-01
          2   -1    0    0  501    0  0.00000000000E+00  0.00000000000E+00  0.31116679013E+04  0.31116679013E+04  0.00000000000E+00 0. -1.
         -2   -1    0    0    0  501 -0.00000000000E+00 -0.00000000000E+00 -0.80258060791E+02  0.80258060791E+02  0.00000000000E+00 0. -1.
         36    2    1    2    0    0  0.21316282073E-13 -0.14210854715E-13  0.30314098405E+04  0.31919259621E+04  0.99947272416E+03 0.  0.
         25    2    3    3    0    0  0.50106747568E+02 -0.11879155308E+03  0.72334615871E+03  0.74514087881E+03  0.12402880596E+03 0.  0.
         35    2    3    3    0    0 -0.50106747568E+02  0.11879155308E+03  0.23080636818E+04  0.24467850833E+04  0.80185856941E+03 0.  0.
         22    1    5    5    0    0 -0.42054568421E+03  0.50057136212E+02  0.10113441005E+04  0.10964402761E+04  0.00000000000E+00 0. -1.
         22    1    5    5    0    0  0.37043893664E+03  0.68734416865E+02  0.12967195812E+04  0.13503448072E+04  0.00000000000E+00 0. -1.
          5    1    4    4  502    0  0.36362697463E+02 -0.42713677924E+02  0.57540157641E+03  0.57814856930E+03  0.47000000000E+01 0.  1.
         -5    1    4    4    0  502  0.13744050104E+02 -0.76077875153E+02  0.14794458230E+03  0.16699230951E+03  0.47000000000E+01 0.  1.
<mgrwt>
<rscale>  0 0.99947272E+03</rscale>
<asrwt>0</asrwt>
<pdfrwt beam="1">  1        2 0.47871805E+00 0.99947272E+03</pdfrwt>
<pdfrwt beam="2">  1       -2 0.12347396E-01 0.99947272E+03</pdfrwt>
<totfact> 0.77728465E+01</totfact>
</mgrwt>
</event>
<event>
 9    1  0.4342579E-036  0.9999133E+03  0.7818608E-02  0.8681121E-01
         -2   -1    0    0    0  501 -0.00000000000E+00  0.00000000000E+00  0.44337710008E+03  0.44337710008E+03  0.00000000000E+00 0. -1.
          2   -1    0    0  501    0  0.00000000000E+00 -0.00000000000E+00 -0.56375629449E+03  0.56375629449E+03  0.00000000000E+00 0. -1.
         36    2    1    2    0    0  0.00000000000E+00  0.00000000000E+00 -0.12037919441E+03  0.10071333946E+04  0.99991325824E+03 0.  0.
         25    2    3    3    0    0 -0.61656371403E+02 -0.77625049498E+02  0.78863720152E+02  0.17750956042E+03  0.12435031660E+03 0.  0.
         35    2    3    3    0    0  0.61656371403E+02  0.77625049498E+02 -0.19924291456E+03  0.82962383415E+03  0.79921887536E+03 0.  0.
         22    1    5    5    0    0 -0.14059024236E+03  0.39868114715E+03 -0.68346458005E+02  0.42823301094E+03  0.00000000000E+00 0.  1.
         22    1    5    5    0    0  0.20224661376E+03 -0.32105609765E+03 -0.13089645656E+03  0.40139082321E+03  0.00000000000E+00 0.  1.
          5    1    4    4  502    0 -0.92558971764E+01  0.30224685907E+02  0.40371349942E+02  0.51489214083E+02  0.47000000000E+01 0. -1.
         -5    1    4    4    0  502 -0.52400474226E+02 -0.10784973540E+03  0.38492370210E+02  0.12602034634E+03  0.47000000000E+01 0. -1.
<mgrwt>
<rscale>  0 0.99991326E+03</rscale>
<asrwt>0</asrwt>
<pdfrwt beam="1">  1        2 0.86731738E-01 0.99991326E+03</pdfrwt>
<pdfrwt beam="2">  1       -2 0.68211862E-01 0.99991326E+03</pdfrwt>
<totfact> 0.12718888E+02</totfact>
</mgrwt>
</event>
<event>
 9    1  0.4342579E-036  0.9917308E+03  0.7818608E-02  0.8688953E-01
         -2   -1    0    0    0  501 -0.00000000000E+00  0.00000000000E+00  0.18895526910E+03  0.18895526910E+03  0.00000000000E+00 0.  1.
          2   -1    0    0  501    0  0.00000000000E+00 -0.00000000000E+00 -0.13012736796E+04  0.13012736796E+04  0.00000000000E+00 0.  1.
         36    2    1    2    0    0  0.14210854715E-13  0.00000000000E+00 -0.11123184105E+04  0.14902289487E+04  0.99173084715E+03 0.  0.
         25    2    3    3    0    0  0.70821722487E+02  0.89855014266E+02 -0.29897676650E+03  0.34355342954E+03  0.12470850844E+03 0.  0.
         35    2    3    3    0    0 -0.70821722487E+02 -0.89855014266E+02 -0.81334164400E+03  0.11466755191E+04  0.80015653243E+03 0.  0.
         22    1    5    5    0    0 -0.41269100336E+03 -0.51434366782E+02 -0.24603938371E+03  0.48321293099E+03  0.00000000000E+00 0. -1.
         22    1    5    5    0    0  0.34186928087E+03 -0.38420647484E+02 -0.56730226028E+03  0.66346258815E+03  0.00000000000E+00 0. -1.
          5    1    4    4  502    0  0.68926782795E+02  0.96243299160E+02 -0.30882369437E+03  0.33076855689E+03  0.47000000000E+01 0. -1.
         -5    1    4    4    0  502  0.18949396928E+01 -0.63882848936E+01  0.98469278711E+01  0.12784872656E+02  0.47000000000E+01 0. -1.
<mgrwt>
<rscale>  0 0.99173085E+03</rscale>
<asrwt>0</asrwt>
<pdfrwt beam="1">  1        2 0.20019595E+00 0.99173085E+03</pdfrwt>
<pdfrwt beam="2">  1       -2 0.29070042E-01 0.99173085E+03</pdfrwt>
<totfact> 0.21543274E+02</totfact>
</mgrwt>
</event>
<event>
 9    1  0.4342579E-036  0.1000198E+04  0.7818608E-02  0.8680850E-01
          2   -1    0    0  501    0  0.00000000000E+00  0.00000000000E+00  0.10773352196E+04  0.10773352196E+04  0.00000000000E+00 0.  1.
         -2   -1    0    0    0  501 -0.00000000000E+00 -0.00000000000E+00 -0.23214576567E+03  0.23214576567E+03  0.00000000000E+00 0.  1.
         36    2    1    2    0    0  0.00000000000E+00  0.10658141036E-13  0.84518945395E+03  0.13094809853E+04  0.10001975994E+04 0.  0.
         25    2    3    3    0    0 -0.13457074059E+03 -0.20941477779E+01  0.21072809138E+03  0.27956163701E+03  0.12503883682E+03 0.  0.
         35    2    3    3    0    0  0.13457074059E+03  0.20941477779E+01  0.63446136257E+03  0.10299193483E+04  0.80004935703E+03 0.  0.
         22    1    5    5    0    0  0.25829670804E+03  0.14668181840E+03 -0.65817415732E+02  0.30424443700E+03  0.00000000000E+00 0.  1.
         22    1    5    5    0    0 -0.12372596745E+03 -0.14458767062E+03  0.70027877830E+03  0.72567491127E+03  0.00000000000E+00 0.  1.
          5    1    4    4  502    0  0.11348177882E+02 -0.24562226795E+02  0.71427722336E+02  0.76525117736E+02  0.47000000000E+01 0.  1.
         -5    1    4    4    0  502 -0.14591891847E+03  0.22468079017E+02  0.13930036905E+03  0.20303651928E+03  0.47000000000E+01 0.  1.
<mgrwt>
<rscale>  0 0.10001976E+04</rscale>
<asrwt>0</asrwt>
<pdfrwt beam="1">  1        2 0.16574388E+00 0.10001976E+04</pdfrwt>
<pdfrwt beam="2">  1       -2 0.35714734E-01 0.10001976E+04</pdfrwt>
<totfact> 0.20020680E+02</totfact>
</mgrwt>
</event>
<event>
 9    1  0.4342579E-036  0.1002690E+04  0.7818608E-02  0.8678481E-01
          1   -1    0    0  501    0  0.00000000000E+00  0.00000000000E+00  0.96710965022E+03  0.96710965022E+03  0.00000000000E+00 0. -1.
         -1   -1    0    0    0  501 -0.00000000000E+00 -0.00000000000E+00 -0.25989482718E+03  0.25989482718E+03  0.00000000000E+00 0. -1.
         36    2    1    2    0    0  0.28421709430E-13  0.31974423109E-13  0.70721482304E+03  0.12270044774E+04  0.10026899728E+04 0.  0.
         25    2    3    3    0    0 -0.13715774989E+03 -0.14122441304E+02  0.17727127272E+03  0.25665430839E+03  0.12423621927E+03 0.  0.
         35    2    3    3    0    0  0.13715774989E+03  0.14122441304E+02  0.52994355031E+03  0.97035016901E+03  0.80107901750E+03 0.  0.
         22    1    5    5    0    0  0.33202355840E+03 -0.24700097617E+03  0.91021831974E+02  0.42371464390E+03  0.00000000000E+00 0. -1.
         22    1    5    5    0    0 -0.19486580851E+03  0.26112341748E+03  0.43892171834E+03  0.54663552511E+03  0.00000000000E+00 0. -1.
          5    1    4    4  502    0 -0.67155954464E+02  0.23859197729E+02  0.11042625948E+02  0.72271800338E+02  0.47000000000E+01 0.  1.
         -5    1    4    4    0  502 -0.70001795426E+02 -0.37981639033E+02  0.16622864678E+03  0.18438250805E+03  0.47000000000E+01 0.  1.
<mgrwt>
<rscale>  0 0.10026900E+04</rscale>
<asrwt>0</asrwt>
<pdfrwt beam="1">  1        1 0.14878610E+00 0.10026900E+04</pdfrwt>
<pdfrwt beam="2">  1       -1 0.39983820E-01 0.10026900E+04</pdfrwt>
<totfact> 0.10987614E+02</totfact>
</mgrwt>
</event>
<event>
 9    1  0.4342579E-036  0.1000219E+04  0.7818608E-02  0.8680830E-01
          2   -1    0    0  501    0  0.00000000000E+00  0.00000000000E+00  0.19414457967E+04  0.19414457967E+04  0.00000000000E+00 0.  1.
         -2   -1    0    0    0  501 -0.00000000000E+00 -0.00000000000E+00 -0.12882632103E+03  0.12882632103E+03  0.00000000000E+00 0.  1.
         36    2    1    2    0    0 -0.21316282073E-13  0.14210854715E-13  0.18126194756E+04  0.20702721177E+04  0.10002186151E+04 0.  0.
         25    2    3    3    0    0  0.18960017307E+02  0.31166975861E+02  0.62390842133E+03  0.63735233860E+03  0.12500169070E+03 0.  0.
         35    2    3    3    0    0 -0.18960017307E+02 -0.31166975861E+02  0.11887110543E+04  0.14329197791E+04  0.79930861378E+03 0.  0.
         22    1    5    5    0    0 -0.25539407795E+03  0.29855026203E+03  0.62909708755E+03  0.74170178615E+03  0.00000000000E+00 0.  1.
         22    1    5    5    0    0  0.23643406064E+03 -0.32971723789E+03  0.55961396676E+03  0.69121799296E+03  0.00000000000E+00 0.  1.
          5    1    4    4  502    0  0.29209060770E+02 -0.40476854250E+02  0.15605623464E+03  0.16391212075E+03  0.47000000000E+01 0.  1.
         -5    1    4    4    0  502 -0.10249043463E+02  0.71643830110E+02  0.46785218669E+03  0.47344021785E+03  0.47000000000E+01 0.  1.
<mgrwt>
<rscale>  0 0.10002186E+04</rscale>
<asrwt>0</asrwt>
<pdfrwt beam="1">  1        2 0.29868395E+00 0.10002186E+04</pdfrwt>
<pdfrwt beam="2">  1       -2 0.19819435E-01 0.10002186E+04</pdfrwt>
<totfact> 0.18384581E+02</totfact>
</mgrwt>
</event>
<event>
 9    1  0.4342579E-036  0.1000039E+04  0.7818608E-02  0.8681001E-01
         -2   -1    0    0    0  501 -0.00000000000E+00  0.00000000000E+00  0.12364127239E+03  0.12364127239E+03  0.00000000000E+00 0. -1.
          2   -1    0    0  501    0  0.00000000000E+00 -0.00000000000E+00 -0.20221353494E+04  0.20221353494E+04  0.00000000000E+00 0. -1.
         36    2    1    2    0    0  0.00000000000E+00  0.24868995752E-13 -0.18984940770E+04  0.21457766218E+04  0.10000387744E+04 0.  0.
         25    2    3    3    0    0  0.23437525180E+02  0.18908784849E+02 -0.62442045284E+02  0.14305696468E+03  0.12513762980E+03 0.  0.
         35    2    3    3    0    0 -0.23437525180E+02 -0.18908784849E+02 -0.18360520317E+04  0.20027196571E+04  0.79930726388E+03 0.  0.
         22    1    5    5    0    0  0.80876105857E+02  0.28477002017E+03 -0.25908754000E+03  0.39339707964E+03  0.00000000000E+00 0. -1.
         22    1    5    5    0    0 -0.10431363104E+03 -0.30367880501E+03 -0.15769644917E+04  0.16093225775E+04  0.00000000000E+00 0. -1.
          5    1    4    4  502    0  0.50709928014E+02  0.35815695797E+02 -0.83672914820E+02  0.10429529011E+03  0.47000000000E+01 0.  1.
         -5    1    4    4    0  502 -0.27272402835E+02 -0.16906910948E+02  0.21230869535E+02  0.38761674569E+02  0.47000000000E+01 0.  1.
<mgrwt>
<rscale>  0 0.10000388E+04</rscale>
<asrwt>0</asrwt>
<pdfrwt beam="1">  1        2 0.31109775E+00 0.10000388E+04</pdfrwt>
<pdfrwt beam="2">  1       -2 0.19021734E-01 0.10000388E+04</pdfrwt>
<totfact> 0.17754560E+02</totfact>
</mgrwt>
</event>
<event>
 9    1  0.4342579E-036  0.9998433E+03  0.7818608E-02  0.8681187E-01
         -2   -1    0    0    0  501 -0.00000000000E+00  0.00000000000E+00  0.11073233149E+03  0.11073233149E+03  0.00000000000E+00 0. -1.
          2   -1    0    0  501    0  0.00000000000E+00 -0.00000000000E+00 -0.22569888113E+04  0.22569888113E+04  0.00000000000E+00 0. -1.
         36    2    1    2    0    0 -0.71054273576E-14  0.14210854715E-13 -0.21462564798E+04  0.23677211428E+04  0.99984325417E+03 0.  0.
         25    2    3    3    0    0  0.15997353128E+02  0.20072797064E+02 -0.75623869978E+02  0.14847515879E+03  0.12516816919E+03 0.  0.
         35    2    3    3    0    0 -0.15997353128E+02 -0.20072797064E+02 -0.20706326099E+04  0.22192459840E+04  0.79804417178E+03 0.  0.
         22    1    5    5    0    0  0.28048605910E+03 -0.25472736132E+03 -0.13891855430E+04  0.14399287937E+04  0.00000000000E+00 0.  1.
         22    1    5    5    0    0 -0.29648341223E+03  0.23465456425E+03 -0.68144706684E+03  0.77931719034E+03  0.00000000000E+00 0.  1.
          5    1    4    4  502    0 -0.41519769086E+02 -0.15712389068E+02 -0.66308767863E+02  0.79935680961E+02  0.47000000000E+01 0.  1.
         -5    1    4    4    0  502  0.57517122214E+02  0.35785186131E+02 -0.93151021144E+01  0.68539477833E+02  0.47000000000E+01 0.  1.
<mgrwt>
<rscale>  0 0.99984325E+03</rscale>
<asrwt>0</asrwt>
<pdfrwt beam="1">  1        2 0.34722903E+00 0.99984325E+03</pdfrwt>
<pdfrwt beam="2">  1       -2 0.17035744E-01 0.99984325E+03</pdfrwt>
<totfact> 0.15686896E+02</totfact>
</mgrwt>
</event>
<event>
 9    1  0.4342579E-036  0.1000244E+04  0.7818608E-02  0.8680806E-01
          2   -1    0    0  501    0  0.00000000000E+00  0.00000000000E+00  0.24612776701E+03  0.24612776701E+03  0.00000000000E+00 0. -1.
         -2   -1    0    0    0  501 -0.00000000000E+00 -0.00000000000E+00 -0.10162276600E+04  0.10162276600E+04  0.00000000000E+00 0. -1.
         36    2    1    2    0    0  0.10658141036E-13  0.42632564146E-13 -0.77009989296E+03  0.12623554270E+04  0.10002436598E+04 0.  0.
         25    2    3    3    0    0 -0.28917622179E+02  0.41096098392E+02  0.22238864954E+02  0.13500062286E+03  0.12331051408E+03 0.  0.
         35    2    3    3    0    0  0.28917622179E+02 -0.41096098392E+02 -0.79233875792E+03  0.11273548041E+04  0.80037680433E+03 0.  0.
         22    1    5    5    0    0 -0.25383727669E+03 -0.31475795520E+03 -0.34461812688E+03  0.53128860968E+03  0.00000000000E+00 0.  1.
         22    1    5    5    0    0  0.28275489887E+03  0.27366185681E+03 -0.44772063104E+03  0.59606619445E+03  0.00000000000E+00 0.  1.
          5    1    4    4  502    0 -0.42281317207E+02  0.25014435605E+02 -0.43543910462E+02  0.65814845679E+02  0.47000000000E+01 0. -1.
         -5    1    4    4    0  502  0.13363695028E+02  0.16081662787E+02  0.65782775416E+02  0.69185777182E+02  0.47000000000E+01 0. -1.
<mgrwt>
<rscale>  0 0.10002437E+04</rscale>
<asrwt>0</asrwt>
<pdfrwt beam="1">  1        2 0.37865810E-01 0.10002437E+04</pdfrwt>
<pdfrwt beam="2">  1       -2 0.15634272E+00 0.10002437E+04</pdfrwt>
<totfact> 0.41346467E+01</totfact>
</mgrwt>
</event>
<event>
 9    1  0.4342579E-036  0.9993292E+03  0.7818608E-02  0.8681677E-01
          2   -1    0    0  501    0  0.00000000000E+00  0.00000000000E+00  0.25759964258E+04  0.25759964258E+04  0.00000000000E+00 0. -1.
         -2   -1    0    0    0  501 -0.00000000000E+00 -0.00000000000E+00 -0.96919669489E+02  0.96919669489E+02  0.00000000000E+00 0. -1.
         36    2    1    2    0    0  0.14210854715E-13 -0.28421709430E-13  0.24790767564E+04  0.26729160953E+04  0.99932921942E+03 0.  0.
         25    2    3    3    0    0 -0.50826633945E+02 -0.12826309525E+03  0.51565258409E+03  0.54834746538E+03  0.12550931037E+03 0.  0.
         35    2    3    3    0    0  0.50826633945E+02  0.12826309525E+03  0.19634241723E+04  0.21245686300E+04  0.79982661548E+03 0.  0.
         22    1    5    5    0    0 -0.21454272376E+03  0.93250593942E+02  0.17909073877E+04  0.18061211269E+04  0.00000000000E+00 0. -1.
         22    1    5    5    0    0  0.26536935771E+03  0.35012501306E+02  0.17251678454E+03  0.31844750306E+03  0.00000000000E+00 0. -1.
          5    1    4    4  502    0 -0.41282571294E+02 -0.13849601233E+03  0.30888239016E+03  0.34105104760E+03  0.47000000000E+01 0.  1.
         -5    1    4    4    0  502 -0.95440626516E+01  0.10232917078E+02  0.20677019394E+03  0.20729641778E+03  0.47000000000E+01 0.  1.
<mgrwt>
<rscale>  0 0.99932922E+03</rscale>
<asrwt>0</asrwt>
<pdfrwt beam="1">  1        2 0.39630709E+00 0.99932922E+03</pdfrwt>
<pdfrwt beam="2">  1       -2 0.14910720E-01 0.99932922E+03</pdfrwt>
<totfact> 0.12636648E+02</totfact>
</mgrwt>
</event>
<event>
 9    1  0.4342579E-036  0.9970615E+03  0.7818608E-02  0.8683841E-01
          2   -1    0    0  501    0  0.00000000000E+00  0.00000000000E+00  0.19429696949E+04  0.19429696949E+04  0.00000000000E+00 0. -1.
         -2   -1    0    0    0  501 -0.00000000000E+00 -0.00000000000E+00 -0.12791393409E+03  0.12791393409E+03  0.00000000000E+00 0. -1.
         36    2    1    2    0    0  0.14210854715E-13  0.00000000000E+00  0.18150557608E+04  0.20708836289E+04  0.99706147753E+03 0.  0.
         25    2    3    3    0    0 -0.56077969100E+02  0.10388556652E+03  0.19169638568E+03  0.25735822988E+03  0.12469484615E+03 0.  0.
         35    2    3    3    0    0  0.56077969100E+02 -0.10388556652E+03  0.16233593751E+04  0.18135253991E+04  0.79977607043E+03 0.  0.
         22    1    5    5    0    0  0.15697782196E+03 -0.43491368851E+03  0.92668370697E+03  0.10356324859E+04  0.00000000000E+00 0.  1.
         22    1    5    5    0    0 -0.10089985286E+03  0.33102812198E+03  0.69667566810E+03  0.77789291318E+03  0.00000000000E+00 0.  1.
          5    1    4    4  502    0  0.27045849730E+02  0.49670950687E+02  0.22300014731E+02  0.60975913169E+02  0.47000000000E+01 0.  1.
         -5    1    4    4    0  502 -0.83123818831E+02  0.54214615835E+02  0.16939637095E+03  0.19638231672E+03  0.47000000000E+01 0.  1.
<mgrwt>
<rscale>  0 0.99706148E+03</rscale>
<asrwt>0</asrwt>
<pdfrwt beam="1">  1        2 0.29891839E+00 0.99706148E+03</pdfrwt>
<pdfrwt beam="2">  1       -2 0.19679068E-01 0.99706148E+03</pdfrwt>
<totfact> 0.18574951E+02</totfact>
</mgrwt>
</event>
<event>
 9    1  0.4342579E-036  0.1000263E+04  0.7818608E-02  0.8680788E-01
         -2   -1    0    0    0  501 -0.00000000000E+00  0.00000000000E+00  0.22900620777E+03  0.22900620777E+03  0.00000000000E+00 0. -1.
          2   -1    0    0  501    0  0.00000000000E+00 -0.00000000000E+00 -0.10922477720E+04  0.10922477720E+04  0.00000000000E+00 0. -1.
         36    2    1    2    0    0  0.00000000000E+00  0.14210854715E-13 -0.86324156422E+03  0.13212539798E+04  0.10002630058E+04 0.  0.
         25    2    3    3    0    0 -0.12654219387E+03 -0.52104563283E+02 -0.11238693541E+03  0.21686434406E+03  0.12518589429E+03 0.  0.
         35    2    3    3    0    0  0.12654219387E+03  0.52104563283E+02 -0.75085462880E+03  0.11043896357E+04  0.79822677324E+03 0.  0.
         22    1    5    5    0    0  0.37786172046E+03  0.20704048574E+03 -0.67291252194E+03  0.79903473311E+03  0.00000000000E+00 0. -1.
         22    1    5    5    0    0 -0.25131952660E+03 -0.15493592246E+03 -0.77942106860E+02  0.30535490260E+03  0.00000000000E+00 0. -1.
          5    1    4    4  502    0 -0.10475001202E+03 -0.16073129595E+02 -0.13268950861E+03  0.16988085886E+03  0.47000000000E+01 0.  1.
         -5    1    4    4    0  502 -0.21792181841E+02 -0.36031433688E+02  0.20302573192E+02  0.46983485196E+02  0.47000000000E+01 0.  1.
<mgrwt>
<rscale>  0 0.10002630E+04</rscale>
<asrwt>0</asrwt>
<pdfrwt beam="1">  1        2 0.16803812E+00 0.10002630E+04</pdfrwt>
<pdfrwt beam="2">  1       -2 0.35231725E-01 0.10002630E+04</pdfrwt>
<totfact> 0.20111808E+02</totfact>
</mgrwt>
</event>
<event>
 9    1  0.4342579E-036  0.9992621E+03  0.7818608E-02  0.8681741E-01
          2   -1    0    0  501    0  0.00000000000E+00  0.00000000000E+00  0.71246676466E+03  0.71246676466E+03  0.00000000000E+00 0.  1.
         -2   -1    0    0    0  501 -0.00000000000E+00 -0.00000000000E+00 -0.35037592640E+03  0.35037592640E+03  0.00000000000E+00 0.  1.
         36    2    1    2    0    0  0.28421709430E-13 -0.10658141036E-13  0.36209083826E+03  0.10628426911E+04  0.99926213316E+03 0.  0.
         25    2    3    3    0    0  0.14298153478E+03  0.11456088090E+02  0.64801856007E+02  0.19797396974E+03  0.12008101812E+03 0.  0.
         35    2    3    3    0    0 -0.14298153478E+03 -0.11456088090E+02  0.29728898225E+03  0.86486872131E+03  0.79940115393E+03 0.  0.
         22    1    5    5    0    0 -0.17255956350E+03 -0.27380259141E+03  0.45422928480E+03  0.55773551544E+03  0.00000000000E+00 0.  1.
         22    1    5    5    0    0  0.29578028726E+02  0.26234650332E+03 -0.15694030255E+03  0.30713320587E+03  0.00000000000E+00 0.  1.
          5    1    4    4  502    0  0.16603889685E+02  0.17447634500E+02 -0.30760870513E+02  0.39350098564E+02  0.47000000000E+01 0.  1.
         -5    1    4    4    0  502  0.12637764509E+03 -0.59915464095E+01  0.95562726520E+02  0.15862387118E+03  0.47000000000E+01 0.  1.
<mgrwt>
<rscale>  0 0.99926213E+03</rscale>
<asrwt>0</asrwt>
<pdfrwt beam="1">  1        2 0.10961027E+00 0.99926213E+03</pdfrwt>
<pdfrwt beam="2">  1       -2 0.53903989E-01 0.99926213E+03</pdfrwt>
<totfact> 0.15718117E+02</totfact>
</mgrwt>
</event>
<event>
 9    1  0.4342579E-036  0.9994106E+03  0.7818608E-02  0.8681599E-01
         -3   -1    0    0    0  501 -0.00000000000E+00  0.00000000000E+00  0.48691364459E+03  0.48691364459E+03  0.00000000000E+00 0. -1.
          3   -1    0    0  501    0  0.00000000000E+00 -0.00000000000E+00 -0.51283299994E+03  0.51283299994E+03  0.00000000000E+00 0. -1.
         36    2    1    2    0    0  0.00000000000E+00 -0.10658141036E-13 -0.25919355351E+02  0.99974664452E+03  0.99941059643E+03 0.  0.
         25    2    3    3    0    0  0.78992461282E+02 -0.30452283608E+02 -0.12601060736E+03  0.19675654586E+03  0.12516914418E+03 0.  0.
         35    2    3    3    0    0 -0.78992461282E+02  0.30452283608E+02  0.10009125201E+03  0.80299009866E+03  0.79221694586E+03 0.  0.
         22    1    5    5    0    0  0.25786815994E+03 -0.19166406602E+03  0.21117374164E+03  0.38448075540E+03  0.00000000000E+00 0. -1.
         22    1    5    5    0    0 -0.33686062122E+03  0.22211634963E+03 -0.11108248962E+03  0.41850934327E+03  0.00000000000E+00 0. -1.
          5    1    4    4  502    0  0.96317889857E+02  0.22945882822E+01 -0.12690266228E+03  0.15940130719E+03  0.47000000000E+01 0.  1.
         -5    1    4    4    0  502 -0.17325428574E+02 -0.32746871890E+02  0.89205491420E+00  0.37355238667E+02  0.47000000000E+01 0.  1.
<mgrwt>
<rscale>  0 0.99941060E+03</rscale>
<asrwt>0</asrwt>
<pdfrwt beam="1">  1        3 0.78897385E-01 0.99941060E+03</pdfrwt>
<pdfrwt beam="2">  1       -3 0.74909791E-01 0.99941060E+03</pdfrwt>
<totfact> 0.10101982E+01</totfact>
</mgrwt>
</event>
<event>
 9    1  0.4342579E-036  0.9997274E+03  0.7818608E-02  0.8681298E-01
         -2   -1    0    0    0  501 -0.00000000000E+00  0.00000000000E+00  0.69777482854E+02  0.69777482854E+02  0.00000000000E+00 0.  1.
          2   -1    0    0  501    0  0.00000000000E+00 -0.00000000000E+00 -0.35808646328E+04  0.35808646328E+04  0.00000000000E+00 0.  1.
         36    2    1    2    0    0  0.00000000000E+00 -0.14210854715E-13 -0.35110871500E+04  0.36506421157E+04  0.99972740388E+03 0.  0.
         25    2    3    3    0    0  0.11964620036E+03 -0.49114446020E+02 -0.80328364526E+03  0.82336230236E+03  0.12622766788E+03 0.  0.
         35    2    3    3    0    0 -0.11964620036E+03  0.49114446020E+02 -0.27078035047E+04  0.28272798133E+04  0.80285981380E+03 0.  0.
         22    1    5    5    0    0  0.13104833178E+03  0.35725978044E+03 -0.91465901604E+03  0.99066105788E+03  0.00000000000E+00 0.  1.
         22    1    5    5    0    0 -0.25069453214E+03 -0.30814533442E+03 -0.17931444887E+04  0.18366187554E+04  0.00000000000E+00 0.  1.
          5    1    4    4  502    0  0.99529517102E+02 -0.86790282600E+02 -0.68223218369E+03  0.69491116007E+03  0.47000000000E+01 0. -1.
         -5    1    4    4    0  502  0.20116683253E+02  0.37675836580E+02 -0.12105146157E+03  0.12845114229E+03  0.47000000000E+01 0. -1.
<mgrwt>
<rscale>  0 0.99972740E+03</rscale>
<asrwt>0</asrwt>
<pdfrwt beam="1">  1        2 0.55090224E+00 0.99972740E+03</pdfrwt>
<pdfrwt beam="2">  1       -2 0.10734998E-01 0.99972740E+03</pdfrwt>
<totfact> 0.44595434E+01</totfact>
</mgrwt>
</event>
<event>
 9    1  0.4342579E-036  0.1000377E+04  0.7818608E-02  0.8680679E-01
          1   -1    0    0  501    0  0.00000000000E+00  0.00000000000E+00  0.75089376802E+03  0.75089376802E+03  0.00000000000E+00 0. -1.
         -1   -1    0    0    0  501 -0.00000000000E+00 -0.00000000000E+00 -0.33318758112E+03  0.33318758112E+03  0.00000000000E+00 0. -1.
         36    2    1    2    0    0  0.28421709430E-13  0.00000000000E+00  0.41770618690E+03  0.10840813491E+04  0.10003768855E+04 0.  0.
         25    2    3    3    0    0 -0.85870297187E+02 -0.19030247939E+02 -0.45508598840E+02  0.15954433514E+03  0.12508998374E+03 0.  0.
         35    2    3    3    0    0  0.85870297187E+02  0.19030247939E+02  0.46321478574E+03  0.92453701399E+03  0.79527661492E+03 0.  0.
         22    1    5    5    0    0 -0.31208333740E+03 -0.23041311382E+02  0.41750475346E+03  0.52176348155E+03  0.00000000000E+00 0. -1.
         22    1    5    5    0    0  0.39795363459E+03  0.42071559321E+02  0.45710032275E+02  0.40277353244E+03  0.00000000000E+00 0. -1.
          5    1    4    4  502    0  0.93637662652E+01 -0.51168271378E+02 -0.17777726100E+02  0.55172544438E+02  0.47000000000E+01 0. -1.
         -5    1    4    4    0  502 -0.95234063452E+02  0.32138023439E+02 -0.27730872740E+02  0.10437179071E+03  0.47000000000E+01 0. -1.
<mgrwt>
<rscale>  0 0.10003769E+04</rscale>
<asrwt>0</asrwt>
<pdfrwt beam="1">  1        1 0.11552212E+00 0.10003769E+04</pdfrwt>
<pdfrwt beam="2">  1       -1 0.51259628E-01 0.10003769E+04</pdfrwt>
<totfact> 0.10707022E+02</totfact>
</mgrwt>
</event>
<event>
 9    1  0.4342579E-036  0.9998072E+03  0.7818608E-02  0.8681222E-01
         -1   -1    0    0    0  501 -0.00000000000E+00  0.00000000000E+00  0.34326916853E+03  0.34326916853E+03  0.00000000000E+00 0. -1.
          1   -1    0    0  501    0  0.00000000000E+00 -0.00000000000E+00 -0.72801060814E+03  0.72801060814E+03  0.00000000000E+00 0. -1.
         36    2    1    2    0    0 -0.14210854715E-13  0.28421709430E-13 -0.38474143961E+03  0.10712797767E+04  0.99980717368E+03 0.  0.
         25    2    3    3    0    0  0.25689840168E+02  0.13300341394E+03 -0.43749763770E+02  0.19025867213E+03  0.12623170950E+03 0.  0.
         35    2    3    3    0    0 -0.25689840168E+02 -0.13300341394E+03 -0.34099167584E+03  0.88102110454E+03  0.80098251395E+03 0.  0.
         22    1    5    5    0    0  0.22045952887E+03 -0.32420170352E+03 -0.40407870014E+03  0.56301753467E+03  0.00000000000E+00 0.  1.
         22    1    5    5    0    0 -0.24614936904E+03  0.19119828958E+03  0.63087024298E+02  0.31800356988E+03  0.00000000000E+00 0.  1.
          5    1    4    4  502    0  0.20529802446E+01  0.15247735791E+03 -0.26665149946E+02  0.15487633656E+03  0.47000000000E+01 0.  1.
         -5    1    4    4    0  502  0.23636859923E+02 -0.19473943972E+02 -0.17084613825E+02  0.35382335570E+02  0.47000000000E+01 0.  1.
<mgrwt>
<rscale>  0 0.99980717E+03</rscale>
<asrwt>0</asrwt>
<pdfrwt beam="1">  1        1 0.11200163E+00 0.99980717E+03</pdfrwt>
<pdfrwt beam="2">  1       -1 0.52810642E-01 0.99980717E+03</pdfrwt>
<totfact> 0.10633756E+02</totfact>
</mgrwt>
</event>
<event>
 9    1  0.4342579E-036  0.9982023E+03  0.7818608E-02  0.8682752E-01
         -2   -1    0    0    0  501 -0.00000000000E+00  0.00000000000E+00  0.18525777191E+03  0.18525777191E+03  0.00000000000E+00 0.  1.
          2   -1    0    0  501    0  0.00000000000E+00 -0.00000000000E+00 -0.13446234447E+04  0.13446234447E+04  0.00000000000E+00 0.  1.
         36    2    1    2    0    0  0.71054273576E-14  0.00000000000E+00 -0.11593656728E+04  0.15298812166E+04  0.99820227093E+03 0.  0.
         25    2    3    3    0    0 -0.43483399652E+02 -0.12560010563E+03 -0.27366267621E+03  0.32902097013E+03  0.12528904924E+03 0.  0.
         35    2    3    3    0    0  0.43483399652E+02  0.12560010563E+03 -0.88570299658E+03  0.12008602465E+04  0.79995583680E+03 0.  0.
         22    1    5    5    0    0  0.69782100303E+02  0.19314443364E+03 -0.10241766145E+04  0.10445630912E+04  0.00000000000E+00 0.  1.
         22    1    5    5    0    0 -0.26298700651E+02 -0.67544328004E+02  0.13847361790E+03  0.15629715531E+03  0.00000000000E+00 0.  1.
          5    1    4    4  502    0 -0.60908376324E+02 -0.13254311655E+03 -0.17217453840E+03  0.22570704403E+03  0.47000000000E+01 0.  1.
         -5    1    4    4    0  502  0.17424976671E+02  0.69430109130E+01 -0.10148813780E+03  0.10331392610E+03  0.47000000000E+01 0.  1.
<mgrwt>
<rscale>  0 0.99820227E+03</rscale>
<asrwt>0</asrwt>
<pdfrwt beam="1">  1        2 0.20686513E+00 0.99820227E+03</pdfrwt>
<pdfrwt beam="2">  1       -2 0.28501197E-01 0.99820227E+03</pdfrwt>
<totfact> 0.21076713E+02</totfact>
</mgrwt>
</event>
<event>
 9    1  0.4342579E-036  0.1002304E+04  0.7818608E-02  0.8678847E-01
         -2   -1    0    0    0  501 -0.00000000000E+00  0.00000000000E+00  0.28582417799E+03  0.28582417799E+03  0.00000000000E+00 0. -1.
          2   -1    0    0  501    0  0.00000000000E+00 -0.00000000000E+00 -0.87869878570E+03  0.87869878570E+03  0.00000000000E+00 0. -1.
         36    2    1    2    0    0  0.21316282073E-13  0.28421709430E-13 -0.59287460772E+03  0.11645229637E+04  0.10023040619E+04 0.  0.
         25    2    3    3    0    0 -0.30401316410E+02  0.13191277942E+03 -0.16398767377E+03  0.24691496699E+03  0.12549829625E+03 0.  0.
         35    2    3    3    0    0  0.30401316410E+02 -0.13191277942E+03 -0.42888693394E+03  0.91760799670E+03  0.79983449043E+03 0.  0.
         22    1    5    5    0    0  0.20214500690E+03  0.17289307283E+03 -0.49463667400E+03  0.56162270050E+03  0.00000000000E+00 0.  1.
         22    1    5    5    0    0 -0.17174369049E+03 -0.30480585226E+03  0.65749740056E+02  0.35598529620E+03  0.00000000000E+00 0.  1.
          5    1    4    4  502    0  0.19141658817E+02 -0.17942829283E+02 -0.25454552651E+02  0.36856104998E+02  0.47000000000E+01 0.  1.
         -5    1    4    4    0  502 -0.49542975227E+02  0.14985560871E+03 -0.13853312112E+03  0.21005886199E+03  0.47000000000E+01 0.  1.
<mgrwt>
<rscale>  0 0.10023041E+04</rscale>
<asrwt>0</asrwt>
<pdfrwt beam="1">  1        2 0.13518443E+00 0.10023041E+04</pdfrwt>
<pdfrwt beam="2">  1       -2 0.43972951E-01 0.10023041E+04</pdfrwt>
<totfact> 0.17994178E+02</totfact>
</mgrwt>
</event>
<event>
 9    1  0.4342579E-036  0.9995820E+03  0.7818608E-02  0.8681436E-01
         -2   -1    0    0    0  501 -0.00000000000E+00  0.00000000000E+00  0.18357179557E+03  0.18357179557E+03  0.00000000000E+00 0. -1.
          2   -1    0    0  501    0  0.00000000000E+00 -0.00000000000E+00 -0.13607266817E+04  0.13607266817E+04  0.00000000000E+00 0. -1.
         36    2    1    2    0    0  0.14210854715E-13  0.14210854715E-13 -0.11771548861E+04  0.15442984773E+04  0.99958199313E+03 0.  0.
         25    2    3    3    0    0 -0.76644292932E+02  0.80794429780E+02 -0.35292445092E+03  0.39011241956E+03  0.12340966054E+03 0.  0.
         35    2    3    3    0    0  0.76644292932E+02 -0.80794429780E+02 -0.82423043519E+03  0.11541860577E+04  0.80024218708E+03 0.  0.
         22    1    5    5    0    0 -0.55224569082E+02 -0.41702283088E+03 -0.29630780283E+03  0.51454456418E+03  0.00000000000E+00 0. -1.
         22    1    5    5    0    0  0.13186886201E+03  0.33622840110E+03 -0.52792263236E+03  0.63964149352E+03  0.00000000000E+00 0. -1.
          5    1    4    4  502    0 -0.58200381624E+02  0.20348101031E+02 -0.30352987475E+03  0.30976411106E+03  0.47000000000E+01 0.  1.
         -5    1    4    4    0  502 -0.18443911308E+02  0.60446328749E+02 -0.49394576176E+02  0.80348308502E+02  0.47000000000E+01 0.  1.
<mgrwt>
<rscale>  0 0.99958199E+03</rscale>
<asrwt>0</asrwt>
<pdfrwt beam="1">  1        2 0.20934256E+00 0.99958199E+03</pdfrwt>
<pdfrwt beam="2">  1       -2 0.28241815E-01 0.99958199E+03</pdfrwt>
<totfact> 0.20975963E+02</totfact>
</mgrwt>
</event>
<event>
 9    1  0.4342579E-036  0.1000399E+04  0.7818608E-02  0.8680658E-01
         -2   -1    0    0    0  501 -0.00000000000E+00  0.00000000000E+00  0.41545200266E+03  0.41545200266E+03  0.00000000000E+00 0.  1.
          2   -1    0    0  501    0  0.00000000000E+00 -0.00000000000E+00 -0.60223401826E+03  0.60223401826E+03  0.00000000000E+00 0.  1.
         36    2    1    2    0    0  0.00000000000E+00 -0.14210854715E-13 -0.18678201560E+03  0.10176860209E+04  0.10003985785E+04 0.  0.
         25    2    3    3    0    0  0.92175155322E+02  0.91354735127E+02  0.21104499998E+02  0.18138154427E+03  0.12494766021E+03 0.  0.
         35    2    3    3    0    0 -0.92175155322E+02 -0.91354735127E+02 -0.20788651560E+03  0.83630447664E+03  0.79959141278E+03 0.  0.
         22    1    5    5    0    0  0.31864066837E+03 -0.21086259657E+03 -0.91000696226E+02  0.39277988351E+03  0.00000000000E+00 0. -1.
         22    1    5    5    0    0 -0.41081582370E+03  0.11950786144E+03 -0.11688581937E+03  0.44352459314E+03  0.00000000000E+00 0. -1.
          5    1    4    4  502    0  0.29685395815E+02 -0.28639163941E+02 -0.95107951316E+01  0.42590722698E+02  0.47000000000E+01 0.  1.
         -5    1    4    4    0  502  0.62489759507E+02  0.11999389907E+03  0.30615295130E+02  0.13879082157E+03  0.47000000000E+01 0.  1.
<mgrwt>
<rscale>  0 0.10003986E+04</rscale>
<asrwt>0</asrwt>
<pdfrwt beam="1">  1        2 0.92651388E-01 0.10003986E+04</pdfrwt>
<pdfrwt beam="2">  1       -2 0.63915693E-01 0.10003986E+04</pdfrwt>
<totfact> 0.13521985E+02</totfact>
</mgrwt>
</event>
<event>
 9    1  0.4342579E-036  0.9998271E+03  0.7818608E-02  0.8681203E-01
          1   -1    0    0  501    0  0.00000000000E+00  0.00000000000E+00  0.58043177309E+03  0.58043177309E+03  0.00000000000E+00 0.  1.
         -1   -1    0    0    0  501 -0.00000000000E+00 -0.00000000000E+00 -0.43056488735E+03  0.43056488735E+03  0.00000000000E+00 0.  1.
         36    2    1    2    0    0 -0.14210854715E-13 -0.71054273576E-14  0.14986688574E+03  0.10109966604E+04  0.99982706703E+03 0.  0.
         25    2    3    3    0    0  0.11679464783E+03  0.95137723012E+00  0.10550771831E+03  0.20119609432E+03  0.12532395966E+03 0.  0.
         35    2    3    3    0    0 -0.11679464783E+03 -0.95137723012E+00  0.44359167431E+02  0.80980056612E+03  0.80010457209E+03 0.  0.
         22    1    5    5    0    0  0.52353933432E+02  0.34645551868E+03 -0.14535531414E+03  0.37934223087E+03  0.00000000000E+00 0. -1.
         22    1    5    5    0    0 -0.16914858126E+03 -0.34740689591E+03  0.18971448157E+03  0.43045833525E+03  0.00000000000E+00 0. -1.
          5    1    4    4  502    0 -0.19683495065E+02  0.22844175775E+02  0.33331515569E+02  0.45192657312E+02  0.47000000000E+01 0.  1.
         -5    1    4    4    0  502  0.13647814289E+03 -0.21892798545E+02  0.72176202742E+02  0.15600343700E+03  0.47000000000E+01 0.  1.
<mgrwt>
<rscale>  0 0.99982707E+03</rscale>
<asrwt>0</asrwt>
<pdfrwt beam="1">  1        1 0.89297196E-01 0.99982707E+03</pdfrwt>
<pdfrwt beam="2">  1       -1 0.66240752E-01 0.99982707E+03</pdfrwt>
<totfact> 0.96827258E+01</totfact>
</mgrwt>
</event>
<event>
 9    1  0.4342579E-036  0.9989862E+03  0.7818608E-02  0.8682004E-01
         -1   -1    0    0    0  501 -0.00000000000E+00  0.00000000000E+00  0.22617515344E+03  0.22617515344E+03  0.00000000000E+00 0. -1.
          1   -1    0    0  501    0  0.00000000000E+00 -0.00000000000E+00 -0.11030979154E+04  0.11030979154E+04  0.00000000000E+00 0. -1.
         36    2    1    2    0    0  0.00000000000E+00 -0.14210854715E-13 -0.87692276196E+03  0.13292730688E+04  0.99898616663E+03 0.  0.
         25    2    3    3    0    0  0.14156500779E+02 -0.17399986901E+02  0.18332995575E+02  0.12810935221E+03  0.12479079028E+03 0.  0.
         35    2    3    3    0    0 -0.14156500779E+02  0.17399986901E+02 -0.89525575753E+03  0.12011637166E+04  0.80050498856E+03 0.  0.
         22    1    5    5    0    0 -0.62414032333E+01  0.27722436442E+03 -0.88577416587E+01  0.27743605197E+03  0.00000000000E+00 0. -1.
         22    1    5    5    0    0 -0.79150975460E+01 -0.25982437752E+03 -0.88639801588E+03  0.92372766467E+03  0.00000000000E+00 0. -1.
          5    1    4    4  502    0 -0.31095496254E+02  0.13120293332E+02  0.53195036240E+02  0.63173363572E+02  0.47000000000E+01 0. -1.
         -5    1    4    4    0  502  0.45251997034E+02 -0.30520280233E+02 -0.34862040665E+02  0.64935988638E+02  0.47000000000E+01 0. -1.
<mgrwt>
<rscale>  0 0.99898617E+03</rscale>
<asrwt>0</asrwt>
<pdfrwt beam="1">  1        1 0.16970737E+00 0.99898617E+03</pdfrwt>
<pdfrwt beam="2">  1       -1 0.34796177E-01 0.99898617E+03</pdfrwt>
<totfact> 0.10980536E+02</totfact>
</mgrwt>
</event>
<event>
 9    1  0.4342579E-036  0.1000002E+04  0.7818608E-02  0.8681036E-01
          1   -1    0    0  501    0  0.00000000000E+00  0.00000000000E+00  0.76497614424E+03  0.76497614424E+03  0.00000000000E+00 0. -1.
         -1   -1    0    0    0  501 -0.00000000000E+00 -0.00000000000E+00 -0.32680863693E+03  0.32680863693E+03  0.00000000000E+00 0. -1.
         36    2    1    2    0    0  0.00000000000E+00 -0.49737991503E-13  0.43816750731E+03  0.10917847812E+04  0.10000016220E+04 0.  0.
         25    2    3    3    0    0  0.13483065222E+03 -0.32656658410E+02  0.66164974165E+02  0.19870638263E+03  0.12593911455E+03 0.  0.
         35    2    3    3    0    0 -0.13483065222E+03  0.32656658410E+02  0.37200253314E+03  0.89307839854E+03  0.79997336153E+03 0.  0.
         22    1    5    5    0    0  0.32719702722E+02  0.40117839523E+03  0.23283795749E+03  0.46500343891E+03  0.00000000000E+00 0. -1.
         22    1    5    5    0    0 -0.16755035494E+03 -0.36852173682E+03  0.13916457565E+03  0.42807495963E+03  0.00000000000E+00 0. -1.
          5    1    4    4  502    0  0.19985502109E+02 -0.64761765384E+02  0.26939638379E+02  0.73084476233E+02  0.47000000000E+01 0. -1.
         -5    1    4    4    0  502  0.11484515011E+03  0.32105106974E+02  0.39225335786E+02  0.12562190639E+03  0.47000000000E+01 0. -1.
<mgrwt>
<rscale>  0 0.10000016E+04</rscale>
<asrwt>0</asrwt>
<pdfrwt beam="1">  1        1 0.11768864E+00 0.10000016E+04</pdfrwt>
<pdfrwt beam="2">  1       -1 0.50278252E-01 0.10000016E+04</pdfrwt>
<totfact> 0.10775570E+02</totfact>
</mgrwt>
</event>
<event>
 9    1  0.4342579E-036  0.9998794E+03  0.7818608E-02  0.8681153E-01
          1   -1    0    0  501    0  0.00000000000E+00  0.00000000000E+00  0.61553574543E+03  0.61553574543E+03  0.00000000000E+00 0. -1.
         -1   -1    0    0    0  501 -0.00000000000E+00 -0.00000000000E+00 -0.40605228468E+03  0.40605228468E+03  0.00000000000E+00 0. -1.
         36    2    1    2    0    0  0.17763568394E-14  0.00000000000E+00  0.20948346074E+03  0.10215880301E+04  0.99987938420E+03 0.  0.
         25    2    3    3    0    0  0.10965730666E+02 -0.13900095702E+03  0.46345297441E+02  0.19322356852E+03  0.12548285754E+03 0.  0.
         35    2    3    3    0    0 -0.10965730666E+02  0.13900095702E+03  0.16313816330E+03  0.82836446159E+03  0.80008256299E+03 0.  0.
         22    1    5    5    0    0 -0.19363744103E+02  0.47246787738E+03  0.14373797454E+03  0.49422814071E+03  0.00000000000E+00 0. -1.
         22    1    5    5    0    0  0.83980134371E+01 -0.33346692036E+03  0.19400188766E+02  0.33413632088E+03  0.00000000000E+00 0. -1.
          5    1    4    4  502    0  0.12373419251E+02  0.40509692258E+01  0.48125360185E+02  0.50076463020E+02  0.47000000000E+01 0. -1.
         -5    1    4    4    0  502 -0.14076885858E+01 -0.14305192625E+03 -0.17800627445E+01  0.14314710550E+03  0.47000000000E+01 0. -1.
<mgrwt>
<rscale>  0 0.99987938E+03</rscale>
<asrwt>0</asrwt>
<pdfrwt beam="1">  1        1 0.94697807E-01 0.99987938E+03</pdfrwt>
<pdfrwt beam="2">  1       -1 0.62469582E-01 0.99987938E+03</pdfrwt>
<totfact> 0.99610665E+01</totfact>
</mgrwt>
</event>
<event>
 9    1  0.4342579E-036  0.1006550E+04  0.7818608E-02  0.8674826E-01
          1   -1    0    0  501    0  0.00000000000E+00  0.00000000000E+00  0.81328804341E+03  0.81328804341E+03  0.00000000000E+00 0. -1.
         -1   -1    0    0    0  501 -0.00000000000E+00 -0.00000000000E+00 -0.31143400638E+03  0.31143400638E+03  0.00000000000E+00 0. -1.
         36    2    1    2    0    0  0.71054273576E-14  0.00000000000E+00  0.50185403703E+03  0.11247220498E+04  0.10065496584E+04 0.  0.
         25    2    3    3    0    0  0.38238498743E+02 -0.12932109472E+03  0.28316484671E+02  0.18553056827E+03  0.12423220249E+03 0.  0.
         35    2    3    3    0    0 -0.38238498743E+02  0.12932109472E+03  0.47353755235E+03  0.93919148152E+03  0.79978540693E+03 0.  0.
         22    1    5    5    0    0  0.19967381864E+03 -0.15733396959E+02  0.60047237148E+03  0.63299624213E+03  0.00000000000E+00 0. -1.
         22    1    5    5    0    0 -0.23791231738E+03  0.14505449168E+03 -0.12693481913E+03  0.30619523939E+03  0.00000000000E+00 0. -1.
          5    1    4    4  502    0 -0.43526548162E+02 -0.29049180769E+02  0.18453738371E+02  0.55687034022E+02  0.47000000000E+01 0.  1.
         -5    1    4    4    0  502  0.81765046905E+02 -0.10027191395E+03  0.98627462995E+01  0.12984353425E+03  0.47000000000E+01 0.  1.
<mgrwt>
<rscale>  0 0.10065497E+04</rscale>
<asrwt>0</asrwt>
<pdfrwt beam="1">  1        1 0.12512124E+00 0.10065497E+04</pdfrwt>
<pdfrwt beam="2">  1       -1 0.47912924E-01 0.10065497E+04</pdfrwt>
<totfact> 0.10659752E+02</totfact>
</mgrwt>
</event>
<event>
 9    1  0.4342579E-036  0.9996507E+03  0.7818608E-02  0.8681371E-01
         -2   -1    0    0    0  501 -0.00000000000E+00  0.00000000000E+00  0.22437344510E+03  0.22437344510E+03  0.00000000000E+00 0.  1.
          2   -1    0    0  501    0  0.00000000000E+00 -0.00000000000E+00 -0.11134356182E+04  0.11134356182E+04  0.00000000000E+00 0.  1.
         36    2    1    2    0    0  0.00000000000E+00 -0.14210854715E-13 -0.88906217312E+03  0.13378090633E+04  0.99965071012E+03 0.  0.
         25    2    3    3    0    0  0.10117365017E+03  0.84207060833E+02 -0.10249742275E+03  0.20811325107E+03  0.12441248738E+03 0.  0.
         35    2    3    3    0    0 -0.10117365017E+03 -0.84207060833E+02 -0.78656475037E+03  0.11296958123E+04  0.80012598078E+03 0.  0.
         22    1    5    5    0    0  0.51699942031E+02  0.34541169885E+03 -0.40764554480E+03  0.53680258560E+03  0.00000000000E+00 0. -1.
         22    1    5    5    0    0 -0.15287359220E+03 -0.42961875969E+03 -0.37891920557E+03  0.59289322666E+03  0.00000000000E+00 0. -1.
          5    1    4    4  502    0 -0.80387087940E+01  0.62579394577E+02 -0.64577728958E+02  0.90405611231E+02  0.47000000000E+01 0.  1.
         -5    1    4    4    0  502  0.10921235897E+03  0.21627666256E+02 -0.37919693794E+02  0.11770763984E+03  0.47000000000E+01 0.  1.
<mgrwt>
<rscale>  0 0.99965071E+03</rscale>
<asrwt>0</asrwt>
<pdfrwt beam="1">  1        2 0.17129779E+00 0.99965071E+03</pdfrwt>
<pdfrwt beam="2">  1       -2 0.34518992E-01 0.99965071E+03</pdfrwt>
<totfact> 0.20284730E+02</totfact>
</mgrwt>
</event>
<event>
 9    1  0.4342579E-036  0.9953166E+03  0.7818608E-02  0.8685511E-01
          2   -1    0    0  501    0  0.00000000000E+00  0.00000000000E+00  0.92414277540E+03  0.92414277540E+03  0.00000000000E+00 0.  1.
         -2   -1    0    0    0  501 -0.00000000000E+00 -0.00000000000E+00 -0.26799299548E+03  0.26799299548E+03  0.00000000000E+00 0.  1.
         36    2    1    2    0    0 -0.35527136788E-13 -0.28421709430E-13  0.65614977992E+03  0.11921357709E+04  0.99531661422E+03 0.  0.
         25    2    3    3    0    0 -0.12174129958E+02 -0.13486335482E+03  0.12389182463E+03  0.22192433154E+03  0.12475933153E+03 0.  0.
         35    2    3    3    0    0  0.12174129958E+02  0.13486335482E+03  0.53225795528E+03  0.97021143935E+03  0.79979708186E+03 0.  0.
         22    1    5    5    0    0  0.37948928233E+03  0.36411094484E+02  0.99284713490E+02  0.39394839451E+03  0.00000000000E+00 0. -1.
         22    1    5    5    0    0 -0.36731515237E+03  0.98452260339E+02  0.43297324179E+03  0.57626304483E+03  0.00000000000E+00 0. -1.
          5    1    4    4  502    0  0.49758142754E+02 -0.89151771269E+02  0.95099808958E+02  0.13960649969E+03  0.47000000000E+01 0. -1.
         -5    1    4    4    0  502 -0.61932272712E+02 -0.45711583554E+02  0.28792015676E+02  0.82317831853E+02  0.47000000000E+01 0. -1.
<mgrwt>
<rscale>  0 0.99531661E+03</rscale>
<asrwt>0</asrwt>
<pdfrwt beam="1">  1        2 0.14217581E+00 0.99531661E+03</pdfrwt>
<pdfrwt beam="2">  1       -2 0.41229692E-01 0.99531661E+03</pdfrwt>
<totfact> 0.19030296E+02</totfact>
</mgrwt>
</event>
<event>
 9    1  0.4342579E-036  0.1002824E+04  0.7818608E-02  0.8678353E-01
          2   -1    0    0  501    0  0.00000000000E+00  0.00000000000E+00  0.15421387386E+04  0.15421387386E+04  0.00000000000E+00 0.  1.
         -2   -1    0    0    0  501 -0.00000000000E+00 -0.00000000000E+00 -0.16302946031E+03  0.16302946031E+03  0.00000000000E+00 0.  1.
         36    2    1    2    0    0  0.00000000000E+00 -0.42632564146E-13  0.13791092783E+04  0.17051681989E+04  0.10028241048E+04 0.  0.
         25    2    3    3    0    0 -0.11998236035E+03 -0.72245343848E+02  0.20112946125E+03  0.27478364768E+03  0.12424908992E+03 0.  0.
         35    2    3    3    0    0  0.11998236035E+03  0.72245343848E+02  0.11779798171E+04  0.14303845513E+04  0.79921734127E+03 0.  0.
         22    1    5    5    0    0  0.79820506042E+02 -0.20871269360E+03  0.49515774484E+01  0.22351022298E+03  0.00000000000E+00 0.  1.
         22    1    5    5    0    0  0.40161854304E+02  0.28095803745E+03  0.11730282396E+04  0.12068743283E+04  0.00000000000E+00 0.  1.
          5    1    4    4  502    0 -0.47983459117E+02 -0.43441089365E+02  0.65001947727E+01  0.65221799470E+02  0.47000000000E+01 0. -1.
         -5    1    4    4    0  502 -0.71998901230E+02 -0.28804254483E+02  0.19462926648E+03  0.20956184821E+03  0.47000000000E+01 0. -1.
<mgrwt>
<rscale>  0 0.10028241E+04</rscale>
<asrwt>0</asrwt>
<pdfrwt beam="1">  1        2 0.23725210E+00 0.10028241E+04</pdfrwt>
<pdfrwt beam="2">  1       -2 0.25081457E-01 0.10028241E+04</pdfrwt>
<totfact> 0.20454573E+02</totfact>
</mgrwt>
</event>
<event>
 9    1  0.4342579E-036  0.1000074E+04  0.7818608E-02  0.8680968E-01
          2   -1    0    0  501    0  0.00000000000E+00  0.00000000000E+00  0.17395340216E+04  0.17395340216E+04  0.00000000000E+00 0.  1.
         -2   -1    0    0    0  501 -0.00000000000E+00 -0.00000000000E+00 -0.14373782717E+03  0.14373782717E+03  0.00000000000E+00 0.  1.
         36    2    1    2    0    0  0.28421709430E-13  0.00000000000E+00  0.15957961944E+04  0.18832718487E+04  0.10000736784E+04 0.  0.
         25    2    3    3    0    0  0.27280037625E+02  0.13350302072E+03  0.21898046836E+03  0.28676276905E+03  0.12535223651E+03 0.  0.
         35    2    3    3    0    0 -0.27280037625E+02 -0.13350302072E+03  0.13768157261E+04  0.15965090797E+04  0.79665076479E+03 0.  0.
         22    1    5    5    0    0 -0.39001527916E+03  0.63872299323E+02  0.66425812465E+03  0.77293624884E+03  0.00000000000E+00 0. -1.
         22    1    5    5    0    0  0.36273524154E+03 -0.19737532004E+03  0.71255760140E+03  0.82357283086E+03  0.00000000000E+00 0. -1.
          5    1    4    4  502    0 -0.42890589430E+02  0.78853281836E+02  0.73170663800E+02  0.11590288503E+03  0.47000000000E+01 0. -1.
         -5    1    4    4    0  502  0.70170627055E+02  0.54649738881E+02  0.14580980456E+03  0.17085988401E+03  0.47000000000E+01 0. -1.
<mgrwt>
<rscale>  0 0.10000737E+04</rscale>
<asrwt>0</asrwt>
<pdfrwt beam="1">  1        2 0.26762060E+00 0.10000737E+04</pdfrwt>
<pdfrwt beam="2">  1       -2 0.22113513E-01 0.10000737E+04</pdfrwt>
<totfact> 0.19764000E+02</totfact>
</mgrwt>
</event>
<event>
 9    1  0.4342579E-036  0.9996341E+03  0.7818608E-02  0.8681386E-01
         -2   -1    0    0    0  501 -0.00000000000E+00  0.00000000000E+00  0.25595843474E+03  0.25595843474E+03  0.00000000000E+00 0. -1.
          2   -1    0    0  501    0  0.00000000000E+00 -0.00000000000E+00 -0.97600651261E+03  0.97600651261E+03  0.00000000000E+00 0. -1.
         36    2    1    2    0    0  0.00000000000E+00  0.00000000000E+00 -0.72004807788E+03  0.12319649473E+04  0.99963413159E+03 0.  0.
         25    2    3    3    0    0  0.63839854786E+02  0.11485438031E+03 -0.19623425715E+03  0.26705778502E+03  0.12467927303E+03 0.  0.
         35    2    3    3    0    0 -0.63839854786E+02 -0.11485438031E+03 -0.52381382072E+03  0.96490716233E+03  0.79962357231E+03 0.  0.
         22    1    5    5    0    0  0.14994715011E+03 -0.29919262471E+03  0.37350595013E+02  0.33674239628E+03  0.00000000000E+00 0.  1.
         22    1    5    5    0    0 -0.21378700490E+03  0.18433824440E+03 -0.56116441574E+03  0.62816476605E+03  0.00000000000E+00 0.  1.
          5    1    4    4  502    0  0.66217085858E+02  0.14005805008E+03 -0.17417607068E+03  0.23315306871E+03  0.47000000000E+01 0.  1.
         -5    1    4    4    0  502 -0.23772310720E+01 -0.25203669768E+02 -0.22058186470E+02  0.33904716305E+02  0.47000000000E+01 0.  1.
<mgrwt>
<rscale>  0 0.99963413E+03</rscale>
<asrwt>0</asrwt>
<pdfrwt beam="1">  1        2 0.15015485E+00 0.99963413E+03</pdfrwt>
<pdfrwt beam="2">  1       -2 0.39378221E-01 0.99963413E+03</pdfrwt>
<totfact> 0.19246772E+02</totfact>
</mgrwt>
</event>
<event>
 9    1  0.4342579E-036  0.9999695E+03  0.7818608E-02  0.8681067E-01
          2   -1    0    0  501    0  0.00000000000E+00  0.00000000000E+00  0.14215615001E+04  0.14215615001E+04  0.00000000000E+00 0. -1.
         -2   -1    0    0    0  501 -0.00000000000E+00 -0.00000000000E+00 -0.17585223044E+03  0.17585223044E+03  0.00000000000E+00 0. -1.
         36    2    1    2    0    0 -0.21316282073E-13 -0.14210854715E-13  0.12457092697E+04  0.15974137306E+04  0.99996952055E+03 0.  0.
         25    2    3    3    0    0  0.33773202856E+02 -0.63529709279E+02  0.36999185115E+02  0.14664907245E+03  0.12231254048E+03 0.  0.
         35    2    3    3    0    0 -0.33773202856E+02  0.63529709279E+02  0.12087100845E+04  0.14507646581E+04  0.79910035135E+03 0.  0.
         22    1    5    5    0    0 -0.27255447725E+03  0.26681320018E+03  0.10097420572E+04  0.10793767873E+04  0.00000000000E+00 0. -1.
         22    1    5    5    0    0  0.23878127439E+03 -0.20328349090E+03  0.19896802731E+03  0.37138787078E+03  0.00000000000E+00 0. -1.
          5    1    4    4  502    0  0.34773747771E+02 -0.55333248022E+01 -0.37803474843E+02  0.51875080025E+02  0.47000000000E+01 0.  1.
         -5    1    4    4    0  502 -0.10005449143E+01 -0.57996384477E+02  0.74802659958E+02  0.94773992421E+02  0.47000000000E+01 0.  1.
<mgrwt>
<rscale>  0 0.99996952E+03</rscale>
<asrwt>0</asrwt>
<pdfrwt beam="1">  1        2 0.21870176E+00 0.99996952E+03</pdfrwt>
<pdfrwt beam="2">  1       -2 0.27054190E-01 0.99996952E+03</pdfrwt>
<totfact> 0.20917709E+02</totfact>
</mgrwt>
</event>
<event>
 9    1  0.4342579E-036  0.1006625E+04  0.7818608E-02  0.8674754E-01
          1   -1    0    0  501    0  0.00000000000E+00  0.00000000000E+00  0.69658700407E+03  0.69658700407E+03  0.00000000000E+00 0. -1.
         -1   -1    0    0    0  501 -0.00000000000E+00 -0.00000000000E+00 -0.36366385583E+03  0.36366385583E+03  0.00000000000E+00 0. -1.
         36    2    1    2    0    0  0.71054273576E-14  0.28421709430E-13  0.33292314824E+03  0.10602508599E+04  0.10066250858E+04 0.  0.
         25    2    3    3    0    0  0.63099332665E+02  0.13284158044E+03  0.48036096466E+02  0.19863220013E+03  0.12457476907E+03 0.  0.
         35    2    3    3    0    0 -0.63099332665E+02 -0.13284158044E+03  0.28488705177E+03  0.86161865978E+03  0.79974850505E+03 0.  0.
         22    1    5    5    0    0  0.24372568026E+02  0.30963936232E+03  0.26803477439E+03  0.41025991402E+03  0.00000000000E+00 0. -1.
         22    1    5    5    0    0 -0.87471900691E+02 -0.44248094276E+03  0.16852277383E+02  0.45135874576E+03  0.00000000000E+00 0. -1.
          5    1    4    4  502    0  0.30482675562E+02  0.78467099159E+02 -0.37317157420E+02  0.92200539032E+02  0.47000000000E+01 0. -1.
         -5    1    4    4    0  502  0.32616657103E+02  0.54374481281E+02  0.85353253886E+02  0.10643166110E+03  0.47000000000E+01 0. -1.
<mgrwt>
<rscale>  0 0.10066251E+04</rscale>
<asrwt>0</asrwt>
<pdfrwt beam="1">  1        1 0.10716723E+00 0.10066251E+04</pdfrwt>
<pdfrwt beam="2">  1       -1 0.55948286E-01 0.10066251E+04</pdfrwt>
<totfact> 0.10208022E+02</totfact>
</mgrwt>
</event>
<event>
 9    1  0.4342579E-036  0.9999423E+03  0.7818608E-02  0.8681093E-01
         -2   -1    0    0    0  501 -0.00000000000E+00  0.00000000000E+00  0.15313867041E+03  0.15313867041E+03  0.00000000000E+00 0. -1.
          2   -1    0    0  501    0  0.00000000000E+00 -0.00000000000E+00 -0.16323190077E+04  0.16323190077E+04  0.00000000000E+00 0. -1.
         36    2    1    2    0    0  0.00000000000E+00  0.28421709430E-13 -0.14791803373E+04  0.17854576781E+04  0.99994232339E+03 0.  0.
         25    2    3    3    0    0  0.11337687940E+03  0.10170240863E+02 -0.13849845255E+03  0.21872662646E+03  0.12530668452E+03 0.  0.
         35    2    3    3    0    0 -0.11337687940E+03 -0.10170240863E+02 -0.13406818847E+04  0.15667310516E+04  0.80265840901E+03 0.  0.
         22    1    5    5    0    0 -0.46389520258E+02 -0.40233995108E+03 -0.56755860261E+03  0.69724614823E+03  0.00000000000E+00 0.  1.
         22    1    5    5    0    0 -0.66987359138E+02  0.39216971022E+03 -0.77312328213E+03  0.86948490341E+03  0.00000000000E+00 0.  1.
          5    1    4    4  502    0  0.22072445348E+02 -0.46180520860E+02 -0.11989788472E+02  0.52779526127E+02  0.47000000000E+01 0.  1.
         -5    1    4    4    0  502  0.91304434048E+02  0.56350761723E+02 -0.12650866407E+03  0.16594710033E+03  0.47000000000E+01 0.  1.
<mgrwt>
<rscale>  0 0.99994232E+03</rscale>
<asrwt>0</asrwt>
<pdfrwt beam="1">  1        2 0.25112600E+00 0.99994232E+03</pdfrwt>
<pdfrwt beam="2">  1       -2 0.23559796E-01 0.99994232E+03</pdfrwt>
<totfact> 0.20322870E+02</totfact>
</mgrwt>
</event>
<event>
 9    1  0.4342579E-036  0.1002754E+04  0.7818608E-02  0.8678420E-01
          1   -1    0    0  501    0  0.00000000000E+00  0.00000000000E+00  0.45784105707E+03  0.45784105707E+03  0.00000000000E+00 0. -1.
         -1   -1    0    0    0  501 -0.00000000000E+00 -0.00000000000E+00 -0.54905282534E+03  0.54905282534E+03  0.00000000000E+00 0. -1.
         36    2    1    2    0    0  0.00000000000E+00 -0.14210854715E-13 -0.91211768272E+02  0.10068938824E+04  0.10027540595E+04 0.  0.
         25    2    3    3    0    0 -0.71022571023E+02 -0.12258872752E+03  0.26575619669E+01  0.18911343119E+03  0.12523827495E+03 0.  0.
         35    2    3    3    0    0  0.71022571023E+02  0.12258872752E+03 -0.93869330238E+02  0.81778045122E+03  0.79992575501E+03 0.  0.
         22    1    5    5    0    0  0.21448844145E+03 -0.14694442036E+03  0.24806997655E+03  0.35935590639E+03  0.00000000000E+00 0.  1.
         22    1    5    5    0    0 -0.14346587043E+03  0.26953314787E+03 -0.34193930679E+03  0.45842454484E+03  0.00000000000E+00 0.  1.
          5    1    4    4  502    0 -0.47446645116E+02 -0.73584311168E+02 -0.59825873391E+02  0.10614640884E+03  0.47000000000E+01 0.  1.
         -5    1    4    4    0  502 -0.23575925908E+02 -0.49004416348E+02  0.62483435357E+02  0.82967022353E+02  0.47000000000E+01 0.  1.
<mgrwt>
<rscale>  0 0.10027541E+04</rscale>
<asrwt>0</asrwt>
<pdfrwt beam="1">  1        1 0.70437086E-01 0.10027541E+04</pdfrwt>
<pdfrwt beam="2">  1       -1 0.84469665E-01 0.10027541E+04</pdfrwt>
<totfact> 0.82285033E+01</totfact>
</mgrwt>
</event>
<event>
 9    1  0.4342579E-036  0.9938628E+03  0.7818608E-02  0.8686905E-01
         -3   -1    0    0    0  501 -0.00000000000E+00  0.00000000000E+00  0.12483899442E+03  0.12483899442E+03  0.00000000000E+00 0.  1.
          3   -1    0    0  501    0  0.00000000000E+00 -0.00000000000E+00 -0.19780742216E+04  0.19780742216E+04  0.00000000000E+00 0.  1.
         36    2    1    2    0    0 -0.71054273576E-14  0.00000000000E+00 -0.18532352272E+04  0.21029132160E+04  0.99386276056E+03 0.  0.
         25    2    3    3    0    0 -0.70663611383E+01 -0.62564755573E+01 -0.58158579312E+02  0.13847408762E+03  0.12531390844E+03 0.  0.
         35    2    3    3    0    0  0.70663611383E+01  0.62564755573E+01 -0.17950766478E+04  0.19644391284E+04  0.79789212336E+03 0.  0.
         22    1    5    5    0    0  0.39308144522E+03  0.67130776159E+01 -0.11172734111E+04  0.11844230507E+04  0.00000000000E+00 0.  1.
         22    1    5    5    0    0 -0.38601508408E+03 -0.45660205855E+00 -0.67780323676E+03  0.78001607764E+03  0.00000000000E+00 0.  1.
          5    1    4    4  502    0  0.42194934214E+02 -0.91783647295E+01  0.18477248410E+02  0.47203321507E+02  0.47000000000E+01 0. -1.
         -5    1    4    4    0  502 -0.49261295352E+02  0.29218891721E+01 -0.76635827723E+02  0.91270766113E+02  0.47000000000E+01 0. -1.
<mgrwt>
<rscale>  0 0.99386276E+03</rscale>
<asrwt>0</asrwt>
<pdfrwt beam="1">  1        3 0.30431912E+00 0.99386276E+03</pdfrwt>
<pdfrwt beam="2">  1       -3 0.19205999E-01 0.99386276E+03</pdfrwt>
<totfact> 0.41041801E+00</totfact>
</mgrwt>
</event>
<event>
 9    1  0.4342579E-036  0.9999090E+03  0.7818608E-02  0.8681125E-01
         -2   -1    0    0    0  501 -0.00000000000E+00  0.00000000000E+00  0.11295668809E+03  0.11295668809E+03  0.00000000000E+00 0.  1.
          2   -1    0    0  501    0  0.00000000000E+00 -0.00000000000E+00 -0.22128349068E+04  0.22128349068E+04  0.00000000000E+00 0.  1.
         36    2    1    2    0    0  0.00000000000E+00  0.28421709430E-13 -0.20998782187E+04  0.23257915949E+04  0.99990900059E+03 0.  0.
         25    2    3    3    0    0  0.11079794025E+03 -0.33829856063E+02 -0.57423905167E+03  0.59903822705E+03  0.12520250107E+03 0.  0.
         35    2    3    3    0    0 -0.11079794025E+03  0.33829856063E+02 -0.15256391671E+04  0.17267533679E+04  0.80042593826E+03 0.  0.
         22    1    5    5    0    0  0.28146587482E+02  0.38304648752E+03 -0.10655990302E+04  0.11327039044E+04  0.00000000000E+00 0.  1.
         22    1    5    5    0    0 -0.13894452773E+03 -0.34921663146E+03 -0.46004013690E+03  0.59404946345E+03  0.00000000000E+00 0.  1.
          5    1    4    4  502    0 -0.10036789089E+02 -0.30125439050E+02 -0.26562505836E+03  0.26755754678E+03  0.47000000000E+01 0. -1.
         -5    1    4    4    0  502  0.12083472933E+03 -0.37044170136E+01 -0.30861399331E+03  0.33148068026E+03  0.47000000000E+01 0. -1.
<mgrwt>
<rscale>  0 0.99990900E+03</rscale>
<asrwt>0</asrwt>
<pdfrwt beam="1">  1        2 0.34043613E+00 0.99990900E+03</pdfrwt>
<pdfrwt beam="2">  1       -2 0.17377952E-01 0.99990900E+03</pdfrwt>
<totfact> 0.16093149E+02</totfact>
</mgrwt>
</event>
<event>
 9    1  0.4342579E-036  0.9977255E+03  0.7818608E-02  0.8683207E-01
          2   -1    0    0  501    0  0.00000000000E+00  0.00000000000E+00  0.40258975046E+03  0.40258975046E+03  0.00000000000E+00 0. -1.
         -2   -1    0    0    0  501 -0.00000000000E+00 -0.00000000000E+00 -0.61815788751E+03  0.61815788751E+03  0.00000000000E+00 0. -1.
         36    2    1    2    0    0  0.00000000000E+00  0.28421709430E-13 -0.21556813704E+03  0.10207476380E+04  0.99772547262E+03 0.  0.
         25    2    3    3    0    0  0.88070466045E+02  0.10595097355E+03 -0.45318163093E+02  0.19145331451E+03  0.12497447718E+03 0.  0.
         35    2    3    3    0    0 -0.88070466045E+02 -0.10595097355E+03 -0.17024997395E+03  0.82929432346E+03  0.79985123961E+03 0.  0.
         22    1    5    5    0    0  0.22758023725E+03 -0.28753099831E+03 -0.26570172338E+03  0.45284019829E+03  0.00000000000E+00 0. -1.
         22    1    5    5    0    0 -0.31565070330E+03  0.18158002477E+03  0.95451749430E+02  0.37645412517E+03  0.00000000000E+00 0. -1.
          5    1    4    4  502    0  0.11839057310E+03  0.65962040893E+02 -0.33368194822E+02  0.13965258702E+03  0.47000000000E+01 0.  1.
         -5    1    4    4    0  502 -0.30320107052E+02  0.39988932655E+02 -0.11949968272E+02  0.51800727487E+02  0.47000000000E+01 0.  1.
<mgrwt>
<rscale>  0 0.99772547E+03</rscale>
<asrwt>0</asrwt>
<pdfrwt beam="1">  1        2 0.61936885E-01 0.99772547E+03</pdfrwt>
<pdfrwt beam="2">  1       -2 0.95101213E-01 0.99772547E+03</pdfrwt>
<totfact> 0.87477373E+01</totfact>
</mgrwt>
</event>
<event>
 9    1  0.4342579E-036  0.1000003E+04  0.7818608E-02  0.8681035E-01
         -3   -1    0    0    0  501 -0.00000000000E+00  0.00000000000E+00  0.14981245298E+04  0.14981245298E+04  0.00000000000E+00 0.  1.
          3   -1    0    0  501    0  0.00000000000E+00 -0.00000000000E+00 -0.16687631474E+03  0.16687631474E+03  0.00000000000E+00 0.  1.
         36    2    1    2    0    0  0.00000000000E+00 -0.71054273576E-14  0.13312482151E+04  0.16650008446E+04  0.10000030011E+04 0.  0.
         25    2    3    3    0    0 -0.13065379450E+03  0.21453607938E+02  0.17782048953E+03  0.25484304887E+03  0.12567490502E+03 0.  0.
         35    2    3    3    0    0  0.13065379450E+03 -0.21453607938E+02  0.11534277256E+04  0.14101577957E+04  0.80038666864E+03 0.  0.
         22    1    5    5    0    0  0.35505644320E+03 -0.14264611274E+03  0.21756745740E+03  0.44016881973E+03  0.00000000000E+00 0. -1.
         22    1    5    5    0    0 -0.22440264871E+03  0.12119250480E+03  0.93586026815E+03  0.96998897595E+03  0.00000000000E+00 0. -1.
          5    1    4    4  502    0 -0.78077447456E+02  0.69945538249E+02  0.72874922922E+02  0.12775488450E+03  0.47000000000E+01 0.  1.
         -5    1    4    4    0  502 -0.52576347041E+02 -0.48491930311E+02  0.10494556661E+03  0.12708816437E+03  0.47000000000E+01 0.  1.
<mgrwt>
<rscale>  0 0.10000030E+04</rscale>
<asrwt>0</asrwt>
<pdfrwt beam="1">  1        3 0.25673280E-01 0.10000030E+04</pdfrwt>
<pdfrwt beam="2">  1       -3 0.23048069E+00 0.10000030E+04</pdfrwt>
<totfact> 0.34266255E+00</totfact>
</mgrwt>
</event>
<event>
 9    1  0.4342579E-036  0.1000800E+04  0.7818608E-02  0.8680276E-01
          2   -1    0    0  501    0  0.00000000000E+00  0.00000000000E+00  0.40607971724E+03  0.40607971724E+03  0.00000000000E+00 0. -1.
         -2   -1    0    0    0  501 -0.00000000000E+00 -0.00000000000E+00 -0.61662850028E+03  0.61662850028E+03  0.00000000000E+00 0. -1.
         36    2    1    2    0    0  0.28421709430E-13  0.00000000000E+00 -0.21054878304E+03  0.10227082175E+04  0.10008003338E+04 0.  0.
         25    2    3    3    0    0 -0.99683289993E+02 -0.75499688774E+02 -0.10081504801E+03  0.20348405381E+03  0.12492047447E+03 0.  0.
         35    2    3    3    0    0  0.99683289993E+02  0.75499688774E+02 -0.10973373503E+03  0.81922416370E+03  0.80215321260E+03 0.  0.
         22    1    5    5    0    0 -0.32030224384E+03  0.36281071522E+02  0.11379268306E+03  0.34184589843E+03  0.00000000000E+00 0.  1.
         22    1    5    5    0    0  0.41998553383E+03  0.39218617252E+02 -0.22352641809E+03  0.47737826527E+03  0.00000000000E+00 0.  1.
          5    1    4    4  502    0 -0.73149948539E+02 -0.13994643061E+02  0.85880714511E+01  0.75117308105E+02  0.47000000000E+01 0.  1.
         -5    1    4    4    0  502 -0.26533341455E+02 -0.61505045714E+02 -0.10940311946E+03  0.12836674571E+03  0.47000000000E+01 0.  1.
<mgrwt>
<rscale>  0 0.10008003E+04</rscale>
<asrwt>0</asrwt>
<pdfrwt beam="1">  1        2 0.62473802E-01 0.10008003E+04</pdfrwt>
<pdfrwt beam="2">  1       -2 0.94865924E-01 0.10008003E+04</pdfrwt>
<totfact> 0.87129825E+01</totfact>
</mgrwt>
</event>
<event>
 9    1  0.4342579E-036  0.1000594E+04  0.7818608E-02  0.8680472E-01
          2   -1    0    0  501    0  0.00000000000E+00  0.00000000000E+00  0.21252824880E+04  0.21252824880E+04  0.00000000000E+00 0.  1.
         -2   -1    0    0    0  501 -0.00000000000E+00 -0.00000000000E+00 -0.11777125752E+03  0.11777125752E+03  0.00000000000E+00 0.  1.
         36    2    1    2    0    0  0.00000000000E+00  0.28421709430E-13  0.20075112305E+04  0.22430537456E+04  0.10005942059E+04 0.  0.
         25    2    3    3    0    0 -0.80446588721E+02  0.87150156758E+02  0.21758603023E+03  0.27887438984E+03  0.12790794072E+03 0.  0.
         35    2    3    3    0    0  0.80446588721E+02 -0.87150156758E+02  0.17899252003E+04  0.19641793557E+04  0.80006344457E+03 0.  0.
         22    1    5    5    0    0  0.41868680339E+01  0.27144500141E+03  0.14111996309E+04  0.14370749170E+04  0.00000000000E+00 0. -1.
         22    1    5    5    0    0  0.76259720687E+02 -0.35859515816E+03  0.37872556935E+03  0.52710443874E+03  0.00000000000E+00 0. -1.
          5    1    4    4  502    0 -0.24818016077E+02  0.11042635628E+03  0.12994912098E+03  0.17239135166E+03  0.47000000000E+01 0. -1.
         -5    1    4    4    0  502 -0.55628572644E+02 -0.23276199517E+02  0.87636909253E+02  0.10648303819E+03  0.47000000000E+01 0. -1.
<mgrwt>
<rscale>  0 0.10005942E+04</rscale>
<asrwt>0</asrwt>
<pdfrwt beam="1">  1        2 0.32696651E+00 0.10005942E+04</pdfrwt>
<pdfrwt beam="2">  1       -2 0.18118657E-01 0.10005942E+04</pdfrwt>
<totfact> 0.16843029E+02</totfact>
</mgrwt>
</event>
<event>
 9    1  0.4342579E-036  0.9997675E+03  0.7818608E-02  0.8681259E-01
         -2   -1    0    0    0  501 -0.00000000000E+00  0.00000000000E+00  0.30725238612E+03  0.30725238612E+03  0.00000000000E+00 0.  1.
          2   -1    0    0  501    0  0.00000000000E+00 -0.00000000000E+00 -0.81328495558E+03  0.81328495558E+03  0.00000000000E+00 0.  1.
         36    2    1    2    0    0  0.88817841970E-14  0.28421709430E-13 -0.50603256946E+03  0.11205373417E+04  0.99976745935E+03 0.  0.
         25    2    3    3    0    0 -0.22631197344E+01 -0.48027120201E+02 -0.24332340113E+03  0.27736331623E+03  0.12414671026E+03 0.  0.
         35    2    3    3    0    0  0.22631197344E+01  0.48027120201E+02 -0.26270916834E+03  0.84317402547E+03  0.79975909129E+03 0.  0.
         22    1    5    5    0    0  0.10971879240E+03  0.22542174973E+03 -0.48078291705E+03  0.54222264060E+03  0.00000000000E+00 0. -1.
         22    1    5    5    0    0 -0.10745567267E+03 -0.17739462953E+03  0.21807374871E+03  0.30095138486E+03  0.00000000000E+00 0. -1.
          5    1    4    4  502    0  0.11588479606E+01  0.40964189876E+02 -0.10468174071E+03  0.11251561945E+03  0.47000000000E+01 0.  1.
         -5    1    4    4    0  502 -0.34219676949E+01 -0.88991310077E+02 -0.13864166042E+03  0.16484769678E+03  0.47000000000E+01 0.  1.
<mgrwt>
<rscale>  0 0.99976746E+03</rscale>
<asrwt>0</asrwt>
<pdfrwt beam="1">  1        2 0.12512076E+00 0.99976746E+03</pdfrwt>
<pdfrwt beam="2">  1       -2 0.47269597E-01 0.99976746E+03</pdfrwt>
<totfact> 0.17297789E+02</totfact>
</mgrwt>
</event>
<event>
 9    1  0.4342579E-036  0.9999412E+03  0.7818608E-02  0.8681094E-01
         -1   -1    0    0    0  501 -0.00000000000E+00  0.00000000000E+00  0.98954548003E+03  0.98954548003E+03  0.00000000000E+00 0.  1.
          1   -1    0    0  501    0  0.00000000000E+00 -0.00000000000E+00 -0.25261151377E+03  0.25261151377E+03  0.00000000000E+00 0.  1.
         36    2    1    2    0    0  0.00000000000E+00  0.00000000000E+00  0.73693396626E+03  0.12421569938E+04  0.99994116158E+03 0.  0.
         25    2    3    3    0    0 -0.55043198861E+02  0.66911045711E+02 -0.93839411489E+01  0.15245643742E+03  0.12509222670E+03 0.  0.
         35    2    3    3    0    0  0.55043198861E+02 -0.66911045711E+02  0.74631790741E+03  0.10897005564E+04  0.78927184283E+03 0.  0.
         22    1    5    5    0    0  0.23334496674E+03  0.30354782212E+03  0.36212278455E+03  0.52699531773E+03  0.00000000000E+00 0. -1.
         22    1    5    5    0    0 -0.17830176788E+03 -0.37045886783E+03  0.38419512286E+03  0.56270523865E+03  0.00000000000E+00 0. -1.
          5    1    4    4  502    0 -0.35941437898E+02  0.14018964553E+02  0.54678744217E+02  0.67083331718E+02  0.47000000000E+01 0.  1.
         -5    1    4    4    0  502 -0.19101760963E+02  0.52892081158E+02 -0.64062685366E+02  0.85373105703E+02  0.47000000000E+01 0.  1.
<mgrwt>
<rscale>  0 0.99994116E+03</rscale>
<asrwt>0</asrwt>
<pdfrwt beam="1">  1        1 0.38863310E-01 0.99994116E+03</pdfrwt>
<pdfrwt beam="2">  1       -1 0.15223776E+00 0.99994116E+03</pdfrwt>
<totfact> 0.43060699E+01</totfact>
</mgrwt>
</event>
<event>
 9    1  0.4342579E-036  0.1000121E+04  0.7818608E-02  0.8680923E-01
         -4   -1    0    0    0  501 -0.00000000000E+00  0.00000000000E+00  0.25289617114E+03  0.25289617114E+03  0.00000000000E+00 0. -1.
          4   -1    0    0  501    0  0.00000000000E+00 -0.00000000000E+00 -0.98878701102E+03  0.98878701102E+03  0.00000000000E+00 0. -1.
         36    2    1    2    0    0  0.00000000000E+00  0.28421709430E-13 -0.73589083988E+03  0.12416831822E+04  0.10001208910E+04 0.  0.
         25    2    3    3    0    0  0.84849481663E+02  0.53171730741E+02 -0.16961605084E+02  0.16112527568E+03  0.12508793278E+03 0.  0.
         35    2    3    3    0    0 -0.84849481663E+02 -0.53171730741E+02 -0.71892923479E+03  0.10805579065E+04  0.80044954691E+03 0.  0.
         22    1    5    5    0    0 -0.24530288906E+02  0.22958136751E+03  0.69230568683E+02  0.24104400225E+03  0.00000000000E+00 0.  1.
         22    1    5    5    0    0 -0.60319192757E+02 -0.28275309825E+03 -0.78815980348E+03  0.83951390423E+03  0.00000000000E+00 0.  1.
          5    1    4    4  502    0 -0.31756962381E+02  0.22157724223E+02 -0.94754362049E+01  0.40141540749E+02  0.47000000000E+01 0. -1.
         -5    1    4    4    0  502  0.11660644404E+03  0.31014006518E+02 -0.74861688792E+01  0.12098373493E+03  0.47000000000E+01 0. -1.
<mgrwt>
<rscale>  0 0.10001209E+04</rscale>
<asrwt>0</asrwt>
<pdfrwt beam="1">  1        4 0.15212108E+00 0.10001209E+04</pdfrwt>
<pdfrwt beam="2">  1       -4 0.38907103E-01 0.10001209E+04</pdfrwt>
<totfact> 0.36717256E+00</totfact>
</mgrwt>
</event>
<event>
 9    1  0.4342579E-036  0.9996711E+03  0.7818608E-02  0.8681351E-01
         -2   -1    0    0    0  501 -0.00000000000E+00  0.00000000000E+00  0.39152692332E+03  0.39152692332E+03  0.00000000000E+00 0. -1.
          2   -1    0    0  501    0  0.00000000000E+00 -0.00000000000E+00 -0.63810574592E+03  0.63810574592E+03  0.00000000000E+00 0. -1.
         36    2    1    2    0    0 -0.28421709430E-13 -0.28421709430E-13 -0.24657882261E+03  0.10296326692E+04  0.99967110482E+03 0.  0.
         25    2    3    3    0    0  0.10624471221E+03  0.79306936140E+02 -0.91047256012E+02  0.20384730959E+03  0.12524613290E+03 0.  0.
         35    2    3    3    0    0 -0.10624471221E+03 -0.79306936140E+02 -0.15553156659E+03  0.82578535966E+03  0.80009615861E+03 0.  0.
         22    1    5    5    0    0  0.30126341635E+02  0.35475105619E+03 -0.69227655032E+02  0.36269598364E+03  0.00000000000E+00 0. -1.
         22    1    5    5    0    0 -0.13637105384E+03 -0.43405799233E+03 -0.86303911562E+02  0.46308937602E+03  0.00000000000E+00 0. -1.
          5    1    4    4  502    0  0.45725562357E+02  0.69416772761E+02 -0.11139224921E+03  0.13906774816E+03  0.47000000000E+01 0. -1.
         -5    1    4    4    0  502  0.60519149853E+02  0.98901633787E+01  0.20344993199E+02  0.64779561428E+02  0.47000000000E+01 0. -1.
<mgrwt>
<rscale>  0 0.99967110E+03</rscale>
<asrwt>0</asrwt>
<pdfrwt beam="1">  1        2 0.98170115E-01 0.99967110E+03</pdfrwt>
<pdfrwt beam="2">  1       -2 0.60234911E-01 0.99967110E+03</pdfrwt>
<totfact> 0.14296169E+02</totfact>
</mgrwt>
</event>
<event>
 9    1  0.4342579E-036  0.1000368E+04  0.7818608E-02  0.8680688E-01
          2   -1    0    0  501    0  0.00000000000E+00  0.00000000000E+00  0.28730279199E+04  0.28730279199E+04  0.00000000000E+00 0.  1.
         -2   -1    0    0    0  501 -0.00000000000E+00 -0.00000000000E+00 -0.87080251667E+02  0.87080251667E+02  0.00000000000E+00 0.  1.
         36    2    1    2    0    0  0.00000000000E+00 -0.71054273576E-14  0.27859476682E+04  0.29601081715E+04  0.10003679209E+04 0.  0.
         25    2    3    3    0    0  0.12849880997E+03 -0.97926665443E+01  0.36286296716E+03  0.40470434282E+03  0.12453205082E+03 0.  0.
         35    2    3    3    0    0 -0.12849880997E+03  0.97926665443E+01  0.24230847010E+04  0.25554038287E+04  0.80133726913E+03 0.  0.
         22    1    5    5    0    0  0.21138164901E+03  0.89663150321E+02  0.19829460215E+03  0.30338495564E+03  0.00000000000E+00 0. -1.
         22    1    5    5    0    0 -0.33988045898E+03 -0.79870483777E+02  0.22247900989E+04  0.22520188731E+04  0.00000000000E+00 0. -1.
          5    1    4    4  502    0  0.13661198494E+03  0.24777290809E+02  0.24646998874E+03  0.28292453750E+03  0.47000000000E+01 0.  1.
         -5    1    4    4    0  502 -0.81131749720E+01 -0.34569957353E+02  0.11639297842E+03  0.12177980533E+03  0.47000000000E+01 0.  1.
<mgrwt>
<rscale>  0 0.10003679E+04</rscale>
<asrwt>0</asrwt>
<pdfrwt beam="1">  1        2 0.44200422E+00 0.10003679E+04</pdfrwt>
<pdfrwt beam="2">  1       -2 0.13396964E-01 0.10003679E+04</pdfrwt>
<totfact> 0.97973345E+01</totfact>
</mgrwt>
</event>
<event>
 9    1  0.4342579E-036  0.9987343E+03  0.7818608E-02  0.8682244E-01
          2   -1    0    0  501    0  0.00000000000E+00  0.00000000000E+00  0.17570052661E+03  0.17570052661E+03  0.00000000000E+00 0. -1.
         -2   -1    0    0    0  501 -0.00000000000E+00 -0.00000000000E+00 -0.14192761823E+04  0.14192761823E+04  0.00000000000E+00 0. -1.
         36    2    1    2    0    0  0.28421709430E-13 -0.10658141036E-13 -0.12435756557E+04  0.15949767089E+04  0.99873434432E+03 0.  0.
         25    2    3    3    0    0  0.13997617912E+03  0.84109716120E+01 -0.20007673310E+03  0.27323607297E+03  0.12232406662E+03 0.  0.
         35    2    3    3    0    0 -0.13997617912E+03 -0.84109716120E+01 -0.10434989226E+04  0.13217406359E+04  0.79902705341E+03 0.  0.
         22    1    5    5    0    0  0.23407586246E+03 -0.26335739319E+03 -0.37667464474E+03  0.51578330132E+03  0.00000000000E+00 0. -1.
         22    1    5    5    0    0 -0.37405204159E+03  0.25494642158E+03 -0.66682427783E+03  0.80595733460E+03  0.00000000000E+00 0. -1.
          5    1    4    4  502    0  0.42814469975E+02 -0.14215074630E+02 -0.15883434326E+03  0.16518349126E+03  0.47000000000E+01 0. -1.
         -5    1    4    4    0  502  0.97161709149E+02  0.22626046242E+02 -0.41242389843E+02  0.10805258171E+03  0.47000000000E+01 0. -1.
<mgrwt>
<rscale>  0 0.99873434E+03</rscale>
<asrwt>0</asrwt>
<pdfrwt beam="1">  1        2 0.27030850E-01 0.99873434E+03</pdfrwt>
<pdfrwt beam="2">  1       -2 0.21835018E+00 0.99873434E+03</pdfrwt>
<totfact> 0.21918431E+01</totfact>
</mgrwt>
</event>
<event>
 9    1  0.4342579E-036  0.1000260E+04  0.7818608E-02  0.8680791E-01
          2   -1    0    0  501    0  0.00000000000E+00  0.00000000000E+00  0.29859495558E+03  0.29859495558E+03  0.00000000000E+00 0. -1.
         -2   -1    0    0    0  501 -0.00000000000E+00 -0.00000000000E+00 -0.83768944488E+03  0.83768944488E+03  0.00000000000E+00 0. -1.
         36    2    1    2    0    0  0.21316282073E-13  0.14210854715E-13 -0.53909448930E+03  0.11362844005E+04  0.10002596515E+04 0.  0.
         25    2    3    3    0    0  0.56629267860E+02  0.12530621444E+03 -0.14512960179E+03  0.23585947306E+03  0.12513420140E+03 0.  0.
         35    2    3    3    0    0 -0.56629267860E+02 -0.12530621444E+03 -0.39396488751E+03  0.90042492741E+03  0.79790237244E+03 0.  0.
         22    1    5    5    0    0 -0.25236492589E+03  0.61264513332E+02 -0.53554861735E+03  0.59519216894E+03  0.00000000000E+00 0. -1.
         22    1    5    5    0    0  0.19573565803E+03 -0.18657072777E+03  0.14158372984E+03  0.30523275847E+03  0.00000000000E+00 0. -1.
          5    1    4    4  502    0 -0.75813763246E+01  0.73098466717E+00 -0.81292982917E+02  0.81784171311E+02  0.47000000000E+01 0. -1.
         -5    1    4    4    0  502  0.64210644185E+02  0.12457522977E+03 -0.63836618869E+02  0.15407530174E+03  0.47000000000E+01 0. -1.
<mgrwt>
<rscale>  0 0.10002597E+04</rscale>
<asrwt>0</asrwt>
<pdfrwt beam="1">  1        2 0.45937685E-01 0.10002597E+04</pdfrwt>
<pdfrwt beam="2">  1       -2 0.12887530E+00 0.10002597E+04</pdfrwt>
<totfact> 0.56642497E+01</totfact>
</mgrwt>
</event>
<event>
 9    1  0.4342579E-036  0.9998285E+03  0.7818608E-02  0.8681201E-01
          1   -1    0    0  501    0  0.00000000000E+00  0.00000000000E+00  0.15428238473E+04  0.15428238473E+04  0.00000000000E+00 0.  1.
         -1   -1    0    0    0  501 -0.00000000000E+00 -0.00000000000E+00 -0.16198497463E+03  0.16198497463E+03  0.00000000000E+00 0.  1.
         36    2    1    2    0    0 -0.14210854715E-13 -0.14210854715E-13  0.13808388727E+04  0.17048088219E+04  0.99982854882E+03 0.  0.
         25    2    3    3    0    0  0.72347961466E+02  0.11844795799E+03  0.30451063420E+03  0.35714458726E+03  0.12474527481E+03 0.  0.
         35    2    3    3    0    0 -0.72347961466E+02 -0.11844795799E+03  0.10763282385E+04  0.13476642347E+04  0.79903208083E+03 0.  0.
         22    1    5    5    0    0 -0.16223016007E+03 -0.27790869810E+03  0.75895920726E+02  0.33062374400E+03  0.00000000000E+00 0.  1.
         22    1    5    5    0    0  0.89882198599E+02  0.15946074011E+03  0.10004323178E+04  0.10170404907E+04  0.00000000000E+00 0.  1.
          5    1    4    4  502    0  0.68389655851E+01 -0.20255788342E+02  0.80618209915E+01  0.23327052307E+02  0.47000000000E+01 0.  1.
         -5    1    4    4    0  502  0.65508995881E+02  0.13870374633E+03  0.29644881321E+03  0.33381753495E+03  0.47000000000E+01 0.  1.
<mgrwt>
<rscale>  0 0.99982855E+03</rscale>
<asrwt>0</asrwt>
<pdfrwt beam="1">  1        1 0.23735750E+00 0.99982855E+03</pdfrwt>
<pdfrwt beam="2">  1       -1 0.24920766E-01 0.99982855E+03</pdfrwt>
<totfact> 0.92630911E+01</totfact>
</mgrwt>
</event>
<event>
 9    1  0.4342579E-036  0.9999072E+03  0.7818608E-02  0.8681126E-01
         -2   -1    0    0    0  501 -0.00000000000E+00  0.00000000000E+00  0.47753412869E+03  0.47753412869E+03  0.00000000000E+00 0.  1.
          2   -1    0    0  501    0  0.00000000000E+00 -0.00000000000E+00 -0.52342557867E+03  0.52342557867E+03  0.00000000000E+00 0.  1.
         36    2    1    2    0    0  0.71054273576E-14 -0.14210854715E-13 -0.45891449983E+02  0.10009597074E+04  0.99990715098E+03 0.  0.
         25    2    3    3    0    0  0.49647563980E+01 -0.12755007614E+03 -0.70317911753E+02  0.19210395456E+03  0.12516249404E+03 0.  0.
         35    2    3    3    0    0 -0.49647563980E+01  0.12755007614E+03  0.24426461770E+02  0.80885575281E+03  0.79834660774E+03 0.  0.
         22    1    5    5    0    0 -0.24801143670E+03 -0.25452562368E+03  0.15252046310E+00  0.35537724900E+03  0.00000000000E+00 0.  1.
         22    1    5    5    0    0  0.24304668030E+03  0.38207569981E+03  0.24273941307E+02  0.45347850381E+03  0.00000000000E+00 0.  1.
          5    1    4    4  502    0 -0.51430535971E+02 -0.84048145915E+02 -0.10931785677E+02  0.99251119894E+02  0.47000000000E+01 0. -1.
         -5    1    4    4    0  502  0.56395292369E+02 -0.43501930222E+02 -0.59386126076E+02  0.92852834662E+02  0.47000000000E+01 0. -1.
<mgrwt>
<rscale>  0 0.99990715E+03</rscale>
<asrwt>0</asrwt>
<pdfrwt beam="1">  1        2 0.80527012E-01 0.99990715E+03</pdfrwt>
<pdfrwt beam="2">  1       -2 0.73466789E-01 0.99990715E+03</pdfrwt>
<totfact> 0.11792339E+02</totfact>
</mgrwt>
</event>
<event>
 9    1  0.4342579E-036  0.1002589E+04  0.7818608E-02  0.8678576E-01
         -2   -1    0    0    0  501 -0.00000000000E+00  0.00000000000E+00  0.14180367918E+03  0.14180367918E+03  0.00000000000E+00 0. -1.
          2   -1    0    0  501    0  0.00000000000E+00 -0.00000000000E+00 -0.17721421206E+04  0.17721421206E+04  0.00000000000E+00 0. -1.
         36    2    1    2    0    0  0.14210854715E-13  0.00000000000E+00 -0.16303384414E+04  0.19139457998E+04  0.10025891935E+04 0.  0.
         25    2    3    3    0    0 -0.89157291556E+02 -0.11111522369E+03 -0.36533241926E+03  0.41064976593E+03  0.12194194572E+03 0.  0.
         35    2    3    3    0    0  0.89157291556E+02  0.11111522369E+03 -0.12650060222E+04  0.15032960339E+04  0.79960184698E+03 0.  0.
         22    1    5    5    0    0  0.18341626966E+03  0.43380923002E+03 -0.65451842434E+03  0.80636613509E+03  0.00000000000E+00 0. -1.
         22    1    5    5    0    0 -0.94258978103E+02 -0.32269400633E+03 -0.61048759785E+03  0.69692989877E+03  0.00000000000E+00 0. -1.
          5    1    4    4  502    0 -0.22668132629E+02  0.22706186841E+02 -0.11091295025E+03  0.11555599375E+03  0.47000000000E+01 0.  1.
         -5    1    4    4    0  502 -0.66489158926E+02 -0.13382141053E+03 -0.25441946900E+03  0.29509377218E+03  0.47000000000E+01 0.  1.
<mgrwt>
<rscale>  0 0.10025892E+04</rscale>
<asrwt>0</asrwt>
<pdfrwt beam="1">  1        2 0.27263724E+00 0.10025892E+04</pdfrwt>
<pdfrwt beam="2">  1       -2 0.21815952E-01 0.10025892E+04</pdfrwt>
<totfact> 0.19398862E+02</totfact>
</mgrwt>
</event>
<event>
 9    1  0.4342579E-036  0.9996638E+03  0.7818608E-02  0.8681358E-01
         -2   -1    0    0    0  501 -0.00000000000E+00  0.00000000000E+00  0.21989900557E+03  0.21989900557E+03  0.00000000000E+00 0.  1.
          2   -1    0    0  501    0  0.00000000000E+00 -0.00000000000E+00 -0.11361213231E+04  0.11361213231E+04  0.00000000000E+00 0.  1.
         36    2    1    2    0    0 -0.14210854715E-13 -0.14210854715E-13 -0.91622231758E+03  0.13560203287E+04  0.99966384183E+03 0.  0.
         25    2    3    3    0    0 -0.87712192616E+02 -0.94027743757E+02 -0.13112272254E+03  0.22763879873E+03  0.13450505192E+03 0.  0.
         35    2    3    3    0    0  0.87712192616E+02  0.94027743757E+02 -0.78509959504E+03  0.11283815300E+04  0.80020550971E+03 0.  0.
         22    1    5    5    0    0 -0.18194650926E+03 -0.65292691495E+02  0.79335527083E+02  0.20895404675E+03  0.00000000000E+00 0.  1.
         22    1    5    5    0    0  0.26965870187E+03  0.15932043525E+03 -0.86443512212E+03  0.91942748325E+03  0.00000000000E+00 0.  1.
          5    1    4    4  502    0  0.31657890217E+02  0.29932096538E+00 -0.11373666684E+02  0.33967070817E+02  0.47000000000E+01 0.  1.
         -5    1    4    4    0  502 -0.11937008283E+03 -0.94327064723E+02 -0.11974905585E+03  0.19367172791E+03  0.47000000000E+01 0.  1.
<mgrwt>
<rscale>  0 0.99966384E+03</rscale>
<asrwt>0</asrwt>
<pdfrwt beam="1">  1        2 0.17478790E+00 0.99966384E+03</pdfrwt>
<pdfrwt beam="2">  1       -2 0.33830616E-01 0.99966384E+03</pdfrwt>
<totfact> 0.20406960E+02</totfact>
</mgrwt>
</event>
<event>
 9    1  0.4342579E-036  0.1000329E+04  0.7818608E-02  0.8680725E-01
          2   -1    0    0  501    0  0.00000000000E+00  0.00000000000E+00  0.41706426455E+03  0.41706426455E+03  0.00000000000E+00 0.  1.
         -2   -1    0    0    0  501 -0.00000000000E+00 -0.00000000000E+00 -0.59982206065E+03  0.59982206065E+03  0.00000000000E+00 0.  1.
         36    2    1    2    0    0  0.21316282073E-13  0.00000000000E+00 -0.18275779610E+03  0.10168863252E+04  0.10003286392E+04 0.  0.
         25    2    3    3    0    0 -0.25420542186E+02  0.74004607114E+02 -0.14331562370E+03  0.20699232025E+03  0.12721464856E+03 0.  0.
         35    2    3    3    0    0  0.25420542186E+02 -0.74004607114E+02 -0.39442172404E+02  0.80989400494E+03  0.80513957078E+03 0.  0.
         22    1    5    5    0    0  0.20884679534E+03  0.30939217536E+03 -0.83786955070E+02  0.38257124296E+03  0.00000000000E+00 0. -1.
         22    1    5    5    0    0 -0.18342625316E+03 -0.38339678248E+03  0.44344782665E+02  0.42732276198E+03  0.00000000000E+00 0. -1.
          5    1    4    4  502    0 -0.10086351614E+02 -0.32200523577E+02 -0.94358710330E+01  0.35351575208E+02  0.47000000000E+01 0. -1.
         -5    1    4    4    0  502 -0.15334190572E+02  0.10620513069E+03 -0.13387975267E+03  0.17164074505E+03  0.47000000000E+01 0. -1.
<mgrwt>
<rscale>  0 0.10003286E+04</rscale>
<asrwt>0</asrwt>
<pdfrwt beam="1">  1        2 0.64163733E-01 0.10003286E+04</pdfrwt>
<pdfrwt beam="2">  1       -2 0.92280316E-01 0.10003286E+04</pdfrwt>
<totfact> 0.90286978E+01</totfact>
</mgrwt>
</event>
<event>
 9    1  0.4342579E-036  0.9981953E+03  0.7818608E-02  0.8682758E-01
          2   -1    0    0  501    0  0.00000000000E+00  0.00000000000E+00  0.62285303103E+03  0.62285303103E+03  0.00000000000E+00 0. -1.
         -2   -1    0    0    0  501 -0.00000000000E+00 -0.00000000000E+00 -0.39993133880E+03  0.39993133880E+03  0.00000000000E+00 0. -1.
         36    2    1    2    0    0  0.28421709430E-13  0.71054273576E-14  0.22292169222E+03  0.10227843698E+04  0.99819526461E+03 0.  0.
         25    2    3    3    0    0  0.77993401180E+02 -0.27260429106E+02 -0.68982652967E+02  0.16724844567E+03  0.12801302491E+03 0.  0.
         35    2    3    3    0    0 -0.77993401180E+02  0.27260429106E+02  0.29190434519E+03  0.85553592415E+03  0.79994216613E+03 0.  0.
         22    1    5    5    0    0  0.20873942347E+03 -0.28911692663E+03  0.22939078982E+03  0.42400575306E+03  0.00000000000E+00 0.  1.
         22    1    5    5    0    0 -0.28673282465E+03  0.31637735574E+03  0.62513555376E+02  0.43153017109E+03  0.00000000000E+00 0.  1.
          5    1    4    4  502    0  0.95547881814E+02 -0.22118358416E+02 -0.25894105060E+01  0.98221253020E+02  0.47000000000E+01 0.  1.
         -5    1    4    4    0  502 -0.17554480633E+02 -0.51420706899E+01 -0.66393242461E+02  0.69027192654E+02  0.47000000000E+01 0.  1.
<mgrwt>
<rscale>  0 0.99819526E+03</rscale>
<asrwt>0</asrwt>
<pdfrwt beam="1">  1        2 0.95823543E-01 0.99819526E+03</pdfrwt>
<pdfrwt beam="2">  1       -2 0.61527899E-01 0.99819526E+03</pdfrwt>
<totfact> 0.14077372E+02</totfact>
</mgrwt>
</event>
<event>
 9    1  0.4342579E-036  0.1000990E+04  0.7818608E-02  0.8680096E-01
         -2   -1    0    0    0  501 -0.00000000000E+00  0.00000000000E+00  0.35166901577E+03  0.35166901577E+03  0.00000000000E+00 0. -1.
          2   -1    0    0  501    0  0.00000000000E+00 -0.00000000000E+00 -0.71230379544E+03  0.71230379544E+03  0.00000000000E+00 0. -1.
         36    2    1    2    0    0 -0.35527136788E-14 -0.28421709430E-13 -0.36063477968E+03  0.10639728112E+04  0.10009898594E+04 0.  0.
         25    2    3    3    0    0  0.31316506289E+02 -0.70429649315E+02  0.59991133535E+02  0.15801680680E+03  0.12421479807E+03 0.  0.
         35    2    3    3    0    0 -0.31316506289E+02  0.70429649315E+02 -0.42062591321E+03  0.90595600441E+03  0.79867957530E+03 0.  0.
         22    1    5    5    0    0 -0.91700788569E+02  0.40199998451E+03 -0.67502369805E+02  0.41781526073E+03  0.00000000000E+00 0.  1.
         22    1    5    5    0    0  0.60384282280E+02 -0.33157033520E+03 -0.35312354341E+03  0.48814074368E+03  0.00000000000E+00 0.  1.
          5    1    4    4  502    0 -0.28636280046E+02 -0.44165520976E+02 -0.18241754789E+02  0.55906005006E+02  0.47000000000E+01 0. -1.
         -5    1    4    4    0  502  0.59952786334E+02 -0.26264128339E+02  0.78232888324E+02  0.10211080179E+03  0.47000000000E+01 0. -1.
<mgrwt>
<rscale>  0 0.10009899E+04</rscale>
<asrwt>0</asrwt>
<pdfrwt beam="1">  1        2 0.10958520E+00 0.10009899E+04</pdfrwt>
<pdfrwt beam="2">  1       -2 0.54102926E-01 0.10009899E+04</pdfrwt>
<totfact> 0.15604306E+02</totfact>
</mgrwt>
</event>
<event>
 9    1  0.4342579E-036  0.1002970E+04  0.7818608E-02  0.8678214E-01
          3   -1    0    0  501    0  0.00000000000E+00  0.00000000000E+00  0.24431613011E+04  0.24431613011E+04  0.00000000000E+00 0. -1.
         -3   -1    0    0    0  501 -0.00000000000E+00 -0.00000000000E+00 -0.10293526406E+03  0.10293526406E+03  0.00000000000E+00 0. -1.
         36    2    1    2    0    0  0.00000000000E+00  0.00000000000E+00  0.23402260371E+04  0.25460965652E+04  0.10029704954E+04 0.  0.
         25    2    3    3    0    0  0.25747741542E+02  0.14111428344E+03  0.44668026404E+03  0.48547209623E+03  0.12483473376E+03 0.  0.
         35    2    3    3    0    0 -0.25747741542E+02 -0.14111428344E+03  0.18935457730E+04  0.20606244690E+04  0.80005088609E+03 0.  0.
         22    1    5    5    0    0  0.27215294965E+00 -0.33615350559E+03  0.18196496713E+04  0.18504389154E+04  0.00000000000E+00 0. -1.
         22    1    5    5    0    0 -0.26019894491E+02  0.19503922215E+03  0.73896101782E+02  0.21018555360E+03  0.00000000000E+00 0. -1.
          5    1    4    4  502    0  0.58049474495E+02  0.84589899525E+02  0.37372605210E+03  0.38758024280E+03  0.47000000000E+01 0. -1.
         -5    1    4    4    0  502 -0.32301732953E+02  0.56524383912E+02  0.72954211940E+02  0.97891853431E+02  0.47000000000E+01 0. -1.
<mgrwt>
<rscale>  0 0.10029705E+04</rscale>
<asrwt>0</asrwt>
<pdfrwt beam="1">  1        3 0.37587093E+00 0.10029705E+04</pdfrwt>
<pdfrwt beam="2">  1       -3 0.15836196E-01 0.10029705E+04</pdfrwt>
<totfact> 0.34996933E+00</totfact>
</mgrwt>
</event>
<event>
 9    1  0.4342579E-036  0.1000152E+04  0.7818608E-02  0.8680893E-01
          2   -1    0    0  501    0  0.00000000000E+00  0.00000000000E+00  0.33027939835E+04  0.33027939835E+04  0.00000000000E+00 0. -1.
         -2   -1    0    0    0  501 -0.00000000000E+00 -0.00000000000E+00 -0.75716525858E+02  0.75716525858E+02  0.00000000000E+00 0. -1.
         36    2    1    2    0    0 -0.28421709430E-13 -0.21316282073E-13  0.32270774576E+04  0.33785105094E+04  0.10001521605E+04 0.  0.
         25    2    3    3    0    0 -0.10713064934E+03 -0.52621076519E+01  0.91176803550E+03  0.92651242573E+03  0.12489859355E+03 0.  0.
         35    2    3    3    0    0  0.10713064934E+03  0.52621076519E+01  0.23153094221E+04  0.24519980836E+04  0.80008263076E+03 0.  0.
         22    1    5    5    0    0 -0.29809856133E+02 -0.17006491618E+03  0.55636618316E+02  0.18140048659E+03  0.00000000000E+00 0.  1.
         22    1    5    5    0    0  0.13694050547E+03  0.17532702383E+03  0.22596728038E+04  0.22705975970E+04  0.00000000000E+00 0.  1.
          5    1    4    4  502    0  0.18550688488E+02 -0.30498008758E+02  0.17581288483E+03  0.17946174259E+03  0.47000000000E+01 0.  1.
         -5    1    4    4    0  502 -0.12568133783E+03  0.25235901106E+02  0.73595515067E+03  0.74705068314E+03  0.47000000000E+01 0.  1.
<mgrwt>
<rscale>  0 0.10001522E+04</rscale>
<asrwt>0</asrwt>
<pdfrwt beam="1">  1        2 0.50812204E+00 0.10001522E+04</pdfrwt>
<pdfrwt beam="2">  1       -2 0.11648699E-01 0.10001522E+04</pdfrwt>
<totfact> 0.62846385E+01</totfact>
</mgrwt>
</event>
<event>
 9    1  0.4342579E-036  0.1000145E+04  0.7818608E-02  0.8680900E-01
          1   -1    0    0  501    0  0.00000000000E+00  0.00000000000E+00  0.84209859025E+03  0.84209859025E+03  0.00000000000E+00 0.  1.
         -1   -1    0    0    0  501 -0.00000000000E+00 -0.00000000000E+00 -0.29696356480E+03  0.29696356480E+03  0.00000000000E+00 0.  1.
         36    2    1    2    0    0  0.28421709430E-13  0.00000000000E+00  0.54513502545E+03  0.11390621551E+04  0.10001451880E+04 0.  0.
         25    2    3    3    0    0 -0.78652091440E+01  0.13067154325E+03  0.14382659031E+03  0.23436417169E+03  0.13078059168E+03 0.  0.
         35    2    3    3    0    0  0.78652091440E+01 -0.13067154325E+03  0.40130843514E+03  0.90469798337E+03  0.80018314607E+03 0.  0.
         22    1    5    5    0    0  0.40143018389E+03 -0.60647839283E+02  0.25278879889E+03  0.47825362496E+03  0.00000000000E+00 0.  1.
         22    1    5    5    0    0 -0.39356497474E+03 -0.70023703964E+02  0.14851963626E+03  0.42644435840E+03  0.00000000000E+00 0.  1.
          5    1    4    4  502    0  0.14589552908E+02 -0.55642329158E+00 -0.18720059525E+02  0.24201142319E+02  0.47000000000E+01 0. -1.
         -5    1    4    4    0  502 -0.22454762052E+02  0.13122796654E+03  0.16254664983E+03  0.21016302937E+03  0.47000000000E+01 0. -1.
<mgrwt>
<rscale>  0 0.10001452E+04</rscale>
<asrwt>0</asrwt>
<pdfrwt beam="1">  1        1 0.12955363E+00 0.10001452E+04</pdfrwt>
<pdfrwt beam="2">  1       -1 0.45686703E-01 0.10001452E+04</pdfrwt>
<totfact> 0.10983173E+02</totfact>
</mgrwt>
</event>
<event>
 9    1  0.4342579E-036  0.1007045E+04  0.7818608E-02  0.8674358E-01
          2   -1    0    0  501    0  0.00000000000E+00  0.00000000000E+00  0.15616986381E+04  0.15616986381E+04  0.00000000000E+00 0. -1.
         -2   -1    0    0    0  501 -0.00000000000E+00 -0.00000000000E+00 -0.16234564946E+03  0.16234564946E+03  0.00000000000E+00 0. -1.
         36    2    1    2    0    0  0.00000000000E+00  0.00000000000E+00  0.13993529886E+04  0.17240442875E+04  0.10070451423E+04 0.  0.
         25    2    3    3    0    0  0.10469567785E+03  0.93229963921E+02  0.18913867337E+03  0.26660739306E+03  0.12511216221E+03 0.  0.
         35    2    3    3    0    0 -0.10469567785E+03 -0.93229963921E+02  0.12102143152E+04  0.14574368945E+04  0.79990662046E+03 0.  0.
         22    1    5    5    0    0 -0.19025132089E+03 -0.32111782730E+03  0.11466319826E+04  0.12058512046E+04  0.00000000000E+00 0. -1.
         22    1    5    5    0    0  0.85555643044E+02  0.22788786338E+03  0.63582332650E+02  0.25158568989E+03  0.00000000000E+00 0. -1.
          5    1    4    4  502    0  0.36860825831E+02  0.41399015416E+02  0.17016614735E+03  0.17902850796E+03  0.47000000000E+01 0. -1.
         -5    1    4    4    0  502  0.67834852016E+02  0.51830948505E+02  0.18972526024E+02  0.87578885096E+02  0.47000000000E+01 0. -1.
<mgrwt>
<rscale>  0 0.10070451E+04</rscale>
<asrwt>0</asrwt>
<pdfrwt beam="1">  1        2 0.24026132E+00 0.10070451E+04</pdfrwt>
<pdfrwt beam="2">  1       -2 0.24976255E-01 0.10070451E+04</pdfrwt>
<totfact> 0.20089532E+02</totfact>
</mgrwt>
</event>
<event>
 9    1  0.4342579E-036  0.9999216E+03  0.7818608E-02  0.8681113E-01
         -2   -1    0    0    0  501 -0.00000000000E+00  0.00000000000E+00  0.33389697724E+03  0.33389697724E+03  0.00000000000E+00 0.  1.
          2   -1    0    0  501    0  0.00000000000E+00 -0.00000000000E+00 -0.74861655854E+03  0.74861655854E+03  0.00000000000E+00 0.  1.
         36    2    1    2    0    0 -0.28421709430E-13  0.00000000000E+00 -0.41471958130E+03  0.10825135358E+04  0.99992160895E+03 0.  0.
         25    2    3    3    0    0 -0.90482491375E+02 -0.21047748310E+02 -0.18746585006E+03  0.24589031545E+03  0.12918402896E+03 0.  0.
         35    2    3    3    0    0  0.90482491375E+02  0.21047748310E+02 -0.22725373123E+03  0.83662322033E+03  0.79979001337E+03 0.  0.
         22    1    5    5    0    0 -0.32298161549E+03 -0.14145746401E+03 -0.41258709919E+02  0.35500650587E+03  0.00000000000E+00 0. -1.
         22    1    5    5    0    0  0.41346410686E+03  0.16250521232E+03 -0.18599502131E+03  0.48161671446E+03  0.00000000000E+00 0. -1.
          5    1    4    4  502    0  0.26117448017E+01 -0.10893745964E+02  0.17032316610E+02  0.20920915877E+02  0.47000000000E+01 0.  1.
         -5    1    4    4    0  502 -0.93094236177E+02 -0.10154002347E+02 -0.20449816667E+03  0.22496939957E+03  0.47000000000E+01 0.  1.
<mgrwt>
<rscale>  0 0.99992161E+03</rscale>
<asrwt>0</asrwt>
<pdfrwt beam="1">  1        2 0.11517178E+00 0.99992161E+03</pdfrwt>
<pdfrwt beam="2">  1       -2 0.51368767E-01 0.99992161E+03</pdfrwt>
<totfact> 0.16291273E+02</totfact>
</mgrwt>
</event>
<event>
 9    1  0.4342579E-036  0.1000743E+04  0.7818608E-02  0.8680331E-01
          1   -1    0    0  501    0  0.00000000000E+00  0.00000000000E+00  0.96641325570E+03  0.96641325570E+03  0.00000000000E+00 0. -1.
         -1   -1    0    0    0  501 -0.00000000000E+00 -0.00000000000E+00 -0.25907290022E+03  0.25907290022E+03  0.00000000000E+00 0. -1.
         36    2    1    2    0    0  0.35527136788E-13  0.00000000000E+00  0.70734035548E+03  0.12254861559E+04  0.10007426941E+04 0.  0.
         25    2    3    3    0    0 -0.27624962495E+02  0.11971753453E+03  0.21804522958E+03  0.27910814403E+03  0.12354030635E+03 0.  0.
         35    2    3    3    0    0  0.27624962495E+02 -0.11971753453E+03  0.48929512589E+03  0.94637801189E+03  0.80070356221E+03 0.  0.
         22    1    5    5    0    0 -0.32646345368E+03 -0.15399654180E+03  0.25499695166E+02  0.36186123850E+03  0.00000000000E+00 0.  1.
         22    1    5    5    0    0  0.35408841617E+03  0.34279007275E+02  0.46379543073E+03  0.58451677339E+03  0.00000000000E+00 0.  1.
          5    1    4    4  502    0 -0.54426805863E+02  0.13230514468E+03  0.16739944645E+03  0.22025347483E+03  0.47000000000E+01 0. -1.
         -5    1    4    4    0  502  0.26801843368E+02 -0.12587610147E+02  0.50645783137E+02  0.58854669200E+02  0.47000000000E+01 0. -1.
<mgrwt>
<rscale>  0 0.10007427E+04</rscale>
<asrwt>0</asrwt>
<pdfrwt beam="1">  1        1 0.14867896E+00 0.10007427E+04</pdfrwt>
<pdfrwt beam="2">  1       -1 0.39857370E-01 0.10007427E+04</pdfrwt>
<totfact> 0.11066002E+02</totfact>
</mgrwt>
</event>
<event>
 9    1  0.4342579E-036  0.9994140E+03  0.7818608E-02  0.8681596E-01
          2   -1    0    0  501    0  0.00000000000E+00  0.00000000000E+00  0.31422769506E+03  0.31422769506E+03  0.00000000000E+00 0.  1.
         -2   -1    0    0    0  501 -0.00000000000E+00 -0.00000000000E+00 -0.79466922371E+03  0.79466922371E+03  0.00000000000E+00 0.  1.
         36    2    1    2    0    0  0.14210854715E-13 -0.71054273576E-14 -0.48044152865E+03  0.11088969188E+04  0.99941398529E+03 0.  0.
         25    2    3    3    0    0 -0.97977517630E+02  0.20394941095E+02 -0.19866397325E+03  0.25497267537E+03  0.12461197107E+03 0.  0.
         35    2    3    3    0    0  0.97977517630E+02 -0.20394941095E+02 -0.28177755540E+03  0.85392424339E+03  0.79985778432E+03 0.  0.
         22    1    5    5    0    0  0.16966907097E+03  0.23606514999E+03 -0.45233095334E+03  0.53769660594E+03  0.00000000000E+00 0. -1.
         22    1    5    5    0    0 -0.71691553341E+02 -0.25646009109E+03  0.17055339794E+03  0.31622763746E+03  0.00000000000E+00 0. -1.
          5    1    4    4  502    0 -0.11620280543E+03  0.26093230647E+02 -0.20246563756E+03  0.23494334012E+03  0.47000000000E+01 0.  1.
         -5    1    4    4    0  502  0.18225287798E+02 -0.56982895512E+01  0.38016643078E+01  0.20029335252E+02  0.47000000000E+01 0.  1.
<mgrwt>
<rscale>  0 0.99941399E+03</rscale>
<asrwt>0</asrwt>
<pdfrwt beam="1">  1        2 0.48342723E-01 0.99941399E+03</pdfrwt>
<pdfrwt beam="2">  1       -2 0.12225680E+00 0.99941399E+03</pdfrwt>
<totfact> 0.61486185E+01</totfact>
</mgrwt>
</event>
<event>
 9    1  0.4342579E-036  0.9949452E+03  0.7818608E-02  0.8685867E-01
          2   -1    0    0  501    0  0.00000000000E+00  0.00000000000E+00  0.42027093841E+03  0.42027093841E+03  0.00000000000E+00 0. -1.
         -2   -1    0    0    0  501 -0.00000000000E+00 -0.00000000000E+00 -0.58885579118E+03  0.58885579118E+03  0.00000000000E+00 0. -1.
         36    2    1    2    0    0  0.28421709430E-13 -0.14210854715E-13 -0.16858485277E+03  0.10091267296E+04  0.99494517628E+03 0.  0.
         25    2    3    3    0    0  0.12560347698E+03  0.21470858971E+02 -0.77609293697E+02  0.19479216883E+03  0.12523400240E+03 0.  0.
         35    2    3    3    0    0 -0.12560347698E+03 -0.21470858971E+02 -0.90975559076E+02  0.81433456076E+03  0.79914141007E+03 0.  0.
         22    1    5    5    0    0 -0.31213589031E+03  0.20005928695E+03 -0.28337902186E+03  0.46664354956E+03  0.00000000000E+00 0. -1.
         22    1    5    5    0    0  0.18653241333E+03 -0.22153014592E+03  0.19240346279E+03  0.34769101120E+03  0.00000000000E+00 0. -1.
          5    1    4    4  502    0 -0.74990804431E+01 -0.97106866642E+01 -0.54506864480E+02  0.56068011543E+02  0.47000000000E+01 0. -1.
         -5    1    4    4    0  502  0.13310255742E+03  0.31181545636E+02 -0.23102429217E+02  0.13872415729E+03  0.47000000000E+01 0. -1.
<mgrwt>
<rscale>  0 0.99494518E+03</rscale>
<asrwt>0</asrwt>
<pdfrwt beam="1">  1        2 0.64657068E-01 0.99494518E+03</pdfrwt>
<pdfrwt beam="2">  1       -2 0.90593198E-01 0.99494518E+03</pdfrwt>
<totfact> 0.93521553E+01</totfact>
</mgrwt>
</event>
<event>
 9    1  0.4342579E-036  0.9995198E+03  0.7818608E-02  0.8681495E-01
          2   -1    0    0  501    0  0.00000000000E+00  0.00000000000E+00  0.19258273229E+04  0.19258273229E+04  0.00000000000E+00 0. -1.
         -2   -1    0    0    0  501 -0.00000000000E+00 -0.00000000000E+00 -0.12968970566E+03  0.12968970566E+03  0.00000000000E+00 0. -1.
         36    2    1    2    0    0  0.28421709430E-13  0.21316282073E-13  0.17961376172E+04  0.20555170285E+04  0.99951984201E+03 0.  0.
         25    2    3    3    0    0  0.75757449123E+02  0.11346697127E+02  0.10132065404E+03  0.17932199225E+03  0.12658026440E+03 0.  0.
         35    2    3    3    0    0 -0.75757449123E+02 -0.11346697127E+02  0.16948169632E+04  0.18761950363E+04  0.80114626433E+03 0.  0.
         22    1    5    5    0    0  0.70374795070E+02 -0.20319613809E+03  0.59398697119E+02  0.22309076076E+03  0.00000000000E+00 0. -1.
         22    1    5    5    0    0 -0.14613224419E+03  0.19184944097E+03  0.16354182660E+04  0.16531042755E+04  0.00000000000E+00 0. -1.
          5    1    4    4  502    0 -0.19013662268E+02 -0.25283043504E+02 -0.47870756305E+01  0.32338177666E+02  0.47000000000E+01 0. -1.
         -5    1    4    4    0  502  0.94771111391E+02  0.36629740631E+02  0.10610772967E+03  0.14698381458E+03  0.47000000000E+01 0. -1.
<mgrwt>
<rscale>  0 0.99951984E+03</rscale>
<asrwt>0</asrwt>
<pdfrwt beam="1">  1        2 0.29628111E+00 0.99951984E+03</pdfrwt>
<pdfrwt beam="2">  1       -2 0.19952264E-01 0.99951984E+03</pdfrwt>
<totfact> 0.18548236E+02</totfact>
</mgrwt>
</event>
<event>
 9    1  0.4342579E-036  0.9989499E+03  0.7818608E-02  0.8682039E-01
         -3   -1    0    0    0  501 -0.00000000000E+00  0.00000000000E+00  0.45324642226E+03  0.45324642226E+03  0.00000000000E+00 0. -1.
          3   -1    0    0  501    0  0.00000000000E+00 -0.00000000000E+00 -0.55041847170E+03  0.55041847170E+03  0.00000000000E+00 0. -1.
         36    2    1    2    0    0  0.00000000000E+00  0.00000000000E+00 -0.97172049445E+02  0.10036648940E+04  0.99894985468E+03 0.  0.
         25    2    3    3    0    0 -0.68873247149E+02 -0.11648723223E+03  0.26663629566E+01  0.18450990617E+03  0.12539536091E+03 0.  0.
         35    2    3    3    0    0  0.68873247149E+02  0.11648723223E+03 -0.99838412401E+02  0.81915498779E+03  0.80170716973E+03 0.  0.
         22    1    5    5    0    0  0.28133166301E+03 -0.25974757901E+02  0.25576774261E+03  0.38110278248E+03  0.00000000000E+00 0.  1.
         22    1    5    5    0    0 -0.21245841586E+03  0.14246199013E+03 -0.35560615501E+03  0.43805220531E+03  0.00000000000E+00 0.  1.
          5    1    4    4  502    0 -0.12165809628E+02 -0.10476800219E+03 -0.39500463566E+02  0.11272407830E+03  0.47000000000E+01 0. -1.
         -5    1    4    4    0  502 -0.56707437521E+02 -0.11719230036E+02  0.42166826523E+02  0.71785827862E+02  0.47000000000E+01 0. -1.
<mgrwt>
<rscale>  0 0.99894985E+03</rscale>
<asrwt>0</asrwt>
<pdfrwt beam="1">  1        3 0.84679765E-01 0.99894985E+03</pdfrwt>
<pdfrwt beam="2">  1       -3 0.69730218E-01 0.99894985E+03</pdfrwt>
<totfact> 0.10193975E+01</totfact>
</mgrwt>
</event>
<event>
 9    1  0.4342579E-036  0.9990608E+03  0.7818608E-02  0.8681933E-01
          2   -1    0    0  501    0  0.00000000000E+00  0.00000000000E+00  0.84807671914E+02  0.84807671914E+02  0.00000000000E+00 0. -1.
         -2   -1    0    0    0  501 -0.00000000000E+00 -0.00000000000E+00 -0.29423116627E+04  0.29423116627E+04  0.00000000000E+00 0. -1.
         36    2    1    2    0    0 -0.14210854715E-13  0.00000000000E+00 -0.28575039908E+04  0.30271193346E+04  0.99906076323E+03 0.  0.
         25    2    3    3    0    0 -0.39766340003E+02 -0.26318308877E+02 -0.99241938817E+03  0.10015322388E+04  0.12608159319E+03 0.  0.
         35    2    3    3    0    0  0.39766340003E+02  0.26318308877E+02 -0.18650846026E+04  0.20255870958E+04  0.78878925744E+03 0.  0.
         22    1    5    5    0    0  0.18026269769E+03  0.12839175819E+02 -0.18753831125E+04  0.18840704082E+04  0.00000000000E+00 0.  1.
         22    1    5    5    0    0 -0.14049635768E+03  0.13479133058E+02  0.10298509897E+02  0.14151668755E+03  0.00000000000E+00 0.  1.
          5    1    4    4  502    0 -0.18843156397E+02 -0.38558373723E+01 -0.94272041395E+03  0.94292831165E+03  0.47000000000E+01 0.  1.
         -5    1    4    4    0  502 -0.20923183606E+02 -0.22462471504E+02 -0.49698974219E+02  0.58603927144E+02  0.47000000000E+01 0.  1.
<mgrwt>
<rscale>  0 0.99906076E+03</rscale>
<asrwt>0</asrwt>
<pdfrwt beam="1">  1        2 0.13047334E-01 0.99906076E+03</pdfrwt>
<pdfrwt beam="2">  1       -2 0.45266335E+00 0.99906076E+03</pdfrwt>
<totfact> 0.29191527E+00</totfact>
</mgrwt>
</event>
<event>
 9    1  0.4342579E-036  0.1001042E+04  0.7818608E-02  0.8680046E-01
          2   -1    0    0  501    0  0.00000000000E+00  0.00000000000E+00  0.23693467227E+04  0.23693467227E+04  0.00000000000E+00 0. -1.
         -2   -1    0    0    0  501 -0.00000000000E+00 -0.00000000000E+00 -0.10573439160E+03  0.10573439160E+03  0.00000000000E+00 0. -1.
         36    2    1    2    0    0  0.14210854715E-13 -0.14210854715E-13  0.22636123311E+04  0.24750811143E+04  0.10010423252E+04 0.  0.
         25    2    3    3    0    0 -0.10414781101E+03 -0.95277571035E+02  0.41863730553E+03  0.45909545076E+03  0.12484733575E+03 0.  0.
         35    2    3    3    0    0  0.10414781101E+03  0.95277571035E+02  0.18449750255E+04  0.20159856635E+04  0.80021295198E+03 0.  0.
         22    1    5    5    0    0 -0.16837295571E+03  0.33059324819E+03  0.13736464338E+04  0.14228653742E+04  0.00000000000E+00 0.  1.
         22    1    5    5    0    0  0.27252076672E+03 -0.23531567716E+03  0.47132859172E+03  0.59312028930E+03  0.00000000000E+00 0.  1.
          5    1    4    4  502    0 -0.35602042350E+02 -0.32829835819E+02  0.25089253739E+02  0.54743622392E+02  0.47000000000E+01 0.  1.
         -5    1    4    4    0  502 -0.68545768663E+02 -0.62447735216E+02  0.39354805179E+03  0.40435182837E+03  0.47000000000E+01 0.  1.
<mgrwt>
<rscale>  0 0.10010423E+04</rscale>
<asrwt>0</asrwt>
<pdfrwt beam="1">  1        2 0.36451484E+00 0.10010423E+04</pdfrwt>
<pdfrwt beam="2">  1       -2 0.16266831E-01 0.10010423E+04</pdfrwt>
<totfact> 0.14560173E+02</totfact>
</mgrwt>
</event>
<event>
 9    1  0.4342579E-036  0.1000153E+04  0.7818608E-02  0.8680892E-01
          2   -1    0    0  501    0  0.00000000000E+00  0.00000000000E+00  0.41615074866E+03  0.41615074866E+03  0.00000000000E+00 0. -1.
         -2   -1    0    0    0  501 -0.00000000000E+00 -0.00000000000E+00 -0.60092796624E+03  0.60092796624E+03  0.00000000000E+00 0. -1.
         36    2    1    2    0    0  0.00000000000E+00 -0.28421709430E-13 -0.18477721757E+03  0.10170787149E+04  0.10001532343E+04 0.  0.
         25    2    3    3    0    0  0.87685473047E+02 -0.10674095768E+03 -0.62782945028E+02  0.19652110713E+03  0.12488584040E+03 0.  0.
         35    2    3    3    0    0 -0.87685473047E+02  0.10674095768E+03 -0.12199427255E+03  0.82055760777E+03  0.79959352855E+03 0.  0.
         22    1    5    5    0    0  0.34022666722E+02  0.36864818315E+03  0.17219444032E+03  0.40830129815E+03  0.00000000000E+00 0.  1.
         22    1    5    5    0    0 -0.12170813977E+03 -0.26190722547E+03 -0.29418871287E+03  0.41225630962E+03  0.00000000000E+00 0.  1.
          5    1    4    4  502    0  0.28550448284E+01  0.22799477489E+02  0.98318070455E+01  0.25430727173E+02  0.47000000000E+01 0. -1.
         -5    1    4    4    0  502  0.84830428219E+02 -0.12954043517E+03 -0.72614752074E+02  0.17109037996E+03  0.47000000000E+01 0. -1.
<mgrwt>
<rscale>  0 0.10001532E+04</rscale>
<asrwt>0</asrwt>
<pdfrwt beam="1">  1        2 0.64023192E-01 0.10001532E+04</pdfrwt>
<pdfrwt beam="2">  1       -2 0.92450456E-01 0.10001532E+04</pdfrwt>
<totfact> 0.90117665E+01</totfact>
</mgrwt>
</event>
<event>
 9    1  0.4342579E-036  0.9988939E+03  0.7818608E-02  0.8682092E-01
          1   -1    0    0  501    0  0.00000000000E+00  0.00000000000E+00  0.82144943842E+03  0.82144943842E+03  0.00000000000E+00 0.  1.
         -1   -1    0    0    0  501 -0.00000000000E+00 -0.00000000000E+00 -0.30366718219E+03  0.30366718219E+03  0.00000000000E+00 0.  1.
         36    2    1    2    0    0  0.00000000000E+00  0.00000000000E+00  0.51778225623E+03  0.11251166206E+04  0.99889386079E+03 0.  0.
         25    2    3    3    0    0 -0.12927502393E+03  0.58129205050E+02  0.78848556907E+02  0.20335592650E+03  0.12266010609E+03 0.  0.
         35    2    3    3    0    0  0.12927502393E+03 -0.58129205050E+02  0.43893369932E+03  0.92176069411E+03  0.79805322411E+03 0.  0.
         22    1    5    5    0    0  0.28675628556E+03  0.27837685856E+03  0.36849487546E+03  0.54360952524E+03  0.00000000000E+00 0.  1.
         22    1    5    5    0    0 -0.15748126163E+03 -0.33650606361E+03  0.70438823863E+02  0.37815116887E+03  0.00000000000E+00 0.  1.
          5    1    4    4  502    0  0.23644544994E+02  0.11881661627E+02  0.17944229771E+02  0.32315998717E+02  0.47000000000E+01 0.  1.
         -5    1    4    4    0  502 -0.15291956892E+03  0.46247543423E+02  0.60904327136E+02  0.17103992778E+03  0.47000000000E+01 0.  1.
<mgrwt>
<rscale>  0 0.99889386E+03</rscale>
<asrwt>0</asrwt>
<pdfrwt beam="1">  1        1 0.12637684E+00 0.99889386E+03</pdfrwt>
<pdfrwt beam="2">  1       -1 0.46718028E-01 0.99889386E+03</pdfrwt>
<totfact> 0.10989651E+02</totfact>
</mgrwt>
</event>
<event>
 9    1  0.4342579E-036  0.9964407E+03  0.7818608E-02  0.8684435E-01
         -2   -1    0    0    0  501 -0.00000000000E+00  0.00000000000E+00  0.20988414550E+03  0.20988414550E+03  0.00000000000E+00 0.  1.
          2   -1    0    0  501    0  0.00000000000E+00 -0.00000000000E+00 -0.11826691677E+04  0.11826691677E+04  0.00000000000E+00 0.  1.
         36    2    1    2    0    0  0.00000000000E+00  0.00000000000E+00 -0.97278502224E+03  0.13925533132E+04  0.99644068099E+03 0.  0.
         25    2    3    3    0    0 -0.44723890673E+02 -0.16640223671E+02 -0.46009124394E+01  0.13573199019E+03  0.12698378371E+03 0.  0.
         35    2    3    3    0    0  0.44723890673E+02  0.16640223671E+02 -0.96818410980E+03  0.12568213231E+04  0.79996390179E+03 0.  0.
         22    1    5    5    0    0  0.32059602717E+03  0.25187599128E+03 -0.68348913982E+03  0.79585220480E+03  0.00000000000E+00 0.  1.
         22    1    5    5    0    0 -0.27587213650E+03 -0.23523576760E+03 -0.28469496998E+03  0.46096911826E+03  0.00000000000E+00 0.  1.
          5    1    4    4  502    0 -0.49802098769E+02  0.48736896553E+02 -0.45756029688E+01  0.69989715458E+02  0.47000000000E+01 0.  1.
         -5    1    4    4    0  502  0.50782080962E+01 -0.65377120224E+02 -0.25309470579E-01  0.65742274731E+02  0.47000000000E+01 0.  1.
<mgrwt>
<rscale>  0 0.99644068E+03</rscale>
<asrwt>0</asrwt>
<pdfrwt beam="1">  1        2 0.18194910E+00 0.99644068E+03</pdfrwt>
<pdfrwt beam="2">  1       -2 0.32289869E-01 0.99644068E+03</pdfrwt>
<totfact> 0.20865570E+02</totfact>
</mgrwt>
</event>
<event>
 9    1  0.4342579E-036  0.9999141E+03  0.7818608E-02  0.8681120E-01
         -1   -1    0    0    0  501 -0.00000000000E+00  0.00000000000E+00  0.34995511764E+03  0.34995511764E+03  0.00000000000E+00 0.  1.
          1   -1    0    0  501    0  0.00000000000E+00 -0.00000000000E+00 -0.71425462085E+03  0.71425462085E+03  0.00000000000E+00 0.  1.
         36    2    1    2    0    0  0.14210854715E-13  0.00000000000E+00 -0.36429950322E+03  0.10642097385E+04  0.99991411604E+03 0.  0.
         25    2    3    3    0    0  0.82158070738E+02  0.10213935965E+03 -0.10861690385E+03  0.20918013372E+03  0.12155780175E+03 0.  0.
         35    2    3    3    0    0 -0.82158070738E+02 -0.10213935965E+03 -0.25568259937E+03  0.85502960477E+03  0.80530716875E+03 0.  0.
         22    1    5    5    0    0 -0.35175918320E+03  0.20907893738E+02  0.12384050669E+03  0.37350787687E+03  0.00000000000E+00 0.  1.
         22    1    5    5    0    0  0.26960111247E+03 -0.12304725339E+03 -0.37952310606E+03  0.48152172790E+03  0.00000000000E+00 0.  1.
          5    1    4    4  502    0 -0.17695772577E+02  0.20010386449E+02  0.14353898407E+02  0.30686810398E+02  0.47000000000E+01 0. -1.
         -5    1    4    4    0  502  0.99853843315E+02  0.82128973199E+02 -0.12297080226E+03  0.17849332332E+03  0.47000000000E+01 0. -1.
<mgrwt>
<rscale>  0 0.99991412E+03</rscale>
<asrwt>0</asrwt>
<pdfrwt beam="1">  1        1 0.10988533E+00 0.99991412E+03</pdfrwt>
<pdfrwt beam="2">  1       -1 0.53839249E-01 0.99991412E+03</pdfrwt>
<totfact> 0.10565248E+02</totfact>
</mgrwt>
</event>
<event>
 9    1  0.4342579E-036  0.1001259E+04  0.7818608E-02  0.8679840E-01
         -2   -1    0    0    0  501 -0.00000000000E+00  0.00000000000E+00  0.10865122764E+03  0.10865122764E+03  0.00000000000E+00 0.  1.
          2   -1    0    0  501    0  0.00000000000E+00 -0.00000000000E+00 -0.23067358120E+04  0.23067358120E+04  0.00000000000E+00 0.  1.
         36    2    1    2    0    0  0.00000000000E+00 -0.14210854715E-13 -0.21980845844E+04  0.24153870396E+04  0.10012585636E+04 0.  0.
         25    2    3    3    0    0 -0.10508463679E+03 -0.91526339905E+02 -0.34919338757E+03  0.39594204898E+03  0.12415406735E+03 0.  0.
         35    2    3    3    0    0  0.10508463679E+03  0.91526339905E+02 -0.18488911968E+04  0.20194449907E+04  0.80021219744E+03 0.  0.
         22    1    5    5    0    0  0.22231772539E+03  0.87747363293E+02 -0.88064211303E+02  0.25471567698E+03  0.00000000000E+00 0. -1.
         22    1    5    5    0    0 -0.11723308860E+03  0.37789766119E+01 -0.17608269855E+04  0.17647293137E+04  0.00000000000E+00 0. -1.
          5    1    4    4  502    0 -0.11163604401E+02 -0.29142767118E+02 -0.28624502282E+01  0.31689281466E+02  0.47000000000E+01 0.  1.
         -5    1    4    4    0  502 -0.93921032388E+02 -0.62383572787E+02 -0.34633093735E+03  0.36425276751E+03  0.47000000000E+01 0.  1.
<mgrwt>
<rscale>  0 0.10012586E+04</rscale>
<asrwt>0</asrwt>
<pdfrwt beam="1">  1        2 0.35488244E+00 0.10012586E+04</pdfrwt>
<pdfrwt beam="2">  1       -2 0.16715573E-01 0.10012586E+04</pdfrwt>
<totfact> 0.15144692E+02</totfact>
</mgrwt>
</event>
<event>
 9    1  0.4342579E-036  0.1000003E+04  0.7818608E-02  0.8681035E-01
          2   -1    0    0  501    0  0.00000000000E+00  0.00000000000E+00  0.72200588324E+03  0.72200588324E+03  0.00000000000E+00 0. -1.
         -2   -1    0    0    0  501 -0.00000000000E+00 -0.00000000000E+00 -0.34625956777E+03  0.34625956777E+03  0.00000000000E+00 0. -1.
         36    2    1    2    0    0 -0.28421709430E-13 -0.28421709430E-13  0.37574631547E+03  0.10682654510E+04  0.10000028901E+04 0.  0.
         25    2    3    3    0    0 -0.87312315711E+02  0.81884471175E+02 -0.73641679951E+01  0.17340183847E+03  0.12524160459E+03 0.  0.
         35    2    3    3    0    0  0.87312315711E+02 -0.81884471175E+02  0.38311048346E+03  0.89486361254E+03  0.79979918443E+03 0.  0.
         22    1    5    5    0    0 -0.23984351939E+03 -0.19884968246E+03  0.44372581434E+03  0.54217959047E+03  0.00000000000E+00 0.  1.
         22    1    5    5    0    0  0.32715583510E+03  0.11696521129E+03 -0.60615330879E+02  0.35268402207E+03  0.00000000000E+00 0.  1.
          5    1    4    4  502    0 -0.50763720331E+02  0.60523577962E+02  0.56077145707E+02  0.96988633673E+02  0.47000000000E+01 0. -1.
         -5    1    4    4    0  502 -0.36548595380E+02  0.21360893213E+02 -0.63441313702E+02  0.76413204797E+02  0.47000000000E+01 0. -1.
<mgrwt>
<rscale>  0 0.10000029E+04</rscale>
<asrwt>0</asrwt>
<pdfrwt beam="1">  1        2 0.11107783E+00 0.10000029E+04</pdfrwt>
<pdfrwt beam="2">  1       -2 0.53270703E-01 0.10000029E+04</pdfrwt>
<totfact> 0.15836966E+02</totfact>
</mgrwt>
</event>
<event>
 9    1  0.4342579E-036  0.1001767E+04  0.7818608E-02  0.8679357E-01
          2   -1    0    0  501    0  0.00000000000E+00  0.00000000000E+00  0.23293416422E+04  0.23293416422E+04  0.00000000000E+00 0. -1.
         -2   -1    0    0    0  501 -0.00000000000E+00 -0.00000000000E+00 -0.10770604602E+03  0.10770604602E+03  0.00000000000E+00 0. -1.
         36    2    1    2    0    0  0.00000000000E+00  0.00000000000E+00  0.22216355962E+04  0.24370476882E+04  0.10017667955E+04 0.  0.
         25    2    3    3    0    0  0.13296182557E+03  0.21970151361E+02  0.31312982662E+03  0.36326446432E+03  0.12549600833E+03 0.  0.
         35    2    3    3    0    0 -0.13296182557E+03 -0.21970151361E+02  0.19085057695E+04  0.20737832239E+04  0.80001315784E+03 0.  0.
         22    1    5    5    0    0 -0.32148689146E+03  0.24560643865E+03  0.14815554611E+04  0.15358004195E+04  0.00000000000E+00 0. -1.
         22    1    5    5    0    0  0.18852506589E+03 -0.26757659001E+03  0.42695030844E+03  0.53798280444E+03  0.00000000000E+00 0. -1.
          5    1    4    4  502    0  0.90470319188E+02 -0.39498662292E+02  0.23557047065E+03  0.25546146406E+03  0.47000000000E+01 0.  1.
         -5    1    4    4    0  502  0.42491506380E+02  0.61468813652E+02  0.77559355968E+02  0.10780300026E+03  0.47000000000E+01 0.  1.
<mgrwt>
<rscale>  0 0.10017668E+04</rscale>
<asrwt>0</asrwt>
<pdfrwt beam="1">  1        2 0.35836021E+00 0.10017668E+04</pdfrwt>
<pdfrwt beam="2">  1       -2 0.16570163E-01 0.10017668E+04</pdfrwt>
<totfact> 0.14905210E+02</totfact>
</mgrwt>
</event>
<event>
 9    1  0.4342579E-036  0.1000190E+04  0.7818608E-02  0.8680857E-01
          2   -1    0    0  501    0  0.00000000000E+00  0.00000000000E+00  0.40484831180E+03  0.40484831180E+03  0.00000000000E+00 0. -1.
         -2   -1    0    0    0  501 -0.00000000000E+00 -0.00000000000E+00 -0.61775037065E+03  0.61775037065E+03  0.00000000000E+00 0. -1.
         36    2    1    2    0    0 -0.14210854715E-13  0.00000000000E+00 -0.21290205885E+03  0.10225986825E+04  0.10001903712E+04 0.  0.
         25    2    3    3    0    0  0.47747106939E+02  0.12950420820E+03 -0.12066880002E+02  0.18665351659E+03  0.12507117774E+03 0.  0.
         35    2    3    3    0    0 -0.47747106939E+02 -0.12950420820E+03 -0.20083517885E+03  0.83594516586E+03  0.79963643307E+03 0.  0.
         22    1    5    5    0    0  0.30549872117E+03 -0.87943174903E+02 -0.32935715073E+03  0.45775495998E+03  0.00000000000E+00 0.  1.
         22    1    5    5    0    0 -0.35324582811E+03 -0.41561033299E+02  0.12852197188E+03  0.37819020588E+03  0.00000000000E+00 0.  1.
          5    1    4    4  502    0  0.60220445837E+02  0.13373131759E+02  0.20728709550E+02  0.65246548947E+02  0.47000000000E+01 0. -1.
         -5    1    4    4    0  502 -0.12473338898E+02  0.11613107644E+03 -0.32795589552E+02  0.12140696765E+03  0.47000000000E+01 0. -1.
<mgrwt>
<rscale>  0 0.10001904E+04</rscale>
<asrwt>0</asrwt>
<pdfrwt beam="1">  1        2 0.62284356E-01 0.10001904E+04</pdfrwt>
<pdfrwt beam="2">  1       -2 0.95038518E-01 0.10001904E+04</pdfrwt>
<totfact> 0.87052796E+01</totfact>
</mgrwt>
</event>
<event>
 9    1  0.4342579E-036  0.1010372E+04  0.7818608E-02  0.8671223E-01
         -2   -1    0    0    0  501 -0.00000000000E+00  0.00000000000E+00  0.27956697870E+03  0.27956697870E+03  0.00000000000E+00 0. -1.
          2   -1    0    0  501    0  0.00000000000E+00 -0.00000000000E+00 -0.91288559352E+03  0.91288559352E+03  0.00000000000E+00 0. -1.
         36    2    1    2    0    0 -0.14210854715E-13  0.00000000000E+00 -0.63331861482E+03  0.11924525722E+04  0.10103715500E+04 0.  0.
         25    2    3    3    0    0  0.11518326071E+03 -0.61069661780E+01 -0.23705188402E+03  0.29173927453E+03  0.12495491187E+03 0.  0.
         35    2    3    3    0    0 -0.11518326071E+03  0.61069661780E+01 -0.39626673080E+03  0.90071329770E+03  0.80059518118E+03 0.  0.
         22    1    5    5    0    0 -0.36227874690E+03 -0.25950411635E+03 -0.20340153569E+03  0.48985759317E+03  0.00000000000E+00 0. -1.
         22    1    5    5    0    0  0.24709548619E+03  0.26561108253E+03 -0.19286519511E+03  0.41085570453E+03  0.00000000000E+00 0. -1.
          5    1    4    4  502    0  0.69742038491E+02  0.50431836880E+02 -0.17915367582E+03  0.19881008944E+03  0.47000000000E+01 0. -1.
         -5    1    4    4    0  502  0.45441222218E+02 -0.56538803058E+02 -0.57898208196E+02  0.92929185083E+02  0.47000000000E+01 0. -1.
<mgrwt>
<rscale>  0 0.10103716E+04</rscale>
<asrwt>0</asrwt>
<pdfrwt beam="1">  1        2 0.14044394E+00 0.10103716E+04</pdfrwt>
<pdfrwt beam="2">  1       -2 0.43010304E-01 0.10103716E+04</pdfrwt>
<totfact> 0.17832348E+02</totfact>
</mgrwt>
</event>
<event>
 9    1  0.4342579E-036  0.9962898E+03  0.7818608E-02  0.8684579E-01
          1   -1    0    0  501    0  0.00000000000E+00  0.00000000000E+00  0.25848281696E+04  0.25848281696E+04  0.00000000000E+00 0.  1.
         -1   -1    0    0    0  501 -0.00000000000E+00 -0.00000000000E+00 -0.96001863928E+02  0.96001863928E+02  0.00000000000E+00 0.  1.
         36    2    1    2    0    0 -0.21316282073E-13 -0.14210854715E-13  0.24888263057E+04  0.26808300336E+04  0.99628976150E+03 0.  0.
         25    2    3    3    0    0 -0.63064645769E+02  0.76189576083E+02  0.70921933919E+03  0.72675358888E+03  0.12408346710E+03 0.  0.
         35    2    3    3    0    0  0.63064645769E+02 -0.76189576083E+02  0.17796069665E+04  0.19540764447E+04  0.80101922285E+03 0.  0.
         22    1    5    5    0    0  0.32109730105E+03 -0.31352741983E+03  0.86306070313E+03  0.97276754521E+03  0.00000000000E+00 0.  1.
         22    1    5    5    0    0 -0.25803265528E+03  0.23733784375E+03  0.91654626338E+03  0.98130889947E+03  0.00000000000E+00 0.  1.
          5    1    4    4  502    0 -0.39780206334E+02  0.15967602928E+02  0.58581040700E+03  0.58739539674E+03  0.47000000000E+01 0. -1.
         -5    1    4    4    0  502 -0.23284439435E+02  0.60221973155E+02  0.12340893219E+03  0.13935819213E+03  0.47000000000E+01 0. -1.
<mgrwt>
<rscale>  0 0.99628976E+03</rscale>
<asrwt>0</asrwt>
<pdfrwt beam="1">  1        1 0.39766582E+00 0.99628976E+03</pdfrwt>
<pdfrwt beam="2">  1       -1 0.14769519E-01 0.99628976E+03</pdfrwt>
<totfact> 0.40596322E+01</totfact>
</mgrwt>
</event>
<event>
 9    1  0.4342579E-036  0.1000865E+04  0.7818608E-02  0.8680214E-01
         -1   -1    0    0    0  501 -0.00000000000E+00  0.00000000000E+00  0.96219745971E+03  0.96219745971E+03  0.00000000000E+00 0. -1.
          1   -1    0    0  501    0  0.00000000000E+00 -0.00000000000E+00 -0.26027177877E+03  0.26027177877E+03  0.00000000000E+00 0. -1.
         36    2    1    2    0    0  0.00000000000E+00 -0.71054273576E-14  0.70192568094E+03  0.12224692385E+04  0.10008653143E+04 0.  0.
         25    2    3    3    0    0 -0.11709323717E+03 -0.55753533544E+02  0.19281565182E+03  0.26368043877E+03  0.12462028531E+03 0.  0.
         35    2    3    3    0    0  0.11709323717E+03  0.55753533544E+02  0.50911002912E+03  0.95878879971E+03  0.80203719241E+03 0.  0.
         22    1    5    5    0    0  0.57863401285E+02  0.12973569576E+03 -0.19892490510E+03  0.24443944410E+03  0.00000000000E+00 0. -1.
         22    1    5    5    0    0  0.59229835880E+02 -0.73982162213E+02  0.70803493422E+03  0.71434935561E+03  0.00000000000E+00 0. -1.
          5    1    4    4  502    0 -0.11831403673E+03 -0.85360528181E+02  0.13638032939E+03  0.19976565096E+03  0.47000000000E+01 0.  1.
         -5    1    4    4    0  502  0.12207995669E+01  0.29606994637E+02  0.56435322426E+02  0.63914787806E+02  0.47000000000E+01 0.  1.
<mgrwt>
<rscale>  0 0.10008653E+04</rscale>
<asrwt>0</asrwt>
<pdfrwt beam="1">  1        1 0.40041813E-01 0.10008653E+04</pdfrwt>
<pdfrwt beam="2">  1       -1 0.14803038E+00 0.10008653E+04</pdfrwt>
<totfact> 0.44927347E+01</totfact>
</mgrwt>
</event>
<event>
 9    1  0.4342579E-036  0.1000805E+04  0.7818608E-02  0.8680272E-01
          2   -1    0    0  501    0  0.00000000000E+00  0.00000000000E+00  0.92595266740E+03  0.92595266740E+03  0.00000000000E+00 0. -1.
         -2   -1    0    0    0  501 -0.00000000000E+00 -0.00000000000E+00 -0.27042710441E+03  0.27042710441E+03  0.00000000000E+00 0. -1.
         36    2    1    2    0    0  0.14210854715E-13 -0.14210854715E-13  0.65552556298E+03  0.11963797718E+04  0.10008050733E+04 0.  0.
         25    2    3    3    0    0  0.10736033011E+03  0.57882518403E+02  0.24566665007E+02  0.17252931260E+03  0.11952496082E+03 0.  0.
         35    2    3    3    0    0 -0.10736033011E+03 -0.57882518403E+02  0.63095889798E+03  0.10238504592E+04  0.79704705350E+03 0.  0.
         22    1    5    5    0    0  0.93722511586E+02 -0.35633626116E+03  0.98871018709E+02  0.38149039115E+03  0.00000000000E+00 0.  1.
         22    1    5    5    0    0 -0.20108284169E+03  0.29845374276E+03  0.53208787927E+03  0.64236006807E+03  0.00000000000E+00 0.  1.
          5    1    4    4  502    0  0.17763034167E+02 -0.22847834067E+02 -0.28313352986E+02  0.40758862370E+02  0.47000000000E+01 0. -1.
         -5    1    4    4    0  502  0.89597295939E+02  0.80730352470E+02  0.52880017993E+02  0.13177045023E+03  0.47000000000E+01 0. -1.
<mgrwt>
<rscale>  0 0.10008051E+04</rscale>
<asrwt>0</asrwt>
<pdfrwt beam="1">  1        2 0.14245426E+00 0.10008051E+04</pdfrwt>
<pdfrwt beam="2">  1       -2 0.41604170E-01 0.10008051E+04</pdfrwt>
<totfact> 0.18649830E+02</totfact>
</mgrwt>
</event>
<event>
 9    1  0.4342579E-036  0.1000112E+04  0.7818608E-02  0.8680932E-01
          2   -1    0    0  501    0  0.00000000000E+00  0.00000000000E+00  0.17935312320E+04  0.17935312320E+04  0.00000000000E+00 0.  1.
         -2   -1    0    0    0  501 -0.00000000000E+00 -0.00000000000E+00 -0.13942092480E+03  0.13942092480E+03  0.00000000000E+00 0.  1.
         36    2    1    2    0    0  0.00000000000E+00  0.00000000000E+00  0.16541103072E+04  0.19329521568E+04  0.10001115598E+04 0.  0.
         25    2    3    3    0    0  0.34316684779E+02 -0.12191984257E+03  0.18764095655E+03  0.25829484742E+03  0.12435842055E+03 0.  0.
         35    2    3    3    0    0 -0.34316684779E+02  0.12191984257E+03  0.14664693506E+04  0.16746573094E+04  0.79868808969E+03 0.  0.
         22    1    5    5    0    0  0.37023730705E+03 -0.40815966216E+02  0.69055312190E+03  0.78460513687E+03  0.00000000000E+00 0. -1.
         22    1    5    5    0    0 -0.40455399183E+03  0.16273580879E+03  0.77591622873E+03  0.89005217250E+03  0.00000000000E+00 0. -1.
          5    1    4    4  502    0 -0.31522424431E+02 -0.44536408355E+02  0.13074616353E+03  0.14175261617E+03  0.47000000000E+01 0. -1.
         -5    1    4    4    0  502  0.65839109211E+02 -0.77383434217E+02  0.56894793014E+02  0.11654223125E+03  0.47000000000E+01 0. -1.
<mgrwt>
<rscale>  0 0.10001116E+04</rscale>
<asrwt>0</asrwt>
<pdfrwt beam="1">  1        2 0.27592787E+00 0.10001116E+04</pdfrwt>
<pdfrwt beam="2">  1       -2 0.21449374E-01 0.10001116E+04</pdfrwt>
<totfact> 0.19433409E+02</totfact>
</mgrwt>
</event>
<event>
 9    1  0.4342579E-036  0.1000049E+04  0.7818608E-02  0.8680991E-01
         -2   -1    0    0    0  501 -0.00000000000E+00  0.00000000000E+00  0.14035666056E+03  0.14035666056E+03  0.00000000000E+00 0.  1.
          2   -1    0    0  501    0  0.00000000000E+00 -0.00000000000E+00 -0.17813519173E+04  0.17813519173E+04  0.00000000000E+00 0.  1.
         36    2    1    2    0    0  0.00000000000E+00 -0.21316282073E-13 -0.16409952568E+04  0.19217085779E+04  0.10000492116E+04 0.  0.
         25    2    3    3    0    0  0.79698438260E+02  0.55802820857E+02 -0.11410802840E+03  0.19554499425E+03  0.12550460850E+03 0.  0.
         35    2    3    3    0    0 -0.79698438260E+02 -0.55802820857E+02 -0.15268872284E+04  0.17261635836E+04  0.79924358830E+03 0.  0.
         22    1    5    5    0    0  0.24497877864E+03  0.25645040174E+03 -0.66608529096E+03  0.75461978862E+03  0.00000000000E+00 0.  1.
         22    1    5    5    0    0 -0.32467721690E+03 -0.31225322260E+03 -0.86080193740E+03  0.97154379502E+03  0.00000000000E+00 0.  1.
          5    1    4    4  502    0  0.33471967502E+02  0.80427353100E+02 -0.22791363592E+02  0.90169107734E+02  0.47000000000E+01 0. -1.
         -5    1    4    4    0  502  0.46226470758E+02 -0.24624532244E+02 -0.91316664808E+02  0.10537588651E+03  0.47000000000E+01 0. -1.
<mgrwt>
<rscale>  0 0.10000492E+04</rscale>
<asrwt>0</asrwt>
<pdfrwt beam="1">  1        2 0.27405415E+00 0.10000492E+04</pdfrwt>
<pdfrwt beam="2">  1       -2 0.21593332E-01 0.10000492E+04</pdfrwt>
<totfact> 0.19514426E+02</totfact>
</mgrwt>
</event>
<event>
 9    1  0.4342579E-036  0.1000179E+04  0.7818608E-02  0.8680868E-01
         -2   -1    0    0    0  501 -0.00000000000E+00  0.00000000000E+00  0.15757444105E+03  0.15757444105E+03  0.00000000000E+00 0.  1.
          2   -1    0    0  501    0  0.00000000000E+00 -0.00000000000E+00 -0.15871194187E+04  0.15871194187E+04  0.00000000000E+00 0.  1.
         36    2    1    2    0    0  0.00000000000E+00  0.00000000000E+00 -0.14295449777E+04  0.17446938598E+04  0.10001788946E+04 0.  0.
         25    2    3    3    0    0 -0.95404115197E+02  0.67877453237E+02 -0.40627120672E+03  0.44086124012E+03  0.12487211770E+03 0.  0.
         35    2    3    3    0    0  0.95404115197E+02 -0.67877453237E+02 -0.10232737709E+04  0.13038326196E+04  0.79948795857E+03 0.  0.
         22    1    5    5    0    0  0.21134551589E+03 -0.36388001425E+03 -0.30918577232E+03  0.52217950330E+03  0.00000000000E+00 0. -1.
         22    1    5    5    0    0 -0.11594140070E+03  0.29600256101E+03 -0.71408799862E+03  0.78165311635E+03  0.00000000000E+00 0. -1.
          5    1    4    4  502    0 -0.26143848730E+02 -0.10341890609E+02 -0.25713598318E+03  0.25871115046E+03  0.47000000000E+01 0. -1.
         -5    1    4    4    0  502 -0.69260266468E+02  0.78219343845E+02 -0.14913522354E+03  0.18215008966E+03  0.47000000000E+01 0. -1.
<mgrwt>
<rscale>  0 0.10001789E+04</rscale>
<asrwt>0</asrwt>
<pdfrwt beam="1">  1        2 0.24417222E+00 0.10001789E+04</pdfrwt>
<pdfrwt beam="2">  1       -2 0.24242222E-01 0.10001789E+04</pdfrwt>
<totfact> 0.20491436E+02</totfact>
</mgrwt>
</event>
<event>
 9    1  0.4342579E-036  0.9991129E+03  0.7818608E-02  0.8681883E-01
          2   -1    0    0  501    0  0.00000000000E+00  0.00000000000E+00  0.39991291047E+03  0.39991291047E+03  0.00000000000E+00 0.  1.
         -2   -1    0    0    0  501 -0.00000000000E+00 -0.00000000000E+00 -0.62402753402E+03  0.62402753402E+03  0.00000000000E+00 0.  1.
         36    2    1    2    0    0  0.00000000000E+00  0.28421709430E-13 -0.22411462355E+03  0.10239404445E+04  0.99911294125E+03 0.  0.
         25    2    3    3    0    0  0.74164232121E+02 -0.11737140079E+03 -0.31170416703E+02  0.18940993432E+03  0.12501259653E+03 0.  0.
         35    2    3    3    0    0 -0.74164232121E+02  0.11737140079E+03 -0.19294420685E+03  0.83453051017E+03  0.79996082804E+03 0.  0.
         22    1    5    5    0    0 -0.27308048821E+02  0.31779563538E+03 -0.42044069737E+03  0.52774063270E+03  0.00000000000E+00 0. -1.
         22    1    5    5    0    0 -0.46856183300E+02 -0.20042423458E+03  0.22749649052E+03  0.30678987747E+03  0.00000000000E+00 0. -1.
          5    1    4    4  502    0  0.51231482991E+02 -0.13350279200E+03 -0.54025339788E+02  0.15293295152E+03  0.47000000000E+01 0.  1.
         -5    1    4    4    0  502  0.22932749130E+02  0.16131391207E+02  0.22854923085E+02  0.36476982799E+02  0.47000000000E+01 0.  1.
<mgrwt>
<rscale>  0 0.99911294E+03</rscale>
<asrwt>0</asrwt>
<pdfrwt beam="1">  1        2 0.61525063E-01 0.99911294E+03</pdfrwt>
<pdfrwt beam="2">  1       -2 0.96004236E-01 0.99911294E+03</pdfrwt>
<totfact> 0.86159150E+01</totfact>
</mgrwt>
</event>
<event>
 9    1  0.4342579E-036  0.1000433E+04  0.7818608E-02  0.8680626E-01
          2   -1    0    0  501    0  0.00000000000E+00  0.00000000000E+00  0.11044107693E+04  0.11044107693E+04  0.00000000000E+00 0.  1.
         -2   -1    0    0    0  501 -0.00000000000E+00 -0.00000000000E+00 -0.22656120729E+03  0.22656120729E+03  0.00000000000E+00 0.  1.
         36    2    1    2    0    0  0.00000000000E+00  0.00000000000E+00  0.87784956200E+03  0.13309719766E+04  0.10004331807E+04 0.  0.
         25    2    3    3    0    0  0.11126187520E+03  0.91419819499E+02  0.18744655935E+03  0.26461103292E+03  0.11893694910E+03 0.  0.
         35    2    3    3    0    0 -0.11126187520E+03 -0.91419819499E+02  0.69040300265E+03  0.10663609437E+04  0.79983283743E+03 0.  0.
         22    1    5    5    0    0  0.32168025808E+03 -0.12426281004E+03  0.15788804583E+03  0.37927308026E+03  0.00000000000E+00 0. -1.
         22    1    5    5    0    0 -0.43294213328E+03  0.32842990539E+02  0.53251495682E+03  0.68708786340E+03  0.00000000000E+00 0. -1.
          5    1    4    4  502    0  0.12971183711E+03  0.48330268705E+02  0.15213059356E+03  0.20573473955E+03  0.47000000000E+01 0. -1.
         -5    1    4    4    0  502 -0.18449961909E+02  0.43089550794E+02  0.35315965791E+02  0.58876293377E+02  0.47000000000E+01 0. -1.
<mgrwt>
<rscale>  0 0.10004332E+04</rscale>
<asrwt>0</asrwt>
<pdfrwt beam="1">  1        2 0.16990935E+00 0.10004332E+04</pdfrwt>
<pdfrwt beam="2">  1       -2 0.34855571E-01 0.10004332E+04</pdfrwt>
<totfact> 0.20173061E+02</totfact>
</mgrwt>
</event>
<event>
 9    1  0.4342579E-036  0.9999522E+03  0.7818608E-02  0.8681083E-01
         -2   -1    0    0    0  501 -0.00000000000E+00  0.00000000000E+00  0.67883571032E+02  0.67883571032E+02  0.00000000000E+00 0.  1.
          2   -1    0    0  501    0  0.00000000000E+00 -0.00000000000E+00 -0.36824240760E+04  0.36824240760E+04  0.00000000000E+00 0.  1.
         36    2    1    2    0    0  0.28421709430E-13  0.00000000000E+00 -0.36145405050E+04  0.37503076471E+04  0.99995219153E+03 0.  0.
         25    2    3    3    0    0  0.92662972289E+02  0.10192696887E+03 -0.59067990980E+03  0.61932408765E+03  0.12523592247E+03 0.  0.
         35    2    3    3    0    0 -0.92662972289E+02 -0.10192696887E+03 -0.30238605952E+04  0.31309835594E+04  0.80021848063E+03 0.  0.
         22    1    5    5    0    0  0.18167264350E+03 -0.27879078100E+03 -0.60739999715E+03  0.69257779744E+03  0.00000000000E+00 0.  1.
         22    1    5    5    0    0 -0.27433561579E+03  0.17686381213E+03 -0.24164605981E+04  0.24384057620E+04  0.00000000000E+00 0.  1.
          5    1    4    4  502    0  0.49738750580E+02  0.93061203327E+02 -0.54757862086E+03  0.55767263416E+03  0.47000000000E+01 0.  1.
         -5    1    4    4    0  502  0.42924221709E+02  0.88657655438E+01 -0.43101288950E+02  0.61651453487E+02  0.47000000000E+01 0.  1.
<mgrwt>
<rscale>  0 0.99995219E+03</rscale>
<asrwt>0</asrwt>
<pdfrwt beam="1">  1        2 0.56652683E+00 0.99995219E+03</pdfrwt>
<pdfrwt beam="2">  1       -2 0.10443625E-01 0.99995219E+03</pdfrwt>
<totfact> 0.38828856E+01</totfact>
</mgrwt>
</event>
<event>
 9    1  0.4342579E-036  0.1000961E+04  0.7818608E-02  0.8680124E-01
         -1   -1    0    0    0  501 -0.00000000000E+00  0.00000000000E+00  0.24281886938E+03  0.24281886938E+03  0.00000000000E+00 0.  1.
          1   -1    0    0  501    0  0.00000000000E+00 -0.00000000000E+00 -0.10315531531E+04  0.10315531531E+04  0.00000000000E+00 0.  1.
         36    2    1    2    0    0  0.00000000000E+00  0.71054273576E-14 -0.78873428368E+03  0.12743720224E+04  0.10009606792E+04 0.  0.
         25    2    3    3    0    0  0.13504109050E+03  0.38890946235E+02 -0.12737608733E+03  0.22698137951E+03  0.12468872122E+03 0.  0.
         35    2    3    3    0    0 -0.13504109050E+03 -0.38890946235E+02 -0.66135819635E+03  0.10473906429E+04  0.79992742995E+03 0.  0.
         22    1    5    5    0    0 -0.37722039188E+03 -0.17525346128E+03 -0.11047087275E+03  0.43036358288E+03  0.00000000000E+00 0.  1.
         22    1    5    5    0    0  0.24217930138E+03  0.13636251505E+03 -0.55088732360E+03  0.61702706005E+03  0.00000000000E+00 0.  1.
          5    1    4    4  502    0  0.24824489991E+02  0.49658637639E+02 -0.97315046180E+02  0.11213627338E+03  0.47000000000E+01 0.  1.
         -5    1    4    4    0  502  0.11021660051E+03 -0.10767691405E+02 -0.30061041151E+02  0.11484510613E+03  0.47000000000E+01 0.  1.
<mgrwt>
<rscale>  0 0.10009607E+04</rscale>
<asrwt>0</asrwt>
<pdfrwt beam="1">  1        1 0.15870049E+00 0.10009607E+04</pdfrwt>
<pdfrwt beam="2">  1       -1 0.37356749E-01 0.10009607E+04</pdfrwt>
<totfact> 0.11016003E+02</totfact>
</mgrwt>
</event>
<event>
 9    1  0.4342579E-036  0.1000536E+04  0.7818608E-02  0.8680527E-01
          1   -1    0    0  501    0  0.00000000000E+00  0.00000000000E+00  0.42368358924E+03  0.42368358924E+03  0.00000000000E+00 0.  1.
         -1   -1    0    0    0  501 -0.00000000000E+00 -0.00000000000E+00 -0.59069609384E+03  0.59069609384E+03  0.00000000000E+00 0.  1.
         36    2    1    2    0    0 -0.14210854715E-13 -0.21316282073E-13 -0.16701250460E+03  0.10143796831E+04  0.10005363385E+04 0.  0.
         25    2    3    3    0    0  0.11828227586E+03 -0.14803710586E+02 -0.10803463408E+03  0.20324587452E+03  0.12420771602E+03 0.  0.
         35    2    3    3    0    0 -0.11828227586E+03  0.14803710586E+02 -0.58977870520E+02  0.81113380855E+03  0.80015612197E+03 0.  0.
         22    1    5    5    0    0  0.22358245905E+03 -0.26265614163E+03  0.70786366832E+02  0.35211940370E+03  0.00000000000E+00 0.  1.
         22    1    5    5    0    0 -0.34186473491E+03  0.27745985222E+03 -0.12976423735E+03  0.45901440485E+03  0.00000000000E+00 0.  1.
          5    1    4    4  502    0  0.10458979638E+03  0.41674687205E+02 -0.59761850354E+02  0.12755145557E+03  0.47000000000E+01 0.  1.
         -5    1    4    4    0  502  0.13692479478E+02 -0.56478397791E+02 -0.48272783727E+02  0.75694418949E+02  0.47000000000E+01 0.  1.
<mgrwt>
<rscale>  0 0.10005363E+04</rscale>
<asrwt>0</asrwt>
<pdfrwt beam="1">  1        1 0.65182091E-01 0.10005363E+04</pdfrwt>
<pdfrwt beam="2">  1       -1 0.90876322E-01 0.10005363E+04</pdfrwt>
<totfact> 0.78208238E+01</totfact>
</mgrwt>
</event>
<event>
 9    1  0.4342579E-036  0.9997975E+03  0.7818608E-02  0.8681231E-01
          2   -1    0    0  501    0  0.00000000000E+00  0.00000000000E+00  0.22052939269E+04  0.22052939269E+04  0.00000000000E+00 0.  1.
         -2   -1    0    0    0  501 -0.00000000000E+00 -0.00000000000E+00 -0.11331766556E+03  0.11331766556E+03  0.00000000000E+00 0.  1.
         36    2    1    2    0    0  0.14210854715E-13  0.28421709430E-13  0.20919762613E+04  0.23186115924E+04  0.99979749885E+03 0.  0.
         25    2    3    3    0    0 -0.12443224998E+03  0.36969748292E+02  0.50700870526E+03  0.53806912870E+03  0.12494163809E+03 0.  0.
         35    2    3    3    0    0  0.12443224998E+03 -0.36969748292E+02  0.15849675561E+04  0.17805424637E+04  0.80084902717E+03 0.  0.
         22    1    5    5    0    0 -0.86923364819E+02  0.33825094698E+03  0.47196663470E+03  0.58713020597E+03  0.00000000000E+00 0. -1.
         22    1    5    5    0    0  0.21135561480E+03 -0.37522069528E+03  0.11130009214E+04  0.11934122578E+04  0.00000000000E+00 0. -1.
          5    1    4    4  502    0 -0.10032544799E+03  0.41828802631E+02  0.50051594875E+03  0.51220420654E+03  0.47000000000E+01 0. -1.
         -5    1    4    4    0  502 -0.24106801993E+02 -0.48590543395E+01  0.64927565096E+01  0.25864922163E+02  0.47000000000E+01 0. -1.
<mgrwt>
<rscale>  0 0.99979750E+03</rscale>
<asrwt>0</asrwt>
<pdfrwt beam="1">  1        2 0.33927596E+00 0.99979750E+03</pdfrwt>
<pdfrwt beam="2">  1       -2 0.17433489E-01 0.99979750E+03</pdfrwt>
<totfact> 0.16168470E+02</totfact>
</mgrwt>
</event>
<event>
 9    1  0.4342579E-036  0.9922191E+03  0.7818608E-02  0.8688483E-01
          1   -1    0    0  501    0  0.00000000000E+00  0.00000000000E+00  0.92206074431E+03  0.92206074431E+03  0.00000000000E+00 0.  1.
         -1   -1    0    0    0  501 -0.00000000000E+00 -0.00000000000E+00 -0.26692893581E+03  0.26692893581E+03  0.00000000000E+00 0.  1.
         36    2    1    2    0    0  0.00000000000E+00  0.00000000000E+00  0.65513180850E+03  0.11889896801E+04  0.99221911539E+03 0.  0.
         25    2    3    3    0    0  0.10962622950E+03 -0.56933408129E+02  0.10677214625E+03  0.20574673960E+03  0.12518828413E+03 0.  0.
         35    2    3    3    0    0 -0.10962622950E+03  0.56933408129E+02  0.54835966225E+03  0.98324294053E+03  0.80672736272E+03 0.  0.
         22    1    5    5    0    0  0.11969253294E+03  0.20097237426E+02  0.69700340910E+03  0.70749130997E+03  0.00000000000E+00 0.  1.
         22    1    5    5    0    0 -0.22931876244E+03  0.36836170702E+02 -0.14864374685E+03  0.27575163056E+03  0.00000000000E+00 0.  1.
          5    1    4    4  502    0  0.10851553267E+03 -0.15332004554E+02  0.11926744165E+03  0.16204167314E+03  0.47000000000E+01 0. -1.
         -5    1    4    4    0  502  0.11106968252E+01 -0.41601403575E+02 -0.12495295402E+02  0.43705066457E+02  0.47000000000E+01 0. -1.
<mgrwt>
<rscale>  0 0.99221912E+03</rscale>
<asrwt>0</asrwt>
<pdfrwt beam="1">  1        1 0.14185550E+00 0.99221912E+03</pdfrwt>
<pdfrwt beam="2">  1       -1 0.41065991E-01 0.99221912E+03</pdfrwt>
<totfact> 0.11410906E+02</totfact>
</mgrwt>
</event>
<event>
 9    1  0.4342579E-036  0.1000070E+04  0.7818608E-02  0.8680971E-01
          2   -1    0    0  501    0  0.00000000000E+00  0.00000000000E+00  0.91717910614E+03  0.91717910614E+03  0.00000000000E+00 0. -1.
         -2   -1    0    0    0  501 -0.00000000000E+00 -0.00000000000E+00 -0.27261296451E+03  0.27261296451E+03  0.00000000000E+00 0. -1.
         36    2    1    2    0    0  0.14210854715E-13  0.00000000000E+00  0.64456614163E+03  0.11897920706E+04  0.10000698278E+04 0.  0.
         25    2    3    3    0    0  0.43456534325E+02  0.11522626699E+03  0.17535327862E+03  0.24787125140E+03  0.12460265634E+03 0.  0.
         35    2    3    3    0    0 -0.43456534325E+02 -0.11522626699E+03  0.46921286302E+03  0.94192081925E+03  0.80739615799E+03 0.  0.
         22    1    5    5    0    0 -0.14273684670E+03 -0.18919162028E+03  0.66740681589E+03  0.70823663735E+03  0.00000000000E+00 0. -1.
         22    1    5    5    0    0  0.99280312370E+02  0.73965353288E+02 -0.19819395288E+03  0.23368418190E+03  0.00000000000E+00 0. -1.
          5    1    4    4  502    0  0.84278351071E+02  0.93009320929E+02  0.14647628360E+03  0.19295327387E+03  0.47000000000E+01 0.  1.
         -5    1    4    4    0  502 -0.40821816746E+02  0.22216946065E+02  0.28876995018E+02  0.54917977532E+02  0.47000000000E+01 0.  1.
<mgrwt>
<rscale>  0 0.10000698E+04</rscale>
<asrwt>0</asrwt>
<pdfrwt beam="1">  1        2 0.14110448E+00 0.10000698E+04</pdfrwt>
<pdfrwt beam="2">  1       -2 0.41940456E-01 0.10000698E+04</pdfrwt>
<totfact> 0.18605677E+02</totfact>
</mgrwt>
</event>
<event>
 9    1  0.4342579E-036  0.1000006E+04  0.7818608E-02  0.8681033E-01
         -2   -1    0    0    0  501 -0.00000000000E+00  0.00000000000E+00  0.18317864818E+03  0.18317864818E+03  0.00000000000E+00 0.  1.
          2   -1    0    0  501    0  0.00000000000E+00 -0.00000000000E+00 -0.13648030595E+04  0.13648030595E+04  0.00000000000E+00 0.  1.
         36    2    1    2    0    0 -0.71054273576E-14  0.00000000000E+00 -0.11816244114E+04  0.15479817077E+04  0.10000055590E+04 0.  0.
         25    2    3    3    0    0  0.21704085643E+02 -0.13427129467E+03 -0.17150843591E+03  0.25211399158E+03  0.12508586352E+03 0.  0.
         35    2    3    3    0    0 -0.21704085643E+02  0.13427129467E+03 -0.10101159754E+04  0.12958677161E+04  0.80027433171E+03 0.  0.
         22    1    5    5    0    0 -0.39384102816E+03  0.18402437197E+03 -0.58227301292E+03  0.72664818621E+03  0.00000000000E+00 0.  1.
         22    1    5    5    0    0  0.37213694251E+03 -0.49753077300E+02 -0.42784296252E+03  0.56921952994E+03  0.00000000000E+00 0.  1.
          5    1    4    4  502    0 -0.29433488231E+02 -0.50193901294E+02 -0.49329649593E+01  0.58584828239E+02  0.47000000000E+01 0. -1.
         -5    1    4    4    0  502  0.51137573874E+02 -0.84077393380E+02 -0.16657547095E+03  0.19352916334E+03  0.47000000000E+01 0. -1.
<mgrwt>
<rscale>  0 0.10000056E+04</rscale>
<asrwt>0</asrwt>
<pdfrwt beam="1">  1        2 0.20996970E+00 0.10000056E+04</pdfrwt>
<pdfrwt beam="2">  1       -2 0.28181330E-01 0.10000056E+04</pdfrwt>
<totfact> 0.20944223E+02</totfact>
</mgrwt>
</event>
<event>
 9    1  0.4342579E-036  0.9994670E+03  0.7818608E-02  0.8681546E-01
          2   -1    0    0  501    0  0.00000000000E+00  0.00000000000E+00  0.15143035607E+04  0.15143035607E+04  0.00000000000E+00 0.  1.
         -2   -1    0    0    0  501 -0.00000000000E+00 -0.00000000000E+00 -0.16491646604E+03  0.16491646604E+03  0.00000000000E+00 0.  1.
         36    2    1    2    0    0  0.00000000000E+00  0.00000000000E+00  0.13493870946E+04  0.16792200267E+04  0.99946704145E+03 0.  0.
         25    2    3    3    0    0  0.13320675133E+03  0.22662822803E+02  0.22442822548E+03  0.29189565837E+03  0.12875327122E+03 0.  0.
         35    2    3    3    0    0 -0.13320675133E+03 -0.22662822803E+02  0.11249588692E+04  0.13873243683E+04  0.80054906380E+03 0.  0.
         22    1    5    5    0    0  0.21719843857E+03 -0.29550171589E+03  0.54379808143E+03  0.65590607496E+03  0.00000000000E+00 0.  1.
         22    1    5    5    0    0 -0.35040518990E+03  0.27283889309E+03  0.58116078773E+03  0.73141829337E+03  0.00000000000E+00 0.  1.
          5    1    4    4  502    0  0.10662084207E+03 -0.17523050114E+02  0.67077582806E+02  0.12726568023E+03  0.47000000000E+01 0. -1.
         -5    1    4    4    0  502  0.26585909252E+02  0.40185872917E+02  0.15735064268E+03  0.16462997814E+03  0.47000000000E+01 0. -1.
<mgrwt>
<rscale>  0 0.99946704E+03</rscale>
<asrwt>0</asrwt>
<pdfrwt beam="1">  1        2 0.23296977E+00 0.99946704E+03</pdfrwt>
<pdfrwt beam="2">  1       -2 0.25371765E-01 0.99946704E+03</pdfrwt>
<totfact> 0.20780843E+02</totfact>
</mgrwt>
</event>
<event>
 9    1  0.4342579E-036  0.1000226E+04  0.7818608E-02  0.8680823E-01
         -2   -1    0    0    0  501 -0.00000000000E+00  0.00000000000E+00  0.21344335345E+03  0.21344335345E+03  0.00000000000E+00 0.  1.
          2   -1    0    0  501    0  0.00000000000E+00 -0.00000000000E+00 -0.11718000783E+04  0.11718000783E+04  0.00000000000E+00 0.  1.
         36    2    1    2    0    0 -0.14210854715E-13 -0.35527136788E-14 -0.95835672487E+03  0.13852434318E+04  0.10002258511E+04 0.  0.
         25    2    3    3    0    0 -0.98321866505E+02  0.19147911678E+02 -0.44994388972E+02  0.16609188693E+03  0.12461214993E+03 0.  0.
         35    2    3    3    0    0  0.98321866505E+02 -0.19147911678E+02 -0.91336233590E+03  0.12191515448E+04  0.80129014762E+03 0.  0.
         22    1    5    5    0    0  0.92520781973E+02  0.72201972959E+02 -0.10489852979E+04  0.10555299025E+04  0.00000000000E+00 0.  1.
         22    1    5    5    0    0  0.58010845315E+01 -0.91349884637E+02  0.13562296199E+03  0.16362164228E+03  0.00000000000E+00 0.  1.
          5    1    4    4  502    0 -0.62616325914E+02  0.79705368120E+01  0.38773463009E+02  0.74228061821E+02  0.47000000000E+01 0. -1.
         -5    1    4    4    0  502 -0.35705540591E+02  0.11177374866E+02 -0.83767851981E+02  0.91863825107E+02  0.47000000000E+01 0. -1.
<mgrwt>
<rscale>  0 0.10002259E+04</rscale>
<asrwt>0</asrwt>
<pdfrwt beam="1">  1        2 0.18027694E+00 0.10002259E+04</pdfrwt>
<pdfrwt beam="2">  1       -2 0.32837439E-01 0.10002259E+04</pdfrwt>
<totfact> 0.20531119E+02</totfact>
</mgrwt>
</event>
<event>
 9    1  0.4342579E-036  0.1000280E+04  0.7818608E-02  0.8680771E-01
          2   -1    0    0  501    0  0.00000000000E+00  0.00000000000E+00  0.30063592886E+04  0.30063592886E+04  0.00000000000E+00 0. -1.
         -2   -1    0    0    0  501 -0.00000000000E+00 -0.00000000000E+00 -0.83203617343E+02  0.83203617343E+02  0.00000000000E+00 0. -1.
         36    2    1    2    0    0  0.14210854715E-13  0.21316282073E-13  0.29231556713E+04  0.30895629060E+04  0.10002798965E+04 0.  0.
         25    2    3    3    0    0  0.12471421544E+03  0.51519914189E+02  0.64324396380E+03  0.66900348005E+03  0.12487963115E+03 0.  0.
         35    2    3    3    0    0 -0.12471421544E+03 -0.51519914189E+02  0.22799117075E+04  0.24205594259E+04  0.80181207484E+03 0.  0.
         22    1    5    5    0    0 -0.11841741829E+03  0.36231102709E+03  0.84181865084E+03  0.92409447905E+03  0.00000000000E+00 0. -1.
         22    1    5    5    0    0 -0.62967971513E+01 -0.41383094128E+03  0.14380930566E+04  0.14964649468E+04  0.00000000000E+00 0. -1.
          5    1    4    4  502    0  0.11445136589E+02 -0.17619910512E+01 -0.11474120923E+01  0.12549992770E+02  0.47000000000E+01 0.  1.
         -5    1    4    4    0  502  0.11326907885E+03  0.53281905241E+02  0.64439137589E+03  0.65645348728E+03  0.47000000000E+01 0.  1.
<mgrwt>
<rscale>  0 0.10002799E+04</rscale>
<asrwt>0</asrwt>
<pdfrwt beam="1">  1        2 0.46251673E+00 0.10002799E+04</pdfrwt>
<pdfrwt beam="2">  1       -2 0.12800559E-01 0.10002799E+04</pdfrwt>
<totfact> 0.86289642E+01</totfact>
</mgrwt>
</event>
<event>
 9    1  0.4342579E-036  0.9997031E+03  0.7818608E-02  0.8681321E-01
          2   -1    0    0  501    0  0.00000000000E+00  0.00000000000E+00  0.13826242477E+04  0.13826242477E+04  0.00000000000E+00 0.  1.
         -2   -1    0    0    0  501 -0.00000000000E+00 -0.00000000000E+00 -0.18070822538E+03  0.18070822538E+03  0.00000000000E+00 0.  1.
         36    2    1    2    0    0 -0.42632564146E-13  0.00000000000E+00  0.12019160223E+04  0.15633324730E+04  0.99970310426E+03 0.  0.
         25    2    3    3    0    0 -0.51757857753E+02 -0.11118294675E+03  0.12120719612E+03  0.21309539699E+03  0.12521158230E+03 0.  0.
         35    2    3    3    0    0  0.51757857753E+02  0.11118294675E+03  0.10807088262E+04  0.13502370761E+04  0.80010503755E+03 0.  0.
         22    1    5    5    0    0 -0.32873924896E+03 -0.59896707017E+01  0.20289477349E+03  0.38635690634E+03  0.00000000000E+00 0.  1.
         22    1    5    5    0    0  0.38049710672E+03  0.11717261746E+03  0.87781405267E+03  0.96388016972E+03  0.00000000000E+00 0.  1.
          5    1    4    4  502    0 -0.92753101985E+02 -0.65410656775E+02  0.80892284897E+02  0.13945373320E+03  0.47000000000E+01 0.  1.
         -5    1    4    4    0  502  0.40995244232E+02 -0.45772289979E+02  0.40314911218E+02  0.73641663792E+02  0.47000000000E+01 0.  1.
<mgrwt>
<rscale>  0 0.99970310E+03</rscale>
<asrwt>0</asrwt>
<pdfrwt beam="1">  1        2 0.21271142E+00 0.99970310E+03</pdfrwt>
<pdfrwt beam="2">  1       -2 0.27801266E-01 0.99970310E+03</pdfrwt>
<totfact> 0.20964831E+02</totfact>
</mgrwt>
</event>
<event>
 9    1  0.4342579E-036  0.9986581E+03  0.7818608E-02  0.8682317E-01
         -1   -1    0    0    0  501 -0.00000000000E+00  0.00000000000E+00  0.24426531595E+03  0.24426531595E+03  0.00000000000E+00 0. -1.
          1   -1    0    0  501    0  0.00000000000E+00 -0.00000000000E+00 -0.10207323919E+04  0.10207323919E+04  0.00000000000E+00 0. -1.
         36    2    1    2    0    0  0.35527136788E-14  0.28421709430E-13 -0.77646707592E+03  0.12649977078E+04  0.99865814011E+03 0.  0.
         25    2    3    3    0    0  0.17514866808E+02  0.71160985418E+02 -0.29230350594E+03  0.32697410090E+03  0.12688603814E+03 0.  0.
         35    2    3    3    0    0 -0.17514866808E+02 -0.71160985418E+02 -0.48416356998E+03  0.93802360691E+03  0.80006454004E+03 0.  0.
         22    1    5    5    0    0  0.73706637737E+02  0.22200752020E+03 -0.57257414732E+03  0.61851528814E+03  0.00000000000E+00 0.  1.
         22    1    5    5    0    0 -0.91221504545E+02 -0.29316850562E+03  0.88410577345E+02  0.31950831878E+03  0.00000000000E+00 0.  1.
          5    1    4    4  502    0  0.10282616345E+02 -0.31310403029E+02 -0.13497305396E+03  0.13901758461E+03  0.47000000000E+01 0.  1.
         -5    1    4    4    0  502  0.72322504628E+01  0.10247138845E+03 -0.15733045198E+03  0.18795651629E+03  0.47000000000E+01 0.  1.
<mgrwt>
<rscale>  0 0.99865814E+03</rscale>
<asrwt>0</asrwt>
<pdfrwt beam="1">  1        1 0.15703575E+00 0.99865814E+03</pdfrwt>
<pdfrwt beam="2">  1       -1 0.37579280E-01 0.99865814E+03</pdfrwt>
<totfact> 0.11119376E+02</totfact>
</mgrwt>
</event>
<event>
 9    1  0.4342579E-036  0.1000833E+04  0.7818608E-02  0.8680245E-01
          2   -1    0    0  501    0  0.00000000000E+00  0.00000000000E+00  0.10068960881E+04  0.10068960881E+04  0.00000000000E+00 0. -1.
         -2   -1    0    0    0  501 -0.00000000000E+00 -0.00000000000E+00 -0.24870178383E+03  0.24870178383E+03  0.00000000000E+00 0. -1.
         36    2    1    2    0    0  0.00000000000E+00 -0.14210854715E-13  0.75819430430E+03  0.12555978720E+04  0.10008333592E+04 0.  0.
         25    2    3    3    0    0  0.39990658890E+02 -0.11459456495E+03  0.54963128511E+02  0.18368939128E+03  0.12645030588E+03 0.  0.
         35    2    3    3    0    0 -0.39990658890E+02  0.11459456495E+03  0.70323117579E+03  0.10719084807E+04  0.79982656697E+03 0.  0.
         22    1    5    5    0    0  0.78938737681E+02 -0.27729710310E+02  0.83830049112E+03  0.84246541446E+03  0.00000000000E+00 0. -1.
         22    1    5    5    0    0 -0.11892939657E+03  0.14232427526E+03 -0.13506931533E+03  0.22944306623E+03  0.00000000000E+00 0. -1.
          5    1    4    4  502    0  0.10028771387E+02 -0.47083665293E+02 -0.40368468950E+02  0.63001199023E+02  0.47000000000E+01 0.  1.
         -5    1    4    4    0  502  0.29961887504E+02 -0.67510899653E+02  0.95331597461E+02  0.12068819225E+03  0.47000000000E+01 0.  1.
<mgrwt>
<rscale>  0 0.10008334E+04</rscale>
<asrwt>0</asrwt>
<pdfrwt beam="1">  1        2 0.15490709E+00 0.10008334E+04</pdfrwt>
<pdfrwt beam="2">  1       -2 0.38261813E-01 0.10008334E+04</pdfrwt>
<totfact> 0.19437919E+02</totfact>
</mgrwt>
</event>
<event>
 9    1  0.4342579E-036  0.1000604E+04  0.7818608E-02  0.8680463E-01
          1   -1    0    0  501    0  0.00000000000E+00  0.00000000000E+00  0.41971107678E+04  0.41971107678E+04  0.00000000000E+00 0.  1.
         -1   -1    0    0    0  501 -0.00000000000E+00 -0.00000000000E+00 -0.59636749493E+02  0.59636749493E+02  0.00000000000E+00 0.  1.
         36    2    1    2    0    0 -0.28421709430E-13  0.00000000000E+00  0.41374740183E+04  0.42567475173E+04  0.10006039046E+04 0.  0.
         25    2    3    3    0    0 -0.38292901490E+02 -0.11751577811E+03  0.10864515621E+04  0.11001452806E+04  0.12110465480E+03 0.  0.
         35    2    3    3    0    0  0.38292901490E+02  0.11751577811E+03  0.30510224563E+04  0.31566022367E+04  0.80007708846E+03 0.  0.
         22    1    5    5    0    0  0.40346561289E+03  0.16222619659E+03  0.18542021955E+04  0.19045124367E+04  0.00000000000E+00 0.  1.
         22    1    5    5    0    0 -0.36517271139E+03 -0.44710418476E+02  0.11968202607E+04  0.12520897999E+04  0.00000000000E+00 0.  1.
          5    1    4    4  502    0 -0.44300901839E+02 -0.44583091406E+02  0.17967691610E+03  0.19041036244E+03  0.47000000000E+01 0. -1.
         -5    1    4    4    0  502  0.60080003487E+01 -0.72932686706E+02  0.90677464595E+03  0.90973491821E+03  0.47000000000E+01 0. -1.
<mgrwt>
<rscale>  0 0.10006039E+04</rscale>
<asrwt>0</asrwt>
<pdfrwt beam="1">  1        1 0.64570912E+00 0.10006039E+04</pdfrwt>
<pdfrwt beam="2">  1       -1 0.91748878E-02 0.10006039E+04</pdfrwt>
<totfact> 0.56102514E+00</totfact>
</mgrwt>
</event>
<event>
 9    1  0.4342579E-036  0.9976647E+03  0.7818608E-02  0.8683265E-01
          2   -1    0    0  501    0  0.00000000000E+00  0.00000000000E+00  0.16374839419E+04  0.16374839419E+04  0.00000000000E+00 0.  1.
         -2   -1    0    0    0  501 -0.00000000000E+00 -0.00000000000E+00 -0.15196099973E+03  0.15196099973E+03  0.00000000000E+00 0.  1.
         36    2    1    2    0    0 -0.71054273576E-14 -0.24868995752E-13  0.14855229422E+04  0.17894449416E+04  0.99766466682E+03 0.  0.
         25    2    3    3    0    0  0.62819435005E+01 -0.78536028663E+01  0.52779250309E+03  0.54209530553E+03  0.12329335778E+03 0.  0.
         35    2    3    3    0    0 -0.62819435005E+01  0.78536028663E+01  0.95773043910E+03  0.12473496361E+04  0.79908221031E+03 0.  0.
         22    1    5    5    0    0 -0.70127225636E+02  0.39571208796E+03  0.42033710724E+03  0.58154034087E+03  0.00000000000E+00 0. -1.
         22    1    5    5    0    0  0.63845282136E+02 -0.38785848509E+03  0.53739333186E+03  0.66580929524E+03  0.00000000000E+00 0. -1.
          5    1    4    4  502    0  0.44396421306E+02  0.22896195553E+02  0.10414515378E+03  0.11560095610E+03  0.47000000000E+01 0.  1.
         -5    1    4    4    0  502 -0.38114477806E+02 -0.30749798419E+02  0.42364734931E+03  0.42649434943E+03  0.47000000000E+01 0.  1.
<mgrwt>
<rscale>  0 0.99766467E+03</rscale>
<asrwt>0</asrwt>
<pdfrwt beam="1">  1        2 0.25192059E+00 0.99766467E+03</pdfrwt>
<pdfrwt beam="2">  1       -2 0.23378617E-01 0.99766467E+03</pdfrwt>
<totfact> 0.20463390E+02</totfact>
</mgrwt>
</event>
<event>
 9    1  0.4342579E-036  0.1000469E+04  0.7818608E-02  0.8680592E-01
         -1   -1    0    0    0  501 -0.00000000000E+00  0.00000000000E+00  0.78037190071E+03  0.78037190071E+03  0.00000000000E+00 0. -1.
          1   -1    0    0  501    0  0.00000000000E+00 -0.00000000000E+00 -0.32066040634E+03  0.32066040634E+03  0.00000000000E+00 0. -1.
         36    2    1    2    0    0  0.14210854715E-13  0.14210854715E-13  0.45971149437E+03  0.11010323070E+04  0.10004686317E+04 0.  0.
         25    2    3    3    0    0  0.11160216623E+03 -0.83679142013E+02  0.62781006222E+02  0.19740924699E+03  0.12478667293E+03 0.  0.
         35    2    3    3    0    0 -0.11160216623E+03  0.83679142013E+02  0.39693048815E+03  0.90362306005E+03  0.79970218202E+03 0.  0.
         22    1    5    5    0    0 -0.45508680524E+02  0.37046715140E+03  0.47019688049E+03  0.60033495375E+03  0.00000000000E+00 0.  1.
         22    1    5    5    0    0 -0.66093485709E+02 -0.28678800939E+03 -0.73266392337E+02  0.30328810631E+03  0.00000000000E+00 0.  1.
          5    1    4    4  502    0  0.11546130596E+03 -0.10665335809E+03  0.70623307982E+02  0.17238327528E+03  0.47000000000E+01 0.  1.
         -5    1    4    4    0  502 -0.38591397236E+01  0.22974216073E+02 -0.78423017596E+01  0.25025971719E+02  0.47000000000E+01 0.  1.
<mgrwt>
<rscale>  0 0.10004686E+04</rscale>
<asrwt>0</asrwt>
<pdfrwt beam="1">  1        1 0.49332370E-01 0.10004686E+04</pdfrwt>
<pdfrwt beam="2">  1       -1 0.12005721E+00 0.10004686E+04</pdfrwt>
<totfact> 0.59720896E+01</totfact>
</mgrwt>
</event>
<event>
 9    1  0.4342579E-036  0.9993218E+03  0.7818608E-02  0.8681684E-01
         -2   -1    0    0    0  501 -0.00000000000E+00  0.00000000000E+00  0.11467923226E+03  0.11467923226E+03  0.00000000000E+00 0.  1.
          2   -1    0    0  501    0  0.00000000000E+00 -0.00000000000E+00 -0.21770376757E+04  0.21770376757E+04  0.00000000000E+00 0.  1.
         36    2    1    2    0    0  0.35527136788E-14  0.00000000000E+00 -0.20623584434E+04  0.22917169080E+04  0.99932178852E+03 0.  0.
         25    2    3    3    0    0 -0.56493327083E+01  0.10790272888E+03 -0.58698202966E+03  0.60995361401E+03  0.12577994372E+03 0.  0.
         35    2    3    3    0    0  0.56493327083E+01 -0.10790272888E+03 -0.14753764138E+04  0.16817632939E+04  0.79994831126E+03 0.  0.
         22    1    5    5    0    0  0.17879481109E+03  0.71061854827E+00 -0.14663093234E+04  0.14771699704E+04  0.00000000000E+00 0.  1.
         22    1    5    5    0    0 -0.17314547839E+03 -0.10861334743E+03 -0.90670903682E+01  0.20459332358E+03  0.00000000000E+00 0.  1.
          5    1    4    4  502    0 -0.76410081334E+01 -0.11209911258E+02 -0.39978703978E+01  0.14903693617E+02  0.47000000000E+01 0. -1.
         -5    1    4    4    0  502  0.19916754251E+01  0.11911264014E+03 -0.58298415926E+03  0.59504992039E+03  0.47000000000E+01 0. -1.
<mgrwt>
<rscale>  0 0.99932179E+03</rscale>
<asrwt>0</asrwt>
<pdfrwt beam="1">  1        2 0.33492883E+00 0.99932179E+03</pdfrwt>
<pdfrwt beam="2">  1       -2 0.17642961E-01 0.99932179E+03</pdfrwt>
<totfact> 0.16452581E+02</totfact>
</mgrwt>
</event>
<event>
 9    1  0.4342579E-036  0.9990878E+03  0.7818608E-02  0.8681907E-01
          1   -1    0    0  501    0  0.00000000000E+00  0.00000000000E+00  0.73401714914E+03  0.73401714914E+03  0.00000000000E+00 0. -1.
         -1   -1    0    0    0  501 -0.00000000000E+00 -0.00000000000E+00 -0.33997038569E+03  0.33997038569E+03  0.00000000000E+00 0. -1.
         36    2    1    2    0    0 -0.14210854715E-13 -0.21316282073E-13  0.39404676345E+03  0.10739875348E+04  0.99908777051E+03 0.  0.
         25    2    3    3    0    0 -0.12088028015E+02 -0.55182545128E+02 -0.64349174238E+02  0.15169782749E+03  0.12522052919E+03 0.  0.
         35    2    3    3    0    0  0.12088028015E+02  0.55182545128E+02  0.45839593769E+03  0.92228970734E+03  0.79831086356E+03 0.  0.
         22    1    5    5    0    0 -0.17713591911E+03  0.29505656954E+03  0.50715773831E+03  0.61289842926E+03  0.00000000000E+00 0.  1.
         22    1    5    5    0    0  0.18922394712E+03 -0.23987402441E+03 -0.48761800618E+02  0.30939127808E+03  0.00000000000E+00 0.  1.
          5    1    4    4  502    0  0.51042497210E+02 -0.38792766319E+01 -0.44115569053E+02  0.67739639367E+02  0.47000000000E+01 0.  1.
         -5    1    4    4    0  502 -0.63130525225E+02 -0.51303268496E+02 -0.20233605185E+02  0.83958188120E+02  0.47000000000E+01 0.  1.
<mgrwt>
<rscale>  0 0.99908777E+03</rscale>
<asrwt>0</asrwt>
<pdfrwt beam="1">  1        1 0.11292571E+00 0.99908777E+03</pdfrwt>
<pdfrwt beam="2">  1       -1 0.52303137E-01 0.99908777E+03</pdfrwt>
<totfact> 0.10689661E+02</totfact>
</mgrwt>
</event>
<event>
 9    1  0.4342579E-036  0.9984743E+03  0.7818608E-02  0.8682492E-01
         -1   -1    0    0    0  501 -0.00000000000E+00  0.00000000000E+00  0.18369870803E+03  0.18369870803E+03  0.00000000000E+00 0.  1.
          1   -1    0    0  501    0  0.00000000000E+00 -0.00000000000E+00 -0.13567746407E+04  0.13567746407E+04  0.00000000000E+00 0.  1.
         36    2    1    2    0    0  0.00000000000E+00  0.14210854715E-13 -0.11730759326E+04  0.15404733487E+04  0.99847433334E+03 0.  0.
         25    2    3    3    0    0 -0.25936445167E+02 -0.11117703359E+03 -0.10160320578E+03  0.19776682988E+03  0.12552081736E+03 0.  0.
         35    2    3    3    0    0  0.25936445167E+02  0.11117703359E+03 -0.10714727269E+04  0.13427065188E+04  0.80110795734E+03 0.  0.
         22    1    5    5    0    0  0.75010929014E+02 -0.27747510831E+03 -0.83971349888E+03  0.88754596242E+03  0.00000000000E+00 0. -1.
         22    1    5    5    0    0 -0.49074483847E+02  0.38865214189E+03 -0.23175922799E+03  0.45516055642E+03  0.00000000000E+00 0. -1.
          5    1    4    4  502    0  0.75638361440E+01 -0.11402786723E+03 -0.11413335300E+03  0.16157994427E+03  0.47000000000E+01 0. -1.
         -5    1    4    4    0  502 -0.33500281311E+02  0.28508336478E+01  0.12530147224E+02  0.36186885606E+02  0.47000000000E+01 0. -1.
<mgrwt>
<rscale>  0 0.99847433E+03</rscale>
<asrwt>0</asrwt>
<pdfrwt beam="1">  1        1 0.20873457E+00 0.99847433E+03</pdfrwt>
<pdfrwt beam="2">  1       -1 0.28261339E-01 0.99847433E+03</pdfrwt>
<totfact> 0.10178778E+02</totfact>
</mgrwt>
</event>
<event>
 9    1  0.4342579E-036  0.1000162E+04  0.7818608E-02  0.8680884E-01
          2   -1    0    0  501    0  0.00000000000E+00  0.00000000000E+00  0.19403218512E+04  0.19403218512E+04  0.00000000000E+00 0.  1.
         -2   -1    0    0    0  501 -0.00000000000E+00 -0.00000000000E+00 -0.12888624128E+03  0.12888624128E+03  0.00000000000E+00 0.  1.
         36    2    1    2    0    0  0.00000000000E+00  0.00000000000E+00  0.18114356099E+04  0.20692080925E+04  0.10001615675E+04 0.  0.
         25    2    3    3    0    0  0.60197984895E+02 -0.12722673368E+03  0.36795602371E+03  0.41329808854E+03  0.12495293296E+03 0.  0.
         35    2    3    3    0    0 -0.60197984895E+02  0.12722673368E+03  0.14434795862E+04  0.16559100039E+04  0.79912088336E+03 0.  0.
         22    1    5    5    0    0 -0.17882379903E+02  0.32189776044E+02  0.15239455712E+04  0.15243903914E+04  0.00000000000E+00 0.  1.
         22    1    5    5    0    0 -0.42315604992E+02  0.95036957640E+02 -0.80465985036E+02  0.13151961257E+03  0.00000000000E+00 0.  1.
          5    1    4    4  502    0 -0.12103692761E+02 -0.56828668880E+01  0.16656120345E+03  0.16716315040E+03  0.47000000000E+01 0. -1.
         -5    1    4    4    0  502  0.72301677657E+02 -0.12154386680E+03  0.20139482026E+03  0.24613493814E+03  0.47000000000E+01 0. -1.
<mgrwt>
<rscale>  0 0.10001616E+04</rscale>
<asrwt>0</asrwt>
<pdfrwt beam="1">  1        2 0.29851103E+00 0.10001616E+04</pdfrwt>
<pdfrwt beam="2">  1       -2 0.19828654E-01 0.10001616E+04</pdfrwt>
<totfact> 0.18396819E+02</totfact>
</mgrwt>
</event>
<event>
 9    1  0.4342579E-036  0.1000540E+04  0.7818608E-02  0.8680523E-01
         -1   -1    0    0    0  501 -0.00000000000E+00  0.00000000000E+00  0.12253161810E+03  0.12253161810E+03  0.00000000000E+00 0.  1.
          1   -1    0    0  501    0  0.00000000000E+00 -0.00000000000E+00 -0.20424957921E+04  0.20424957921E+04  0.00000000000E+00 0.  1.
         36    2    1    2    0    0  0.14210854715E-13  0.00000000000E+00 -0.19199641740E+04  0.21650274102E+04  0.10005404827E+04 0.  0.
         25    2    3    3    0    0  0.10060693431E+02 -0.17390918795E+02 -0.65180620820E+03  0.66407796501E+03  0.12547728463E+03 0.  0.
         35    2    3    3    0    0 -0.10060693431E+02  0.17390918795E+02 -0.12681579658E+04  0.15009494452E+04  0.80263375779E+03 0.  0.
         22    1    5    5    0    0  0.13043130000E+03  0.33662065430E+03 -0.29187989053E+03  0.46424094974E+03  0.00000000000E+00 0. -1.
         22    1    5    5    0    0 -0.14049199343E+03 -0.31922973551E+03 -0.97627807528E+03  0.10367084954E+04  0.00000000000E+00 0. -1.
          5    1    4    4  502    0  0.24887566413E+01  0.37697921886E+02 -0.70704385380E+02  0.80302723093E+02  0.47000000000E+01 0.  1.
         -5    1    4    4    0  502  0.75719367900E+01 -0.55088840682E+02 -0.58110182282E+03  0.58377524192E+03  0.47000000000E+01 0.  1.
<mgrwt>
<rscale>  0 0.10005405E+04</rscale>
<asrwt>0</asrwt>
<pdfrwt beam="1">  1        1 0.31423013E+00 0.10005405E+04</pdfrwt>
<pdfrwt beam="2">  1       -1 0.18851018E-01 0.10005405E+04</pdfrwt>
<totfact> 0.65563472E+01</totfact>
</mgrwt>
</event>
<event>
 9    1  0.4342579E-036  0.1005058E+04  0.7818608E-02  0.8676236E-01
          4   -1    0    0  501    0  0.00000000000E+00  0.00000000000E+00  0.13930681271E+03  0.13930681271E+03  0.00000000000E+00 0.  1.
         -4   -1    0    0    0  501 -0.00000000000E+00 -0.00000000000E+00 -0.18127985611E+04  0.18127985611E+04  0.00000000000E+00 0.  1.
         36    2    1    2    0    0  0.14210854715E-13 -0.14210854715E-13 -0.16734917483E+04  0.19521053738E+04  0.10050575897E+04 0.  0.
         25    2    3    3    0    0 -0.80076198935E+02  0.16124913980E+02 -0.87407805187E+02  0.17299340524E+03  0.12495752623E+03 0.  0.
         35    2    3    3    0    0  0.80076198935E+02 -0.16124913980E+02 -0.15860839431E+04  0.17791119685E+04  0.80181351406E+03 0.  0.
         22    1    5    5    0    0 -0.66658679980E+02  0.37815076162E+03 -0.80717963938E+03  0.89385700667E+03  0.00000000000E+00 0. -1.
         22    1    5    5    0    0  0.14673487892E+03 -0.39427567560E+03 -0.77890430377E+03  0.88525496186E+03  0.00000000000E+00 0. -1.
          5    1    4    4  502    0  0.92351828412E+01 -0.38519709920E+02 -0.44449402783E+02  0.59723496735E+02  0.47000000000E+01 0. -1.
         -5    1    4    4    0  502 -0.89311381777E+02  0.54644623900E+02 -0.42958402404E+02  0.11326990851E+03  0.47000000000E+01 0. -1.
<mgrwt>
<rscale>  0 0.10050576E+04</rscale>
<asrwt>0</asrwt>
<pdfrwt beam="1">  1        4 0.21431819E-01 0.10050576E+04</pdfrwt>
<pdfrwt beam="2">  1       -4 0.27889207E+00 0.10050576E+04</pdfrwt>
<totfact> 0.13374489E+00</totfact>
</mgrwt>
</event>
<event>
 9    1  0.4342579E-036  0.1000103E+04  0.7818608E-02  0.8680940E-01
         -1   -1    0    0    0  501 -0.00000000000E+00  0.00000000000E+00  0.15666422045E+03  0.15666422045E+03  0.00000000000E+00 0.  1.
          1   -1    0    0  501    0  0.00000000000E+00 -0.00000000000E+00 -0.15960990555E+04  0.15960990555E+04  0.00000000000E+00 0.  1.
         36    2    1    2    0    0  0.00000000000E+00  0.28421709430E-13 -0.14394348351E+04  0.17527632760E+04  0.10001032233E+04 0.  0.
         25    2    3    3    0    0  0.83485878219E+02  0.11192555369E+03 -0.26666944630E+03  0.32568345696E+03  0.12433784265E+03 0.  0.
         35    2    3    3    0    0 -0.83485878219E+02 -0.11192555369E+03 -0.11727653888E+04  0.14270798190E+04  0.80104989314E+03 0.  0.
         22    1    5    5    0    0 -0.53887067009E+01 -0.42955126741E+03 -0.91432464356E+03  0.10102142759E+04  0.00000000000E+00 0. -1.
         22    1    5    5    0    0 -0.78097171518E+02  0.31762571372E+03 -0.25844074521E+03  0.41686554307E+03  0.00000000000E+00 0. -1.
          5    1    4    4  502    0  0.10632726961E+03  0.11324002879E+03 -0.18959254959E+03  0.24514529822E+03  0.47000000000E+01 0.  1.
         -5    1    4    4    0  502 -0.22841391392E+02 -0.13144750958E+01 -0.77076896710E+02  0.80538158732E+02  0.47000000000E+01 0.  1.
<mgrwt>
<rscale>  0 0.10001032E+04</rscale>
<asrwt>0</asrwt>
<pdfrwt beam="1">  1        1 0.24555370E+00 0.10001032E+04</pdfrwt>
<pdfrwt beam="2">  1       -1 0.24102188E-01 0.10001032E+04</pdfrwt>
<totfact> 0.89803244E+01</totfact>
</mgrwt>
</event>
<event>
 9    1  0.4342579E-036  0.9914611E+03  0.7818608E-02  0.8689212E-01
         -1   -1    0    0    0  501 -0.00000000000E+00  0.00000000000E+00  0.24023090960E+03  0.24023090960E+03  0.00000000000E+00 0.  1.
          1   -1    0    0  501    0  0.00000000000E+00 -0.00000000000E+00 -0.10229689301E+04  0.10229689301E+04  0.00000000000E+00 0.  1.
         36    2    1    2    0    0  0.00000000000E+00  0.00000000000E+00 -0.78273802053E+03  0.12631998397E+04  0.99146105637E+03 0.  0.
         25    2    3    3    0    0  0.12915802797E+03 -0.17304222607E+02 -0.12928250366E+03  0.22219630061E+03  0.12520382559E+03 0.  0.
         35    2    3    3    0    0 -0.12915802797E+03  0.17304222607E+02 -0.65345551687E+03  0.10410035391E+04  0.79981436822E+03 0.  0.
         22    1    5    5    0    0 -0.16096941595E+03 -0.34657373340E+03 -0.53411388618E+03  0.65673598117E+03  0.00000000000E+00 0.  1.
         22    1    5    5    0    0  0.31811387985E+02  0.36387795600E+03 -0.11934163069E+03  0.38426755794E+03  0.00000000000E+00 0.  1.
          5    1    4    4  502    0  0.81001549145E+02  0.45690089514E+02 -0.10223514775E+03  0.13828575732E+03  0.47000000000E+01 0. -1.
         -5    1    4    4    0  502  0.48156478824E+02 -0.62994312121E+02 -0.27047355913E+02  0.83910543284E+02  0.47000000000E+01 0. -1.
<mgrwt>
<rscale>  0 0.99146106E+03</rscale>
<asrwt>0</asrwt>
<pdfrwt beam="1">  1        1 0.15737983E+00 0.99146106E+03</pdfrwt>
<pdfrwt beam="2">  1       -1 0.36958602E-01 0.99146106E+03</pdfrwt>
<totfact> 0.11411310E+02</totfact>
</mgrwt>
</event>
<event>
 9    1  0.4342579E-036  0.9996211E+03  0.7818608E-02  0.8681399E-01
          2   -1    0    0  501    0  0.00000000000E+00  0.00000000000E+00  0.31452522329E+03  0.31452522329E+03  0.00000000000E+00 0.  1.
         -2   -1    0    0    0  501 -0.00000000000E+00 -0.00000000000E+00 -0.79424665263E+03  0.79424665263E+03  0.00000000000E+00 0.  1.
         36    2    1    2    0    0  0.00000000000E+00 -0.14210854715E-13 -0.47972142935E+03  0.11087718759E+04  0.99962113976E+03 0.  0.
         25    2    3    3    0    0  0.11641199383E+03 -0.66321509841E+02 -0.46093430851E+02  0.18927264214E+03  0.12549595101E+03 0.  0.
         35    2    3    3    0    0 -0.11641199383E+03  0.66321509841E+02 -0.43362799850E+03  0.91949923378E+03  0.79968450334E+03 0.  0.
         22    1    5    5    0    0 -0.28991157044E+03 -0.23029212716E+03 -0.44096673118E+03  0.57579062211E+03  0.00000000000E+00 0.  1.
         22    1    5    5    0    0  0.17349957662E+03  0.29661363700E+03  0.73387326805E+01  0.34370861167E+03  0.00000000000E+00 0.  1.
          5    1    4    4  502    0 -0.59399830909E+01  0.27911078922E+02 -0.10068293129E+02  0.30623067323E+02  0.47000000000E+01 0.  1.
         -5    1    4    4    0  502  0.12235197692E+03 -0.94232588763E+02 -0.36025137721E+02  0.15864957481E+03  0.47000000000E+01 0.  1.
<mgrwt>
<rscale>  0 0.99962114E+03</rscale>
<asrwt>0</asrwt>
<pdfrwt beam="1">  1        2 0.48388496E-01 0.99962114E+03</pdfrwt>
<pdfrwt beam="2">  1       -2 0.12219179E+00 0.99962114E+03</pdfrwt>
<totfact> 0.61505927E+01</totfact>
</mgrwt>
</event>
<event>
 9    1  0.4342579E-036  0.1000420E+04  0.7818608E-02  0.8680638E-01
         -2   -1    0    0    0  501 -0.00000000000E+00  0.00000000000E+00  0.13238213703E+03  0.13238213703E+03  0.00000000000E+00 0. -1.
          2   -1    0    0  501    0  0.00000000000E+00 -0.00000000000E+00 -0.18900576685E+04  0.18900576685E+04  0.00000000000E+00 0. -1.
         36    2    1    2    0    0  0.00000000000E+00  0.00000000000E+00 -0.17576755314E+04  0.20224398055E+04  0.10004196585E+04 0.  0.
         25    2    3    3    0    0 -0.10056416426E+03 -0.33084088160E+02 -0.52145756996E+03  0.54650706399E+03  0.12467664453E+03 0.  0.
         35    2    3    3    0    0  0.10056416426E+03  0.33084088160E+02 -0.12362179615E+04  0.14759327415E+04  0.79933403605E+03 0.  0.
         22    1    5    5    0    0  0.38559906615E+03  0.89181333809E+02 -0.30271745909E+03  0.49827483395E+03  0.00000000000E+00 0.  1.
         22    1    5    5    0    0 -0.28503490189E+03 -0.56097245650E+02 -0.93350050239E+03  0.97765790757E+03  0.00000000000E+00 0.  1.
          5    1    4    4  502    0  0.28540719504E+02  0.56990717818E+00 -0.70552708555E+02  0.76253997590E+02  0.47000000000E+01 0. -1.
         -5    1    4    4    0  502 -0.12910488376E+03 -0.33653995338E+02 -0.45090486141E+03  0.47025306640E+03  0.47000000000E+01 0. -1.
<mgrwt>
<rscale>  0 0.10004197E+04</rscale>
<asrwt>0</asrwt>
<pdfrwt beam="1">  1        2 0.29077809E+00 0.10004197E+04</pdfrwt>
<pdfrwt beam="2">  1       -2 0.20366483E-01 0.10004197E+04</pdfrwt>
<totfact> 0.18755484E+02</totfact>
</mgrwt>
</event>
<event>
 9    1  0.4342579E-036  0.9994908E+03  0.7818608E-02  0.8681523E-01
          1   -1    0    0  501    0  0.00000000000E+00  0.00000000000E+00  0.69830903336E+03  0.69830903336E+03  0.00000000000E+00 0.  1.
         -1   -1    0    0    0  501 -0.00000000000E+00 -0.00000000000E+00 -0.35764320934E+03  0.35764320934E+03  0.00000000000E+00 0.  1.
         36    2    1    2    0    0 -0.10658141036E-13  0.00000000000E+00  0.34066582401E+03  0.10559522427E+04  0.99949083798E+03 0.  0.
         25    2    3    3    0    0 -0.75442916020E+00  0.12212531370E+03 -0.96348434153E+01  0.17438253642E+03  0.12410188311E+03 0.  0.
         35    2    3    3    0    0  0.75442916020E+00 -0.12212531370E+03  0.35030066743E+03  0.88156970628E+03  0.79971209070E+03 0.  0.
         22    1    5    5    0    0 -0.16126040884E+03  0.19511792812E+03 -0.12922652928E+03  0.28421017083E+03  0.00000000000E+00 0. -1.
         22    1    5    5    0    0  0.16201483800E+03 -0.31724324182E+03  0.47952719671E+03  0.59735953545E+03  0.00000000000E+00 0. -1.
          5    1    4    4  502    0  0.22758101841E+02  0.12971262034E+03 -0.37339101022E+02  0.13696566555E+03  0.47000000000E+01 0. -1.
         -5    1    4    4    0  502 -0.23512531002E+02 -0.75873066366E+01  0.27704257607E+02  0.37416870869E+02  0.47000000000E+01 0. -1.
<mgrwt>
<rscale>  0 0.99949084E+03</rscale>
<asrwt>0</asrwt>
<pdfrwt beam="1">  1        1 0.10743216E+00 0.99949084E+03</pdfrwt>
<pdfrwt beam="2">  1       -1 0.55022033E-01 0.99949084E+03</pdfrwt>
<totfact> 0.10502009E+02</totfact>
</mgrwt>
</event>
<event>
 9    1  0.4342579E-036  0.9997497E+03  0.7818608E-02  0.8681276E-01
         -1   -1    0    0    0  501 -0.00000000000E+00  0.00000000000E+00  0.14642338979E+03  0.14642338979E+03  0.00000000000E+00 0.  1.
          1   -1    0    0  501    0  0.00000000000E+00 -0.00000000000E+00 -0.17065228673E+04  0.17065228673E+04  0.00000000000E+00 0.  1.
         36    2    1    2    0    0  0.14210854715E-13  0.14210854715E-13 -0.15600994775E+04  0.18529462571E+04  0.99974969464E+03 0.  0.
         25    2    3    3    0    0  0.91546010787E+02  0.98428190107E+02 -0.37230925705E+03  0.41509561808E+03  0.12498563345E+03 0.  0.
         35    2    3    3    0    0 -0.91546010787E+02 -0.98428190107E+02 -0.11877902205E+04  0.14378506390E+04  0.79906199482E+03 0.  0.
         22    1    5    5    0    0 -0.45530065328E+02 -0.45112075647E+03 -0.70416705205E+03  0.83751666310E+03  0.00000000000E+00 0.  1.
         22    1    5    5    0    0 -0.46015945459E+02  0.35269256637E+03 -0.48362316840E+03  0.60033397590E+03  0.00000000000E+00 0.  1.
          5    1    4    4  502    0  0.90837623949E+02  0.33685224399E+02 -0.11860113906E+03  0.15321386508E+03  0.47000000000E+01 0. -1.
         -5    1    4    4    0  502  0.70838683810E+00  0.64742965708E+02 -0.25370811799E+03  0.26188175300E+03  0.47000000000E+01 0. -1.
<mgrwt>
<rscale>  0 0.99974969E+03</rscale>
<asrwt>0</asrwt>
<pdfrwt beam="1">  1        1 0.26254197E+00 0.99974969E+03</pdfrwt>
<pdfrwt beam="2">  1       -1 0.22526676E-01 0.99974969E+03</pdfrwt>
<totfact> 0.84016230E+01</totfact>
</mgrwt>
</event>
<event>
 9    1  0.4342579E-036  0.1003485E+04  0.7818608E-02  0.8677726E-01
         -2   -1    0    0    0  501 -0.00000000000E+00  0.00000000000E+00  0.22460810926E+03  0.22460810926E+03  0.00000000000E+00 0. -1.
          2   -1    0    0  501    0  0.00000000000E+00 -0.00000000000E+00 -0.11208219971E+04  0.11208219971E+04  0.00000000000E+00 0. -1.
         36    2    1    2    0    0  0.00000000000E+00  0.00000000000E+00 -0.89621388779E+03  0.13454301063E+04  0.10034853453E+04 0.  0.
         25    2    3    3    0    0 -0.31847570532E+02 -0.85036501757E+02 -0.23742593433E+02  0.15828111271E+03  0.12745087492E+03 0.  0.
         35    2    3    3    0    0  0.31847570532E+02  0.85036501757E+02 -0.87247129436E+03  0.11871489936E+04  0.79991943292E+03 0.  0.
         22    1    5    5    0    0 -0.73085589208E+02 -0.17043341163E+01 -0.99877130521E+03  0.10014432227E+04  0.00000000000E+00 0.  1.
         22    1    5    5    0    0  0.10493315974E+03  0.86740835873E+02  0.12630001085E+03  0.18570577094E+03  0.00000000000E+00 0.  1.
          5    1    4    4  502    0  0.34122495345E+01 -0.10782924910E+03 -0.36764268437E+02  0.11407230971E+03  0.47000000000E+01 0. -1.
         -5    1    4    4    0  502 -0.35259820067E+02  0.22792747346E+02  0.13021675004E+02  0.44208803000E+02  0.47000000000E+01 0. -1.
<mgrwt>
<rscale>  0 0.10034853E+04</rscale>
<asrwt>0</asrwt>
<pdfrwt beam="1">  1        2 0.17243415E+00 0.10034853E+04</pdfrwt>
<pdfrwt beam="2">  1       -2 0.34555094E-01 0.10034853E+04</pdfrwt>
<totfact> 0.20038114E+02</totfact>
</mgrwt>
</event>
<event>
 9    1  0.4342579E-036  0.9959432E+03  0.7818608E-02  0.8684911E-01
         -1   -1    0    0    0  501 -0.00000000000E+00  0.00000000000E+00  0.79297535955E+03  0.79297535955E+03  0.00000000000E+00 0. -1.
          1   -1    0    0  501    0  0.00000000000E+00 -0.00000000000E+00 -0.31271552415E+03  0.31271552415E+03  0.00000000000E+00 0. -1.
         36    2    1    2    0    0 -0.14210854715E-13  0.14210854715E-13  0.48025983541E+03  0.11056908837E+04  0.99594318151E+03 0.  0.
         25    2    3    3    0    0 -0.10863720573E+03  0.31703978811E+02 -0.29993672281E-01  0.16671008288E+03  0.12241350453E+03 0.  0.
         35    2    3    3    0    0  0.10863720573E+03 -0.31703978811E+02  0.48028982908E+03  0.93898080082E+03  0.79887385716E+03 0.  0.
         22    1    5    5    0    0  0.60636840629E+02  0.57352931777E+02 -0.21798386517E+03  0.23341626057E+03  0.00000000000E+00 0.  1.
         22    1    5    5    0    0  0.48000365098E+02 -0.89056910588E+02  0.69827369425E+03  0.70556454025E+03  0.00000000000E+00 0.  1.
          5    1    4    4  502    0 -0.12742226953E+03  0.52521087398E+02 -0.42502588918E+01  0.13796758349E+03  0.47000000000E+01 0.  1.
         -5    1    4    4    0  502  0.18785063807E+02 -0.20817108587E+02  0.42202652195E+01  0.28742499381E+02  0.47000000000E+01 0.  1.
<mgrwt>
<rscale>  0 0.99594318E+03</rscale>
<asrwt>0</asrwt>
<pdfrwt beam="1">  1        1 0.48110081E-01 0.99594318E+03</pdfrwt>
<pdfrwt beam="2">  1       -1 0.12199621E+00 0.99594318E+03</pdfrwt>
<totfact> 0.59333663E+01</totfact>
</mgrwt>
</event>
<event>
 9    1  0.4342579E-036  0.9985787E+03  0.7818608E-02  0.8682393E-01
          1   -1    0    0  501    0  0.00000000000E+00  0.00000000000E+00  0.41069889612E+04  0.41069889612E+04  0.00000000000E+00 0.  1.
         -1   -1    0    0    0  501 -0.00000000000E+00 -0.00000000000E+00 -0.60698938724E+02  0.60698938724E+02  0.00000000000E+00 0.  1.
         36    2    1    2    0    0  0.00000000000E+00  0.00000000000E+00  0.40462900225E+04  0.41676878999E+04  0.99857873259E+03 0.  0.
         25    2    3    3    0    0  0.70674094132E+02 -0.11790688505E+03  0.81338028250E+03  0.83454046925E+03  0.12638611373E+03 0.  0.
         35    2    3    3    0    0 -0.70674094132E+02  0.11790688505E+03  0.32329097400E+04  0.33331474307E+04  0.79954333629E+03 0.  0.
         22    1    5    5    0    0  0.20147779018E+02  0.45734171129E+03  0.19471161579E+04  0.20002071659E+04  0.00000000000E+00 0.  1.
         22    1    5    5    0    0 -0.90821873149E+02 -0.33943482624E+03  0.12857935820E+04  0.13329402648E+04  0.00000000000E+00 0.  1.
          5    1    4    4  502    0  0.33321500437E+02 -0.17759645521E+02  0.53432739716E+03  0.53568048757E+03  0.47000000000E+01 0.  1.
         -5    1    4    4    0  502  0.37352593695E+02 -0.10014723953E+03  0.27905288533E+03  0.29885998169E+03  0.47000000000E+01 0.  1.
<mgrwt>
<rscale>  0 0.99857873E+03</rscale>
<asrwt>0</asrwt>
<pdfrwt beam="1">  1        1 0.63184424E+00 0.99857873E+03</pdfrwt>
<pdfrwt beam="2">  1       -1 0.93383015E-02 0.99857873E+03</pdfrwt>
<totfact> 0.64186062E+00</totfact>
</mgrwt>
</event>
<event>
 9    1  0.4342579E-036  0.1000009E+04  0.7818608E-02  0.8681029E-01
         -2   -1    0    0    0  501 -0.00000000000E+00  0.00000000000E+00  0.12092963360E+04  0.12092963360E+04  0.00000000000E+00 0.  1.
          2   -1    0    0  501    0  0.00000000000E+00 -0.00000000000E+00 -0.20673546748E+03  0.20673546748E+03  0.00000000000E+00 0.  1.
         36    2    1    2    0    0 -0.14210854715E-13 -0.71054273576E-14  0.10025608685E+04  0.14160318035E+04  0.10000088866E+04 0.  0.
         25    2    3    3    0    0 -0.71347759370E+02 -0.62902241878E+02  0.42740716369E+02  0.16249615837E+03  0.12462358464E+03 0.  0.
         35    2    3    3    0    0  0.71347759370E+02  0.62902241878E+02  0.95982015216E+03  0.12535356451E+04  0.80065579014E+03 0.  0.
         22    1    5    5    0    0  0.15758043945E+03 -0.15312115729E+03  0.99439552753E+03  0.10183811413E+04  0.00000000000E+00 0. -1.
         22    1    5    5    0    0 -0.86232680076E+02  0.21602339917E+03 -0.34575375369E+02  0.23515450386E+03  0.00000000000E+00 0. -1.
          5    1    4    4  502    0 -0.73824923693E+02 -0.12951981222E+02  0.72271843353E+02  0.10422659218E+03  0.47000000000E+01 0. -1.
         -5    1    4    4    0  502  0.24771643225E+01 -0.49950260656E+02 -0.29531126985E+02  0.58269566187E+02  0.47000000000E+01 0. -1.
<mgrwt>
<rscale>  0 0.10000089E+04</rscale>
<asrwt>0</asrwt>
<pdfrwt beam="1">  1        2 0.31805457E-01 0.10000089E+04</pdfrwt>
<pdfrwt beam="2">  1       -2 0.18604558E+00 0.10000089E+04</pdfrwt>
<totfact> 0.30193580E+01</totfact>
</mgrwt>
</event>
<event>
 9    1  0.4342579E-036  0.9978600E+03  0.7818608E-02  0.8683079E-01
          3   -1    0    0  501    0  0.00000000000E+00  0.00000000000E+00  0.99745345298E+03  0.99745345298E+03  0.00000000000E+00 0. -1.
         -3   -1    0    0    0  501 -0.00000000000E+00 -0.00000000000E+00 -0.24956667428E+03  0.24956667428E+03  0.00000000000E+00 0. -1.
         36    2    1    2    0    0 -0.28421709430E-13 -0.14210854715E-13  0.74788677870E+03  0.12470201273E+04  0.99785999220E+03 0.  0.
         25    2    3    3    0    0  0.50933701861E+02 -0.61162296899E+02  0.28032470765E+03  0.31690407460E+03  0.12454389681E+03 0.  0.
         35    2    3    3    0    0 -0.50933701861E+02  0.61162296899E+02  0.46756207105E+03  0.93011605266E+03  0.80010406360E+03 0.  0.
         22    1    5    5    0    0 -0.27180693047E+03 -0.14779297115E+03  0.53560666038E+03  0.61854366412E+03  0.00000000000E+00 0.  1.
         22    1    5    5    0    0  0.22087322861E+03  0.20895526805E+03 -0.68044589339E+02  0.31157238854E+03  0.00000000000E+00 0.  1.
          5    1    4    4  502    0  0.49163095021E+02 -0.26928763046E+02  0.29147247068E+02  0.63354717290E+02  0.47000000000E+01 0.  1.
         -5    1    4    4    0  502  0.17706068400E+01 -0.34233533852E+02  0.25117746058E+03  0.25354935731E+03  0.47000000000E+01 0.  1.
<mgrwt>
<rscale>  0 0.99785999E+03</rscale>
<asrwt>0</asrwt>
<pdfrwt beam="1">  1        3 0.15345438E+00 0.99785999E+03</pdfrwt>
<pdfrwt beam="2">  1       -3 0.38394874E-01 0.99785999E+03</pdfrwt>
<totfact> 0.85361099E+00</totfact>
</mgrwt>
</event>
<event>
 9    1  0.4342579E-036  0.1000779E+04  0.7818608E-02  0.8680296E-01
         -1   -1    0    0    0  501 -0.00000000000E+00  0.00000000000E+00  0.95214068931E+03  0.95214068931E+03  0.00000000000E+00 0.  1.
          1   -1    0    0  501    0  0.00000000000E+00 -0.00000000000E+00 -0.26297567706E+03  0.26297567706E+03  0.00000000000E+00 0.  1.
         36    2    1    2    0    0  0.00000000000E+00 -0.14210854715E-13  0.68916501225E+03  0.12151163664E+04  0.10007793811E+04 0.  0.
         25    2    3    3    0    0 -0.74305960815E+02  0.94069561236E+02  0.40223205426E+02  0.17801508434E+03  0.12530365451E+03 0.  0.
         35    2    3    3    0    0  0.74305960815E+02 -0.94069561236E+02  0.64894180682E+03  0.10371012820E+04  0.80005196231E+03 0.  0.
         22    1    5    5    0    0  0.43364506290E+03 -0.12497434137E+02  0.28419694924E+03  0.51862523308E+03  0.00000000000E+00 0. -1.
         22    1    5    5    0    0 -0.35933910208E+03 -0.81572127099E+02  0.36474485759E+03  0.51847604896E+03  0.00000000000E+00 0. -1.
          5    1    4    4  502    0  0.15287003038E+02  0.19924529993E+02  0.55045360522E+02  0.60685756750E+02  0.47000000000E+01 0. -1.
         -5    1    4    4    0  502 -0.89592963854E+02  0.74145031243E+02 -0.14822155096E+02  0.11732932759E+03  0.47000000000E+01 0. -1.
<mgrwt>
<rscale>  0 0.10007794E+04</rscale>
<asrwt>0</asrwt>
<pdfrwt beam="1">  1        1 0.40457797E-01 0.10007794E+04</pdfrwt>
<pdfrwt beam="2">  1       -1 0.14648318E+00 0.10007794E+04</pdfrwt>
<totfact> 0.45679307E+01</totfact>
</mgrwt>
</event>
<event>
 9    1  0.4342579E-036  0.9996356E+03  0.7818608E-02  0.8681385E-01
          1   -1    0    0  501    0  0.00000000000E+00  0.00000000000E+00  0.99881512415E+03  0.99881512415E+03  0.00000000000E+00 0.  1.
         -1   -1    0    0    0  501 -0.00000000000E+00 -0.00000000000E+00 -0.25011418463E+03  0.25011418463E+03  0.00000000000E+00 0.  1.
         36    2    1    2    0    0  0.00000000000E+00 -0.28421709430E-13  0.74870093952E+03  0.12489293088E+04  0.99963559435E+03 0.  0.
         25    2    3    3    0    0  0.47381935288E+02 -0.12220334840E+03  0.20025095508E+03  0.27005477682E+03  0.12510168393E+03 0.  0.
         35    2    3    3    0    0 -0.47381935288E+02  0.12220334840E+03  0.54844998444E+03  0.97887453196E+03  0.80013702435E+03 0.  0.
         22    1    5    5    0    0  0.14589323825E+02  0.24372575986E+03 -0.13700754275E+03  0.27997528670E+03  0.00000000000E+00 0.  1.
         22    1    5    5    0    0 -0.61971259113E+02 -0.12152241146E+03  0.68545752719E+03  0.69889924526E+03  0.00000000000E+00 0.  1.
          5    1    4    4  502    0 -0.26237703219E+02 -0.87995241411E+02  0.66302115783E+02  0.11335625320E+03  0.47000000000E+01 0. -1.
         -5    1    4    4    0  502  0.73619638507E+02 -0.34208106993E+02  0.13394883930E+03  0.15669852363E+03  0.47000000000E+01 0. -1.
<mgrwt>
<rscale>  0 0.99963559E+03</rscale>
<asrwt>0</asrwt>
<pdfrwt beam="1">  1        1 0.15366386E+00 0.99963559E+03</pdfrwt>
<pdfrwt beam="2">  1       -1 0.38479106E-01 0.99963559E+03</pdfrwt>
<totfact> 0.11097533E+02</totfact>
</mgrwt>
</event>
<event>
 9    1  0.4342579E-036  0.1000582E+04  0.7818608E-02  0.8680483E-01
         -1   -1    0    0    0  501 -0.00000000000E+00  0.00000000000E+00  0.17405238111E+03  0.17405238111E+03  0.00000000000E+00 0.  1.
          1   -1    0    0  501    0  0.00000000000E+00 -0.00000000000E+00 -0.14380229676E+04  0.14380229676E+04  0.00000000000E+00 0.  1.
         36    2    1    2    0    0  0.00000000000E+00  0.14210854715E-13 -0.12639705865E+04  0.16120753487E+04  0.10005824736E+04 0.  0.
         25    2    3    3    0    0  0.68199689958E+02 -0.12087502871E+03 -0.19664562640E+03  0.27110386151E+03  0.12476309979E+03 0.  0.
         35    2    3    3    0    0 -0.68199689958E+02  0.12087502871E+03 -0.10673249601E+04  0.13409714872E+04  0.79984997890E+03 0.  0.
         22    1    5    5    0    0 -0.10781590601E+03  0.36672313981E+02  0.11096992201E+03  0.15900770985E+03  0.00000000000E+00 0.  1.
         22    1    5    5    0    0  0.39616216056E+02  0.84202714731E+02 -0.11782948821E+04  0.11819637773E+04  0.00000000000E+00 0.  1.
          5    1    4    4  502    0  0.99767995992E+02 -0.84198412390E+02 -0.10594753521E+03  0.16819630165E+03  0.47000000000E+01 0.  1.
         -5    1    4    4    0  502 -0.31568306034E+02 -0.36676616321E+02 -0.90698091186E+02  0.10290755986E+03  0.47000000000E+01 0.  1.
<mgrwt>
<rscale>  0 0.10005825E+04</rscale>
<asrwt>0</asrwt>
<pdfrwt beam="1">  1        1 0.22123430E+00 0.10005825E+04</pdfrwt>
<pdfrwt beam="2">  1       -1 0.26777289E-01 0.10005825E+04</pdfrwt>
<totfact> 0.97468304E+01</totfact>
</mgrwt>
</event>
<event>
 9    1  0.4342579E-036  0.1000032E+04  0.7818608E-02  0.8681007E-01
          1   -1    0    0  501    0  0.00000000000E+00  0.00000000000E+00  0.92157436264E+03  0.92157436264E+03  0.00000000000E+00 0.  1.
         -1   -1    0    0    0  501 -0.00000000000E+00 -0.00000000000E+00 -0.27129246979E+03  0.27129246979E+03  0.00000000000E+00 0.  1.
         36    2    1    2    0    0 -0.28421709430E-13  0.00000000000E+00  0.65028189285E+03  0.11928668324E+04  0.10000323693E+04 0.  0.
         25    2    3    3    0    0  0.76975726606E+02 -0.10480889926E+03  0.18209897547E+03  0.25622732794E+03  0.12482883829E+03 0.  0.
         35    2    3    3    0    0 -0.76975726606E+02  0.10480889926E+03  0.46818291739E+03  0.93663950449E+03  0.80074224903E+03 0.  0.
         22    1    5    5    0    0  0.77541818718E+02 -0.12235881607E+02 -0.21374050652E+03  0.22770036139E+03  0.00000000000E+00 0.  1.
         22    1    5    5    0    0 -0.15451754532E+03  0.11704478087E+03  0.68192342391E+03  0.70893914310E+03  0.00000000000E+00 0.  1.
          5    1    4    4  502    0  0.25804114139E+02 -0.80058298337E+02  0.18047239996E+03  0.19916716744E+03  0.47000000000E+01 0.  1.
         -5    1    4    4    0  502  0.51171612467E+02 -0.24750600924E+02  0.16265755054E+01  0.57060160501E+02  0.47000000000E+01 0.  1.
<mgrwt>
<rscale>  0 0.10000324E+04</rscale>
<asrwt>0</asrwt>
<pdfrwt beam="1">  1        1 0.14178067E+00 0.10000324E+04</pdfrwt>
<pdfrwt beam="2">  1       -1 0.41737303E-01 0.10000324E+04</pdfrwt>
<totfact> 0.11086921E+02</totfact>
</mgrwt>
</event>
<event>
 9    1  0.4342579E-036  0.1002150E+04  0.7818608E-02  0.8678993E-01
         -2   -1    0    0    0  501 -0.00000000000E+00  0.00000000000E+00  0.21762026248E+03  0.21762026248E+03  0.00000000000E+00 0.  1.
          2   -1    0    0  501    0  0.00000000000E+00 -0.00000000000E+00 -0.11537347038E+04  0.11537347038E+04  0.00000000000E+00 0.  1.
         36    2    1    2    0    0  0.00000000000E+00 -0.14210854715E-13 -0.93611444133E+03  0.13713549663E+04  0.10021497874E+04 0.  0.
         25    2    3    3    0    0 -0.21277735918E+02 -0.56817683111E+02 -0.35437213506E+03  0.38054940620E+03  0.12472870278E+03 0.  0.
         35    2    3    3    0    0  0.21277735918E+02  0.56817683111E+02 -0.58174230627E+03  0.99080556008E+03  0.79974405645E+03 0.  0.
         22    1    5    5    0    0  0.15654432376E+03 -0.23498726927E+03 -0.60570290854E+03  0.66828224235E+03  0.00000000000E+00 0. -1.
         22    1    5    5    0    0 -0.13526658785E+03  0.29180495238E+03  0.23960602266E+02  0.32252331774E+03  0.00000000000E+00 0. -1.
          5    1    4    4  502    0 -0.19854245478E+02  0.17811130681E+02 -0.11176439115E+02  0.29298980032E+02  0.47000000000E+01 0. -1.
         -5    1    4    4    0  502 -0.14234904401E+01 -0.74628813791E+02 -0.34319569594E+03  0.35125042617E+03  0.47000000000E+01 0. -1.
<mgrwt>
<rscale>  0 0.10021498E+04</rscale>
<asrwt>0</asrwt>
<pdfrwt beam="1">  1        2 0.17749764E+00 0.10021498E+04</pdfrwt>
<pdfrwt beam="2">  1       -2 0.33480041E-01 0.10021498E+04</pdfrwt>
<totfact> 0.20305449E+02</totfact>
</mgrwt>
</event>
<event>
 9    1  0.4342579E-036  0.1000212E+04  0.7818608E-02  0.8680836E-01
          2   -1    0    0  501    0  0.00000000000E+00  0.00000000000E+00  0.10257061892E+04  0.10257061892E+04  0.00000000000E+00 0.  1.
         -2   -1    0    0    0  501 -0.00000000000E+00 -0.00000000000E+00 -0.24383772678E+03  0.24383772678E+03  0.00000000000E+00 0.  1.
         36    2    1    2    0    0 -0.42632564146E-13  0.42632564146E-13  0.78186846245E+03  0.12695439160E+04  0.10002117086E+04 0.  0.
         25    2    3    3    0    0 -0.42515818480E+02 -0.62550991720E+02  0.29797608374E+03  0.33177795333E+03  0.12476635145E+03 0.  0.
         35    2    3    3    0    0  0.42515818480E+02  0.62550991720E+02  0.48389237871E+03  0.93776596267E+03  0.79970803746E+03 0.  0.
         22    1    5    5    0    0 -0.29527006980E+03  0.26670015398E+03  0.16660288589E+03  0.43135821290E+03  0.00000000000E+00 0.  1.
         22    1    5    5    0    0  0.33778588828E+03 -0.20414916226E+03  0.31728949282E+03  0.50640774977E+03  0.00000000000E+00 0.  1.
          5    1    4    4  502    0  0.18316721813E+02 -0.72343857207E+02  0.21953618392E+03  0.23192102540E+03  0.47000000000E+01 0. -1.
         -5    1    4    4    0  502 -0.60832540292E+02  0.97928654866E+01  0.78439899821E+02  0.99856927935E+02  0.47000000000E+01 0. -1.
<mgrwt>
<rscale>  0 0.10002117E+04</rscale>
<asrwt>0</asrwt>
<pdfrwt beam="1">  1        2 0.15780095E+00 0.10002117E+04</pdfrwt>
<pdfrwt beam="2">  1       -2 0.37513497E-01 0.10002117E+04</pdfrwt>
<totfact> 0.19640716E+02</totfact>
</mgrwt>
</event>
<event>
 9    1  0.4342579E-036  0.9998978E+03  0.7818608E-02  0.8681135E-01
          2   -1    0    0  501    0  0.00000000000E+00  0.00000000000E+00  0.11953068925E+04  0.11953068925E+04  0.00000000000E+00 0.  1.
         -2   -1    0    0    0  501 -0.00000000000E+00 -0.00000000000E+00 -0.20910855380E+03  0.20910855380E+03  0.00000000000E+00 0.  1.
         36    2    1    2    0    0  0.14210854715E-13  0.00000000000E+00  0.98619833866E+03  0.14044154463E+04  0.99989778605E+03 0.  0.
         25    2    3    3    0    0  0.52979208238E+02  0.77311536335E+02  0.38344985150E+02  0.16033012415E+03  0.12430422627E+03 0.  0.
         35    2    3    3    0    0 -0.52979208238E+02 -0.77311536335E+02  0.94785335351E+03  0.12440853221E+04  0.80033645350E+03 0.  0.
         22    1    5    5    0    0  0.30938736359E+03  0.13702421519E+03  0.63511110768E+03  0.71962649715E+03  0.00000000000E+00 0.  1.
         22    1    5    5    0    0 -0.36236657183E+03 -0.21433575152E+03  0.31274224583E+03  0.52445882497E+03  0.00000000000E+00 0.  1.
          5    1    4    4  502    0  0.35064999157E+02 -0.25336931139E+02  0.35211373060E+02  0.55977183192E+02  0.47000000000E+01 0.  1.
         -5    1    4    4    0  502  0.17914209081E+02  0.10264846747E+03  0.31336120902E+01  0.10435294096E+03  0.47000000000E+01 0.  1.
<mgrwt>
<rscale>  0 0.99989779E+03</rscale>
<asrwt>0</asrwt>
<pdfrwt beam="1">  1        2 0.18389336E+00 0.99989779E+03</pdfrwt>
<pdfrwt beam="2">  1       -2 0.32170547E-01 0.99989779E+03</pdfrwt>
<totfact> 0.20648724E+02</totfact>
</mgrwt>
</event>
<event>
 9    1  0.4342579E-036  0.9994960E+03  0.7818608E-02  0.8681518E-01
         -2   -1    0    0    0  501 -0.00000000000E+00  0.00000000000E+00  0.16470747494E+03  0.16470747494E+03  0.00000000000E+00 0. -1.
          2   -1    0    0  501    0  0.00000000000E+00 -0.00000000000E+00 -0.15163130131E+04  0.15163130131E+04  0.00000000000E+00 0. -1.
         36    2    1    2    0    0 -0.14210854715E-13  0.35527136788E-14 -0.13516055382E+04  0.16810204881E+04  0.99949604824E+03 0.  0.
         25    2    3    3    0    0  0.38433286070E+02 -0.16924576297E+02 -0.28980892895E+02  0.13472211166E+03  0.12468599142E+03 0.  0.
         35    2    3    3    0    0 -0.38433286070E+02  0.16924576297E+02 -0.13226246453E+04  0.15462983764E+04  0.79996197270E+03 0.  0.
         22    1    5    5    0    0 -0.36209131617E+03  0.11529090139E+03 -0.35037003328E+03  0.51687645856E+03  0.00000000000E+00 0. -1.
         22    1    5    5    0    0  0.32365803010E+03 -0.98366325090E+02 -0.97225461203E+03  0.10294219179E+04  0.00000000000E+00 0. -1.
          5    1    4    4  502    0  0.70067925359E+02  0.28001100500E+02 -0.24144009093E+02  0.79363713172E+02  0.47000000000E+01 0.  1.
         -5    1    4    4    0  502 -0.31634639290E+02 -0.44925676797E+02 -0.48368838016E+01  0.55358398492E+02  0.47000000000E+01 0.  1.
<mgrwt>
<rscale>  0 0.99949605E+03</rscale>
<asrwt>0</asrwt>
<pdfrwt beam="1">  1        2 0.23327892E+00 0.99949605E+03</pdfrwt>
<pdfrwt beam="2">  1       -2 0.25339612E-01 0.99949605E+03</pdfrwt>
<totfact> 0.20773268E+02</totfact>
</mgrwt>
</event>
<event>
 9    1  0.4342579E-036  0.1000640E+04  0.7818608E-02  0.8680428E-01
          1   -1    0    0  501    0  0.00000000000E+00  0.00000000000E+00  0.55642429673E+03  0.55642429673E+03  0.00000000000E+00 0.  1.
         -1   -1    0    0    0  501 -0.00000000000E+00 -0.00000000000E+00 -0.44987299458E+03  0.44987299458E+03  0.00000000000E+00 0.  1.
         36    2    1    2    0    0  0.00000000000E+00 -0.14210854715E-13  0.10655130215E+03  0.10062972913E+04  0.10006403242E+04 0.  0.
         25    2    3    3    0    0 -0.89772887079E+02  0.91140747849E+02  0.80331771890E+02  0.19620937695E+03  0.12521628829E+03 0.  0.
         35    2    3    3    0    0  0.89772887079E+02 -0.91140747849E+02  0.26219530261E+02  0.81008791436E+03  0.79949306317E+03 0.  0.
         22    1    5    5    0    0  0.16687553826E+03  0.28219607010E+03  0.20747123127E+03  0.38797729193E+03  0.00000000000E+00 0. -1.
         22    1    5    5    0    0 -0.77102651182E+02 -0.37333681794E+03 -0.18125170101E+03  0.42211062243E+03  0.00000000000E+00 0. -1.
          5    1    4    4  502    0 -0.21403728055E+02  0.37639446706E+02  0.98222882254E+02  0.10744613591E+03  0.47000000000E+01 0.  1.
         -5    1    4    4    0  502 -0.68369159024E+02  0.53501301143E+02 -0.17891110365E+02  0.88763241039E+02  0.47000000000E+01 0.  1.
<mgrwt>
<rscale>  0 0.10006403E+04</rscale>
<asrwt>0</asrwt>
<pdfrwt beam="1">  1        1 0.85603738E-01 0.10006403E+04</pdfrwt>
<pdfrwt beam="2">  1       -1 0.69211230E-01 0.10006403E+04</pdfrwt>
<totfact> 0.94366598E+01</totfact>
</mgrwt>
</event>
<event>
 9    1  0.4342579E-036  0.1001444E+04  0.7818608E-02  0.8679664E-01
          2   -1    0    0  501    0  0.00000000000E+00  0.00000000000E+00  0.84791362855E+03  0.84791362855E+03  0.00000000000E+00 0.  1.
         -2   -1    0    0    0  501 -0.00000000000E+00 -0.00000000000E+00 -0.29569342532E+03  0.29569342532E+03  0.00000000000E+00 0.  1.
         36    2    1    2    0    0  0.00000000000E+00  0.00000000000E+00  0.55222020323E+03  0.11436070539E+04  0.10014439279E+04 0.  0.
         25    2    3    3    0    0  0.10292288329E+03  0.93849344564E+02  0.35464880523E+02  0.19035677975E+03  0.12480835896E+03 0.  0.
         35    2    3    3    0    0 -0.10292288329E+03 -0.93849344564E+02  0.51675532270E+03  0.95325027413E+03  0.78882773925E+03 0.  0.
         22    1    5    5    0    0  0.10191806688E+03 -0.18772258696E+03  0.65496285044E+03  0.68891465181E+03  0.00000000000E+00 0.  1.
         22    1    5    5    0    0 -0.20484095017E+03  0.93873242397E+02 -0.13820752774E+03  0.26433562232E+03  0.00000000000E+00 0.  1.
          5    1    4    4  502    0  0.92498266978E+02  0.21948177226E+00  0.14778683780E+02  0.93789535986E+02  0.47000000000E+01 0. -1.
         -5    1    4    4    0  502  0.10424616307E+02  0.93629862792E+02  0.20686196743E+02  0.96567243759E+02  0.47000000000E+01 0. -1.
<mgrwt>
<rscale>  0 0.10014439E+04</rscale>
<asrwt>0</asrwt>
<pdfrwt beam="1">  1        2 0.13044825E+00 0.10014439E+04</pdfrwt>
<pdfrwt beam="2">  1       -2 0.45491297E-01 0.10014439E+04</pdfrwt>
<totfact> 0.17660740E+02</totfact>
</mgrwt>
</event>
<event>
 9    1  0.4342579E-036  0.9995676E+03  0.7818608E-02  0.8681450E-01
          2   -1    0    0  501    0  0.00000000000E+00  0.00000000000E+00  0.26643935823E+03  0.26643935823E+03  0.00000000000E+00 0. -1.
         -2   -1    0    0    0  501 -0.00000000000E+00 -0.00000000000E+00 -0.93748853541E+03  0.93748853541E+03  0.00000000000E+00 0. -1.
         36    2    1    2    0    0 -0.42632564146E-13  0.00000000000E+00 -0.67104917717E+03  0.12039278936E+04  0.99956759396E+03 0.  0.
         25    2    3    3    0    0  0.86075576340E+02  0.77564222625E+02 -0.22328302014E+03  0.28003922313E+03  0.12305058284E+03 0.  0.
         35    2    3    3    0    0 -0.86075576340E+02 -0.77564222625E+02 -0.44776615704E+03  0.92388867051E+03  0.79978155182E+03 0.  0.
         22    1    5    5    0    0  0.34647459382E+03 -0.66662482835E+02 -0.94393397745E+02  0.36523779147E+03  0.00000000000E+00 0. -1.
         22    1    5    5    0    0 -0.43255017016E+03 -0.10901739790E+02 -0.35337275929E+03  0.55865087903E+03  0.00000000000E+00 0. -1.
          5    1    4    4  502    0  0.16075005424E+02 -0.18589735807E+02  0.21484546709E+01  0.25113540854E+02  0.47000000000E+01 0.  1.
         -5    1    4    4    0  502  0.70000570917E+02  0.96153958432E+02 -0.22543147481E+03  0.25492568228E+03  0.47000000000E+01 0.  1.
<mgrwt>
<rscale>  0 0.99956759E+03</rscale>
<asrwt>0</asrwt>
<pdfrwt beam="1">  1        2 0.40990670E-01 0.99956759E+03</pdfrwt>
<pdfrwt beam="2">  1       -2 0.14422901E+00 0.99956759E+03</pdfrwt>
<totfact> 0.47410522E+01</totfact>
</mgrwt>
</event>
<event>
 9    1  0.4342579E-036  0.1000743E+04  0.7818608E-02  0.8680331E-01
         -2   -1    0    0    0  501 -0.00000000000E+00  0.00000000000E+00  0.27404151386E+03  0.27404151386E+03  0.00000000000E+00 0. -1.
          2   -1    0    0  501    0  0.00000000000E+00 -0.00000000000E+00 -0.91362621739E+03  0.91362621739E+03  0.00000000000E+00 0. -1.
         36    2    1    2    0    0 -0.35527136788E-14  0.28421709430E-13 -0.63958470353E+03  0.11876677313E+04  0.10007427476E+04 0.  0.
         25    2    3    3    0    0 -0.30551874848E+02  0.13348450724E+03 -0.16624006480E+03  0.24889618337E+03  0.12474782652E+03 0.  0.
         35    2    3    3    0    0  0.30551874848E+02 -0.13348450724E+03 -0.47334463873E+03  0.93877154788E+03  0.79905277759E+03 0.  0.
         22    1    5    5    0    0  0.25924966882E+03 -0.35359487587E+03 -0.43741420160E+03  0.61933101874E+03  0.00000000000E+00 0. -1.
         22    1    5    5    0    0 -0.22869779397E+03  0.22011036862E+03 -0.35930437130E+02  0.31944052914E+03  0.00000000000E+00 0. -1.
          5    1    4    4  502    0 -0.49399110892E+02 -0.71000905958E+00 -0.42977282677E+02  0.65649928378E+02  0.47000000000E+01 0.  1.
         -5    1    4    4    0  502  0.18847236044E+02  0.13419451630E+03 -0.12326278213E+03  0.18324625499E+03  0.47000000000E+01 0.  1.
<mgrwt>
<rscale>  0 0.10007427E+04</rscale>
<asrwt>0</asrwt>
<pdfrwt beam="1">  1        2 0.14055788E+00 0.10007427E+04</pdfrwt>
<pdfrwt beam="2">  1       -2 0.42160232E-01 0.10007427E+04</pdfrwt>
<totfact> 0.18517266E+02</totfact>
</mgrwt>
</event>
<event>
 9    1  0.4342579E-036  0.1001097E+04  0.7818608E-02  0.8679994E-01
          2   -1    0    0  501    0  0.00000000000E+00  0.00000000000E+00  0.97642582704E+03  0.97642582704E+03  0.00000000000E+00 0. -1.
         -2   -1    0    0    0  501 -0.00000000000E+00 -0.00000000000E+00 -0.25659808989E+03  0.25659808989E+03  0.00000000000E+00 0. -1.
         36    2    1    2    0    0  0.00000000000E+00 -0.71054273576E-14  0.71982773715E+03  0.12330239169E+04  0.10010974021E+04 0.  0.
         25    2    3    3    0    0 -0.13866091235E+03  0.77363481745E+00  0.14711082537E+03  0.23812449041E+03  0.12583414032E+03 0.  0.
         35    2    3    3    0    0  0.13866091235E+03 -0.77363481745E+00  0.57271691178E+03  0.99489942652E+03  0.80161883756E+03 0.  0.
         22    1    5    5    0    0  0.41216725851E+03 -0.69105592474E+02  0.77476077674E+02  0.42504114449E+03  0.00000000000E+00 0.  1.
         22    1    5    5    0    0 -0.27350634616E+03  0.68331957656E+02  0.49524083410E+03  0.56985828203E+03  0.00000000000E+00 0.  1.
          5    1    4    4  502    0 -0.99215463852E+02 -0.53365367567E+02  0.12278941837E+03  0.16670603464E+03  0.47000000000E+01 0.  1.
         -5    1    4    4    0  502 -0.39445448495E+02  0.54139002385E+02  0.24321406998E+02  0.71418455770E+02  0.47000000000E+01 0.  1.
<mgrwt>
<rscale>  0 0.10010974E+04</rscale>
<asrwt>0</asrwt>
<pdfrwt beam="1">  1        2 0.15021936E+00 0.10010974E+04</pdfrwt>
<pdfrwt beam="2">  1       -2 0.39476630E-01 0.10010974E+04</pdfrwt>
<totfact> 0.19143271E+02</totfact>
</mgrwt>
</event>
<event>
 9    1  0.4342579E-036  0.9994509E+03  0.7818608E-02  0.8681561E-01
         -3   -1    0    0    0  501 -0.00000000000E+00  0.00000000000E+00  0.72960794633E+03  0.72960794633E+03  0.00000000000E+00 0.  1.
          3   -1    0    0  501    0  0.00000000000E+00 -0.00000000000E+00 -0.34227355401E+03  0.34227355401E+03  0.00000000000E+00 0.  1.
         36    2    1    2    0    0 -0.39079850467E-13  0.35527136788E-14  0.38733439233E+03  0.10718815003E+04  0.99945085887E+03 0.  0.
         25    2    3    3    0    0  0.36589443768E+01  0.27746644651E+02  0.21928935096E+03  0.25386024238E+03  0.12479558908E+03 0.  0.
         35    2    3    3    0    0 -0.36589443768E+01 -0.27746644651E+02  0.16804504137E+03  0.81802125796E+03  0.80008523195E+03 0.  0.
         22    1    5    5    0    0  0.33496322169E+03 -0.22983563034E+03  0.84617845340E+02  0.41495175214E+03  0.00000000000E+00 0. -1.
         22    1    5    5    0    0 -0.33862216606E+03  0.20208898569E+03  0.83427196029E+02  0.40306950582E+03  0.00000000000E+00 0. -1.
          5    1    4    4  502    0 -0.16663012083E+02 -0.95029530332E+01  0.20901939645E+03  0.20995037552E+03  0.47000000000E+01 0.  1.
         -5    1    4    4    0  502  0.20321956459E+02  0.37249597685E+02  0.10269954508E+02  0.43909866859E+02  0.47000000000E+01 0.  1.
<mgrwt>
<rscale>  0 0.99945086E+03</rscale>
<asrwt>0</asrwt>
<pdfrwt beam="1">  1        3 0.52657470E-01 0.99945086E+03</pdfrwt>
<pdfrwt beam="2">  1       -3 0.11224738E+00 0.99945086E+03</pdfrwt>
<totfact> 0.84977432E+00</totfact>
</mgrwt>
</event>
<event>
 9    1  0.4342579E-036  0.1002177E+04  0.7818608E-02  0.8678967E-01
          1   -1    0    0  501    0  0.00000000000E+00  0.00000000000E+00  0.51583622371E+03  0.51583622371E+03  0.00000000000E+00 0. -1.
         -1   -1    0    0    0  501 -0.00000000000E+00 -0.00000000000E+00 -0.48676254018E+03  0.48676254018E+03  0.00000000000E+00 0. -1.
         36    2    1    2    0    0 -0.28421709430E-13  0.14210854715E-13  0.29073683536E+02  0.10025987639E+04  0.10021771312E+04 0.  0.
         25    2    3    3    0    0  0.96955245011E+02 -0.25231760700E+02 -0.96446819264E+02  0.18691004008E+03  0.12488559906E+03 0.  0.
         35    2    3    3    0    0 -0.96955245011E+02  0.25231760700E+02  0.12552050280E+03  0.81568872381E+03  0.79972228695E+03 0.  0.
         22    1    5    5    0    0 -0.12988793906E+03 -0.14953731054E+03 -0.29715723412E+03  0.35712001589E+03  0.00000000000E+00 0. -1.
         22    1    5    5    0    0  0.32932694047E+02  0.17476907124E+03  0.42267773692E+03  0.45856870793E+03  0.00000000000E+00 0. -1.
          5    1    4    4  502    0  0.26400145525E+02 -0.47766635742E+02  0.11441007807E+02  0.55960752617E+02  0.47000000000E+01 0. -1.
         -5    1    4    4    0  502  0.70555099487E+02  0.22534875042E+02 -0.10788782707E+03  0.13094928746E+03  0.47000000000E+01 0. -1.
<mgrwt>
<rscale>  0 0.10021771E+04</rscale>
<asrwt>0</asrwt>
<pdfrwt beam="1">  1        1 0.79359419E-01 0.10021771E+04</pdfrwt>
<pdfrwt beam="2">  1       -1 0.74886545E-01 0.10021771E+04</pdfrwt>
<totfact> 0.89670760E+01</totfact>
</mgrwt>
</event>
<event>
 9    1  0.4342579E-036  0.9995298E+03  0.7818608E-02  0.8681486E-01
          2   -1    0    0  501    0  0.00000000000E+00  0.00000000000E+00  0.27248676291E+04  0.27248676291E+04  0.00000000000E+00 0. -1.
         -2   -1    0    0    0  501 -0.00000000000E+00 -0.00000000000E+00 -0.91661323582E+02  0.91661323582E+02  0.00000000000E+00 0. -1.
         36    2    1    2    0    0  0.00000000000E+00  0.28421709430E-13  0.26332063055E+04  0.28165289527E+04  0.99952983641E+03 0.  0.
         25    2    3    3    0    0  0.52488390113E+02 -0.11462305986E+03  0.63795149914E+03  0.66299132324E+03  0.12915843946E+03 0.  0.
         35    2    3    3    0    0 -0.52488390113E+02  0.11462305986E+03  0.19952548064E+04  0.21535376294E+04  0.80049303689E+03 0.  0.
         22    1    5    5    0    0  0.10832543360E+03 -0.11357046437E+03  0.18138103503E+04  0.18205879920E+04  0.00000000000E+00 0.  1.
         22    1    5    5    0    0 -0.16081382371E+03  0.22819352423E+03  0.18144445607E+03  0.33294963738E+03  0.00000000000E+00 0.  1.
          5    1    4    4  502    0  0.86436516280E+02 -0.48585230812E+02  0.27186607853E+03  0.28942192497E+03  0.47000000000E+01 0.  1.
         -5    1    4    4    0  502 -0.33948126168E+02 -0.66037829043E+02  0.36608542061E+03  0.37356939826E+03  0.47000000000E+01 0.  1.
<mgrwt>
<rscale>  0 0.99952984E+03</rscale>
<asrwt>0</asrwt>
<pdfrwt beam="1">  1        2 0.41921034E+00 0.99952984E+03</pdfrwt>
<pdfrwt beam="2">  1       -2 0.14101744E-01 0.99952984E+03</pdfrwt>
<totfact> 0.11197789E+02</totfact>
</mgrwt>
</event>
<event>
 9    1  0.4342579E-036  0.9997294E+03  0.7818608E-02  0.8681296E-01
         -2   -1    0    0    0  501 -0.00000000000E+00  0.00000000000E+00  0.33411385192E+03  0.33411385192E+03  0.00000000000E+00 0.  1.
          2   -1    0    0  501    0  0.00000000000E+00 -0.00000000000E+00 -0.74784299515E+03  0.74784299515E+03  0.00000000000E+00 0.  1.
         36    2    1    2    0    0  0.00000000000E+00 -0.21316282073E-13 -0.41372914323E+03  0.10819568471E+04  0.99972937087E+03 0.  0.
         25    2    3    3    0    0  0.13214122663E+03  0.22136604809E+02 -0.33018927974E+02  0.18603472707E+03  0.12476913489E+03 0.  0.
         35    2    3    3    0    0 -0.13214122663E+03 -0.22136604809E+02 -0.38071021526E+03  0.89592212001E+03  0.79986551624E+03 0.  0.
         22    1    5    5    0    0  0.12221902376E+02  0.36422306435E+03 -0.30792173580E+03  0.47709916253E+03  0.00000000000E+00 0.  1.
         22    1    5    5    0    0 -0.14436312901E+03 -0.38635966916E+03 -0.72788479453E+02  0.41882295748E+03  0.00000000000E+00 0.  1.
          5    1    4    4  502    0  0.14049656627E+03 -0.18077416290E+02 -0.24861552763E+02  0.14389671615E+03  0.47000000000E+01 0. -1.
         -5    1    4    4    0  502 -0.83553396393E+01  0.40214021099E+02 -0.81573752105E+01  0.42138010913E+02  0.47000000000E+01 0. -1.
<mgrwt>
<rscale>  0 0.99972937E+03</rscale>
<asrwt>0</asrwt>
<pdfrwt beam="1">  1        2 0.11505277E+00 0.99972937E+03</pdfrwt>
<pdfrwt beam="2">  1       -2 0.51402132E-01 0.99972937E+03</pdfrwt>
<totfact> 0.16291235E+02</totfact>
</mgrwt>
</event>
<event>
 9    1  0.4342579E-036  0.1000964E+04  0.7818608E-02  0.8680120E-01
         -1   -1    0    0    0  501 -0.00000000000E+00  0.00000000000E+00  0.61541438722E+03  0.61541438722E+03  0.00000000000E+00 0. -1.
          1   -1    0    0  501    0  0.00000000000E+00 -0.00000000000E+00 -0.40701409157E+03  0.40701409157E+03  0.00000000000E+00 0. -1.
         36    2    1    2    0    0  0.00000000000E+00  0.14210854715E-13  0.20840029564E+03  0.10224284788E+04  0.10009641907E+04 0.  0.
         25    2    3    3    0    0  0.29375236725E+02  0.91807658286E+02  0.14518544297E+03  0.21423144415E+03  0.12459834735E+03 0.  0.
         35    2    3    3    0    0 -0.29375236725E+02 -0.91807658286E+02  0.63214852678E+02  0.80819703464E+03  0.79993423389E+03 0.  0.
         22    1    5    5    0    0 -0.47995335109E+02 -0.19787132807E+03  0.40313071171E+03  0.45163147077E+03  0.00000000000E+00 0.  1.
         22    1    5    5    0    0  0.18620098384E+02  0.10606366979E+03 -0.33991585903E+03  0.35656556387E+03  0.00000000000E+00 0.  1.
          5    1    4    4  502    0  0.43358279947E+02 -0.12167246646E+02  0.76027704883E+02  0.88488893318E+02  0.47000000000E+01 0. -1.
         -5    1    4    4    0  502 -0.13983043222E+02  0.10397490493E+03  0.69157738084E+02  0.12574255083E+03  0.47000000000E+01 0. -1.
<mgrwt>
<rscale>  0 0.10009642E+04</rscale>
<asrwt>0</asrwt>
<pdfrwt beam="1">  1        1 0.62617553E-01 0.10009642E+04</pdfrwt>
<pdfrwt beam="2">  1       -1 0.94679136E-01 0.10009642E+04</pdfrwt>
<totfact> 0.75523670E+01</totfact>
</mgrwt>
</event>
<event>
 9    1  0.4342579E-036  0.1000132E+04  0.7818608E-02  0.8680912E-01
          1   -1    0    0  501    0  0.00000000000E+00  0.00000000000E+00  0.36456098327E+04  0.36456098327E+04  0.00000000000E+00 0.  1.
         -1   -1    0    0    0  501 -0.00000000000E+00 -0.00000000000E+00 -0.68593756206E+02  0.68593756206E+02  0.00000000000E+00 0.  1.
         36    2    1    2    0    0 -0.14210854715E-13  0.56843418861E-13  0.35770160765E+04  0.37142035889E+04  0.10001321354E+04 0.  0.
         25    2    3    3    0    0 -0.59461051653E+02  0.11007398189E+03  0.41840143421E+03  0.45406531158E+03  0.12435292066E+03 0.  0.
         35    2    3    3    0    0  0.59461051653E+02 -0.11007398189E+03  0.31586146423E+04  0.32601382773E+04  0.79749810702E+03 0.  0.
         22    1    5    5    0    0 -0.19866151036E+03  0.20104377385E+03  0.53031727934E+03  0.60093378293E+03  0.00000000000E+00 0. -1.
         22    1    5    5    0    0  0.25812256201E+03 -0.31111775574E+03  0.26282973630E+04  0.26592044944E+04  0.00000000000E+00 0. -1.
          5    1    4    4  502    0 -0.63681604950E+02  0.12564735366E+03  0.41304019612E+03  0.43642513436E+03  0.47000000000E+01 0. -1.
         -5    1    4    4    0  502  0.42205532971E+01 -0.15573371774E+02  0.53612380951E+01  0.17640177223E+02  0.47000000000E+01 0. -1.
<mgrwt>
<rscale>  0 0.10001321E+04</rscale>
<asrwt>0</asrwt>
<pdfrwt beam="1">  1        1 0.56086290E+00 0.10001321E+04</pdfrwt>
<pdfrwt beam="2">  1       -1 0.10552888E-01 0.10001321E+04</pdfrwt>
<totfact> 0.11781217E+01</totfact>
</mgrwt>
</event>
<event>
 9    1  0.4342579E-036  0.1000109E+04  0.7818608E-02  0.8680934E-01
         -2   -1    0    0    0  501 -0.00000000000E+00  0.00000000000E+00  0.38812343149E+03  0.38812343149E+03  0.00000000000E+00 0.  1.
          2   -1    0    0  501    0  0.00000000000E+00 -0.00000000000E+00 -0.64426585187E+03  0.64426585187E+03  0.00000000000E+00 0.  1.
         36    2    1    2    0    0 -0.42632564146E-13  0.00000000000E+00 -0.25614242038E+03  0.10323892834E+04  0.10001093405E+04 0.  0.
         25    2    3    3    0    0  0.15140497828E+02 -0.13079293213E+03 -0.95761211153E+02  0.20577074331E+03  0.12583864061E+03 0.  0.
         35    2    3    3    0    0 -0.15140497828E+02  0.13079293213E+03 -0.16038120923E+03  0.82661854005E+03  0.80015001888E+03 0.  0.
         22    1    5    5    0    0  0.32046711100E+03  0.26247545299E+03  0.36504702501E+02  0.41584266972E+03  0.00000000000E+00 0.  1.
         22    1    5    5    0    0 -0.33560760883E+03 -0.13168252086E+03 -0.19688591173E+03  0.41077587033E+03  0.00000000000E+00 0.  1.
          5    1    4    4  502    0 -0.23177139082E+02 -0.40301824470E+01 -0.65630341084E+02  0.69877419940E+02  0.47000000000E+01 0.  1.
         -5    1    4    4    0  502  0.38317636910E+02 -0.12676274968E+03 -0.30130870069E+02  0.13589332337E+03  0.47000000000E+01 0.  1.
<mgrwt>
<rscale>  0 0.10001093E+04</rscale>
<asrwt>0</asrwt>
<pdfrwt beam="1">  1        2 0.99117822E-01 0.10001093E+04</pdfrwt>
<pdfrwt beam="2">  1       -2 0.59711298E-01 0.10001093E+04</pdfrwt>
<totfact> 0.14391377E+02</totfact>
</mgrwt>
</event>
<event>
 9    1  0.4342579E-036  0.1000066E+04  0.7818608E-02  0.8680975E-01
          1   -1    0    0  501    0  0.00000000000E+00  0.00000000000E+00  0.36404767400E+03  0.36404767400E+03  0.00000000000E+00 0.  1.
         -1   -1    0    0    0  501 -0.00000000000E+00 -0.00000000000E+00 -0.68681373407E+03  0.68681373407E+03  0.00000000000E+00 0.  1.
         36    2    1    2    0    0  0.28421709430E-13 -0.14210854715E-13 -0.32276606007E+03  0.10508614081E+04  0.10000658826E+04 0.  0.
         25    2    3    3    0    0  0.13556225975E+03 -0.24654925073E+02 -0.84548371068E+02  0.20454976805E+03  0.12532832464E+03 0.  0.
         35    2    3    3    0    0 -0.13556225975E+03  0.24654925073E+02 -0.23821768900E+03  0.84631164003E+03  0.80031914452E+03 0.  0.
         22    1    5    5    0    0 -0.40764504034E+03 -0.20379759988E+03 -0.15537013723E+03  0.48150578415E+03  0.00000000000E+00 0.  1.
         22    1    5    5    0    0  0.27208278058E+03  0.22845252495E+03 -0.82847551768E+02  0.36480585587E+03  0.00000000000E+00 0.  1.
          5    1    4    4  502    0  0.55167182768E+01  0.37164330331E+02 -0.36732792972E+02  0.52754238778E+02  0.47000000000E+01 0. -1.
         -5    1    4    4    0  502  0.13004554148E+03 -0.61819255404E+02 -0.47815578096E+02  0.15179552927E+03  0.47000000000E+01 0. -1.
<mgrwt>
<rscale>  0 0.10000659E+04</rscale>
<asrwt>0</asrwt>
<pdfrwt beam="1">  1        1 0.56007335E-01 0.10000659E+04</pdfrwt>
<pdfrwt beam="2">  1       -1 0.10566365E+00 0.10000659E+04</pdfrwt>
<totfact> 0.68515025E+01</totfact>
</mgrwt>
</event>
<event>
 9    1  0.4342579E-036  0.9946542E+03  0.7818608E-02  0.8686145E-01
          2   -1    0    0  501    0  0.00000000000E+00  0.00000000000E+00  0.39438164934E+04  0.39438164934E+04  0.00000000000E+00 0.  1.
         -2   -1    0    0    0  501 -0.00000000000E+00 -0.00000000000E+00 -0.62714440527E+02  0.62714440527E+02  0.00000000000E+00 0.  1.
         36    2    1    2    0    0  0.00000000000E+00  0.28421709430E-13  0.38811020529E+04  0.40065309339E+04  0.99465420107E+03 0.  0.
         25    2    3    3    0    0  0.10460714839E+03 -0.65646785022E+02  0.50300972624E+03  0.53280776092E+03  0.12495266912E+03 0.  0.
         35    2    3    3    0    0 -0.10460714839E+03  0.65646785022E+02  0.33780923266E+04  0.34737231730E+04  0.79999547474E+03 0.  0.
         22    1    5    5    0    0 -0.18294955549E+03 -0.22637103479E+03  0.49056868431E+03  0.57041390172E+03  0.00000000000E+00 0. -1.
         22    1    5    5    0    0  0.78342407105E+02  0.29201781981E+03  0.28875236423E+04  0.29033092713E+04  0.00000000000E+00 0. -1.
          5    1    4    4  502    0  0.63666714454E+02 -0.14544592502E+02  0.74016741203E+02  0.98820866616E+02  0.47000000000E+01 0. -1.
         -5    1    4    4    0  502  0.40940433933E+02 -0.51102192520E+02  0.42899298504E+03  0.43398689430E+03  0.47000000000E+01 0. -1.
<mgrwt>
<rscale>  0 0.99465420E+03</rscale>
<asrwt>0</asrwt>
<pdfrwt beam="1">  1        2 0.60674080E+00 0.99465420E+03</pdfrwt>
<pdfrwt beam="2">  1       -2 0.96483786E-02 0.99465420E+03</pdfrwt>
<totfact> 0.26911982E+01</totfact>
</mgrwt>
</event>
<event>
 9    1  0.4342579E-036  0.1000490E+04  0.7818608E-02  0.8680572E-01
          2   -1    0    0  501    0  0.00000000000E+00  0.00000000000E+00  0.16814494609E+04  0.16814494609E+04  0.00000000000E+00 0.  1.
         -2   -1    0    0    0  501 -0.00000000000E+00 -0.00000000000E+00 -0.14882691273E+03  0.14882691273E+03  0.00000000000E+00 0.  1.
         36    2    1    2    0    0 -0.14210854715E-13  0.00000000000E+00  0.15326225482E+04  0.18302763737E+04  0.10004897444E+04 0.  0.
         25    2    3    3    0    0  0.46266363270E+02 -0.92219472558E+02  0.46451484660E+03  0.49193740894E+03  0.12483334537E+03 0.  0.
         35    2    3    3    0    0 -0.46266363270E+02  0.92219472558E+02  0.10681077016E+04  0.13383389647E+04  0.79978254218E+03 0.  0.
         22    1    5    5    0    0  0.31201027779E+03  0.25564775323E+03  0.43926242051E+03  0.59637040608E+03  0.00000000000E+00 0. -1.
         22    1    5    5    0    0 -0.35827664106E+03 -0.16342828067E+03  0.62884528110E+03  0.74196855864E+03  0.00000000000E+00 0. -1.
          5    1    4    4  502    0  0.23836699599E+02 -0.11980082558E+03  0.30807763928E+03  0.33144282747E+03  0.47000000000E+01 0. -1.
         -5    1    4    4    0  502  0.22429663671E+02  0.27581353025E+02  0.15643720732E+03  0.16049458147E+03  0.47000000000E+01 0. -1.
<mgrwt>
<rscale>  0 0.10004897E+04</rscale>
<asrwt>0</asrwt>
<pdfrwt beam="1">  1        2 0.25868452E+00 0.10004897E+04</pdfrwt>
<pdfrwt beam="2">  1       -2 0.22896449E-01 0.10004897E+04</pdfrwt>
<totfact> 0.20049593E+02</totfact>
</mgrwt>
</event>
<event>
 9    1  0.4342579E-036  0.1001470E+04  0.7818608E-02  0.8679639E-01
         -2   -1    0    0    0  501 -0.00000000000E+00  0.00000000000E+00  0.18300139422E+04  0.18300139422E+04  0.00000000000E+00 0. -1.
          2   -1    0    0  501    0  0.00000000000E+00 -0.00000000000E+00 -0.13701303301E+03  0.13701303301E+03  0.00000000000E+00 0. -1.
         36    2    1    2    0    0 -0.14210854715E-13  0.00000000000E+00  0.16930009092E+04  0.19670269752E+04  0.10014704402E+04 0.  0.
         25    2    3    3    0    0  0.10932828454E+03 -0.65396469769E+02  0.43776016900E+03  0.47296281269E+03  0.12581925356E+03 0.  0.
         35    2    3    3    0    0 -0.10932828454E+03  0.65396469769E+02  0.12552407402E+04  0.14940641625E+04  0.80023061290E+03 0.  0.
         22    1    5    5    0    0  0.42882872802E+02  0.30530773802E+03  0.13187462641E+03  0.33532472734E+03  0.00000000000E+00 0. -1.
         22    1    5    5    0    0 -0.15221115734E+03 -0.23991126825E+03  0.11233661138E+04  0.11587394352E+04  0.00000000000E+00 0. -1.
          5    1    4    4  502    0  0.10031493213E+03 -0.96408431340E+02  0.29055149774E+03  0.32217997157E+03  0.47000000000E+01 0. -1.
         -5    1    4    4    0  502  0.90133524102E+01  0.31011961571E+02  0.14720867126E+03  0.15078284112E+03  0.47000000000E+01 0. -1.
<mgrwt>
<rscale>  0 0.10014704E+04</rscale>
<asrwt>0</asrwt>
<pdfrwt beam="1">  1        2 0.21078930E-01 0.10014704E+04</pdfrwt>
<pdfrwt beam="2">  1       -2 0.28154059E+00 0.10014704E+04</pdfrwt>
<totfact> 0.11879171E+01</totfact>
</mgrwt>
</event>
<event>
 9    1  0.4342579E-036  0.9997998E+03  0.7818608E-02  0.8681229E-01
          2   -1    0    0  501    0  0.00000000000E+00  0.00000000000E+00  0.53890741109E+03  0.53890741109E+03  0.00000000000E+00 0. -1.
         -2   -1    0    0    0  501 -0.00000000000E+00 -0.00000000000E+00 -0.46371582937E+03  0.46371582937E+03  0.00000000000E+00 0. -1.
         36    2    1    2    0    0 -0.21316282073E-13 -0.10658141036E-13  0.75191581721E+02  0.10026232405E+04  0.99979977413E+03 0.  0.
         25    2    3    3    0    0 -0.85853490046E+01 -0.10539658428E+02 -0.12724064730E+03  0.17722515410E+03  0.12261231710E+03 0.  0.
         35    2    3    3    0    0  0.85853490046E+01  0.10539658428E+02  0.20243222902E+03  0.82539808636E+03  0.80007399721E+03 0.  0.
         22    1    5    5    0    0  0.17330017162E+03  0.22430424601E+03  0.40049320240E+03  0.49065277889E+03  0.00000000000E+00 0. -1.
         22    1    5    5    0    0 -0.16471482262E+03 -0.21376458758E+03 -0.19806097338E+03  0.33474530747E+03  0.00000000000E+00 0. -1.
          5    1    4    4  502    0  0.54954151908E+02 -0.53696938479E+01 -0.36977701155E+02  0.66620063094E+02  0.47000000000E+01 0.  1.
         -5    1    4    4    0  502 -0.63539500913E+02 -0.51699645796E+01 -0.90262946144E+02  0.11060509101E+03  0.47000000000E+01 0.  1.
<mgrwt>
<rscale>  0 0.99979977E+03</rscale>
<asrwt>0</asrwt>
<pdfrwt beam="1">  1        2 0.82908833E-01 0.99979977E+03</pdfrwt>
<pdfrwt beam="2">  1       -2 0.71340897E-01 0.99979977E+03</pdfrwt>
<totfact> 0.12161203E+02</totfact>
</mgrwt>
</event>
<event>
 9    1  0.4342579E-036  0.9990508E+03  0.7818608E-02  0.8681942E-01
         -1   -1    0    0    0  501 -0.00000000000E+00  0.00000000000E+00  0.67069381652E+03  0.67069381652E+03  0.00000000000E+00 0. -1.
          1   -1    0    0  501    0  0.00000000000E+00 -0.00000000000E+00 -0.37204104592E+03  0.37204104592E+03  0.00000000000E+00 0. -1.
         36    2    1    2    0    0  0.28421709430E-13  0.14210854715E-13  0.29865277060E+03  0.10427348624E+04  0.99905080749E+03 0.  0.
         25    2    3    3    0    0 -0.34618574616E+02  0.10064239090E+03  0.14854104731E+03  0.22161833337E+03  0.12539101402E+03 0.  0.
         35    2    3    3    0    0  0.34618574616E+02 -0.10064239090E+03  0.15011172329E+03  0.82111652906E+03  0.80023214649E+03 0.  0.
         22    1    5    5    0    0 -0.26414827043E+03 -0.23020778279E+03 -0.14730344193E+03  0.38008977366E+03  0.00000000000E+00 0. -1.
         22    1    5    5    0    0  0.29876684505E+03  0.12956539189E+03  0.29741516522E+03  0.44102675540E+03  0.00000000000E+00 0. -1.
          5    1    4    4  502    0 -0.49439514457E+02  0.90231635594E+02  0.38434661154E+02  0.10993328354E+03  0.47000000000E+01 0.  1.
         -5    1    4    4    0  502  0.14820939841E+02  0.10410755307E+02  0.11010638616E+03  0.11168504983E+03  0.47000000000E+01 0.  1.
<mgrwt>
<rscale>  0 0.99905081E+03</rscale>
<asrwt>0</asrwt>
<pdfrwt beam="1">  1        1 0.57237084E-01 0.99905081E+03</pdfrwt>
<pdfrwt beam="2">  1       -1 0.10318366E+00 0.99905081E+03</pdfrwt>
<totfact> 0.70293727E+01</totfact>
</mgrwt>
</event>
<event>
 9    1  0.4342579E-036  0.1000066E+04  0.7818608E-02  0.8680975E-01
         -2   -1    0    0    0  501 -0.00000000000E+00  0.00000000000E+00  0.71832033405E+03  0.71832033405E+03  0.00000000000E+00 0.  1.
          2   -1    0    0  501    0  0.00000000000E+00 -0.00000000000E+00 -0.34808006932E+03  0.34808006932E+03  0.00000000000E+00 0.  1.
         36    2    1    2    0    0 -0.28421709430E-13 -0.28421709430E-13  0.37024026473E+03  0.10664004034E+04  0.10000659812E+04 0.  0.
         25    2    3    3    0    0  0.10695310765E+03 -0.79403193032E+02  0.11009260730E+03  0.21457757710E+03  0.12719795639E+03 0.  0.
         35    2    3    3    0    0 -0.10695310765E+03  0.79403193032E+02  0.26014765742E+03  0.85182282627E+03  0.80011342284E+03 0.  0.
         22    1    5    5    0    0  0.10506721717E+03  0.13599245024E+03  0.49882502411E+03  0.52759783104E+03  0.00000000000E+00 0. -1.
         22    1    5    5    0    0 -0.21202032482E+03 -0.56589257211E+02 -0.23867736668E+03  0.32422499523E+03  0.00000000000E+00 0. -1.
          5    1    4    4  502    0 -0.90776501503E+01 -0.66516748612E+02  0.37933458794E+02  0.77252306595E+02  0.47000000000E+01 0. -1.
         -5    1    4    4    0  502  0.11603075780E+03 -0.12886444420E+02  0.72159148510E+02  0.13732527050E+03  0.47000000000E+01 0. -1.
<mgrwt>
<rscale>  0 0.10000660E+04</rscale>
<asrwt>0</asrwt>
<pdfrwt beam="1">  1        2 0.53550780E-01 0.10000660E+04</pdfrwt>
<pdfrwt beam="2">  1       -2 0.11051082E+00 0.10000660E+04</pdfrwt>
<totfact> 0.71155355E+01</totfact>
</mgrwt>
</event>
<event>
 9    1  0.4342579E-036  0.1000233E+04  0.7818608E-02  0.8680816E-01
          2   -1    0    0  501    0  0.00000000000E+00  0.00000000000E+00  0.56327637158E+03  0.56327637158E+03  0.00000000000E+00 0.  1.
         -2   -1    0    0    0  501 -0.00000000000E+00 -0.00000000000E+00 -0.44403895217E+03  0.44403895217E+03  0.00000000000E+00 0.  1.
         36    2    1    2    0    0 -0.14210854715E-13  0.35527136788E-13  0.11923741941E+03  0.10073153237E+04  0.10002332724E+04 0.  0.
         25    2    3    3    0    0 -0.12715612119E+03 -0.20119333273E+02  0.71954190245E+02  0.19372553363E+03  0.12561333591E+03 0.  0.
         35    2    3    3    0    0  0.12715612119E+03  0.20119333273E+02  0.47283229170E+02  0.81358979011E+03  0.80194711552E+03 0.  0.
         22    1    5    5    0    0  0.20110405397E+03 -0.33716905319E+03  0.17115437325E+03  0.42827518074E+03  0.00000000000E+00 0.  1.
         22    1    5    5    0    0 -0.73947932772E+02  0.35728838646E+03 -0.12387114408E+03  0.38531460938E+03  0.00000000000E+00 0.  1.
          5    1    4    4  502    0 -0.88462165718E+02 -0.56643729693E+02  0.88891893238E+02  0.13768778290E+03  0.47000000000E+01 0. -1.
         -5    1    4    4    0  502 -0.38693955476E+02  0.36524396420E+02 -0.16937702993E+02  0.56037750730E+02  0.47000000000E+01 0. -1.
<mgrwt>
<rscale>  0 0.10002333E+04</rscale>
<asrwt>0</asrwt>
<pdfrwt beam="1">  1        2 0.86657904E-01 0.10002333E+04</pdfrwt>
<pdfrwt beam="2">  1       -2 0.68313685E-01 0.10002333E+04</pdfrwt>
<totfact> 0.12690556E+02</totfact>
</mgrwt>
</event>
<event>
 9    1  0.4342579E-036  0.9998242E+03  0.7818608E-02  0.8681205E-01
         -1   -1    0    0    0  501 -0.00000000000E+00  0.00000000000E+00  0.77331820659E+02  0.77331820659E+02  0.00000000000E+00 0. -1.
          1   -1    0    0  501    0  0.00000000000E+00 -0.00000000000E+00 -0.32316853395E+04  0.32316853395E+04  0.00000000000E+00 0. -1.
         36    2    1    2    0    0  0.00000000000E+00 -0.71054273576E-14 -0.31543535189E+04  0.33090171602E+04  0.99982420676E+03 0.  0.
         25    2    3    3    0    0 -0.12094286578E+03 -0.36109675535E+02 -0.79721955621E+03  0.81666410172E+03  0.12429862742E+03 0.  0.
         35    2    3    3    0    0  0.12094286578E+03  0.36109675535E+02 -0.23571339627E+04  0.24923530585E+04  0.79988259433E+03 0.  0.
         22    1    5    5    0    0 -0.22175200540E+03 -0.39358909521E+02 -0.19135316808E+04  0.19267398810E+04  0.00000000000E+00 0.  1.
         22    1    5    5    0    0  0.34269487118E+03  0.75468585056E+02 -0.44360228192E+03  0.56561317752E+03  0.00000000000E+00 0.  1.
          5    1    4    4  502    0 -0.93185113029E+02 -0.75752378059E+02 -0.66532650843E+03  0.67609418049E+03  0.47000000000E+01 0. -1.
         -5    1    4    4    0  502 -0.27757752750E+02  0.39642702524E+02 -0.13189304778E+03  0.14056992123E+03  0.47000000000E+01 0. -1.
<mgrwt>
<rscale>  0 0.99982421E+03</rscale>
<asrwt>0</asrwt>
<pdfrwt beam="1">  1        1 0.49718237E+00 0.99982421E+03</pdfrwt>
<pdfrwt beam="2">  1       -1 0.11897203E-01 0.99982421E+03</pdfrwt>
<totfact> 0.19654027E+01</totfact>
</mgrwt>
</event>
<event>
 9    1  0.4342579E-036  0.9971552E+03  0.7818608E-02  0.8683752E-01
          1   -1    0    0  501    0  0.00000000000E+00  0.00000000000E+00  0.21303627443E+04  0.21303627443E+04  0.00000000000E+00 0.  1.
         -1   -1    0    0    0  501 -0.00000000000E+00 -0.00000000000E+00 -0.11668417762E+03  0.11668417762E+03  0.00000000000E+00 0.  1.
         36    2    1    2    0    0  0.71054273576E-14  0.28421709430E-13  0.20136785667E+04  0.22470469219E+04  0.99715520325E+03 0.  0.
         25    2    3    3    0    0  0.35175658014E+02 -0.12373464327E+03  0.49604565177E+03  0.52755764697E+03  0.12533233171E+03 0.  0.
         35    2    3    3    0    0 -0.35175658014E+02  0.12373464327E+03  0.15176329149E+04  0.17194892749E+04  0.79805144782E+03 0.  0.
         22    1    5    5    0    0 -0.26998599670E+03 -0.24869469744E+03  0.64742340568E+03  0.74424361413E+03  0.00000000000E+00 0.  1.
         22    1    5    5    0    0  0.23481033869E+03  0.37242934071E+03  0.87020950924E+03  0.97524566082E+03  0.00000000000E+00 0.  1.
          5    1    4    4  502    0  0.60224349000E+02 -0.13604824475E+03  0.44435037645E+03  0.46862078930E+03  0.47000000000E+01 0.  1.
         -5    1    4    4    0  502 -0.25048690986E+02  0.12313601479E+02  0.51695275319E+02  0.58936857668E+02  0.47000000000E+01 0.  1.
<mgrwt>
<rscale>  0 0.99715520E+03</rscale>
<asrwt>0</asrwt>
<pdfrwt beam="1">  1        1 0.32774809E+00 0.99715520E+03</pdfrwt>
<pdfrwt beam="2">  1       -1 0.17951413E-01 0.99715520E+03</pdfrwt>
<totfact> 0.61658517E+01</totfact>
</mgrwt>
</event>
<event>
 9    1  0.4342579E-036  0.9998965E+03  0.7818608E-02  0.8681137E-01
          2   -1    0    0  501    0  0.00000000000E+00  0.00000000000E+00  0.98142663947E+03  0.98142663947E+03  0.00000000000E+00 0. -1.
         -2   -1    0    0    0  501 -0.00000000000E+00 -0.00000000000E+00 -0.25467846914E+03  0.25467846914E+03  0.00000000000E+00 0. -1.
         36    2    1    2    0    0  0.14210854715E-13  0.00000000000E+00  0.72674817033E+03  0.12361051086E+04  0.99989646286E+03 0.  0.
         25    2    3    3    0    0  0.10799799041E+03  0.90973612729E+02  0.11869851306E+03  0.22555983617E+03  0.12980037960E+03 0.  0.
         35    2    3    3    0    0 -0.10799799041E+03 -0.90973612729E+02  0.60804965727E+03  0.10105452724E+04  0.79469339861E+03 0.  0.
         22    1    5    5    0    0 -0.19794417252E+03 -0.37187402519E+03  0.11614791876E+03  0.43699259156E+03  0.00000000000E+00 0. -1.
         22    1    5    5    0    0  0.89946182109E+02  0.28090041246E+03  0.49190173851E+03  0.57355268088E+03  0.00000000000E+00 0. -1.
          5    1    4    4  502    0 -0.47572536449E+01  0.50265154303E+02 -0.77019839238E+01  0.51289645697E+02  0.47000000000E+01 0.  1.
         -5    1    4    4    0  502  0.11275524406E+03  0.40708458427E+02  0.12640049698E+03  0.17427019047E+03  0.47000000000E+01 0.  1.
<mgrwt>
<rscale>  0 0.99989646E+03</rscale>
<asrwt>0</asrwt>
<pdfrwt beam="1">  1        2 0.15098871E+00 0.99989646E+03</pdfrwt>
<pdfrwt beam="2">  1       -2 0.39181303E-01 0.99989646E+03</pdfrwt>
<totfact> 0.19278546E+02</totfact>
</mgrwt>
</event>
<event>
 9    1  0.4342579E-036  0.9996009E+03  0.7818608E-02  0.8681418E-01
          2   -1    0    0  501    0  0.00000000000E+00  0.00000000000E+00  0.17902199801E+04  0.17902199801E+04  0.00000000000E+00 0. -1.
         -2   -1    0    0    0  501 -0.00000000000E+00 -0.00000000000E+00 -0.13953619427E+03  0.13953619427E+03  0.00000000000E+00 0. -1.
         36    2    1    2    0    0  0.14210854715E-13  0.00000000000E+00  0.16506837858E+04  0.19297561744E+04  0.99960088622E+03 0.  0.
         25    2    3    3    0    0 -0.79997282035E+02  0.93728189234E+02  0.17302491235E+03  0.24494714957E+03  0.12197109166E+03 0.  0.
         35    2    3    3    0    0  0.79997282035E+02 -0.93728189234E+02  0.14776588735E+04  0.16848090248E+04  0.79995072666E+03 0.  0.
         22    1    5    5    0    0  0.10679442092E+01  0.12065665694E+03 -0.56853129566E+02  0.13338458573E+03  0.00000000000E+00 0.  1.
         22    1    5    5    0    0  0.78929337826E+02 -0.21438484618E+03  0.15345120031E+04  0.15514244391E+04  0.00000000000E+00 0.  1.
          5    1    4    4  502    0 -0.70827836437E+02  0.10138149280E+03  0.18809054767E+03  0.22515535441E+03  0.47000000000E+01 0. -1.
         -5    1    4    4    0  502 -0.91694455987E+01 -0.76533035671E+01 -0.15065635322E+02  0.19791795162E+02  0.47000000000E+01 0. -1.
<mgrwt>
<rscale>  0 0.99960089E+03</rscale>
<asrwt>0</asrwt>
<pdfrwt beam="1">  1        2 0.27541844E+00 0.99960089E+03</pdfrwt>
<pdfrwt beam="2">  1       -2 0.21467108E-01 0.99960089E+03</pdfrwt>
<totfact> 0.19489112E+02</totfact>
</mgrwt>
</event>
<event>
 9    1  0.4342579E-036  0.9990158E+03  0.7818608E-02  0.8681976E-01
         -1   -1    0    0    0  501 -0.00000000000E+00  0.00000000000E+00  0.22031938898E+03  0.22031938898E+03  0.00000000000E+00 0.  1.
          1   -1    0    0  501    0  0.00000000000E+00 -0.00000000000E+00 -0.11324837778E+04  0.11324837778E+04  0.00000000000E+00 0.  1.
         36    2    1    2    0    0  0.71054273576E-14  0.00000000000E+00 -0.91216438887E+03  0.13528031668E+04  0.99901578359E+03 0.  0.
         25    2    3    3    0    0 -0.43374753736E+02  0.94716475829E+02 -0.45481806860E+02  0.16879668902E+03  0.12478440373E+03 0.  0.
         35    2    3    3    0    0  0.43374753736E+02 -0.94716475829E+02 -0.86668258201E+03  0.11840064778E+04  0.79992503491E+03 0.  0.
         22    1    5    5    0    0 -0.79693600718E+02  0.25178131852E+03 -0.75478460923E+03  0.79965286762E+03  0.00000000000E+00 0.  1.
         22    1    5    5    0    0  0.12306835445E+03 -0.34649779435E+03 -0.11189797277E+03  0.38435361019E+03  0.00000000000E+00 0.  1.
          5    1    4    4  502    0 -0.62754233181E+02  0.16805577638E+02  0.16579634141E+02  0.67212316506E+02  0.47000000000E+01 0. -1.
         -5    1    4    4    0  502  0.19379479445E+02  0.77910898191E+02 -0.62061441001E+02  0.10158437252E+03  0.47000000000E+01 0. -1.
<mgrwt>
<rscale>  0 0.99901578E+03</rscale>
<asrwt>0</asrwt>
<pdfrwt beam="1">  1        1 0.17422827E+00 0.99901578E+03</pdfrwt>
<pdfrwt beam="2">  1       -1 0.33895291E-01 0.99901578E+03</pdfrwt>
<totfact> 0.10915251E+02</totfact>
</mgrwt>
</event>
<event>
 9    1  0.4342579E-036  0.9980694E+03  0.7818608E-02  0.8682879E-01
          2   -1    0    0  501    0  0.00000000000E+00  0.00000000000E+00  0.50878887945E+03  0.50878887945E+03  0.00000000000E+00 0. -1.
         -2   -1    0    0    0  501 -0.00000000000E+00 -0.00000000000E+00 -0.48946752541E+03  0.48946752541E+03  0.00000000000E+00 0. -1.
         36    2    1    2    0    0  0.00000000000E+00  0.14210854715E-13  0.19321354037E+02  0.99825640486E+03  0.99806940396E+03 0.  0.
         25    2    3    3    0    0  0.44097076388E+02 -0.56655357669E+02 -0.11502543591E+03  0.18452973156E+03  0.12516384952E+03 0.  0.
         35    2    3    3    0    0 -0.44097076388E+02  0.56655357669E+02  0.13434678995E+03  0.81372667329E+03  0.79934201514E+03 0.  0.
         22    1    5    5    0    0 -0.93371863721E+02 -0.35821297302E+03  0.14036107967E+03  0.39589906751E+03  0.00000000000E+00 0.  1.
         22    1    5    5    0    0  0.49274787333E+02  0.41486833069E+03 -0.60142897162E+01  0.41782760578E+03  0.00000000000E+00 0.  1.
          5    1    4    4  502    0  0.67440680828E+02  0.14162224808E+02 -0.47548628110E+02  0.83855686016E+02  0.47000000000E+01 0. -1.
         -5    1    4    4    0  502 -0.23343604440E+02 -0.70817582477E+02 -0.67476807802E+02  0.10067404555E+03  0.47000000000E+01 0. -1.
<mgrwt>
<rscale>  0 0.99806940E+03</rscale>
<asrwt>0</asrwt>
<pdfrwt beam="1">  1        2 0.78275213E-01 0.99806940E+03</pdfrwt>
<pdfrwt beam="2">  1       -2 0.75302696E-01 0.99806940E+03</pdfrwt>
<totfact> 0.11534954E+02</totfact>
</mgrwt>
</event>
<event>
 9    1  0.4342579E-036  0.1000262E+04  0.7818608E-02  0.8680789E-01
          2   -1    0    0  501    0  0.00000000000E+00  0.00000000000E+00  0.71049465222E+03  0.71049465222E+03  0.00000000000E+00 0.  1.
         -2   -1    0    0    0  501 -0.00000000000E+00 -0.00000000000E+00 -0.35205167794E+03  0.35205167794E+03  0.00000000000E+00 0.  1.
         36    2    1    2    0    0 -0.28421709430E-13  0.00000000000E+00  0.35844297428E+03  0.10625463302E+04  0.10002616347E+04 0.  0.
         25    2    3    3    0    0  0.10320071621E+03 -0.38828330001E+02  0.12771368919E+03  0.21006983214E+03  0.12514200307E+03 0.  0.
         35    2    3    3    0    0 -0.10320071621E+03  0.38828330001E+02  0.23072928509E+03  0.85247649802E+03  0.81321716020E+03 0.  0.
         22    1    5    5    0    0  0.19853530730E+03  0.25101449368E+03  0.34081675839E+03  0.46752604963E+03  0.00000000000E+00 0. -1.
         22    1    5    5    0    0 -0.30173602351E+03 -0.21218616368E+03 -0.11008747331E+03  0.38495044839E+03  0.00000000000E+00 0. -1.
          5    1    4    4  502    0 -0.23562514698E+02  0.15514869798E+02  0.18259087437E+02  0.33932102172E+02  0.47000000000E+01 0.  1.
         -5    1    4    4    0  502  0.12676323091E+03 -0.54343199799E+02  0.10945460175E+03  0.17613772997E+03  0.47000000000E+01 0.  1.
<mgrwt>
<rscale>  0 0.10002616E+04</rscale>
<asrwt>0</asrwt>
<pdfrwt beam="1">  1        2 0.10930687E+00 0.10002616E+04</pdfrwt>
<pdfrwt beam="2">  1       -2 0.54161797E-01 0.10002616E+04</pdfrwt>
<totfact> 0.15619059E+02</totfact>
</mgrwt>
</event>
<event>
 9    1  0.4342579E-036  0.1000379E+04  0.7818608E-02  0.8680677E-01
          2   -1    0    0  501    0  0.00000000000E+00  0.00000000000E+00  0.33832885765E+03  0.33832885765E+03  0.00000000000E+00 0.  1.
         -2   -1    0    0    0  501 -0.00000000000E+00 -0.00000000000E+00 -0.73948577443E+03  0.73948577443E+03  0.00000000000E+00 0.  1.
         36    2    1    2    0    0  0.00000000000E+00  0.35527136788E-14 -0.40115691678E+03  0.10778146321E+04  0.10003786829E+04 0.  0.
         25    2    3    3    0    0  0.13727665279E+03  0.13342400617E+02 -0.97502826699E+02  0.21063270459E+03  0.12584290196E+03 0.  0.
         35    2    3    3    0    0 -0.13727665279E+03 -0.13342400617E+02 -0.30365409008E+03  0.86718192749E+03  0.80048472183E+03 0.  0.
         22    1    5    5    0    0 -0.46440174224E+03 -0.70857718810E+02 -0.10919088863E+03  0.48229912365E+03  0.00000000000E+00 0.  1.
         22    1    5    5    0    0  0.32712508945E+03  0.57515318193E+02 -0.19446320145E+03  0.38488280384E+03  0.00000000000E+00 0.  1.
          5    1    4    4  502    0  0.15741073124E+03  0.16367974267E+02 -0.10317689098E+03  0.18898044799E+03  0.47000000000E+01 0.  1.
         -5    1    4    4    0  502 -0.20134078445E+02 -0.30255736498E+01  0.56740642760E+01  0.21652256606E+02  0.47000000000E+01 0.  1.
<mgrwt>
<rscale>  0 0.10003787E+04</rscale>
<asrwt>0</asrwt>
<pdfrwt beam="1">  1        2 0.52050594E-01 0.10003787E+04</pdfrwt>
<pdfrwt beam="2">  1       -2 0.11376704E+00 0.10003787E+04</pdfrwt>
<totfact> 0.68221959E+01</totfact>
</mgrwt>
</event>
<event>
 9    1  0.4342579E-036  0.1000051E+04  0.7818608E-02  0.8680989E-01
         -1   -1    0    0    0  501 -0.00000000000E+00  0.00000000000E+00  0.51218902285E+03  0.51218902285E+03  0.00000000000E+00 0.  1.
          1   -1    0    0  501    0  0.00000000000E+00 -0.00000000000E+00 -0.48815113072E+03  0.48815113072E+03  0.00000000000E+00 0.  1.
         36    2    1    2    0    0  0.14210854715E-13 -0.14210854715E-13  0.24037892133E+02  0.10003401536E+04  0.10000513000E+04 0.  0.
         25    2    3    3    0    0  0.55545256369E+02 -0.12765323366E+03  0.18937623793E+02  0.18806933770E+03  0.12502327231E+03 0.  0.
         35    2    3    3    0    0 -0.55545256369E+02  0.12765323366E+03  0.51002683402E+01  0.81227081588E+03  0.80023574153E+03 0.  0.
         22    1    5    5    0    0 -0.35917982595E+03  0.25961040330E+03  0.12449102009E+03  0.46033218761E+03  0.00000000000E+00 0.  1.
         22    1    5    5    0    0  0.30363456958E+03 -0.13195716964E+03 -0.11939075175E+03  0.35193862827E+03  0.00000000000E+00 0.  1.
          5    1    4    4  502    0 -0.24303253021E+02 -0.68343518843E+02  0.44546494290E+02  0.85252359667E+02  0.47000000000E+01 0.  1.
         -5    1    4    4    0  502  0.79848509389E+02 -0.59309714815E+02 -0.25608870497E+02  0.10281697803E+03  0.47000000000E+01 0.  1.
<mgrwt>
<rscale>  0 0.10000513E+04</rscale>
<asrwt>0</asrwt>
<pdfrwt beam="1">  1        1 0.75100174E-01 0.10000513E+04</pdfrwt>
<pdfrwt beam="2">  1       -1 0.78798311E-01 0.10000513E+04</pdfrwt>
<totfact> 0.87237699E+01</totfact>
</mgrwt>
</event>
<event>
 9    1  0.4342579E-036  0.9998853E+03  0.7818608E-02  0.8681147E-01
         -1   -1    0    0    0  501 -0.00000000000E+00  0.00000000000E+00  0.17084760650E+03  0.17084760650E+03  0.00000000000E+00 0.  1.
          1   -1    0    0  501    0  0.00000000000E+00 -0.00000000000E+00 -0.14629566257E+04  0.14629566257E+04  0.00000000000E+00 0.  1.
         36    2    1    2    0    0  0.00000000000E+00 -0.14210854715E-13 -0.12921090192E+04  0.16338042322E+04  0.99988526927E+03 0.  0.
         25    2    3    3    0    0 -0.13565978991E+03 -0.36822150926E+02 -0.25913743868E+03  0.31983208566E+03  0.12401976252E+03 0.  0.
         35    2    3    3    0    0  0.13565978991E+03  0.36822150926E+02 -0.10329715805E+04  0.13139721466E+04  0.79983314907E+03 0.  0.
         22    1    5    5    0    0 -0.27354160543E+02  0.26244778184E+03 -0.21324829542E+02  0.26472974265E+03  0.00000000000E+00 0. -1.
         22    1    5    5    0    0  0.16301395045E+03 -0.22562563091E+03 -0.10116467510E+04  0.10492424039E+04  0.00000000000E+00 0. -1.
          5    1    4    4  502    0 -0.12888685183E+03 -0.18213315336E+02 -0.26773496019E+03  0.29773754270E+03  0.47000000000E+01 0. -1.
         -5    1    4    4    0  502 -0.67729380829E+01 -0.18608835591E+02  0.85975215089E+01  0.22094542956E+02  0.47000000000E+01 0. -1.
<mgrwt>
<rscale>  0 0.99988527E+03</rscale>
<asrwt>0</asrwt>
<pdfrwt beam="1">  1        1 0.22507025E+00 0.99988527E+03</pdfrwt>
<pdfrwt beam="2">  1       -1 0.26284247E-01 0.99988527E+03</pdfrwt>
<totfact> 0.96534586E+01</totfact>
</mgrwt>
</event>
<event>
 9    1  0.4342579E-036  0.1000241E+04  0.7818608E-02  0.8680809E-01
         -1   -1    0    0    0  501 -0.00000000000E+00  0.00000000000E+00  0.95799884693E+02  0.95799884693E+02  0.00000000000E+00 0.  1.
          1   -1    0    0  501    0  0.00000000000E+00 -0.00000000000E+00 -0.26108635764E+04  0.26108635764E+04  0.00000000000E+00 0.  1.
         36    2    1    2    0    0  0.14210854715E-13 -0.14210854715E-13 -0.25150636917E+04  0.27066634611E+04  0.10002408301E+04 0.  0.
         25    2    3    3    0    0  0.11169074342E+03  0.42183078497E+02 -0.67182498343E+03  0.69377372090E+03  0.12537516969E+03 0.  0.
         35    2    3    3    0    0 -0.11169074342E+03 -0.42183078497E+02 -0.18432387083E+04  0.20128897402E+04  0.79996370930E+03 0.  0.
         22    1    5    5    0    0  0.97857094257E+01 -0.37420729928E+03 -0.50423210180E+03  0.62799432754E+03  0.00000000000E+00 0. -1.
         22    1    5    5    0    0 -0.12147645285E+03  0.33202422078E+03 -0.13390066065E+04  0.13848954126E+04  0.00000000000E+00 0. -1.
          5    1    4    4  502    0  0.77877242065E+01  0.36794633119E+01  0.27118841162E+01  0.10179951574E+02  0.47000000000E+01 0. -1.
         -5    1    4    4    0  502  0.10390301921E+03  0.38503615185E+02 -0.67453686755E+03  0.68359376933E+03  0.47000000000E+01 0. -1.
<mgrwt>
<rscale>  0 0.10002408E+04</rscale>
<asrwt>0</asrwt>
<pdfrwt beam="1">  1        1 0.40167139E+00 0.10002408E+04</pdfrwt>
<pdfrwt beam="2">  1       -1 0.14738441E-01 0.10002408E+04</pdfrwt>
<totfact> 0.39045155E+01</totfact>
</mgrwt>
</event>
<event>
 9    1  0.4342579E-036  0.1001273E+04  0.7818608E-02  0.8679827E-01
          1   -1    0    0  501    0  0.00000000000E+00  0.00000000000E+00  0.75277055592E+03  0.75277055592E+03  0.00000000000E+00 0. -1.
         -1   -1    0    0    0  501 -0.00000000000E+00 -0.00000000000E+00 -0.33295241274E+03  0.33295241274E+03  0.00000000000E+00 0. -1.
         36    2    1    2    0    0  0.00000000000E+00 -0.28421709430E-13  0.41981814319E+03  0.10857229687E+04  0.10012727357E+04 0.  0.
         25    2    3    3    0    0  0.63884867882E+02 -0.12884503699E+03  0.71047806599E+02  0.20314637044E+03  0.12465286639E+03 0.  0.
         35    2    3    3    0    0 -0.63884867882E+02  0.12884503699E+03  0.34877033659E+03  0.88257659821E+03  0.79788369085E+03 0.  0.
         22    1    5    5    0    0  0.83039335757E+02  0.44488200881E+03  0.12915707872E+03  0.47063476712E+03  0.00000000000E+00 0. -1.
         22    1    5    5    0    0 -0.14692420364E+03 -0.31603697182E+03  0.21961325787E+03  0.41194183109E+03  0.00000000000E+00 0. -1.
          5    1    4    4  502    0 -0.12589600788E+02  0.18931208352E+02  0.33828085538E+01  0.23461076092E+02  0.47000000000E+01 0. -1.
         -5    1    4    4    0  502  0.76474468670E+02 -0.14777624534E+03  0.67664998045E+02  0.17968529435E+03  0.47000000000E+01 0. -1.
<mgrwt>
<rscale>  0 0.10012727E+04</rscale>
<asrwt>0</asrwt>
<pdfrwt beam="1">  1        1 0.11581085E+00 0.10012727E+04</pdfrwt>
<pdfrwt beam="2">  1       -1 0.51223449E-01 0.10012727E+04</pdfrwt>
<totfact> 0.10677963E+02</totfact>
</mgrwt>
</event>
<event>
 9    1  0.4342579E-036  0.1000141E+04  0.7818608E-02  0.8680904E-01
          2   -1    0    0  501    0  0.00000000000E+00  0.00000000000E+00  0.37811437578E+03  0.37811437578E+03  0.00000000000E+00 0. -1.
         -2   -1    0    0    0  501 -0.00000000000E+00 -0.00000000000E+00 -0.66136172168E+03  0.66136172168E+03  0.00000000000E+00 0. -1.
         36    2    1    2    0    0  0.00000000000E+00  0.00000000000E+00 -0.28324734590E+03  0.10394760975E+04  0.10001407392E+04 0.  0.
         25    2    3    3    0    0 -0.13947606693E+03 -0.24810709037E+01 -0.71499780902E+02  0.20029637976E+03  0.12468637503E+03 0.  0.
         35    2    3    3    0    0  0.13947606693E+03  0.24810709037E+01 -0.21174756500E+03  0.83917971770E+03  0.79995364763E+03 0.  0.
         22    1    5    5    0    0  0.36669738840E+03 -0.17529846789E+03  0.95706727388E+02  0.41755994201E+03  0.00000000000E+00 0. -1.
         22    1    5    5    0    0 -0.22722132147E+03  0.17777953879E+03 -0.30745429239E+03  0.42161977569E+03  0.00000000000E+00 0. -1.
          5    1    4    4  502    0 -0.50416706757E+02  0.54213829478E+02 -0.57158330963E+02  0.93649070606E+02  0.47000000000E+01 0.  1.
         -5    1    4    4    0  502 -0.89059360176E+02 -0.56694900382E+02 -0.14341449939E+02  0.10664730916E+03  0.47000000000E+01 0.  1.
<mgrwt>
<rscale>  0 0.10001407E+04</rscale>
<asrwt>0</asrwt>
<pdfrwt beam="1">  1        2 0.58171443E-01 0.10001407E+04</pdfrwt>
<pdfrwt beam="2">  1       -2 0.10174796E+00 0.10001407E+04</pdfrwt>
<totfact> 0.79673841E+01</totfact>
</mgrwt>
</event>
<event>
 9    1  0.4342579E-036  0.9999518E+03  0.7818608E-02  0.8681084E-01
         -2   -1    0    0    0  501 -0.00000000000E+00  0.00000000000E+00  0.17876033132E+03  0.17876033132E+03  0.00000000000E+00 0. -1.
          2   -1    0    0  501    0  0.00000000000E+00 -0.00000000000E+00 -0.13983858728E+04  0.13983858728E+04  0.00000000000E+00 0. -1.
         36    2    1    2    0    0  0.00000000000E+00  0.56843418861E-13 -0.12196255415E+04  0.15771462041E+04  0.99995184272E+03 0.  0.
         25    2    3    3    0    0 -0.23853135586E+02  0.13736832121E+03 -0.25662218186E+03  0.31750698894E+03  0.12456611118E+03 0.  0.
         35    2    3    3    0    0  0.23853135586E+02 -0.13736832121E+03 -0.96300335963E+03  0.12596392152E+04  0.79992278005E+03 0.  0.
         22    1    5    5    0    0 -0.95580527263E+02  0.18646903544E+03 -0.88004996749E+03  0.90465147082E+03  0.00000000000E+00 0. -1.
         22    1    5    5    0    0  0.11943366285E+03 -0.32383735665E+03 -0.82953392135E+02  0.35498774437E+03  0.00000000000E+00 0. -1.
          5    1    4    4  502    0 -0.66827177599E+02  0.35608202730E+02 -0.11635899250E+03  0.13890759844E+03  0.47000000000E+01 0. -1.
         -5    1    4    4    0  502  0.42974042013E+02  0.10176011848E+03 -0.14026318936E+03  0.17859939051E+03  0.47000000000E+01 0. -1.
<mgrwt>
<rscale>  0 0.99995184E+03</rscale>
<asrwt>0</asrwt>
<pdfrwt beam="1">  1        2 0.21513630E+00 0.99995184E+03</pdfrwt>
<pdfrwt beam="2">  1       -2 0.27501588E-01 0.99995184E+03</pdfrwt>
<totfact> 0.20938626E+02</totfact>
</mgrwt>
</event>
<event>
 9    1  0.4342579E-036  0.9997023E+03  0.7818608E-02  0.8681321E-01
         -1   -1    0    0    0  501 -0.00000000000E+00  0.00000000000E+00  0.20542677596E+03  0.20542677596E+03  0.00000000000E+00 0.  1.
          1   -1    0    0  501    0  0.00000000000E+00 -0.00000000000E+00 -0.12162542643E+04  0.12162542643E+04  0.00000000000E+00 0.  1.
         36    2    1    2    0    0  0.00000000000E+00  0.28421709430E-13 -0.10108274883E+04  0.14216810402E+04  0.99970234022E+03 0.  0.
         25    2    3    3    0    0  0.99642122090E+02 -0.78449486079E+02 -0.10687923133E+03  0.20764816130E+03  0.12494684646E+03 0.  0.
         35    2    3    3    0    0 -0.99642122090E+02  0.78449486079E+02 -0.90394825697E+03  0.12140328789E+04  0.80041895623E+03 0.  0.
         22    1    5    5    0    0  0.10409806239E+03  0.23817701773E+03  0.13967792009E+02  0.26030712165E+03  0.00000000000E+00 0. -1.
         22    1    5    5    0    0 -0.20374018448E+03 -0.15972753165E+03 -0.91791604898E+03  0.95372575728E+03  0.00000000000E+00 0. -1.
          5    1    4    4  502    0  0.38912931953E+02 -0.40896496959E+02 -0.12200160498E+03  0.13451104547E+03  0.47000000000E+01 0.  1.
         -5    1    4    4    0  502  0.60729190137E+02 -0.37552989120E+02  0.15122373648E+02  0.73137115826E+02  0.47000000000E+01 0.  1.
<mgrwt>
<rscale>  0 0.99970234E+03</rscale>
<asrwt>0</asrwt>
<pdfrwt beam="1">  1        1 0.18711604E+00 0.99970234E+03</pdfrwt>
<pdfrwt beam="2">  1       -1 0.31604119E-01 0.99970234E+03</pdfrwt>
<totfact> 0.10655800E+02</totfact>
</mgrwt>
</event>
<event>
 9    1  0.4342579E-036  0.9998996E+03  0.7818608E-02  0.8681134E-01
          2   -1    0    0  501    0  0.00000000000E+00  0.00000000000E+00  0.31097468114E+04  0.31097468114E+04  0.00000000000E+00 0.  1.
         -2   -1    0    0    0  501 -0.00000000000E+00 -0.00000000000E+00 -0.80376250304E+02  0.80376250304E+02  0.00000000000E+00 0.  1.
         36    2    1    2    0    0 -0.71054273576E-14 -0.14210854715E-13  0.30293705611E+04  0.31901230617E+04  0.99989957115E+03 0.  0.
         25    2    3    3    0    0  0.52378332710E+02  0.70911431927E+02  0.22014160065E+03  0.26796397538E+03  0.12478159659E+03 0.  0.
         35    2    3    3    0    0 -0.52378332710E+02 -0.70911431927E+02  0.28092289605E+04  0.29221590864E+04  0.79967146547E+03 0.  0.
         22    1    5    5    0    0  0.20857540184E+03 -0.17769432645E+03  0.33899617970E+03  0.43588689101E+03  0.00000000000E+00 0. -1.
         22    1    5    5    0    0 -0.26095373455E+03  0.10678289452E+03  0.24702327808E+04  0.24862721954E+04  0.00000000000E+00 0. -1.
          5    1    4    4  502    0  0.81334046667E+02  0.80566916068E+02  0.20175997761E+03  0.23202464023E+03  0.47000000000E+01 0.  1.
         -5    1    4    4    0  502 -0.28955713957E+02 -0.96554841415E+01  0.18381623046E+02  0.35939335144E+02  0.47000000000E+01 0.  1.
<mgrwt>
<rscale>  0 0.99989957E+03</rscale>
<asrwt>0</asrwt>
<pdfrwt beam="1">  1        2 0.47842249E+00 0.99989957E+03</pdfrwt>
<pdfrwt beam="2">  1       -2 0.12365579E-01 0.99989957E+03</pdfrwt>
<totfact> 0.77773793E+01</totfact>
</mgrwt>
</event>
<event>
 9    1  0.4342579E-036  0.9996275E+03  0.7818608E-02  0.8681393E-01
         -1   -1    0    0    0  501 -0.00000000000E+00  0.00000000000E+00  0.47856660111E+03  0.47856660111E+03  0.00000000000E+00 0. -1.
          1   -1    0    0  501    0  0.00000000000E+00 -0.00000000000E+00 -0.52200424039E+03  0.52200424039E+03  0.00000000000E+00 0. -1.
         36    2    1    2    0    0  0.28421709430E-13 -0.14210854715E-13 -0.43437639273E+02  0.10005708415E+04  0.99962752081E+03 0.  0.
         25    2    3    3    0    0  0.88100184490E+02 -0.96923334245E+02  0.39269606810E+02  0.18509353599E+03  0.12474670263E+03 0.  0.
         35    2    3    3    0    0 -0.88100184490E+02  0.96923334245E+02 -0.82707246083E+02  0.81547730551E+03  0.80062911015E+03 0.  0.
         22    1    5    5    0    0  0.26375599391E+03  0.94361909131E+02  0.21614806684E+03  0.35382394071E+03  0.00000000000E+00 0.  1.
         22    1    5    5    0    0 -0.35185617840E+03  0.25614251145E+01 -0.29885531292E+03  0.46165336481E+03  0.00000000000E+00 0.  1.
          5    1    4    4  502    0  0.99623637969E+02 -0.72623513907E+02  0.71704618566E+02  0.14269788484E+03  0.47000000000E+01 0.  1.
         -5    1    4    4    0  502 -0.11523453479E+02 -0.24299820338E+02 -0.32435011756E+02  0.42395651147E+02  0.47000000000E+01 0.  1.
<mgrwt>
<rscale>  0 0.99962752E+03</rscale>
<asrwt>0</asrwt>
<pdfrwt beam="1">  1        1 0.80308345E-01 0.99962752E+03</pdfrwt>
<pdfrwt beam="2">  1       -1 0.73625631E-01 0.99962752E+03</pdfrwt>
<totfact> 0.91295769E+01</totfact>
</mgrwt>
</event>
<event>
 9    1  0.4342579E-036  0.9992480E+03  0.7818608E-02  0.8681754E-01
         -2   -1    0    0    0  501 -0.00000000000E+00  0.00000000000E+00  0.12351575015E+03  0.12351575015E+03  0.00000000000E+00 0. -1.
          2   -1    0    0  501    0  0.00000000000E+00 -0.00000000000E+00 -0.20209903234E+04  0.20209903234E+04  0.00000000000E+00 0. -1.
         36    2    1    2    0    0  0.10658141036E-13 -0.14210854715E-13 -0.18974745732E+04  0.21445060736E+04  0.99924798893E+03 0.  0.
         25    2    3    3    0    0  0.23833529890E+02  0.82474794877E+02 -0.60769908176E+03  0.62626561493E+03  0.12466080993E+03 0.  0.
         35    2    3    3    0    0 -0.23833529890E+02 -0.82474794877E+02 -0.12897754915E+04  0.15182404586E+04  0.79634360851E+03 0.  0.
         22    1    5    5    0    0 -0.90528148484E+02 -0.29572132747E+03 -0.12722539068E+03  0.33441403861E+03  0.00000000000E+00 0.  1.
         22    1    5    5    0    0  0.66694618594E+02  0.21324653259E+03 -0.11625501008E+04  0.11838264200E+04  0.00000000000E+00 0.  1.
          5    1    4    4  502    0 -0.13598920924E+02 -0.12184029127E+02 -0.32869975239E+03  0.32924003164E+03  0.47000000000E+01 0. -1.
         -5    1    4    4    0  502  0.37432450814E+02  0.94658824004E+02 -0.27899932938E+03  0.29702558329E+03  0.47000000000E+01 0. -1.
<mgrwt>
<rscale>  0 0.99924799E+03</rscale>
<asrwt>0</asrwt>
<pdfrwt beam="1">  1        2 0.31092159E+00 0.99924799E+03</pdfrwt>
<pdfrwt beam="2">  1       -2 0.19002423E-01 0.99924799E+03</pdfrwt>
<totfact> 0.17812523E+02</totfact>
</mgrwt>
</event>
<event>
 9    1  0.4342579E-036  0.9986909E+03  0.7818608E-02  0.8682286E-01
          2   -1    0    0  501    0  0.00000000000E+00  0.00000000000E+00  0.13014927516E+04  0.13014927516E+04  0.00000000000E+00 0.  1.
         -2   -1    0    0    0  501 -0.00000000000E+00 -0.00000000000E+00 -0.19158453094E+03  0.19158453094E+03  0.00000000000E+00 0.  1.
         36    2    1    2    0    0  0.00000000000E+00  0.14210854715E-13  0.11099082207E+04  0.14930772825E+04  0.99869089979E+03 0.  0.
         25    2    3    3    0    0 -0.92149183327E+02  0.81417975097E+02  0.11299496296E+03  0.20925317557E+03  0.12608993289E+03 0.  0.
         35    2    3    3    0    0  0.92149183327E+02 -0.81417975097E+02  0.99691325771E+03  0.12838241070E+04  0.79952982157E+03 0.  0.
         22    1    5    5    0    0  0.13006114292E+03 -0.20038252658E+03  0.10976804545E+04  0.11233750211E+04  0.00000000000E+00 0. -1.
         22    1    5    5    0    0 -0.37911959589E+02  0.11896455148E+03 -0.10076719682E+03  0.16044908583E+03  0.00000000000E+00 0. -1.
          5    1    4    4  502    0 -0.96399051688E+02  0.10439201494E+03  0.11816585247E+03  0.18486678620E+03  0.47000000000E+01 0.  1.
         -5    1    4    4    0  502  0.42498683613E+01 -0.22974039847E+02 -0.51708895150E+01  0.24386389367E+02  0.47000000000E+01 0.  1.
<mgrwt>
<rscale>  0 0.99869090E+03</rscale>
<asrwt>0</asrwt>
<pdfrwt beam="1">  1        2 0.20022965E+00 0.99869090E+03</pdfrwt>
<pdfrwt beam="2">  1       -2 0.29474544E-01 0.99869090E+03</pdfrwt>
<totfact> 0.21002987E+02</totfact>
</mgrwt>
</event>
<event>
 9    1  0.4342579E-036  0.1000325E+04  0.7818608E-02  0.8680729E-01
          2   -1    0    0  501    0  0.00000000000E+00  0.00000000000E+00  0.72038475979E+03  0.72038475979E+03  0.00000000000E+00 0. -1.
         -2   -1    0    0    0  501 -0.00000000000E+00 -0.00000000000E+00 -0.34726223285E+03  0.34726223285E+03  0.00000000000E+00 0. -1.
         36    2    1    2    0    0  0.00000000000E+00 -0.35527136788E-14  0.37312252693E+03  0.10676469926E+04  0.10003247877E+04 0.  0.
         25    2    3    3    0    0  0.13418427981E+03  0.73065067328E+01  0.91075241191E+01  0.17858059451E+03  0.11725730575E+03 0.  0.
         35    2    3    3    0    0 -0.13418427981E+03 -0.73065067328E+01  0.36401500281E+03  0.88906639813E+03  0.79992082859E+03 0.  0.
         22    1    5    5    0    0 -0.10306197080E+03 -0.38002671977E+02  0.61985811309E+03  0.62951572917E+03  0.00000000000E+00 0. -1.
         22    1    5    5    0    0 -0.31122309011E+02  0.30696165244E+02 -0.25584311028E+03  0.25955066896E+03  0.00000000000E+00 0. -1.
          5    1    4    4  502    0  0.30492703124E+02 -0.14728896143E+02  0.53554352475E+02  0.63536635057E+02  0.47000000000E+01 0. -1.
         -5    1    4    4    0  502  0.10369157669E+03  0.22035402876E+02 -0.44446828356E+02  0.11504395945E+03  0.47000000000E+01 0. -1.
<mgrwt>
<rscale>  0 0.10003248E+04</rscale>
<asrwt>0</asrwt>
<pdfrwt beam="1">  1        2 0.11082842E+00 0.10003248E+04</pdfrwt>
<pdfrwt beam="2">  1       -2 0.53424959E-01 0.10003248E+04</pdfrwt>
<totfact> 0.15788079E+02</totfact>
</mgrwt>
</event>
<event>
 9    1  0.4342579E-036  0.9996962E+03  0.7818608E-02  0.8681327E-01
          2   -1    0    0  501    0  0.00000000000E+00  0.00000000000E+00  0.77508160126E+03  0.77508160126E+03  0.00000000000E+00 0. -1.
         -2   -1    0    0    0  501 -0.00000000000E+00 -0.00000000000E+00 -0.32235075229E+03  0.32235075229E+03  0.00000000000E+00 0. -1.
         36    2    1    2    0    0 -0.21316282073E-13  0.00000000000E+00  0.45273084897E+03  0.10974323536E+04  0.99969622838E+03 0.  0.
         25    2    3    3    0    0 -0.40588801413E+02  0.13174957960E+03  0.10637952947E+03  0.21426092353E+03  0.12484284737E+03 0.  0.
         35    2    3    3    0    0  0.40588801413E+02 -0.13174957960E+03  0.34635131950E+03  0.88317143003E+03  0.80064170249E+03 0.  0.
         22    1    5    5    0    0  0.38093031520E+03 -0.14885644581E+03  0.17123287972E+02  0.40934014400E+03  0.00000000000E+00 0.  1.
         22    1    5    5    0    0 -0.34034151378E+03  0.17106866213E+02  0.32922803153E+03  0.47383128603E+03  0.00000000000E+00 0.  1.
          5    1    4    4  502    0 -0.17599484345E+02  0.10083778649E+03  0.13248527828E+03  0.16748862647E+03  0.47000000000E+01 0. -1.
         -5    1    4    4    0  502 -0.22989317068E+02  0.30911793105E+02 -0.26105748809E+02  0.46772297069E+02  0.47000000000E+01 0. -1.
<mgrwt>
<rscale>  0 0.99969623E+03</rscale>
<asrwt>0</asrwt>
<pdfrwt beam="1">  1        2 0.11924332E+00 0.99969623E+03</pdfrwt>
<pdfrwt beam="2">  1       -2 0.49592424E-01 0.99969623E+03</pdfrwt>
<totfact> 0.16729976E+02</totfact>
</mgrwt>
</event>
<event>
 9    1  0.4342579E-036  0.9996802E+03  0.7818608E-02  0.8681343E-01
         -1   -1    0    0    0  501 -0.00000000000E+00  0.00000000000E+00  0.29830420572E+03  0.29830420572E+03  0.00000000000E+00 0. -1.
          1   -1    0    0  501    0  0.00000000000E+00 -0.00000000000E+00 -0.83753463347E+03  0.83753463347E+03  0.00000000000E+00 0. -1.
         36    2    1    2    0    0  0.11102230246E-13  0.00000000000E+00 -0.53923042774E+03  0.11358388392E+04  0.99968015605E+03 0.  0.
         25    2    3    3    0    0 -0.20984517373E+01 -0.10240280609E+03  0.82524364676E+01  0.16108629307E+03  0.12405624899E+03 0.  0.
         35    2    3    3    0    0  0.20984517373E+01  0.10240280609E+03 -0.54748286421E+03  0.97475254612E+03  0.79994643656E+03 0.  0.
         22    1    5    5    0    0 -0.30562650312E+03  0.22183133468E+03 -0.54635811521E+02  0.38157800298E+03  0.00000000000E+00 0.  1.
         22    1    5    5    0    0  0.30772495486E+03 -0.11942852859E+03 -0.49284705269E+03  0.59317454314E+03  0.00000000000E+00 0.  1.
          5    1    4    4  502    0 -0.40397439752E+01 -0.49609977695E+02 -0.57769598085E+02  0.76399514928E+02  0.47000000000E+01 0.  1.
         -5    1    4    4    0  502  0.19412922379E+01 -0.52792828398E+02  0.66022034553E+02  0.84686778144E+02  0.47000000000E+01 0.  1.
<mgrwt>
<rscale>  0 0.99968016E+03</rscale>
<asrwt>0</asrwt>
<pdfrwt beam="1">  1        1 0.12885148E+00 0.99968016E+03</pdfrwt>
<pdfrwt beam="2">  1       -1 0.45892955E-01 0.99968016E+03</pdfrwt>
<totfact> 0.10993027E+02</totfact>
</mgrwt>
</event>
<event>
 9    1  0.4342579E-036  0.1000797E+04  0.7818608E-02  0.8680279E-01
         -1   -1    0    0    0  501 -0.00000000000E+00  0.00000000000E+00  0.57395379208E+03  0.57395379208E+03  0.00000000000E+00 0. -1.
          1   -1    0    0  501    0  0.00000000000E+00 -0.00000000000E+00 -0.43627000488E+03  0.43627000488E+03  0.00000000000E+00 0. -1.
         36    2    1    2    0    0  0.00000000000E+00 -0.71054273576E-14  0.13768378719E+03  0.10102237970E+04  0.10007973295E+04 0.  0.
         25    2    3    3    0    0  0.43874678572E+02 -0.26396161416E+02  0.15690745540E+03  0.20859627406E+03  0.12755669812E+03 0.  0.
         35    2    3    3    0    0 -0.43874678572E+02  0.26396161416E+02 -0.19223668207E+02  0.80162752290E+03  0.79975958343E+03 0.  0.
         22    1    5    5    0    0 -0.22561006199E+03  0.19600919839E+03  0.28211546753E+03  0.41098496681E+03  0.00000000000E+00 0. -1.
         22    1    5    5    0    0  0.18173538342E+03 -0.16961303697E+03 -0.30133913574E+03  0.39064255609E+03  0.00000000000E+00 0. -1.
          5    1    4    4  502    0 -0.79157888607E+01  0.43800739078E+02  0.27730738321E+02  0.52652144352E+02  0.47000000000E+01 0. -1.
         -5    1    4    4    0  502  0.51790467433E+02 -0.70196900493E+02  0.12917671708E+03  0.15594412971E+03  0.47000000000E+01 0. -1.
<mgrwt>
<rscale>  0 0.10007973E+04</rscale>
<asrwt>0</asrwt>
<pdfrwt beam="1">  1        1 0.67118462E-01 0.10007973E+04</pdfrwt>
<pdfrwt beam="2">  1       -1 0.88300584E-01 0.10007973E+04</pdfrwt>
<totfact> 0.79955892E+01</totfact>
</mgrwt>
</event>
<event>
 9    1  0.4342579E-036  0.9976021E+03  0.7818608E-02  0.8683325E-01
         -1   -1    0    0    0  501 -0.00000000000E+00  0.00000000000E+00  0.31634955934E+03  0.31634955934E+03  0.00000000000E+00 0. -1.
          1   -1    0    0  501    0  0.00000000000E+00 -0.00000000000E+00 -0.78647962895E+03  0.78647962895E+03  0.00000000000E+00 0. -1.
         36    2    1    2    0    0  0.71054273576E-14  0.00000000000E+00 -0.47013006961E+03  0.11028291883E+04  0.99760209312E+03 0.  0.
         25    2    3    3    0    0  0.16819287834E+02 -0.13187455786E+03 -0.91408230067E+02  0.20785518871E+03  0.13105162148E+03 0.  0.
         35    2    3    3    0    0 -0.16819287834E+02  0.13187455786E+03 -0.37872183955E+03  0.89497399959E+03  0.79992152161E+03 0.  0.
         22    1    5    5    0    0  0.17238200422E+03  0.82906967132E+02 -0.58221448992E+03  0.61283181449E+03  0.00000000000E+00 0. -1.
         22    1    5    5    0    0 -0.18920129206E+03  0.48967590729E+02  0.20349265037E+03  0.28214218510E+03  0.00000000000E+00 0. -1.
          5    1    4    4  502    0 -0.43593933657E+02 -0.80058297866E+02 -0.66963083351E+01  0.91524273580E+02  0.47000000000E+01 0.  1.
         -5    1    4    4    0  502  0.60413221491E+02 -0.51816259995E+02 -0.84711921732E+02  0.11633091513E+03  0.47000000000E+01 0.  1.
<mgrwt>
<rscale>  0 0.99760209E+03</rscale>
<asrwt>0</asrwt>
<pdfrwt beam="1">  1        1 0.12099687E+00 0.99760209E+03</pdfrwt>
<pdfrwt beam="2">  1       -1 0.48669163E-01 0.99760209E+03</pdfrwt>
<totfact> 0.10946786E+02</totfact>
</mgrwt>
</event>
<event>
 9    1  0.4342579E-036  0.9994075E+03  0.7818608E-02  0.8681602E-01
         -2   -1    0    0    0  501 -0.00000000000E+00  0.00000000000E+00  0.16713103068E+03  0.16713103068E+03  0.00000000000E+00 0.  1.
          2   -1    0    0  501    0  0.00000000000E+00 -0.00000000000E+00 -0.14940601574E+04  0.14940601574E+04  0.00000000000E+00 0.  1.
         36    2    1    2    0    0  0.00000000000E+00 -0.28421709430E-13 -0.13269291267E+04  0.16611911880E+04  0.99940745244E+03 0.  0.
         25    2    3    3    0    0 -0.11828322520E+03 -0.74165960967E+02 -0.26518534751E+03  0.32491607537E+03  0.12552161715E+03 0.  0.
         35    2    3    3    0    0  0.11828322520E+03  0.74165960967E+02 -0.10617437792E+04  0.13362751127E+04  0.79927455421E+03 0.  0.
         22    1    5    5    0    0  0.19018911607E+03  0.87277950866E+02  0.55618895893E+02  0.21652436851E+03  0.00000000000E+00 0. -1.
         22    1    5    5    0    0 -0.71905890874E+02 -0.13111989899E+02 -0.11173626751E+04  0.11197507442E+04  0.00000000000E+00 0. -1.
          5    1    4    4  502    0 -0.30745085290E+02 -0.90263861188E+02 -0.10742438468E+03  0.14371817327E+03  0.47000000000E+01 0. -1.
         -5    1    4    4    0  502 -0.87538139907E+02  0.16097900221E+02 -0.15776096284E+03  0.18119790210E+03  0.47000000000E+01 0. -1.
<mgrwt>
<rscale>  0 0.99940745E+03</rscale>
<asrwt>0</asrwt>
<pdfrwt beam="1">  1        2 0.22985542E+00 0.99940745E+03</pdfrwt>
<pdfrwt beam="2">  1       -2 0.25712465E-01 0.99940745E+03</pdfrwt>
<totfact> 0.20836025E+02</totfact>
</mgrwt>
</event>
<event>
 9    1  0.4342579E-036  0.9997670E+03  0.7818608E-02  0.8681260E-01
         -2   -1    0    0    0  501 -0.00000000000E+00  0.00000000000E+00  0.26315905920E+03  0.26315905920E+03  0.00000000000E+00 0. -1.
          2   -1    0    0  501    0  0.00000000000E+00 -0.00000000000E+00 -0.94955306305E+03  0.94955306305E+03  0.00000000000E+00 0. -1.
         36    2    1    2    0    0 -0.71054273576E-14  0.00000000000E+00 -0.68639400385E+03  0.12127121223E+04  0.99976695431E+03 0.  0.
         25    2    3    3    0    0 -0.17521452008E+01 -0.13669153642E+03 -0.16321797777E+03  0.24723482942E+03  0.12568733615E+03 0.  0.
         35    2    3    3    0    0  0.17521452008E+01  0.13669153642E+03 -0.52317602607E+03  0.96547729283E+03  0.79984098581E+03 0.  0.
         22    1    5    5    0    0  0.33785810729E+03  0.17986139054E+03 -0.53730050247E+02  0.38650373707E+03  0.00000000000E+00 0.  1.
         22    1    5    5    0    0 -0.33610596209E+03 -0.43169854118E+02 -0.46944597583E+03  0.57897355577E+03  0.00000000000E+00 0.  1.
          5    1    4    4  502    0  0.40647784771E+02 -0.91314709232E+02 -0.15488855184E+03  0.18439949029E+03  0.47000000000E+01 0.  1.
         -5    1    4    4    0  502 -0.42399929971E+02 -0.45376827185E+02 -0.83294259368E+01  0.62835339129E+02  0.47000000000E+01 0.  1.
<mgrwt>
<rscale>  0 0.99976695E+03</rscale>
<asrwt>0</asrwt>
<pdfrwt beam="1">  1        2 0.14608509E+00 0.99976695E+03</pdfrwt>
<pdfrwt beam="2">  1       -2 0.40486009E-01 0.99976695E+03</pdfrwt>
<totfact> 0.18975395E+02</totfact>
</mgrwt>
</event>
<event>
 9    1  0.4342579E-036  0.9995051E+03  0.7818608E-02  0.8681509E-01
         -2   -1    0    0    0  501 -0.00000000000E+00  0.00000000000E+00  0.50899800071E+03  0.50899800071E+03  0.00000000000E+00 0. -1.
          2   -1    0    0  501    0  0.00000000000E+00 -0.00000000000E+00 -0.49067504781E+03  0.49067504781E+03  0.00000000000E+00 0. -1.
         36    2    1    2    0    0  0.00000000000E+00  0.28421709430E-13  0.18322952902E+02  0.99967304852E+03  0.99950511422E+03 0.  0.
         25    2    3    3    0    0  0.53457173384E+02 -0.99265288824E+02 -0.80315508093E+02  0.18682373119E+03  0.12546417315E+03 0.  0.
         35    2    3    3    0    0 -0.53457173384E+02  0.99265288824E+02  0.98638460995E+02  0.81284931733E+03  0.79892627930E+03 0.  0.
         22    1    5    5    0    0 -0.18983601883E+02 -0.31910563081E+03  0.20505195201E+03  0.37978294298E+03  0.00000000000E+00 0. -1.
         22    1    5    5    0    0 -0.34473571502E+02  0.41837091963E+03 -0.10641349101E+03  0.43306637436E+03  0.00000000000E+00 0. -1.
          5    1    4    4  502    0 -0.33757387852E+01  0.16743907958E+02  0.17359636236E+02  0.24803246487E+02  0.47000000000E+01 0. -1.
         -5    1    4    4    0  502  0.56832912170E+02 -0.11600919678E+03 -0.97675144330E+02  0.16202048470E+03  0.47000000000E+01 0. -1.
<mgrwt>
<rscale>  0 0.99950511E+03</rscale>
<asrwt>0</asrwt>
<pdfrwt beam="1">  1        2 0.75488469E-01 0.99950511E+03</pdfrwt>
<pdfrwt beam="2">  1       -2 0.78307385E-01 0.99950511E+03</pdfrwt>
<totfact> 0.11010292E+02</totfact>
</mgrwt>
</event>
<event>
 9    1  0.4342579E-036  0.9996773E+03  0.7818608E-02  0.8681345E-01
         -2   -1    0    0    0  501 -0.00000000000E+00  0.00000000000E+00  0.14888577135E+04  0.14888577135E+04  0.00000000000E+00 0.  1.
          2   -1    0    0  501    0  0.00000000000E+00 -0.00000000000E+00 -0.16780560487E+03  0.16780560487E+03  0.00000000000E+00 0.  1.
         36    2    1    2    0    0 -0.14210854715E-13  0.00000000000E+00  0.13210521086E+04  0.16566633184E+04  0.99967728630E+03 0.  0.
         25    2    3    3    0    0 -0.36568914957E+02  0.12112929187E+03  0.15681386208E+03  0.23911928130E+03  0.12875500944E+03 0.  0.
         35    2    3    3    0    0  0.36568914957E+02 -0.12112929187E+03  0.11642382465E+04  0.14175440371E+04  0.79873075029E+03 0.  0.
         22    1    5    5    0    0  0.17034653861E+03  0.10973029380E+03  0.11305978730E+04  0.11486123067E+04  0.00000000000E+00 0.  1.
         22    1    5    5    0    0 -0.13377762366E+03 -0.23085958567E+03  0.33640373539E+02  0.26893173041E+03  0.00000000000E+00 0.  1.
          5    1    4    4  502    0 -0.63711642425E+02  0.90131572956E+02  0.16328642177E+03  0.19714821673E+03  0.47000000000E+01 0. -1.
         -5    1    4    4    0  502  0.27142727468E+02  0.30997718914E+02 -0.64725596873E+01  0.41971064570E+02  0.47000000000E+01 0. -1.
<mgrwt>
<rscale>  0 0.99967729E+03</rscale>
<asrwt>0</asrwt>
<pdfrwt beam="1">  1        2 0.25816248E-01 0.99967729E+03</pdfrwt>
<pdfrwt beam="2">  1       -2 0.22905502E+00 0.99967729E+03</pdfrwt>
<totfact> 0.19702004E+01</totfact>
</mgrwt>
</event>
<event>
 9    1  0.4342579E-036  0.9996695E+03  0.7818608E-02  0.8681353E-01
          4   -1    0    0  501    0  0.00000000000E+00  0.00000000000E+00  0.42053600283E+03  0.42053600283E+03  0.00000000000E+00 0.  1.
         -4   -1    0    0    0  501 -0.00000000000E+00 -0.00000000000E+00 -0.59408652496E+03  0.59408652496E+03  0.00000000000E+00 0.  1.
         36    2    1    2    0    0  0.00000000000E+00  0.88817841970E-14 -0.17355052213E+03  0.10146225278E+04  0.99966949047E+03 0.  0.
         25    2    3    3    0    0  0.72335145194E+02 -0.53764823483E+01 -0.15460037970E+03  0.21119295431E+03  0.12425742134E+03 0.  0.
         35    2    3    3    0    0 -0.72335145194E+02  0.53764823483E+01 -0.18950142436E+02  0.80342957348E+03  0.79992417882E+03 0.  0.
         22    1    5    5    0    0  0.17361704748E+03  0.31101963248E+03  0.13647896519E+03  0.38144802910E+03  0.00000000000E+00 0. -1.
         22    1    5    5    0    0 -0.24595219267E+03 -0.30564315013E+03 -0.15542910763E+03  0.42198154438E+03  0.00000000000E+00 0. -1.
          5    1    4    4  502    0 -0.91353504557E+01 -0.19640628783E+02  0.11946630371E+02  0.25179771726E+02  0.47000000000E+01 0.  1.
         -5    1    4    4    0  502  0.81470495649E+02  0.14264146435E+02 -0.16654701007E+03  0.18601318259E+03  0.47000000000E+01 0.  1.
<mgrwt>
<rscale>  0 0.99966949E+03</rscale>
<asrwt>0</asrwt>
<pdfrwt beam="1">  1        4 0.64697847E-01 0.99966949E+03</pdfrwt>
<pdfrwt beam="2">  1       -4 0.91397926E-01 0.99966949E+03</pdfrwt>
<totfact> 0.51629358E+00</totfact>
</mgrwt>
</event>
<event>
 9    1  0.4342579E-036  0.1000465E+04  0.7818608E-02  0.8680595E-01
         -2   -1    0    0    0  501 -0.00000000000E+00  0.00000000000E+00  0.12624968703E+03  0.12624968703E+03  0.00000000000E+00 0. -1.
          2   -1    0    0  501    0  0.00000000000E+00 -0.00000000000E+00 -0.19820458445E+04  0.19820458445E+04  0.00000000000E+00 0. -1.
         36    2    1    2    0    0  0.00000000000E+00  0.21316282073E-13 -0.18557961575E+04  0.21082955315E+04  0.10004652269E+04 0.  0.
         25    2    3    3    0    0  0.14009387567E+03 -0.18012762942E+02 -0.39755544720E+03  0.44019652423E+03  0.12558619638E+03 0.  0.
         35    2    3    3    0    0 -0.14009387567E+03  0.18012762942E+02 -0.14582407103E+04  0.16680990073E+04  0.79758233145E+03 0.  0.
         22    1    5    5    0    0 -0.15806858880E+03  0.39765052884E+03 -0.83076915635E+03  0.93449933814E+03  0.00000000000E+00 0. -1.
         22    1    5    5    0    0  0.17974713132E+02 -0.37963776590E+03 -0.62747155393E+03  0.73359966916E+03  0.00000000000E+00 0. -1.
          5    1    4    4  502    0  0.20585960322E+02 -0.26239431414E+02 -0.23930806670E+03  0.24166656846E+03  0.47000000000E+01 0.  1.
         -5    1    4    4    0  502  0.11950791535E+03  0.82266684723E+01 -0.15824738050E+03  0.19852995577E+03  0.47000000000E+01 0.  1.
<mgrwt>
<rscale>  0 0.10004652E+04</rscale>
<asrwt>0</asrwt>
<pdfrwt beam="1">  1        2 0.30493012E+00 0.10004652E+04</pdfrwt>
<pdfrwt beam="2">  1       -2 0.19423029E-01 0.10004652E+04</pdfrwt>
<totfact> 0.18052635E+02</totfact>
</mgrwt>
</event>
<event>
 9    1  0.4342579E-036  0.1011842E+04  0.7818608E-02  0.8669842E-01
          2   -1    0    0  501    0  0.00000000000E+00  0.00000000000E+00  0.18732146960E+04  0.18732146960E+04  0.00000000000E+00 0.  1.
         -2   -1    0    0    0  501 -0.00000000000E+00 -0.00000000000E+00 -0.13663989964E+03  0.13663989964E+03  0.00000000000E+00 0.  1.
         36    2    1    2    0    0  0.14210854715E-13 -0.56843418861E-13  0.17365747964E+04  0.20098545957E+04  0.10118416241E+04 0.  0.
         25    2    3    3    0    0  0.92772557432E+02 -0.11455086297E+03  0.26731064894E+03  0.32977825753E+03  0.12478008048E+03 0.  0.
         35    2    3    3    0    0 -0.92772557432E+02  0.11455086297E+03  0.14692641475E+04  0.16800763381E+04  0.80136802991E+03 0.  0.
         22    1    5    5    0    0 -0.15062969041E+03 -0.33189955670E+03  0.64148774057E+03  0.73780291452E+03  0.00000000000E+00 0. -1.
         22    1    5    5    0    0  0.57857132981E+02  0.44645041967E+03  0.82777640689E+03  0.94227342362E+03  0.00000000000E+00 0. -1.
          5    1    4    4  502    0 -0.23689450342E+02 -0.22595880376E+02  0.13473112717E+02  0.35712443682E+02  0.47000000000E+01 0.  1.
         -5    1    4    4    0  502  0.11646200777E+03 -0.91954982589E+02  0.25383753622E+03  0.29406581384E+03  0.47000000000E+01 0.  1.
<mgrwt>
<rscale>  0 0.10118416E+04</rscale>
<asrwt>0</asrwt>
<pdfrwt beam="1">  1        2 0.28818686E+00 0.10118416E+04</pdfrwt>
<pdfrwt beam="2">  1       -2 0.21021524E-01 0.10118416E+04</pdfrwt>
<totfact> 0.18145865E+02</totfact>
</mgrwt>
</event>
<event>
 9    1  0.4342579E-036  0.1000192E+04  0.7818608E-02  0.8680856E-01
         -4   -1    0    0    0  501 -0.00000000000E+00  0.00000000000E+00  0.98672096347E+03  0.98672096347E+03  0.00000000000E+00 0.  1.
          4   -1    0    0  501    0  0.00000000000E+00 -0.00000000000E+00 -0.25346153508E+03  0.25346153508E+03  0.00000000000E+00 0.  1.
         36    2    1    2    0    0 -0.28421709430E-13 -0.35527136788E-14  0.73325942839E+03  0.12401824985E+04  0.10001916018E+04 0.  0.
         25    2    3    3    0    0 -0.11906029839E+03 -0.14358927511E+02  0.22955185006E+03  0.28736938961E+03  0.12452140687E+03 0.  0.
         35    2    3    3    0    0  0.11906029839E+03  0.14358927511E+02  0.50370757834E+03  0.95281310894E+03  0.79984371138E+03 0.  0.
         22    1    5    5    0    0  0.28649773624E+03 -0.17979504985E+03 -0.50676242256E+02  0.34201651182E+03  0.00000000000E+00 0.  1.
         22    1    5    5    0    0 -0.16743743786E+03  0.19415397736E+03  0.55438382059E+03  0.61079659712E+03  0.00000000000E+00 0.  1.
          5    1    4    4  502    0 -0.58096958158E+02  0.30531286834E+02  0.19153556480E+03  0.20252253851E+03  0.47000000000E+01 0.  1.
         -5    1    4    4    0  502 -0.60963340230E+02 -0.44890214345E+02  0.38016285256E+02  0.84846851095E+02  0.47000000000E+01 0.  1.
<mgrwt>
<rscale>  0 0.10001916E+04</rscale>
<asrwt>0</asrwt>
<pdfrwt beam="1">  1        4 0.38994083E-01 0.10001916E+04</pdfrwt>
<pdfrwt beam="2">  1       -4 0.15180322E+00 0.10001916E+04</pdfrwt>
<totfact> 0.36998420E+00</totfact>
</mgrwt>
</event>
<event>
 9    1  0.4342579E-036  0.1000261E+04  0.7818608E-02  0.8680790E-01
          2   -1    0    0  501    0  0.00000000000E+00  0.00000000000E+00  0.24113986365E+04  0.24113986365E+04  0.00000000000E+00 0. -1.
         -2   -1    0    0    0  501 -0.00000000000E+00 -0.00000000000E+00 -0.10372830370E+03  0.10372830370E+03  0.00000000000E+00 0. -1.
         36    2    1    2    0    0  0.00000000000E+00  0.00000000000E+00  0.23076703328E+04  0.25151269402E+04  0.10002605463E+04 0.  0.
         25    2    3    3    0    0  0.24872654964E+02  0.13814926250E+03  0.44239211061E+03  0.48074854510E+03  0.12531766193E+03 0.  0.
         35    2    3    3    0    0 -0.24872654964E+02 -0.13814926250E+03  0.18652782222E+04  0.20343783951E+04  0.79983044490E+03 0.  0.
         22    1    5    5    0    0 -0.15078829607E+03  0.27833170619E+03  0.11874588492E+04  0.12289280563E+04  0.00000000000E+00 0. -1.
         22    1    5    5    0    0  0.12591564111E+03 -0.41648096869E+03  0.67781937303E+03  0.80545033888E+03  0.00000000000E+00 0. -1.
          5    1    4    4  502    0  0.50726791137E+01 -0.83335507838E+01  0.17376722856E+03  0.17410433614E+03  0.47000000000E+01 0. -1.
         -5    1    4    4    0  502  0.19799975850E+02  0.14648281329E+03  0.26862488204E+03  0.30664420895E+03  0.47000000000E+01 0. -1.
<mgrwt>
<rscale>  0 0.10002605E+04</rscale>
<asrwt>0</asrwt>
<pdfrwt beam="1">  1        2 0.37098436E+00 0.10002605E+04</pdfrwt>
<pdfrwt beam="2">  1       -2 0.15958202E-01 0.10002605E+04</pdfrwt>
<totfact> 0.14193303E+02</totfact>
</mgrwt>
</event>
<event>
 9    1  0.4342579E-036  0.1001624E+04  0.7818608E-02  0.8679493E-01
         -4   -1    0    0    0  501 -0.00000000000E+00  0.00000000000E+00  0.22916660450E+03  0.22916660450E+03  0.00000000000E+00 0. -1.
          4   -1    0    0  501    0  0.00000000000E+00 -0.00000000000E+00 -0.10944551895E+04  0.10944551895E+04  0.00000000000E+00 0. -1.
         36    2    1    2    0    0 -0.14210854715E-13 -0.28421709430E-13 -0.86528858505E+03  0.13236217940E+04  0.10016238407E+04 0.  0.
         25    2    3    3    0    0 -0.21864050124E+02  0.14125858062E+03 -0.17551621572E+03  0.25814661908E+03  0.12410363280E+03 0.  0.
         35    2    3    3    0    0  0.21864050124E+02 -0.14125858062E+03 -0.68977236932E+03  0.10654751750E+04  0.79938689238E+03 0.  0.
         22    1    5    5    0    0 -0.22571224659E+03  0.80792695542E+02  0.58375201479E+02  0.24674104252E+03  0.00000000000E+00 0.  1.
         22    1    5    5    0    0  0.24757629672E+03 -0.22205127616E+03 -0.74814757080E+03  0.81873413245E+03  0.00000000000E+00 0.  1.
          5    1    4    4  502    0 -0.34021380728E+02  0.27786747098E+01 -0.33092487662E+00  0.34458306561E+02  0.47000000000E+01 0.  1.
         -5    1    4    4    0  502  0.12157330605E+02  0.13847990591E+03 -0.17518529085E+03  0.22368831252E+03  0.47000000000E+01 0.  1.
<mgrwt>
<rscale>  0 0.10016238E+04</rscale>
<asrwt>0</asrwt>
<pdfrwt beam="1">  1        4 0.16837772E+00 0.10016238E+04</pdfrwt>
<pdfrwt beam="2">  1       -4 0.35256401E-01 0.10016238E+04</pdfrwt>
<totfact> 0.32448551E+00</totfact>
</mgrwt>
</event>
<event>
 9    1  0.4342579E-036  0.1000182E+04  0.7818608E-02  0.8680864E-01
          2   -1    0    0  501    0  0.00000000000E+00  0.00000000000E+00  0.41544270547E+03  0.41544270547E+03  0.00000000000E+00 0. -1.
         -2   -1    0    0    0  501 -0.00000000000E+00 -0.00000000000E+00 -0.60198698566E+03  0.60198698566E+03  0.00000000000E+00 0. -1.
         36    2    1    2    0    0  0.14210854715E-13  0.00000000000E+00 -0.18654428019E+03  0.10174296911E+04  0.10001821874E+04 0.  0.
         25    2    3    3    0    0  0.60204029523E+02  0.12669745273E+03 -0.63198596774E+02  0.19789319603E+03  0.12446238269E+03 0.  0.
         35    2    3    3    0    0 -0.60204029523E+02 -0.12669745273E+03 -0.12334568342E+03  0.81953649509E+03  0.79796562549E+03 0.  0.
         22    1    5    5    0    0 -0.35643990764E+03 -0.30006528744E+03 -0.50525188741E+02  0.46865912899E+03  0.00000000000E+00 0. -1.
         22    1    5    5    0    0  0.29623587812E+03  0.17336783471E+03 -0.72820494675E+02  0.35087736610E+03  0.00000000000E+00 0. -1.
          5    1    4    4  502    0  0.56973090911E+02  0.12084250573E+03  0.48912543899E+00  0.13368310859E+03  0.47000000000E+01 0.  1.
         -5    1    4    4    0  502  0.32309386124E+01  0.58549469971E+01 -0.63687722213E+02  0.64210087442E+02  0.47000000000E+01 0.  1.
<mgrwt>
<rscale>  0 0.10001822E+04</rscale>
<asrwt>0</asrwt>
<pdfrwt beam="1">  1        2 0.63914263E-01 0.10001822E+04</pdfrwt>
<pdfrwt beam="2">  1       -2 0.92613381E-01 0.10001822E+04</pdfrwt>
<totfact> 0.89915100E+01</totfact>
</mgrwt>
</event>
<event>
 9    1  0.4342579E-036  0.9994927E+03  0.7818608E-02  0.8681521E-01
         -3   -1    0    0    0  501 -0.00000000000E+00  0.00000000000E+00  0.16149279024E+03  0.16149279024E+03  0.00000000000E+00 0.  1.
          3   -1    0    0  501    0  0.00000000000E+00 -0.00000000000E+00 -0.15464864724E+04  0.15464864724E+04  0.00000000000E+00 0.  1.
         36    2    1    2    0    0  0.00000000000E+00 -0.17763568394E-14 -0.13849936821E+04  0.17079792626E+04  0.99949270233E+03 0.  0.
         25    2    3    3    0    0 -0.12600276969E+03 -0.10449974951E+02 -0.35490368027E+03  0.39723083935E+03  0.12589605839E+03 0.  0.
         35    2    3    3    0    0  0.12600276969E+03  0.10449974951E+02 -0.10300900019E+04  0.13107484233E+04  0.80061858411E+03 0.  0.
         22    1    5    5    0    0 -0.61693963405E+02  0.28995805572E+01 -0.11063048348E+04  0.11080274998E+04  0.00000000000E+00 0. -1.
         22    1    5    5    0    0  0.18769673309E+03  0.75503943941E+01  0.76214832950E+02  0.20272092351E+03  0.00000000000E+00 0. -1.
          5    1    4    4  502    0 -0.45282693396E+02 -0.24454935959E+02 -0.28435582448E+03  0.28901365215E+03  0.47000000000E+01 0.  1.
         -5    1    4    4    0  502 -0.80720076290E+02  0.14004961008E+02 -0.70547855790E+02  0.10821718720E+03  0.47000000000E+01 0.  1.
<mgrwt>
<rscale>  0 0.99949270E+03</rscale>
<asrwt>0</asrwt>
<pdfrwt beam="1">  1        3 0.23792099E+00 0.99949270E+03</pdfrwt>
<pdfrwt beam="2">  1       -3 0.24845045E-01 0.99949270E+03</pdfrwt>
<totfact> 0.53119013E+00</totfact>
</mgrwt>
</event>
<event>
 9    1  0.4342579E-036  0.9999215E+03  0.7818608E-02  0.8681113E-01
          2   -1    0    0  501    0  0.00000000000E+00  0.00000000000E+00  0.17168155912E+04  0.17168155912E+04  0.00000000000E+00 0. -1.
         -2   -1    0    0    0  501 -0.00000000000E+00 -0.00000000000E+00 -0.14559557266E+03  0.14559557266E+03  0.00000000000E+00 0. -1.
         36    2    1    2    0    0  0.00000000000E+00  0.28421709430E-13  0.15712200185E+04  0.18624111639E+04  0.99992149523E+03 0.  0.
         25    2    3    3    0    0  0.11537889865E+03 -0.80102892394E+02  0.28177410294E+03  0.33855533942E+03  0.12447613883E+03 0.  0.
         35    2    3    3    0    0 -0.11537889865E+03  0.80102892394E+02  0.12894459156E+04  0.15238558244E+04  0.79983563362E+03 0.  0.
         22    1    5    5    0    0  0.11808177632E+03  0.28996576450E+03  0.16001144258E+03  0.35160647354E+03  0.00000000000E+00 0.  1.
         22    1    5    5    0    0 -0.23346067497E+03 -0.20986287211E+03  0.11294344730E+04  0.11722493509E+04  0.00000000000E+00 0.  1.
          5    1    4    4  502    0  0.68895658712E+02  0.66500576541E+01  0.46599136400E+02  0.83572750161E+02  0.47000000000E+01 0.  1.
         -5    1    4    4    0  502  0.46483239934E+02 -0.86752950048E+02  0.23517496654E+03  0.25498258926E+03  0.47000000000E+01 0.  1.
<mgrwt>
<rscale>  0 0.99992150E+03</rscale>
<asrwt>0</asrwt>
<pdfrwt beam="1">  1        2 0.26412546E+00 0.99992150E+03</pdfrwt>
<pdfrwt beam="2">  1       -2 0.22399320E-01 0.99992150E+03</pdfrwt>
<totfact> 0.19902270E+02</totfact>
</mgrwt>
</event>
<event>
 9    1  0.4342579E-036  0.1000151E+04  0.7818608E-02  0.8680895E-01
          2   -1    0    0  501    0  0.00000000000E+00  0.00000000000E+00  0.13651426947E+04  0.13651426947E+04  0.00000000000E+00 0.  1.
         -2   -1    0    0    0  501 -0.00000000000E+00 -0.00000000000E+00 -0.18318618122E+03  0.18318618122E+03  0.00000000000E+00 0.  1.
         36    2    1    2    0    0  0.35527136788E-13 -0.71054273576E-14  0.11819565135E+04  0.15483288759E+04  0.10001505428E+04 0.  0.
         25    2    3    3    0    0  0.46784335552E+02 -0.36130581817E-01  0.42827689575E+03  0.44795025110E+03  0.12267661825E+03 0.  0.
         35    2    3    3    0    0 -0.46784335552E+02  0.36130581817E-01  0.75367961772E+03  0.11003786248E+04  0.80038201905E+03 0.  0.
         22    1    5    5    0    0  0.31662462992E+03  0.98355371024E+02  0.10045711585E+03  0.34643407368E+03  0.00000000000E+00 0.  1.
         22    1    5    5    0    0 -0.36340896547E+03 -0.98319240442E+02  0.65322250188E+03  0.75394455113E+03  0.00000000000E+00 0.  1.
          5    1    4    4  502    0  0.38067938706E+02 -0.57342055791E+02  0.17556241283E+03  0.18863067120E+03  0.47000000000E+01 0.  1.
         -5    1    4    4    0  502  0.87163968462E+01  0.57305925210E+02  0.25271448292E+03  0.25931957990E+03  0.47000000000E+01 0.  1.
<mgrwt>
<rscale>  0 0.10001505E+04</rscale>
<asrwt>0</asrwt>
<pdfrwt beam="1">  1        2 0.21002195E+00 0.10001505E+04</pdfrwt>
<pdfrwt beam="2">  1       -2 0.28182490E-01 0.10001505E+04</pdfrwt>
<totfact> 0.20933266E+02</totfact>
</mgrwt>
</event>
<event>
 9    1  0.4342579E-036  0.1001727E+04  0.7818608E-02  0.8679395E-01
          1   -1    0    0  501    0  0.00000000000E+00  0.00000000000E+00  0.25260055342E+03  0.25260055342E+03  0.00000000000E+00 0.  1.
         -1   -1    0    0    0  501 -0.00000000000E+00 -0.00000000000E+00 -0.99312679503E+03  0.99312679503E+03  0.00000000000E+00 0.  1.
         36    2    1    2    0    0  0.00000000000E+00  0.00000000000E+00 -0.74052624161E+03  0.12457273485E+04  0.10017272644E+04 0.  0.
         25    2    3    3    0    0 -0.71354203962E+02 -0.11831136108E+03 -0.17763578433E+03  0.25744478771E+03  0.12503737944E+03 0.  0.
         35    2    3    3    0    0  0.71354203962E+02  0.11831136108E+03 -0.56289045728E+03  0.98828256074E+03  0.80047970142E+03 0.  0.
         22    1    5    5    0    0 -0.24148300638E+03 -0.86247290850E+02  0.58615654024E+02  0.26303694122E+03  0.00000000000E+00 0. -1.
         22    1    5    5    0    0  0.31283721034E+03  0.20455865193E+03 -0.62150611130E+03  0.72524561953E+03  0.00000000000E+00 0. -1.
          5    1    4    4  502    0 -0.37548768892E+02 -0.39950942618E+02 -0.16129831754E+03  0.17042659741E+03  0.47000000000E+01 0.  1.
         -5    1    4    4    0  502 -0.33805435070E+02 -0.78360418463E+02 -0.16337466789E+02  0.87018190300E+02  0.47000000000E+01 0.  1.
<mgrwt>
<rscale>  0 0.10017273E+04</rscale>
<asrwt>0</asrwt>
<pdfrwt beam="1">  1        1 0.38861624E-01 0.10017273E+04</pdfrwt>
<pdfrwt beam="2">  1       -1 0.15278874E+00 0.10017273E+04</pdfrwt>
<totfact> 0.42596958E+01</totfact>
</mgrwt>
</event>
<event>
 9    1  0.4342579E-036  0.9999305E+03  0.7818608E-02  0.8681104E-01
          2   -1    0    0  501    0  0.00000000000E+00  0.00000000000E+00  0.22353760540E+04  0.22353760540E+04  0.00000000000E+00 0. -1.
         -2   -1    0    0    0  501 -0.00000000000E+00 -0.00000000000E+00 -0.11182245631E+03  0.11182245631E+03  0.00000000000E+00 0. -1.
         36    2    1    2    0    0  0.00000000000E+00  0.35527136788E-13  0.21235535977E+04  0.23471985103E+04  0.99993047985E+03 0.  0.
         25    2    3    3    0    0  0.90005827091E+02  0.19541390640E+02  0.15087703259E+03  0.21651901388E+03  0.12503475337E+03 0.  0.
         35    2    3    3    0    0 -0.90005827091E+02 -0.19541390640E+02  0.19726765651E+04  0.21306794964E+04  0.79991210215E+03 0.  0.
         22    1    5    5    0    0 -0.12106368686E+03 -0.40269196003E+03  0.10018036731E+04  0.10864749561E+04  0.00000000000E+00 0.  1.
         22    1    5    5    0    0  0.31057859773E+02  0.38315056939E+03  0.97087289201E+03  0.10442045403E+04  0.00000000000E+00 0.  1.
          5    1    4    4  502    0  0.28105058640E+02  0.90971538592E+01 -0.18943429253E+02  0.35406158241E+02  0.47000000000E+01 0.  1.
         -5    1    4    4    0  502  0.61900768451E+02  0.10444236781E+02  0.16982046184E+03  0.18111285564E+03  0.47000000000E+01 0.  1.
<mgrwt>
<rscale>  0 0.99993048E+03</rscale>
<asrwt>0</asrwt>
<pdfrwt beam="1">  1        2 0.34390398E+00 0.99993048E+03</pdfrwt>
<pdfrwt beam="2">  1       -2 0.17203456E-01 0.99993048E+03</pdfrwt>
<totfact> 0.15883743E+02</totfact>
</mgrwt>
</event>
<event>
 9    1  0.4342579E-036  0.1001670E+04  0.7818608E-02  0.8679449E-01
         -2   -1    0    0    0  501 -0.00000000000E+00  0.00000000000E+00  0.13981217897E+03  0.13981217897E+03  0.00000000000E+00 0. -1.
          2   -1    0    0  501    0  0.00000000000E+00 -0.00000000000E+00 -0.17940920415E+04  0.17940920415E+04  0.00000000000E+00 0. -1.
         36    2    1    2    0    0  0.71054273576E-14  0.49737991503E-13 -0.16542798626E+04  0.19339042205E+04  0.10016704400E+04 0.  0.
         25    2    3    3    0    0 -0.20386049070E+01 -0.59144321294E+02 -0.56412740494E+03  0.58084899933E+03  0.12507447529E+03 0.  0.
         35    2    3    3    0    0  0.20386049070E+01  0.59144321294E+02 -0.10901524576E+04  0.13530552212E+04  0.79926456449E+03 0.  0.
         22    1    5    5    0    0  0.14602999243E+03  0.39712562313E+03 -0.47127619100E+03  0.63335200911E+03  0.00000000000E+00 0.  1.
         22    1    5    5    0    0 -0.14399138753E+03 -0.33798130184E+03 -0.61887626664E+03  0.71970321208E+03  0.00000000000E+00 0.  1.
          5    1    4    4  502    0 -0.27502838100E+02 -0.82914068633E+02 -0.25209184848E+03  0.26683991259E+03  0.47000000000E+01 0. -1.
         -5    1    4    4    0  502  0.25464233193E+02  0.23769747339E+02 -0.31203555646E+03  0.31400908674E+03  0.47000000000E+01 0. -1.
<mgrwt>
<rscale>  0 0.10016704E+04</rscale>
<asrwt>0</asrwt>
<pdfrwt beam="1">  1        2 0.27601417E+00 0.10016704E+04</pdfrwt>
<pdfrwt beam="2">  1       -2 0.21509565E-01 0.10016704E+04</pdfrwt>
<totfact> 0.19324593E+02</totfact>
</mgrwt>
</event>
<event>
 9    1  0.4342579E-036  0.1000122E+04  0.7818608E-02  0.8680922E-01
          2   -1    0    0  501    0  0.00000000000E+00  0.00000000000E+00  0.23350302274E+03  0.23350302274E+03  0.00000000000E+00 0. -1.
         -2   -1    0    0    0  501 -0.00000000000E+00 -0.00000000000E+00 -0.10709101833E+04  0.10709101833E+04  0.00000000000E+00 0. -1.
         36    2    1    2    0    0  0.14210854715E-13 -0.28421709430E-13 -0.83740716055E+03  0.13044132060E+04  0.10001215224E+04 0.  0.
         25    2    3    3    0    0  0.80958435070E+02 -0.11467230983E+03 -0.15520301589E+03  0.24348483553E+03  0.12447040669E+03 0.  0.
         35    2    3    3    0    0 -0.80958435070E+02  0.11467230983E+03 -0.68220414466E+03  0.10609283705E+04  0.80028901373E+03 0.  0.
         22    1    5    5    0    0 -0.22130521873E+01 -0.27047413707E+03  0.35280111524E+01  0.27050619824E+03  0.00000000000E+00 0. -1.
         22    1    5    5    0    0 -0.78745382882E+02  0.38514644690E+03 -0.68573215582E+03  0.79042217226E+03  0.00000000000E+00 0. -1.
          5    1    4    4  502    0  0.79360396690E+02 -0.11262150679E+03 -0.17511251483E+03  0.22286354391E+03  0.47000000000E+01 0. -1.
         -5    1    4    4    0  502  0.15980383802E+01 -0.20508030320E+01  0.19909498942E+02  0.20621291615E+02  0.47000000000E+01 0. -1.
<mgrwt>
<rscale>  0 0.10001215E+04</rscale>
<asrwt>0</asrwt>
<pdfrwt beam="1">  1        2 0.35923543E-01 0.10001215E+04</pdfrwt>
<pdfrwt beam="2">  1       -2 0.16475541E+00 0.10001215E+04</pdfrwt>
<totfact> 0.37745492E+01</totfact>
</mgrwt>
</event>
<event>
 9    1  0.4342579E-036  0.1001033E+04  0.7818608E-02  0.8680054E-01
         -1   -1    0    0    0  501 -0.00000000000E+00  0.00000000000E+00  0.30030870623E+03  0.30030870623E+03  0.00000000000E+00 0. -1.
          1   -1    0    0  501    0  0.00000000000E+00 -0.00000000000E+00 -0.83419827444E+03  0.83419827444E+03  0.00000000000E+00 0. -1.
         36    2    1    2    0    0  0.28421709430E-13  0.14210854715E-13 -0.53388956822E+03  0.11345069807E+04  0.10010334750E+04 0.  0.
         25    2    3    3    0    0  0.13933499358E+03  0.15369380945E+02 -0.12860455429E+03  0.22721590090E+03  0.12424763953E+03 0.  0.
         35    2    3    3    0    0 -0.13933499358E+03 -0.15369380945E+02 -0.40528501392E+03  0.90729107977E+03  0.79954405921E+03 0.  0.
         22    1    5    5    0    0  0.28930474336E+03  0.16004567354E+03 -0.76635817063E+02  0.33938901073E+03  0.00000000000E+00 0. -1.
         22    1    5    5    0    0 -0.42863973694E+03 -0.17541505448E+03 -0.32864919686E+03  0.56790206904E+03  0.00000000000E+00 0. -1.
          5    1    4    4  502    0  0.10601139389E+03  0.41907429247E+02 -0.27435530570E+02  0.11734328527E+03  0.47000000000E+01 0. -1.
         -5    1    4    4    0  502  0.33323599695E+02 -0.26538048302E+02 -0.10116902372E+03  0.10987261563E+03  0.47000000000E+01 0. -1.
<mgrwt>
<rscale>  0 0.10010335E+04</rscale>
<asrwt>0</asrwt>
<pdfrwt beam="1">  1        1 0.12833820E+00 0.10010335E+04</pdfrwt>
<pdfrwt beam="2">  1       -1 0.46201340E-01 0.10010335E+04</pdfrwt>
<totfact> 0.10930717E+02</totfact>
</mgrwt>
</event>
<event>
 9    1  0.4342579E-036  0.1002700E+04  0.7818608E-02  0.8678471E-01
         -2   -1    0    0    0  501 -0.00000000000E+00  0.00000000000E+00  0.11921341941E+03  0.11921341941E+03  0.00000000000E+00 0. -1.
          2   -1    0    0  501    0  0.00000000000E+00 -0.00000000000E+00 -0.21084188585E+04  0.21084188585E+04  0.00000000000E+00 0. -1.
         36    2    1    2    0    0 -0.28421709430E-13  0.00000000000E+00 -0.19892054391E+04  0.22276322779E+04  0.10026999983E+04 0.  0.
         25    2    3    3    0    0 -0.11351407556E+03 -0.76984935644E+02 -0.47716979324E+03  0.51194901937E+03  0.12485456013E+03 0.  0.
         35    2    3    3    0    0  0.11351407556E+03  0.76984935644E+02 -0.15120356459E+04  0.17156832586E+04  0.79906515608E+03 0.  0.
         22    1    5    5    0    0 -0.13878029716E+03  0.48268366828E+02 -0.14458216270E+04  0.14532687236E+04  0.00000000000E+00 0.  1.
         22    1    5    5    0    0  0.25229437272E+03  0.28716568816E+02 -0.66214018895E+02  0.26241453491E+03  0.00000000000E+00 0.  1.
          5    1    4    4  502    0  0.16490783076E+02 -0.49647837586E+02 -0.13197238573E+03  0.14204103034E+03  0.47000000000E+01 0. -1.
         -5    1    4    4    0  502 -0.13000485864E+03 -0.27337098058E+02 -0.34519740751E+03  0.36990798903E+03  0.47000000000E+01 0. -1.
<mgrwt>
<rscale>  0 0.10027000E+04</rscale>
<asrwt>0</asrwt>
<pdfrwt beam="1">  1        2 0.32437209E+00 0.10027000E+04</pdfrwt>
<pdfrwt beam="2">  1       -2 0.18340528E-01 0.10027000E+04</pdfrwt>
<totfact> 0.16868394E+02</totfact>
</mgrwt>
</event>
<event>
 9    1  0.4342579E-036  0.1000318E+04  0.7818608E-02  0.8680735E-01
         -2   -1    0    0    0  501 -0.00000000000E+00  0.00000000000E+00  0.64974304347E+03  0.64974304347E+03  0.00000000000E+00 0.  1.
          2   -1    0    0  501    0  0.00000000000E+00 -0.00000000000E+00 -0.38501231430E+03  0.38501231430E+03  0.00000000000E+00 0.  1.
         36    2    1    2    0    0  0.28421709430E-13 -0.21316282073E-13  0.26473072917E+03  0.10347553578E+04  0.10003180951E+04 0.  0.
         25    2    3    3    0    0 -0.67856736217E+02  0.61019019132E+02 -0.61537342130E+02  0.16592847592E+03  0.12416745669E+03 0.  0.
         35    2    3    3    0    0  0.67856736217E+02 -0.61019019132E+02  0.32626807130E+03  0.86882688184E+03  0.80005089770E+03 0.  0.
         22    1    5    5    0    0  0.38199541274E+02  0.13768474029E+03  0.54992557870E+03  0.56818521168E+03  0.00000000000E+00 0.  1.
         22    1    5    5    0    0  0.29657194943E+02 -0.19870375943E+03 -0.22365750740E+03  0.30064167016E+03  0.00000000000E+00 0.  1.
          5    1    4    4  502    0 -0.50566669257E+02  0.85527616562E+02 -0.82338295083E+02  0.12912647316E+03  0.47000000000E+01 0. -1.
         -5    1    4    4    0  502 -0.17290066960E+02 -0.24508597430E+02  0.20800952953E+02  0.36802002761E+02  0.47000000000E+01 0. -1.
<mgrwt>
<rscale>  0 0.10003181E+04</rscale>
<asrwt>0</asrwt>
<pdfrwt beam="1">  1        2 0.59232664E-01 0.10003181E+04</pdfrwt>
<pdfrwt beam="2">  1       -2 0.99960469E-01 0.10003181E+04</pdfrwt>
<totfact> 0.81539498E+01</totfact>
</mgrwt>
</event>
<event>
 9    1  0.4342579E-036  0.9984368E+03  0.7818608E-02  0.8682528E-01
          2   -1    0    0  501    0  0.00000000000E+00  0.00000000000E+00  0.27528288343E+03  0.27528288343E+03  0.00000000000E+00 0. -1.
         -2   -1    0    0    0  501 -0.00000000000E+00 -0.00000000000E+00 -0.90531975084E+03  0.90531975084E+03  0.00000000000E+00 0. -1.
         36    2    1    2    0    0 -0.35527136788E-14  0.71054273576E-14 -0.63003686742E+03  0.11806026343E+04  0.99843684114E+03 0.  0.
         25    2    3    3    0    0  0.24675170323E+02  0.20827203441E+02  0.40656045873E+02  0.13585262112E+03  0.12554036867E+03 0.  0.
         35    2    3    3    0    0 -0.24675170323E+02 -0.20827203441E+02 -0.67069291329E+03  0.10447500131E+04  0.80039425885E+03 0.  0.
         22    1    5    5    0    0  0.19894471435E+03  0.32740453171E+03 -0.26988270142E+03  0.46862500924E+03  0.00000000000E+00 0.  1.
         22    1    5    5    0    0 -0.22361988468E+03 -0.34823173516E+03 -0.40081021187E+03  0.57612500391E+03  0.00000000000E+00 0.  1.
          5    1    4    4  502    0 -0.24377583643E+02  0.61113802768E+02  0.21646259004E+02  0.69424880279E+02  0.47000000000E+01 0.  1.
         -5    1    4    4    0  502  0.49052753966E+02 -0.40286599326E+02  0.19009786869E+02  0.66427740844E+02  0.47000000000E+01 0.  1.
<mgrwt>
<rscale>  0 0.99843684E+03</rscale>
<asrwt>0</asrwt>
<pdfrwt beam="1">  1        2 0.42351212E-01 0.99843684E+03</pdfrwt>
<pdfrwt beam="2">  1       -2 0.13927996E+00 0.99843684E+03</pdfrwt>
<totfact> 0.50310217E+01</totfact>
</mgrwt>
</event>
<event>
 9    1  0.4342579E-036  0.1000369E+04  0.7818608E-02  0.8680686E-01
          2   -1    0    0  501    0  0.00000000000E+00  0.00000000000E+00  0.85087645360E+03  0.85087645360E+03  0.00000000000E+00 0.  1.
         -2   -1    0    0    0  501 -0.00000000000E+00 -0.00000000000E+00 -0.29403172462E+03  0.29403172462E+03  0.00000000000E+00 0.  1.
         36    2    1    2    0    0  0.00000000000E+00 -0.17763568394E-13  0.55684472898E+03  0.11449081782E+04  0.10003692740E+04 0.  0.
         25    2    3    3    0    0 -0.10741823124E+03  0.12974740929E+02  0.20581052883E+03  0.26341512188E+03  0.12378421691E+03 0.  0.
         35    2    3    3    0    0  0.10741823124E+03 -0.12974740929E+02  0.35103420015E+03  0.88149305633E+03  0.80131016365E+03 0.  0.
         22    1    5    5    0    0  0.23391608513E+03  0.17987127127E+03  0.51842410210E+03  0.59651819650E+03  0.00000000000E+00 0. -1.
         22    1    5    5    0    0 -0.12649785389E+03 -0.19284601220E+03 -0.16738990195E+03  0.28497485983E+03  0.00000000000E+00 0. -1.
          5    1    4    4  502    0 -0.13231969356E+03  0.17147821674E+02  0.14341129014E+03  0.19593732985E+03  0.47000000000E+01 0. -1.
         -5    1    4    4    0  502  0.24901462319E+02 -0.41730807450E+01  0.62399238686E+02  0.67477792030E+02  0.47000000000E+01 0. -1.
<mgrwt>
<rscale>  0 0.10003693E+04</rscale>
<asrwt>0</asrwt>
<pdfrwt beam="1">  1        2 0.13090407E+00 0.10003693E+04</pdfrwt>
<pdfrwt beam="2">  1       -2 0.45235650E-01 0.10003693E+04</pdfrwt>
<totfact> 0.17774917E+02</totfact>
</mgrwt>
</event>
<event>
 9    1  0.4342579E-036  0.1001963E+04  0.7818608E-02  0.8679171E-01
          1   -1    0    0  501    0  0.00000000000E+00  0.00000000000E+00  0.36316619582E+03  0.36316619582E+03  0.00000000000E+00 0.  1.
         -1   -1    0    0    0  501 -0.00000000000E+00 -0.00000000000E+00 -0.69109573207E+03  0.69109573207E+03  0.00000000000E+00 0.  1.
         36    2    1    2    0    0  0.00000000000E+00  0.00000000000E+00 -0.32792953625E+03  0.10542619279E+04  0.10019632887E+04 0.  0.
         25    2    3    3    0    0 -0.12032335611E+03 -0.48671992346E+02  0.50953499545E+00  0.17994588351E+03  0.12463381765E+03 0.  0.
         35    2    3    3    0    0  0.12032335611E+03  0.48671992346E+02 -0.32843907125E+03  0.87431604437E+03  0.79981851007E+03 0.  0.
         22    1    5    5    0    0  0.30359093318E+02  0.14942310817E+03  0.24313966603E+03  0.28699448949E+03  0.00000000000E+00 0.  1.
         22    1    5    5    0    0  0.89964262793E+02 -0.10075111583E+03 -0.57157873727E+03  0.58732155488E+03  0.00000000000E+00 0.  1.
          5    1    4    4  502    0  0.21645928983E+02 -0.25318825665E+02 -0.11351743758E+02  0.35504102030E+02  0.47000000000E+01 0. -1.
         -5    1    4    4    0  502 -0.14196928509E+03 -0.23353166681E+02  0.11861278754E+02  0.14444178148E+03  0.47000000000E+01 0. -1.
<mgrwt>
<rscale>  0 0.10019633E+04</rscale>
<asrwt>0</asrwt>
<pdfrwt beam="1">  1        1 0.55871723E-01 0.10019633E+04</pdfrwt>
<pdfrwt beam="2">  1       -1 0.10632242E+00 0.10019633E+04</pdfrwt>
<totfact> 0.67742860E+01</totfact>
</mgrwt>
</event>
<event>
 9    1  0.4342579E-036  0.9995395E+03  0.7818608E-02  0.8681477E-01
         -2   -1    0    0    0  501 -0.00000000000E+00  0.00000000000E+00  0.76469265002E+02  0.76469265002E+02  0.00000000000E+00 0.  1.
          2   -1    0    0  501    0  0.00000000000E+00 -0.00000000000E+00 -0.32662770431E+04  0.32662770431E+04  0.00000000000E+00 0.  1.
         36    2    1    2    0    0 -0.71054273576E-14  0.71054273576E-14 -0.31898077781E+04  0.33427463081E+04  0.99953950353E+03 0.  0.
         25    2    3    3    0    0  0.39129073494E+02 -0.55718950278E+02 -0.19170131466E+03  0.23901234755E+03  0.12546641952E+03 0.  0.
         35    2    3    3    0    0 -0.39129073494E+02  0.55718950278E+02 -0.29981064634E+04  0.31037339606E+04  0.79992902558E+03 0.  0.
         22    1    5    5    0    0 -0.10777132931E+03 -0.35450982461E+03 -0.17271999215E+04  0.17664969414E+04  0.00000000000E+00 0. -1.
         22    1    5    5    0    0  0.68642255815E+02  0.41022877489E+03 -0.12709065419E+04  0.13372370191E+04  0.00000000000E+00 0. -1.
          5    1    4    4  502    0  0.90187272939E+00 -0.76891568803E+02 -0.52990759085E+02  0.93505279400E+02  0.47000000000E+01 0.  1.
         -5    1    4    4    0  502  0.38227200765E+02  0.21172618525E+02 -0.13871055557E+03  0.14550706815E+03  0.47000000000E+01 0.  1.
<mgrwt>
<rscale>  0 0.99953950E+03</rscale>
<asrwt>0</asrwt>
<pdfrwt beam="1">  1        2 0.50250401E+00 0.99953950E+03</pdfrwt>
<pdfrwt beam="2">  1       -2 0.11764506E-01 0.99953950E+03</pdfrwt>
<totfact> 0.65661513E+01</totfact>
</mgrwt>
</event>
<event>
 9    1  0.4342579E-036  0.9997502E+03  0.7818608E-02  0.8681276E-01
         -2   -1    0    0    0  501 -0.00000000000E+00  0.00000000000E+00  0.10989141213E+03  0.10989141213E+03  0.00000000000E+00 0. -1.
          2   -1    0    0  501    0  0.00000000000E+00 -0.00000000000E+00 -0.22738364993E+04  0.22738364993E+04  0.00000000000E+00 0. -1.
         36    2    1    2    0    0  0.21316282073E-13  0.00000000000E+00 -0.21639450872E+04  0.23837279115E+04  0.99975017655E+03 0.  0.
         25    2    3    3    0    0  0.31170915089E+02 -0.74261218157E+02 -0.69337568589E+03  0.70921380507E+03  0.12541142310E+03 0.  0.
         35    2    3    3    0    0 -0.31170915089E+02  0.74261218157E+02 -0.14705694013E+04  0.16745141064E+04  0.79682920002E+03 0.  0.
         22    1    5    5    0    0 -0.21125354645E+03  0.52798163703E+02 -0.26795037414E+02  0.21939389465E+03  0.00000000000E+00 0.  1.
         22    1    5    5    0    0  0.18008263136E+03  0.21463054454E+02 -0.14437743639E+04  0.14551202118E+04  0.00000000000E+00 0.  1.
          5    1    4    4  502    0 -0.16239494109E+02 -0.92757556453E+02 -0.36999020007E+03  0.38181477656E+03  0.47000000000E+01 0.  1.
         -5    1    4    4    0  502  0.47410409198E+02  0.18496338296E+02 -0.32338548582E+03  0.32739902851E+03  0.47000000000E+01 0.  1.
<mgrwt>
<rscale>  0 0.99975018E+03</rscale>
<asrwt>0</asrwt>
<pdfrwt beam="1">  1        2 0.34982098E+00 0.99975018E+03</pdfrwt>
<pdfrwt beam="2">  1       -2 0.16906372E-01 0.99975018E+03</pdfrwt>
<totfact> 0.15533640E+02</totfact>
</mgrwt>
</event>
<event>
 9    1  0.4342579E-036  0.1000480E+04  0.7818608E-02  0.8680581E-01
          2   -1    0    0  501    0  0.00000000000E+00  0.00000000000E+00  0.16551091856E+04  0.16551091856E+04  0.00000000000E+00 0.  1.
         -2   -1    0    0    0  501 -0.00000000000E+00 -0.00000000000E+00 -0.15119255589E+03  0.15119255589E+03  0.00000000000E+00 0.  1.
         36    2    1    2    0    0  0.21316282073E-13  0.14210854715E-13  0.15039166297E+04  0.18063017415E+04  0.10004802608E+04 0.  0.
         25    2    3    3    0    0  0.50630682003E+01  0.41571881929E+02  0.52699975153E+03  0.54331306867E+03  0.12532556182E+03 0.  0.
         35    2    3    3    0    0 -0.50630682003E+01 -0.41571881929E+02  0.97691687818E+03  0.12629886728E+04  0.79938723079E+03 0.  0.
         22    1    5    5    0    0 -0.32670960634E+03  0.10315898471E+03  0.17024060181E+03  0.38257392162E+03  0.00000000000E+00 0.  1.
         22    1    5    5    0    0  0.32164653814E+03 -0.14473086664E+03  0.80667627637E+03  0.88041475119E+03  0.00000000000E+00 0.  1.
          5    1    4    4  502    0  0.24511020044E+02  0.47501995307E+02  0.51768821875E+03  0.52046172914E+03  0.47000000000E+01 0. -1.
         -5    1    4    4    0  502 -0.19447951844E+02 -0.59301133776E+01  0.93115327773E+01  0.22851339529E+02  0.47000000000E+01 0. -1.
<mgrwt>
<rscale>  0 0.10004803E+04</rscale>
<asrwt>0</asrwt>
<pdfrwt beam="1">  1        2 0.25463217E+00 0.10004803E+04</pdfrwt>
<pdfrwt beam="2">  1       -2 0.23260394E-01 0.10004803E+04</pdfrwt>
<totfact> 0.20179764E+02</totfact>
</mgrwt>
</event>
<event>
 9    1  0.4342579E-036  0.1000063E+04  0.7818608E-02  0.8680978E-01
          2   -1    0    0  501    0  0.00000000000E+00  0.00000000000E+00  0.74057704677E+03  0.74057704677E+03  0.00000000000E+00 0. -1.
         -2   -1    0    0    0  501 -0.00000000000E+00 -0.00000000000E+00 -0.33761741561E+03  0.33761741561E+03  0.00000000000E+00 0. -1.
         36    2    1    2    0    0 -0.28421709430E-13 -0.35527136788E-13  0.40295963116E+03  0.10781944624E+04  0.10000634152E+04 0.  0.
         25    2    3    3    0    0  0.12999273289E+03  0.23065996191E+02  0.25536296740E+02  0.18365507452E+03  0.12508770187E+03 0.  0.
         35    2    3    3    0    0 -0.12999273289E+03 -0.23065996191E+02  0.37742333442E+03  0.89453938786E+03  0.80020134484E+03 0.  0.
         22    1    5    5    0    0 -0.13846767144E+03  0.37928670581E+03  0.14040154021E+03  0.42748601584E+03  0.00000000000E+00 0. -1.
         22    1    5    5    0    0  0.84749385424E+01 -0.40235270201E+03  0.23702179421E+03  0.46705337203E+03  0.00000000000E+00 0. -1.
          5    1    4    4  502    0  0.14111000666E+03 -0.14551209673E+01 -0.67463920527E+01  0.14135683628E+03  0.47000000000E+01 0. -1.
         -5    1    4    4    0  502 -0.11117273764E+02  0.24521117158E+02  0.32282688793E+02  0.42298238241E+02  0.47000000000E+01 0. -1.
<mgrwt>
<rscale>  0 0.10000634E+04</rscale>
<asrwt>0</asrwt>
<pdfrwt beam="1">  1        2 0.11393493E+00 0.10000634E+04</pdfrwt>
<pdfrwt beam="2">  1       -2 0.51941141E-01 0.10000634E+04</pdfrwt>
<totfact> 0.16148741E+02</totfact>
</mgrwt>
</event>
<event>
 9    1  0.4342579E-036  0.1000103E+04  0.7818608E-02  0.8680940E-01
          1   -1    0    0  501    0  0.00000000000E+00  0.00000000000E+00  0.44191699423E+03  0.44191699423E+03  0.00000000000E+00 0. -1.
         -1   -1    0    0    0  501 -0.00000000000E+00 -0.00000000000E+00 -0.56583330921E+03  0.56583330921E+03  0.00000000000E+00 0. -1.
         36    2    1    2    0    0  0.00000000000E+00  0.14210854715E-13 -0.12391631498E+03  0.10077503034E+04  0.10001027052E+04 0.  0.
         25    2    3    3    0    0 -0.98154842976E+02 -0.10131914541E+03 -0.27140746860E+02  0.18998819629E+03  0.12433403462E+03 0.  0.
         35    2    3    3    0    0  0.98154842976E+02  0.10131914541E+03 -0.96775568122E+02  0.81776210716E+03  0.79966831305E+03 0.  0.
         22    1    5    5    0    0  0.19749967043E+03 -0.10146504797E+03 -0.38933050924E+03  0.44819585139E+03  0.00000000000E+00 0.  1.
         22    1    5    5    0    0 -0.99344827456E+02  0.20278419337E+03  0.29255494112E+03  0.36956625576E+03  0.00000000000E+00 0.  1.
          5    1    4    4  502    0 -0.45430966090E+02  0.18146992333E+02 -0.32985711145E+02  0.59189806135E+02  0.47000000000E+01 0. -1.
         -5    1    4    4    0  502 -0.52723876886E+02 -0.11946613774E+03  0.58449642854E+01  0.13079839016E+03  0.47000000000E+01 0. -1.
<mgrwt>
<rscale>  0 0.10001027E+04</rscale>
<asrwt>0</asrwt>
<pdfrwt beam="1">  1        1 0.67987230E-01 0.10001027E+04</pdfrwt>
<pdfrwt beam="2">  1       -1 0.87051278E-01 0.10001027E+04</pdfrwt>
<totfact> 0.81007867E+01</totfact>
</mgrwt>
</event>
<event>
 9    1  0.4342579E-036  0.1000195E+04  0.7818608E-02  0.8680852E-01
          2   -1    0    0  501    0  0.00000000000E+00  0.00000000000E+00  0.20174153387E+04  0.20174153387E+04  0.00000000000E+00 0.  1.
         -2   -1    0    0    0  501 -0.00000000000E+00 -0.00000000000E+00 -0.12396934778E+03  0.12396934778E+03  0.00000000000E+00 0.  1.
         36    2    1    2    0    0  0.21316282073E-13  0.00000000000E+00  0.18934459909E+04  0.21413846865E+04  0.10001953084E+04 0.  0.
         25    2    3    3    0    0  0.49868221645E+02 -0.12255554968E+03  0.25318168471E+03  0.31184353709E+03  0.12505488341E+03 0.  0.
         35    2    3    3    0    0 -0.49868221645E+02  0.12255554968E+03  0.16402643062E+04  0.18295411494E+04  0.79952931202E+03 0.  0.
         22    1    5    5    0    0 -0.28719171969E+03 -0.19511931601E+03  0.41165706055E+03  0.53852777722E+03  0.00000000000E+00 0.  1.
         22    1    5    5    0    0  0.23732349805E+03  0.31767486569E+03  0.12286072457E+04  0.12910133722E+04  0.00000000000E+00 0.  1.
          5    1    4    4  502    0  0.29190457861E+02 -0.12616108162E+03  0.11894351826E+03  0.17589301260E+03  0.47000000000E+01 0.  1.
         -5    1    4    4    0  502  0.20677763784E+02  0.36055319438E+01  0.13423816645E+03  0.13595052449E+03  0.47000000000E+01 0.  1.
<mgrwt>
<rscale>  0 0.10001953E+04</rscale>
<asrwt>0</asrwt>
<pdfrwt beam="1">  1        2 0.31037157E+00 0.10001953E+04</pdfrwt>
<pdfrwt beam="2">  1       -2 0.19072209E-01 0.10001953E+04</pdfrwt>
<totfact> 0.17783750E+02</totfact>
</mgrwt>
</event>
<event>
 9    1  0.4342579E-036  0.1000640E+04  0.7818608E-02  0.8680429E-01
          2   -1    0    0  501    0  0.00000000000E+00  0.00000000000E+00  0.56546967194E+03  0.56546967194E+03  0.00000000000E+00 0.  1.
         -2   -1    0    0    0  501 -0.00000000000E+00 -0.00000000000E+00 -0.44267612480E+03  0.44267612480E+03  0.00000000000E+00 0.  1.
         36    2    1    2    0    0  0.71054273576E-14 -0.71054273576E-14  0.12279354714E+03  0.10081457967E+04  0.10006396416E+04 0.  0.
         25    2    3    3    0    0  0.49691805819E+02  0.71536829676E+01  0.15419320429E+03  0.20499702401E+03  0.12541046550E+03 0.  0.
         35    2    3    3    0    0 -0.49691805819E+02 -0.71536829676E+01 -0.31399657146E+02  0.80314877272E+03  0.80096289672E+03 0.  0.
         22    1    5    5    0    0 -0.10013087507E+03  0.33818598445E+03  0.17911229506E+03  0.39557194853E+03  0.00000000000E+00 0.  1.
         22    1    5    5    0    0  0.50439069255E+02 -0.34533966742E+03 -0.21051195221E+03  0.40757682420E+03  0.00000000000E+00 0.  1.
          5    1    4    4  502    0  0.13062578138E+02 -0.33121132407E+02 -0.53925999336E+01  0.36315430516E+02  0.47000000000E+01 0. -1.
         -5    1    4    4    0  502  0.36629227681E+02  0.40274815375E+02  0.15958580422E+03  0.16868159349E+03  0.47000000000E+01 0. -1.
<mgrwt>
<rscale>  0 0.10006396E+04</rscale>
<asrwt>0</asrwt>
<pdfrwt beam="1">  1        2 0.86995334E-01 0.10006396E+04</pdfrwt>
<pdfrwt beam="2">  1       -2 0.68104019E-01 0.10006396E+04</pdfrwt>
<totfact> 0.12716826E+02</totfact>
</mgrwt>
</event>
<event>
 9    1  0.4342579E-036  0.1000204E+04  0.7818608E-02  0.8680844E-01
         -1   -1    0    0    0  501 -0.00000000000E+00  0.00000000000E+00  0.54362161594E+03  0.54362161594E+03  0.00000000000E+00 0. -1.
          1   -1    0    0  501    0  0.00000000000E+00 -0.00000000000E+00 -0.46006644537E+03  0.46006644537E+03  0.00000000000E+00 0. -1.
         36    2    1    2    0    0  0.00000000000E+00  0.00000000000E+00  0.83555170573E+02  0.10036880613E+04  0.10002041081E+04 0.  0.
         25    2    3    3    0    0 -0.28295900166E+02 -0.11264631455E+03 -0.73104689583E+02  0.18579753957E+03  0.12524607747E+03 0.  0.
         35    2    3    3    0    0  0.28295900166E+02  0.11264631455E+03  0.15665986016E+03  0.81789052174E+03  0.79430015965E+03 0.  0.
         22    1    5    5    0    0 -0.30445868300E+03  0.28227947959E+03  0.15844185955E+03  0.44438791288E+03  0.00000000000E+00 0.  1.
         22    1    5    5    0    0  0.33275458317E+03 -0.16963316505E+03 -0.17819993932E+01  0.37350260886E+03  0.00000000000E+00 0.  1.
          5    1    4    4  502    0 -0.74347037087E+02 -0.51887755375E+02 -0.58584180945E+02  0.10804636661E+03  0.47000000000E+01 0. -1.
         -5    1    4    4    0  502  0.46051136921E+02 -0.60758559172E+02 -0.14520508638E+02  0.77751172952E+02  0.47000000000E+01 0. -1.
<mgrwt>
<rscale>  0 0.10002041E+04</rscale>
<asrwt>0</asrwt>
<pdfrwt beam="1">  1        1 0.70779453E-01 0.10002041E+04</pdfrwt>
<pdfrwt beam="2">  1       -1 0.83634095E-01 0.10002041E+04</pdfrwt>
<totfact> 0.83508515E+01</totfact>
</mgrwt>
</event>
<event>
 9    1  0.4342579E-036  0.9996049E+03  0.7818608E-02  0.8681414E-01
          2   -1    0    0  501    0  0.00000000000E+00  0.00000000000E+00  0.12397792463E+04  0.12397792463E+04  0.00000000000E+00 0. -1.
         -2   -1    0    0    0  501 -0.00000000000E+00 -0.00000000000E+00 -0.20148949871E+03  0.20148949871E+03  0.00000000000E+00 0. -1.
         36    2    1    2    0    0  0.00000000000E+00  0.00000000000E+00  0.10382897476E+04  0.14412687450E+04  0.99960491963E+03 0.  0.
         25    2    3    3    0    0  0.18865517520E+01 -0.11554756422E+03  0.89582989970E+02  0.19229039662E+03  0.12488268841E+03 0.  0.
         35    2    3    3    0    0 -0.18865517520E+01  0.11554756422E+03  0.94870675760E+03  0.12489783484E+04  0.80408183918E+03 0.  0.
         22    1    5    5    0    0  0.17770339765E+03  0.11230414150E+02 -0.83087030761E+02  0.19648937482E+03  0.00000000000E+00 0. -1.
         22    1    5    5    0    0 -0.17958994940E+03  0.10431715007E+03  0.10317937884E+04  0.10524889735E+04  0.00000000000E+00 0. -1.
          5    1    4    4  502    0 -0.49338205761E+02 -0.10172829324E+02  0.41953971249E+02  0.65726484066E+02  0.47000000000E+01 0.  1.
         -5    1    4    4    0  502  0.51224757513E+02 -0.10537473489E+03  0.47629018721E+02  0.12656391255E+03  0.47000000000E+01 0.  1.
<mgrwt>
<rscale>  0 0.99960492E+03</rscale>
<asrwt>0</asrwt>
<pdfrwt beam="1">  1        2 0.19073526E+00 0.99960492E+03</pdfrwt>
<pdfrwt beam="2">  1       -2 0.30998385E-01 0.99960492E+03</pdfrwt>
<totfact> 0.20811535E+02</totfact>
</mgrwt>
</event>
<event>
 9    1  0.4342579E-036  0.9989455E+03  0.7818608E-02  0.8682043E-01
          2   -1    0    0  501    0  0.00000000000E+00  0.00000000000E+00  0.15978823239E+04  0.15978823239E+04  0.00000000000E+00 0. -1.
         -2   -1    0    0    0  501 -0.00000000000E+00 -0.00000000000E+00 -0.15612727116E+03  0.15612727116E+03  0.00000000000E+00 0. -1.
         36    2    1    2    0    0  0.00000000000E+00  0.14210854715E-13  0.14417550528E+04  0.17540095951E+04  0.99894545772E+03 0.  0.
         25    2    3    3    0    0  0.10312344093E+03  0.53341253429E+02  0.39852745217E+03  0.43409321449E+03  0.12701596491E+03 0.  0.
         35    2    3    3    0    0 -0.10312344093E+03 -0.53341253429E+02  0.10432276006E+04  0.13199163806E+04  0.80023477290E+03 0.  0.
         22    1    5    5    0    0 -0.37665120697E+02 -0.24913544307E+03 -0.45364562669E+01  0.25200736050E+03  0.00000000000E+00 0.  1.
         22    1    5    5    0    0 -0.65458320232E+02  0.19579418964E+03  0.10477640569E+04  0.10679090201E+04  0.00000000000E+00 0.  1.
          5    1    4    4  502    0  0.29069296850E+02  0.83365933965E+02  0.25299528327E+03  0.26799926552E+03  0.47000000000E+01 0. -1.
         -5    1    4    4    0  502  0.74054144079E+02 -0.30024680536E+02  0.14553216891E+03  0.16609394897E+03  0.47000000000E+01 0. -1.
<mgrwt>
<rscale>  0 0.99894546E+03</rscale>
<asrwt>0</asrwt>
<pdfrwt beam="1">  1        2 0.24582804E+00 0.99894546E+03</pdfrwt>
<pdfrwt beam="2">  1       -2 0.24019581E-01 0.99894546E+03</pdfrwt>
<totfact> 0.20539238E+02</totfact>
</mgrwt>
</event>
<event>
 9    1  0.4342579E-036  0.1002004E+04  0.7818608E-02  0.8679132E-01
         -1   -1    0    0    0  501 -0.00000000000E+00  0.00000000000E+00  0.64291926399E+03  0.64291926399E+03  0.00000000000E+00 0. -1.
          1   -1    0    0  501    0  0.00000000000E+00 -0.00000000000E+00 -0.39041145622E+03  0.39041145622E+03  0.00000000000E+00 0. -1.
         36    2    1    2    0    0 -0.71054273576E-14  0.00000000000E+00  0.25250780777E+03  0.10333307202E+04  0.10020040840E+04 0.  0.
         25    2    3    3    0    0 -0.15170477343E+02 -0.11279402905E+03  0.13312942073E+03  0.21510568782E+03  0.12487745151E+03 0.  0.
         35    2    3    3    0    0  0.15170477343E+02  0.11279402905E+03  0.11937838705E+03  0.81822503239E+03  0.80142895378E+03 0.  0.
         22    1    5    5    0    0 -0.29483938489E+02  0.36328551697E+03 -0.19533407083E+03  0.41352275476E+03  0.00000000000E+00 0. -1.
         22    1    5    5    0    0  0.44654415832E+02 -0.25049148792E+03  0.31471245788E+03  0.40470227763E+03  0.00000000000E+00 0. -1.
          5    1    4    4  502    0 -0.52432428721E+02 -0.22486296241E+02  0.10417017550E+02  0.58184167561E+02  0.47000000000E+01 0. -1.
         -5    1    4    4    0  502  0.37261951378E+02 -0.90307732813E+02  0.12271240318E+03  0.15692152026E+03  0.47000000000E+01 0. -1.
<mgrwt>
<rscale>  0 0.10020041E+04</rscale>
<asrwt>0</asrwt>
<pdfrwt beam="1">  1        1 0.60063301E-01 0.10020041E+04</pdfrwt>
<pdfrwt beam="2">  1       -1 0.98910656E-01 0.10020041E+04</pdfrwt>
<totfact> 0.72497248E+01</totfact>
</mgrwt>
</event>
<event>
 9    1  0.4342579E-036  0.1000491E+04  0.7818608E-02  0.8680571E-01
          2   -1    0    0  501    0  0.00000000000E+00  0.00000000000E+00  0.24842279214E+04  0.24842279214E+04  0.00000000000E+00 0. -1.
         -2   -1    0    0    0  501 -0.00000000000E+00 -0.00000000000E+00 -0.10073369408E+03  0.10073369408E+03  0.00000000000E+00 0. -1.
         36    2    1    2    0    0 -0.28421709430E-13  0.14210854715E-13  0.23834942273E+04  0.25849616155E+04  0.10004907905E+04 0.  0.
         25    2    3    3    0    0 -0.68423560762E+02  0.12291453826E+03  0.41666107645E+03  0.45726392201E+03  0.12527599273E+03 0.  0.
         35    2    3    3    0    0  0.68423560762E+02 -0.12291453826E+03  0.19668331509E+04  0.21276976935E+04  0.79929660585E+03 0.  0.
         22    1    5    5    0    0 -0.27828252584E+03  0.14982018106E+03  0.46362940660E+03  0.56110558499E+03  0.00000000000E+00 0. -1.
         22    1    5    5    0    0  0.34670608661E+03 -0.27273471932E+03  0.15032037443E+04  0.15665921085E+04  0.00000000000E+00 0. -1.
          5    1    4    4  502    0 -0.45184034503E+02  0.14336521021E+03  0.38208762778E+03  0.41061931978E+03  0.47000000000E+01 0.  1.
         -5    1    4    4    0  502 -0.23239526259E+02 -0.20450671946E+02  0.34573448670E+02  0.46644602225E+02  0.47000000000E+01 0.  1.
<mgrwt>
<rscale>  0 0.10004908E+04</rscale>
<asrwt>0</asrwt>
<pdfrwt beam="1">  1        2 0.38218886E+00 0.10004908E+04</pdfrwt>
<pdfrwt beam="2">  1       -2 0.15497493E-01 0.10004908E+04</pdfrwt>
<totfact> 0.13477237E+02</totfact>
</mgrwt>
</event>
<event>
 9    1  0.4342579E-036  0.1001298E+04  0.7818608E-02  0.8679802E-01
          3   -1    0    0  501    0  0.00000000000E+00  0.00000000000E+00  0.11736197002E+04  0.11736197002E+04  0.00000000000E+00 0. -1.
         -3   -1    0    0    0  501 -0.00000000000E+00 -0.00000000000E+00 -0.21356974013E+03  0.21356974013E+03  0.00000000000E+00 0. -1.
         36    2    1    2    0    0  0.00000000000E+00  0.14210854715E-13  0.96004996011E+03  0.13871894404E+04  0.10012984658E+04 0.  0.
         25    2    3    3    0    0 -0.53142246631E+02  0.10130666856E+03  0.29687409546E+03  0.34199893175E+03  0.12546673382E+03 0.  0.
         35    2    3    3    0    0  0.53142246631E+02 -0.10130666856E+03  0.66317586465E+03  0.10451905086E+04  0.79970859215E+03 0.  0.
         22    1    5    5    0    0 -0.18958420624E+02 -0.91796094856E+02 -0.17784331741E+03  0.20103280899E+03  0.00000000000E+00 0. -1.
         22    1    5    5    0    0  0.72100667254E+02 -0.95105737082E+01  0.84101918206E+03  0.84415769962E+03  0.00000000000E+00 0. -1.
          5    1    4    4  502    0 -0.74791537319E+02  0.14976048795E+02  0.99725248680E+02  0.12563944968E+03  0.47000000000E+01 0.  1.
         -5    1    4    4    0  502  0.21649290688E+02  0.86330619768E+02  0.19714884678E+03  0.21635948207E+03  0.47000000000E+01 0.  1.
<mgrwt>
<rscale>  0 0.10012985E+04</rscale>
<asrwt>0</asrwt>
<pdfrwt beam="1">  1        3 0.18055687E+00 0.10012985E+04</pdfrwt>
<pdfrwt beam="2">  1       -3 0.32856884E-01 0.10012985E+04</pdfrwt>
<totfact> 0.72994085E+00</totfact>
</mgrwt>
</event>
<event>
 9    1  0.4342579E-036  0.9991161E+03  0.7818608E-02  0.8681880E-01
          2   -1    0    0  501    0  0.00000000000E+00  0.00000000000E+00  0.22530186668E+03  0.22530186668E+03  0.00000000000E+00 0. -1.
         -2   -1    0    0    0  501 -0.00000000000E+00 -0.00000000000E+00 -0.11076615867E+04  0.11076615867E+04  0.00000000000E+00 0. -1.
         36    2    1    2    0    0  0.28421709430E-13 -0.28421709430E-13 -0.88235972005E+03  0.13329634534E+04  0.99911605560E+03 0.  0.
         25    2    3    3    0    0  0.70164027622E+02 -0.10664567939E+03 -0.94417711174E+02  0.20216699739E+03  0.12514191522E+03 0.  0.
         35    2    3    3    0    0 -0.70164027622E+02  0.10664567939E+03 -0.78794200887E+03  0.11307964560E+04  0.80096924029E+03 0.  0.
         22    1    5    5    0    0  0.20271194606E+03  0.23002703391E+03 -0.20838805563E+02  0.30730900609E+03  0.00000000000E+00 0.  1.
         22    1    5    5    0    0 -0.27287597369E+03 -0.12338135452E+03 -0.76710320331E+03  0.82348744993E+03  0.00000000000E+00 0.  1.
          5    1    4    4  502    0  0.90301488846E+02 -0.10246549824E+03 -0.11041528027E+03  0.17569052716E+03  0.47000000000E+01 0.  1.
         -5    1    4    4    0  502 -0.20137461223E+02 -0.41801811516E+01  0.15997569093E+02  0.26476470230E+02  0.47000000000E+01 0.  1.
<mgrwt>
<rscale>  0 0.99911606E+03</rscale>
<asrwt>0</asrwt>
<pdfrwt beam="1">  1        2 0.34661827E-01 0.99911606E+03</pdfrwt>
<pdfrwt beam="2">  1       -2 0.17040947E+00 0.99911606E+03</pdfrwt>
<totfact> 0.35620156E+01</totfact>
</mgrwt>
</event>
<event>
 9    1  0.4342579E-036  0.1000171E+04  0.7818608E-02  0.8680875E-01
          2   -1    0    0  501    0  0.00000000000E+00  0.00000000000E+00  0.92529667945E+03  0.92529667945E+03  0.00000000000E+00 0.  1.
         -2   -1    0    0    0  501 -0.00000000000E+00 -0.00000000000E+00 -0.27027611790E+03  0.27027611790E+03  0.00000000000E+00 0.  1.
         36    2    1    2    0    0  0.14210854715E-13  0.00000000000E+00  0.65502056155E+03  0.11955727974E+04  0.10001711742E+04 0.  0.
         25    2    3    3    0    0  0.53900884838E+02 -0.64392851257E+02  0.25918922266E+03  0.29913997036E+03  0.12350677732E+03 0.  0.
         35    2    3    3    0    0 -0.53900884838E+02  0.64392851257E+02  0.39583133889E+03  0.89643282699E+03  0.79991100742E+03 0.  0.
         22    1    5    5    0    0 -0.28881682304E+02 -0.17346071450E+03 -0.19287181990E+03  0.26100250949E+03  0.00000000000E+00 0.  1.
         22    1    5    5    0    0 -0.25019202535E+02  0.23785356576E+03  0.58870315879E+03  0.63543031751E+03  0.00000000000E+00 0.  1.
          5    1    4    4  502    0 -0.40005313168E+02 -0.25000026149E+02  0.81944757395E+02  0.94670268055E+02  0.47000000000E+01 0.  1.
         -5    1    4    4    0  502  0.93906198006E+02 -0.39392825108E+02  0.17724446526E+03  0.20446970231E+03  0.47000000000E+01 0.  1.
<mgrwt>
<rscale>  0 0.10001712E+04</rscale>
<asrwt>0</asrwt>
<pdfrwt beam="1">  1        2 0.14235333E+00 0.10001712E+04</pdfrwt>
<pdfrwt beam="2">  1       -2 0.41580942E-01 0.10001712E+04</pdfrwt>
<totfact> 0.18688408E+02</totfact>
</mgrwt>
</event>
<event>
 9    1  0.4342579E-036  0.9968685E+03  0.7818608E-02  0.8684026E-01
          2   -1    0    0  501    0  0.00000000000E+00  0.00000000000E+00  0.15440911679E+04  0.15440911679E+04  0.00000000000E+00 0.  1.
         -2   -1    0    0    0  501 -0.00000000000E+00 -0.00000000000E+00 -0.16089510107E+03  0.16089510107E+03  0.00000000000E+00 0.  1.
         36    2    1    2    0    0 -0.21316282073E-13 -0.71054273576E-14  0.13831960668E+04  0.17049862689E+04  0.99686850590E+03 0.  0.
         25    2    3    3    0    0  0.26785586704E+02  0.67815022846E+01  0.48202408181E+03  0.49893142018E+03  0.12578509519E+03 0.  0.
         35    2    3    3    0    0 -0.26785586704E+02 -0.67815022846E+01  0.90117198500E+03  0.12060548488E+04  0.80105798495E+03 0.  0.
         22    1    5    5    0    0  0.36670867543E+03  0.73449808994E+02  0.28345827772E+03  0.46927467680E+03  0.00000000000E+00 0. -1.
         22    1    5    5    0    0 -0.39349426213E+03 -0.80231311279E+02  0.61771370728E+03  0.73678017197E+03  0.00000000000E+00 0. -1.
          5    1    4    4  502    0  0.68783913611E+02 -0.25268274958E+02  0.32499012587E+03  0.33318220901E+03  0.47000000000E+01 0.  1.
         -5    1    4    4    0  502 -0.41998326907E+02  0.32049777243E+02  0.15703395594E+03  0.16574921117E+03  0.47000000000E+01 0.  1.
<mgrwt>
<rscale>  0 0.99686851E+03</rscale>
<asrwt>0</asrwt>
<pdfrwt beam="1">  1        2 0.23755248E+00 0.99686851E+03</pdfrwt>
<pdfrwt beam="2">  1       -2 0.24753094E-01 0.99686851E+03</pdfrwt>
<totfact> 0.20885484E+02</totfact>
</mgrwt>
</event>
<event>
 9    1  0.4342579E-036  0.9998395E+03  0.7818608E-02  0.8681191E-01
          2   -1    0    0  501    0  0.00000000000E+00  0.00000000000E+00  0.15649527488E+04  0.15649527488E+04  0.00000000000E+00 0.  1.
         -2   -1    0    0    0  501 -0.00000000000E+00 -0.00000000000E+00 -0.15969794104E+03  0.15969794104E+03  0.00000000000E+00 0.  1.
         36    2    1    2    0    0  0.00000000000E+00 -0.35527136788E-13  0.14052548078E+04  0.17246506899E+04  0.99983945073E+03 0.  0.
         25    2    3    3    0    0  0.12884782129E+03  0.23804757784E+02  0.34903719746E+03  0.39339782654E+03  0.12556455379E+03 0.  0.
         35    2    3    3    0    0 -0.12884782129E+03 -0.23804757784E+02  0.10562176103E+04  0.13312528633E+04  0.79966875530E+03 0.  0.
         22    1    5    5    0    0 -0.13864536896E+03  0.34895280029E+03  0.27440458608E+03  0.46506824448E+03  0.00000000000E+00 0.  1.
         22    1    5    5    0    0  0.97975476677E+01 -0.37275755807E+03  0.78181302424E+03  0.86618461884E+03  0.00000000000E+00 0.  1.
          5    1    4    4  502    0  0.15116908902E+03  0.43565571418E+01  0.28422038330E+03  0.32198507628E+03  0.47000000000E+01 0.  1.
         -5    1    4    4    0  502 -0.22321267728E+02  0.19448200642E+02  0.64816814162E+02  0.71412750258E+02  0.47000000000E+01 0.  1.
<mgrwt>
<rscale>  0 0.99983945E+03</rscale>
<asrwt>0</asrwt>
<pdfrwt beam="1">  1        2 0.24076195E+00 0.99983945E+03</pdfrwt>
<pdfrwt beam="2">  1       -2 0.24568915E-01 0.99983945E+03</pdfrwt>
<totfact> 0.20596744E+02</totfact>
</mgrwt>
</event>
<event>
 9    1  0.4342579E-036  0.9997860E+03  0.7818608E-02  0.8681242E-01
         -2   -1    0    0    0  501 -0.00000000000E+00  0.00000000000E+00  0.23349140976E+03  0.23349140976E+03  0.00000000000E+00 0.  1.
          2   -1    0    0  501    0  0.00000000000E+00 -0.00000000000E+00 -0.10702449052E+04  0.10702449052E+04  0.00000000000E+00 0.  1.
         36    2    1    2    0    0  0.14210854715E-13  0.00000000000E+00 -0.83675349539E+03  0.13037363149E+04  0.99978596049E+03 0.  0.
         25    2    3    3    0    0 -0.51407457362E+02 -0.64225082022E+02 -0.87629151640E+01  0.14973748598E+03  0.12480760471E+03 0.  0.
         35    2    3    3    0    0  0.51407457362E+02  0.64225082022E+02 -0.82799058023E+03  0.11539988289E+04  0.79961072304E+03 0.  0.
         22    1    5    5    0    0 -0.57900669532E+02  0.42221361821E+03 -0.49319553737E+03  0.65181183252E+03  0.00000000000E+00 0. -1.
         22    1    5    5    0    0  0.10930812689E+03 -0.35798853619E+03 -0.33479504286E+03  0.50218699641E+03  0.00000000000E+00 0. -1.
          5    1    4    4  502    0 -0.35671327414E+02 -0.25773942500E+02  0.56781319905E+02  0.71992694085E+02  0.47000000000E+01 0.  1.
         -5    1    4    4    0  502 -0.15736129949E+02 -0.38451139522E+02 -0.65544235069E+02  0.77744791897E+02  0.47000000000E+01 0.  1.
<mgrwt>
<rscale>  0 0.99978596E+03</rscale>
<asrwt>0</asrwt>
<pdfrwt beam="1">  1        2 0.16465306E+00 0.99978596E+03</pdfrwt>
<pdfrwt beam="2">  1       -2 0.35921756E-01 0.99978596E+03</pdfrwt>
<totfact> 0.20003879E+02</totfact>
</mgrwt>
</event>
<event>
 9    1  0.4342579E-036  0.1000542E+04  0.7818608E-02  0.8680522E-01
         -2   -1    0    0    0  501 -0.00000000000E+00  0.00000000000E+00  0.10677070415E+03  0.10677070415E+03  0.00000000000E+00 0. -1.
          2   -1    0    0  501    0  0.00000000000E+00 -0.00000000000E+00 -0.23440069138E+04  0.23440069138E+04  0.00000000000E+00 0. -1.
         36    2    1    2    0    0  0.00000000000E+00  0.56843418861E-13 -0.22372362096E+04  0.24507776179E+04  0.10005423903E+04 0.  0.
         25    2    3    3    0    0  0.74785908794E+02 -0.11080740585E+03 -0.53456477511E+03  0.56507114775E+03  0.12519860176E+03 0.  0.
         35    2    3    3    0    0 -0.74785908794E+02  0.11080740585E+03 -0.17026714345E+04  0.18857064702E+04  0.79932950928E+03 0.  0.
         22    1    5    5    0    0 -0.99875742435E+02  0.39451821827E+03 -0.47530894943E+03  0.62573028206E+03  0.00000000000E+00 0. -1.
         22    1    5    5    0    0  0.25089833641E+02 -0.28371081242E+03 -0.12273624851E+04  0.12599761881E+04  0.00000000000E+00 0. -1.
          5    1    4    4  502    0  0.77849881749E+02 -0.40738361487E+02 -0.14811097486E+03  0.17227643210E+03  0.47000000000E+01 0.  1.
         -5    1    4    4    0  502 -0.30639729550E+01 -0.70069044360E+02 -0.38645380026E+03  0.39279471565E+03  0.47000000000E+01 0.  1.
<mgrwt>
<rscale>  0 0.10005424E+04</rscale>
<asrwt>0</asrwt>
<pdfrwt beam="1">  1        2 0.36061644E+00 0.10005424E+04</pdfrwt>
<pdfrwt beam="2">  1       -2 0.16426263E-01 0.10005424E+04</pdfrwt>
<totfact> 0.14827598E+02</totfact>
</mgrwt>
</event>
<event>
 9    1  0.4342579E-036  0.1000664E+04  0.7818608E-02  0.8680406E-01
          2   -1    0    0  501    0  0.00000000000E+00  0.00000000000E+00  0.13945830728E+04  0.13945830728E+04  0.00000000000E+00 0.  1.
         -2   -1    0    0    0  501 -0.00000000000E+00 -0.00000000000E+00 -0.17950305082E+03  0.17950305082E+03  0.00000000000E+00 0.  1.
         36    2    1    2    0    0 -0.21316282073E-13  0.71054273576E-14  0.12150800220E+04  0.15740861236E+04  0.10006636122E+04 0.  0.
         25    2    3    3    0    0 -0.40763948612E+02 -0.60902136077E+01  0.43783448600E+03  0.45724378635E+03  0.12519605751E+03 0.  0.
         35    2    3    3    0    0  0.40763948612E+02  0.60902136077E+01  0.77724553601E+03  0.11168423373E+04  0.80095405169E+03 0.  0.
         22    1    5    5    0    0 -0.30308199639E+03 -0.13788867594E+03  0.63659266036E+03  0.71841645214E+03  0.00000000000E+00 0.  1.
         22    1    5    5    0    0  0.34384594500E+03  0.14397888955E+03  0.14065287565E+03  0.39842588515E+03  0.00000000000E+00 0.  1.
          5    1    4    4  502    0 -0.28044495061E+01  0.55997045467E+02  0.23677909575E+03  0.24337206952E+03  0.47000000000E+01 0. -1.
         -5    1    4    4    0  502 -0.37959499106E+02 -0.62087259075E+02  0.20105539026E+03  0.21387171684E+03  0.47000000000E+01 0. -1.
<mgrwt>
<rscale>  0 0.10006636E+04</rscale>
<asrwt>0</asrwt>
<pdfrwt beam="1">  1        2 0.21455124E+00 0.10006636E+04</pdfrwt>
<pdfrwt beam="2">  1       -2 0.27615855E-01 0.10006636E+04</pdfrwt>
<totfact> 0.20887208E+02</totfact>
</mgrwt>
</event>
<event>
 9    1  0.4342579E-036  0.9996149E+03  0.7818608E-02  0.8681405E-01
          2   -1    0    0  501    0  0.00000000000E+00  0.00000000000E+00  0.58220198155E+03  0.58220198155E+03  0.00000000000E+00 0.  1.
         -2   -1    0    0    0  501 -0.00000000000E+00 -0.00000000000E+00 -0.42907357860E+03  0.42907357860E+03  0.00000000000E+00 0.  1.
         36    2    1    2    0    0  0.00000000000E+00  0.14210854715E-13  0.15312840295E+03  0.10112755602E+04  0.99961490124E+03 0.  0.
         25    2    3    3    0    0  0.84279173539E+02 -0.74405397794E+02 -0.55666813798E+02  0.17659494991E+03  0.12428933929E+03 0.  0.
         35    2    3    3    0    0 -0.84279173539E+02  0.74405397794E+02  0.20879521675E+03  0.83468061025E+03  0.80028565917E+03 0.  0.
         22    1    5    5    0    0 -0.23687179624E+03 -0.27796061632E+03  0.25858596476E+03  0.44747855060E+03  0.00000000000E+00 0. -1.
         22    1    5    5    0    0  0.15259262270E+03  0.35236601412E+03 -0.49790748013E+02  0.38720205964E+03  0.00000000000E+00 0. -1.
          5    1    4    4  502    0 -0.22896333331E+02  0.72765395904E+01 -0.31035265376E+02  0.39528063517E+02  0.47000000000E+01 0.  1.
         -5    1    4    4    0  502  0.10717550687E+03 -0.81681937384E+02 -0.24631548422E+02  0.13706688639E+03  0.47000000000E+01 0.  1.
<mgrwt>
<rscale>  0 0.99961490E+03</rscale>
<asrwt>0</asrwt>
<pdfrwt beam="1">  1        2 0.89569535E-01 0.99961490E+03</pdfrwt>
<pdfrwt beam="2">  1       -2 0.66011320E-01 0.99961490E+03</pdfrwt>
<totfact> 0.13140311E+02</totfact>
</mgrwt>
</event>
<event>
 9    1  0.4342579E-036  0.9984577E+03  0.7818608E-02  0.8682508E-01
          1   -1    0    0  501    0  0.00000000000E+00  0.00000000000E+00  0.27518961180E+04  0.27518961180E+04  0.00000000000E+00 0. -1.
         -1   -1    0    0    0  501 -0.00000000000E+00 -0.00000000000E+00 -0.90566443179E+02  0.90566443179E+02  0.00000000000E+00 0. -1.
         36    2    1    2    0    0  0.00000000000E+00  0.21316282073E-13  0.26613296748E+04  0.28424625611E+04  0.99845769745E+03 0.  0.
         25    2    3    3    0    0  0.12977995152E+03 -0.48373804931E+02  0.48807603817E+03  0.52257043552E+03  0.12521493610E+03 0.  0.
         35    2    3    3    0    0 -0.12977995152E+03  0.48373804931E+02  0.21732536366E+04  0.23198921256E+04  0.79980325371E+03 0.  0.
         22    1    5    5    0    0  0.25762615237E+02 -0.36536706549E+03  0.10915708793E+04  0.11513834242E+04  0.00000000000E+00 0. -1.
         22    1    5    5    0    0 -0.15554256676E+03  0.41374087042E+03  0.10816827573E+04  0.11685087015E+04  0.00000000000E+00 0. -1.
          5    1    4    4  502    0  0.12829336242E+03 -0.66124429078E+02  0.48200655319E+03  0.50317396025E+03  0.47000000000E+01 0.  1.
         -5    1    4    4    0  502  0.14865891049E+01  0.17750624147E+02  0.60694849793E+01  0.19396475264E+02  0.47000000000E+01 0.  1.
<mgrwt>
<rscale>  0 0.99845770E+03</rscale>
<asrwt>0</asrwt>
<pdfrwt beam="1">  1        1 0.42336857E+00 0.99845770E+03</pdfrwt>
<pdfrwt beam="2">  1       -1 0.13933301E-01 0.99845770E+03</pdfrwt>
<totfact> 0.33990039E+01</totfact>
</mgrwt>
</event>
<event>
 9    1  0.4342579E-036  0.9998358E+03  0.7818608E-02  0.8681194E-01
         -2   -1    0    0    0  501 -0.00000000000E+00  0.00000000000E+00  0.12275942865E+03  0.12275942865E+03  0.00000000000E+00 0. -1.
          2   -1    0    0  501    0  0.00000000000E+00 -0.00000000000E+00 -0.20358346396E+04  0.20358346396E+04  0.00000000000E+00 0. -1.
         36    2    1    2    0    0  0.42632564146E-13  0.00000000000E+00 -0.19130752110E+04  0.21585940683E+04  0.99983578088E+03 0.  0.
         25    2    3    3    0    0  0.12030381333E+03  0.49993713294E+02 -0.23942477502E+03  0.30003446940E+03  0.12539569794E+03 0.  0.
         35    2    3    3    0    0 -0.12030381333E+03 -0.49993713294E+02 -0.16736504359E+04  0.18585595988E+04  0.79759991344E+03 0.  0.
         22    1    5    5    0    0 -0.42532222111E+03 -0.14129136964E+02 -0.13359443263E+04  0.14020862552E+04  0.00000000000E+00 0. -1.
         22    1    5    5    0    0  0.30501840777E+03 -0.35864576330E+02 -0.33770610967E+03  0.45647334361E+03  0.00000000000E+00 0. -1.
          5    1    4    4  502    0  0.93184949419E+02  0.82063886683E+02 -0.11758636155E+03  0.17107471677E+03  0.47000000000E+01 0.  1.
         -5    1    4    4    0  502  0.27118863913E+02 -0.32070173389E+02 -0.12183841347E+03  0.12895975263E+03  0.47000000000E+01 0.  1.
<mgrwt>
<rscale>  0 0.99983578E+03</rscale>
<asrwt>0</asrwt>
<pdfrwt beam="1">  1        2 0.31320534E+00 0.99983578E+03</pdfrwt>
<pdfrwt beam="2">  1       -2 0.18886065E-01 0.99983578E+03</pdfrwt>
<totfact> 0.17653535E+02</totfact>
</mgrwt>
</event>
<event>
 9    1  0.4342579E-036  0.1000238E+04  0.7818608E-02  0.8680811E-01
         -2   -1    0    0    0  501 -0.00000000000E+00  0.00000000000E+00  0.27833180224E+03  0.27833180224E+03  0.00000000000E+00 0.  1.
          2   -1    0    0  501    0  0.00000000000E+00 -0.00000000000E+00 -0.89863598091E+03  0.89863598091E+03  0.00000000000E+00 0.  1.
         36    2    1    2    0    0  0.14210854715E-13  0.00000000000E+00 -0.62030417867E+03  0.11769677832E+04  0.10002379159E+04 0.  0.
         25    2    3    3    0    0  0.44590853494E+02 -0.13409448650E+03 -0.12260022687E+03  0.22456942674E+03  0.12422131973E+03 0.  0.
         35    2    3    3    0    0 -0.44590853494E+02  0.13409448650E+03 -0.49770395180E+03  0.95239835641E+03  0.79961473856E+03 0.  0.
         22    1    5    5    0    0  0.10818408048E+03  0.61832791919E+02 -0.68724714918E+03  0.69845238454E+03  0.00000000000E+00 0. -1.
         22    1    5    5    0    0 -0.15277493398E+03  0.72261694582E+02  0.18954319737E+03  0.25394597186E+03  0.00000000000E+00 0. -1.
          5    1    4    4  502    0 -0.35829128269E+02 -0.39628463435E+02 -0.73672911293E+02  0.91125898652E+02  0.47000000000E+01 0. -1.
         -5    1    4    4    0  502  0.80419981763E+02 -0.94466023066E+02 -0.48927315573E+02  0.13344352809E+03  0.47000000000E+01 0. -1.
<mgrwt>
<rscale>  0 0.10002379E+04</rscale>
<asrwt>0</asrwt>
<pdfrwt beam="1">  1        2 0.13825169E+00 0.10002379E+04</pdfrwt>
<pdfrwt beam="2">  1       -2 0.42820277E-01 0.10002379E+04</pdfrwt>
<totfact> 0.18380569E+02</totfact>
</mgrwt>
</event>
<event>
 9    1  0.4342579E-036  0.9958441E+03  0.7818608E-02  0.8685006E-01
          4   -1    0    0  501    0  0.00000000000E+00  0.00000000000E+00  0.12555433466E+04  0.12555433466E+04  0.00000000000E+00 0.  1.
         -4   -1    0    0    0  501 -0.00000000000E+00 -0.00000000000E+00 -0.19746539519E+03  0.19746539519E+03  0.00000000000E+00 0.  1.
         36    2    1    2    0    0  0.14210854715E-13  0.00000000000E+00  0.10580779514E+04  0.14530087418E+04  0.99584409044E+03 0.  0.
         25    2    3    3    0    0  0.68533499205E+02  0.90925054975E+02  0.29947716401E+03  0.34402357039E+03  0.12530538331E+03 0.  0.
         35    2    3    3    0    0 -0.68533499205E+02 -0.90925054975E+02  0.75860078743E+03  0.11089851714E+04  0.80087998452E+03 0.  0.
         22    1    5    5    0    0  0.13205073511E+03 -0.46997610305E+02  0.86599077963E+03  0.87726062400E+03  0.00000000000E+00 0. -1.
         22    1    5    5    0    0 -0.20058423432E+03 -0.43927444670E+02 -0.10738999220E+03  0.23172454742E+03  0.00000000000E+00 0. -1.
          5    1    4    4  502    0 -0.11791769618E+01  0.61429296871E+01  0.18568884295E+03  0.18585360486E+03  0.47000000000E+01 0. -1.
         -5    1    4    4    0  502  0.69712676167E+02  0.84782125288E+02  0.11378832105E+03  0.15816996553E+03  0.47000000000E+01 0. -1.
<mgrwt>
<rscale>  0 0.99584409E+03</rscale>
<asrwt>0</asrwt>
<pdfrwt beam="1">  1        4 0.19316051E+00 0.99584409E+03</pdfrwt>
<pdfrwt beam="2">  1       -4 0.30379292E-01 0.99584409E+03</pdfrwt>
<totfact> 0.27517417E+00</totfact>
</mgrwt>
</event>
<event>
 9    1  0.4342579E-036  0.9999274E+03  0.7818608E-02  0.8681107E-01
          2   -1    0    0  501    0  0.00000000000E+00  0.00000000000E+00  0.27531340073E+04  0.27531340073E+04  0.00000000000E+00 0.  1.
         -2   -1    0    0    0  501 -0.00000000000E+00 -0.00000000000E+00 -0.90792423618E+02  0.90792423618E+02  0.00000000000E+00 0.  1.
         36    2    1    2    0    0 -0.14210854715E-13  0.21316282073E-13  0.26623415837E+04  0.28439264309E+04  0.99992741551E+03 0.  0.
         25    2    3    3    0    0 -0.89385625967E+02  0.22536887994E+01  0.80459632478E+03  0.81912608613E+03  0.12488967089E+03 0.  0.
         35    2    3    3    0    0  0.89385625967E+02 -0.22536887994E+01  0.18577452589E+04  0.20248003448E+04  0.80037748596E+03 0.  0.
         22    1    5    5    0    0 -0.12836909365E+03  0.32066497624E+03  0.46894758995E+03  0.58242295054E+03  0.00000000000E+00 0. -1.
         22    1    5    5    0    0  0.21775471962E+03 -0.32291866504E+03  0.13887976690E+04  0.14423773943E+04  0.00000000000E+00 0. -1.
          5    1    4    4  502    0  0.66000610146E+01 -0.42352672615E+02  0.33267707014E+03  0.33546003142E+03  0.47000000000E+01 0. -1.
         -5    1    4    4    0  502 -0.95985686982E+02  0.44606361414E+02  0.47191925464E+03  0.48366605471E+03  0.47000000000E+01 0. -1.
<mgrwt>
<rscale>  0 0.99992742E+03</rscale>
<asrwt>0</asrwt>
<pdfrwt beam="1">  1        2 0.42355902E+00 0.99992742E+03</pdfrwt>
<pdfrwt beam="2">  1       -2 0.13968067E-01 0.99992742E+03</pdfrwt>
<totfact> 0.10916472E+02</totfact>
</mgrwt>
</event>
<event>
 9    1  0.4342579E-036  0.9993748E+03  0.7818608E-02  0.8681634E-01
         -2   -1    0    0    0  501 -0.00000000000E+00  0.00000000000E+00  0.11513755698E+03  0.11513755698E+03  0.00000000000E+00 0. -1.
          2   -1    0    0  501    0  0.00000000000E+00 -0.00000000000E+00 -0.21686015502E+04  0.21686015502E+04  0.00000000000E+00 0. -1.
         36    2    1    2    0    0  0.42632564146E-13  0.14210854715E-13 -0.20534639932E+04  0.22837391072E+04  0.99937477367E+03 0.  0.
         25    2    3    3    0    0  0.18944123310E+02  0.56515191644E+02 -0.97844489090E+02  0.16980952774E+03  0.12533509074E+03 0.  0.
         35    2    3    3    0    0 -0.18944123310E+02 -0.56515191644E+02 -0.19556195041E+04  0.21139295794E+04  0.80043599073E+03 0.  0.
         22    1    5    5    0    0  0.28821337268E+03 -0.28639307078E+03 -0.81784988759E+03  0.91321759609E+03  0.00000000000E+00 0.  1.
         22    1    5    5    0    0 -0.30715749599E+03  0.22987787914E+03 -0.11377696165E+04  0.12007119834E+04  0.00000000000E+00 0.  1.
          5    1    4    4  502    0  0.61142871735E+02  0.65871950979E+02 -0.86608538079E+02  0.12490273639E+03  0.47000000000E+01 0. -1.
         -5    1    4    4    0  502 -0.42198748425E+02 -0.93567593349E+01 -0.11235951011E+02  0.44906791346E+02  0.47000000000E+01 0. -1.
<mgrwt>
<rscale>  0 0.99937477E+03</rscale>
<asrwt>0</asrwt>
<pdfrwt beam="1">  1        2 0.33363098E+00 0.99937477E+03</pdfrwt>
<pdfrwt beam="2">  1       -2 0.17713472E-01 0.99937477E+03</pdfrwt>
<totfact> 0.16526017E+02</totfact>
</mgrwt>
</event>
<event>
 9    1  0.4342579E-036  0.9991526E+03  0.7818608E-02  0.8681845E-01
         -2   -1    0    0    0  501 -0.00000000000E+00  0.00000000000E+00  0.86387579514E+03  0.86387579514E+03  0.00000000000E+00 0. -1.
          2   -1    0    0  501    0  0.00000000000E+00 -0.00000000000E+00 -0.28890320081E+03  0.28890320081E+03  0.00000000000E+00 0. -1.
         36    2    1    2    0    0  0.00000000000E+00  0.00000000000E+00  0.57497259433E+03  0.11527789960E+04  0.99915260560E+03 0.  0.
         25    2    3    3    0    0 -0.20515112203E+02  0.13697141348E+03  0.11758559430E+03  0.22095262110E+03  0.12574438694E+03 0.  0.
         35    2    3    3    0    0  0.20515112203E+02 -0.13697141348E+03  0.45738700003E+03  0.93182637485E+03  0.79994717771E+03 0.  0.
         22    1    5    5    0    0 -0.19440510703E+02  0.17919795877E+03  0.56688807958E+03  0.59485455084E+03  0.00000000000E+00 0.  1.
         22    1    5    5    0    0  0.39955622905E+02 -0.31616937225E+03 -0.10950107955E+03  0.33697182401E+03  0.00000000000E+00 0.  1.
          5    1    4    4  502    0 -0.67879594855E+02  0.79872671791E+02  0.99159601342E+02  0.14436758513E+03  0.47000000000E+01 0.  1.
         -5    1    4    4    0  502  0.47364482652E+02  0.57098741688E+02  0.18425992961E+02  0.76585035979E+02  0.47000000000E+01 0.  1.
<mgrwt>
<rscale>  0 0.99915261E+03</rscale>
<asrwt>0</asrwt>
<pdfrwt beam="1">  1        2 0.44446647E-01 0.99915261E+03</pdfrwt>
<pdfrwt beam="2">  1       -2 0.13290397E+00 0.99915261E+03</pdfrwt>
<totfact> 0.54132382E+01</totfact>
</mgrwt>
</event>
<event>
 9    1  0.4342579E-036  0.1000115E+04  0.7818608E-02  0.8680929E-01
         -2   -1    0    0    0  501 -0.00000000000E+00  0.00000000000E+00  0.41119154408E+03  0.41119154408E+03  0.00000000000E+00 0. -1.
          2   -1    0    0  501    0  0.00000000000E+00 -0.00000000000E+00 -0.60812847841E+03  0.60812847841E+03  0.00000000000E+00 0. -1.
         36    2    1    2    0    0  0.28421709430E-13  0.14210854715E-13 -0.19693693433E+03  0.10193200225E+04  0.10001145695E+04 0.  0.
         25    2    3    3    0    0 -0.34610257966E+02  0.70939127985E+02 -0.15269341434E+03  0.21420830332E+03  0.12782679137E+03 0.  0.
         35    2    3    3    0    0  0.34610257966E+02 -0.70939127985E+02 -0.44243519988E+02  0.80511171917E+03  0.80001072584E+03 0.  0.
         22    1    5    5    0    0 -0.32310585589E+03 -0.33273075654E+02 -0.23219461674E+03  0.39927287877E+03  0.00000000000E+00 0. -1.
         22    1    5    5    0    0  0.35771611386E+03 -0.37666052330E+02  0.18795109675E+03  0.40583884041E+03  0.00000000000E+00 0. -1.
          5    1    4    4  502    0  0.31913773008E+02  0.39638374296E+02 -0.78481259280E+01  0.51704668116E+02  0.47000000000E+01 0. -1.
         -5    1    4    4    0  502 -0.66524030974E+02  0.31300753689E+02 -0.14484528841E+03  0.16250363520E+03  0.47000000000E+01 0. -1.
<mgrwt>
<rscale>  0 0.10001146E+04</rscale>
<asrwt>0</asrwt>
<pdfrwt beam="1">  1        2 0.93558228E-01 0.10001146E+04</pdfrwt>
<pdfrwt beam="2">  1       -2 0.63260237E-01 0.10001146E+04</pdfrwt>
<totfact> 0.13661303E+02</totfact>
</mgrwt>
</event>
<event>
 9    1  0.4342579E-036  0.1011716E+04  0.7818608E-02  0.8669960E-01
         -2   -1    0    0    0  501 -0.00000000000E+00  0.00000000000E+00  0.18488003658E+03  0.18488003658E+03  0.00000000000E+00 0. -1.
          2   -1    0    0  501    0  0.00000000000E+00 -0.00000000000E+00 -0.13840987825E+04  0.13840987825E+04  0.00000000000E+00 0. -1.
         36    2    1    2    0    0  0.17763568394E-13  0.00000000000E+00 -0.11992187460E+04  0.15689788191E+04  0.10117158367E+04 0.  0.
         25    2    3    3    0    0 -0.25396186495E+02  0.14645463298E+03 -0.17872296175E+03  0.26407198041E+03  0.12529240987E+03 0.  0.
         35    2    3    3    0    0  0.25396186495E+02 -0.14645463298E+03 -0.10204957842E+04  0.13049068387E+04  0.79954755100E+03 0.  0.
         22    1    5    5    0    0 -0.37760916591E+03  0.17743918775E+02 -0.48154719473E+03  0.61220195163E+03  0.00000000000E+00 0. -1.
         22    1    5    5    0    0  0.40300535241E+03 -0.16419855176E+03 -0.53894858948E+03  0.69270488707E+03  0.00000000000E+00 0. -1.
          5    1    4    4  502    0 -0.88270302732E+01  0.83931433738E+02 -0.18037661675E+03  0.19919893550E+03  0.47000000000E+01 0. -1.
         -5    1    4    4    0  502 -0.16569156221E+02  0.62523199247E+02  0.16536549982E+01  0.64873044917E+02  0.47000000000E+01 0. -1.
<mgrwt>
<rscale>  0 0.10117158E+04</rscale>
<asrwt>0</asrwt>
<pdfrwt beam="1">  1        2 0.21293826E+00 0.10117158E+04</pdfrwt>
<pdfrwt beam="2">  1       -2 0.28443084E-01 0.10117158E+04</pdfrwt>
<totfact> 0.20078349E+02</totfact>
</mgrwt>
</event>
<event>
 9    1  0.4342579E-036  0.9996749E+03  0.7818608E-02  0.8681348E-01
         -2   -1    0    0    0  501 -0.00000000000E+00  0.00000000000E+00  0.17653340395E+03  0.17653340395E+03  0.00000000000E+00 0. -1.
          2   -1    0    0  501    0  0.00000000000E+00 -0.00000000000E+00 -0.14152419185E+04  0.14152419185E+04  0.00000000000E+00 0. -1.
         36    2    1    2    0    0 -0.28421709430E-13  0.14210854715E-13 -0.12387085145E+04  0.15917753224E+04  0.99967489371E+03 0.  0.
         25    2    3    3    0    0  0.11688137252E+03 -0.10285278580E+02 -0.11326033943E+03  0.20543382548E+03  0.12493242159E+03 0.  0.
         35    2    3    3    0    0 -0.11688137252E+03  0.10285278580E+02 -0.11254481751E+04  0.13863414970E+04  0.80096323832E+03 0.  0.
         22    1    5    5    0    0  0.25635259803E+03  0.23524527823E+03 -0.67615252905E+03  0.76042043501E+03  0.00000000000E+00 0. -1.
         22    1    5    5    0    0 -0.37323397055E+03 -0.22495999965E+03 -0.44929564606E+03  0.62592106195E+03  0.00000000000E+00 0. -1.
          5    1    4    4  502    0  0.12140323294E+03  0.27206289595E+02 -0.11182921447E+03  0.16735229420E+03  0.47000000000E+01 0.  1.
         -5    1    4    4    0  502 -0.45218604220E+01 -0.37491568175E+02 -0.14311249542E+01  0.38081531279E+02  0.47000000000E+01 0.  1.
<mgrwt>
<rscale>  0 0.99967489E+03</rscale>
<asrwt>0</asrwt>
<pdfrwt beam="1">  1        2 0.21772953E+00 0.99967489E+03</pdfrwt>
<pdfrwt beam="2">  1       -2 0.27158985E-01 0.99967489E+03</pdfrwt>
<totfact> 0.20946252E+02</totfact>
</mgrwt>
</event>
<event>
 9    1  0.4342579E-036  0.1000146E+04  0.7818608E-02  0.8680899E-01
          2   -1    0    0  501    0  0.00000000000E+00  0.00000000000E+00  0.40403534683E+03  0.40403534683E+03  0.00000000000E+00 0. -1.
         -2   -1    0    0    0  501 -0.00000000000E+00 -0.00000000000E+00 -0.61893838749E+03  0.61893838749E+03  0.00000000000E+00 0. -1.
         36    2    1    2    0    0 -0.42632564146E-13  0.00000000000E+00 -0.21490304066E+03  0.10229737343E+04  0.10001459615E+04 0.  0.
         25    2    3    3    0    0 -0.86910464470E+02  0.27849217386E+02  0.70500753985E+02  0.16943164446E+03  0.12412782963E+03 0.  0.
         35    2    3    3    0    0  0.86910464470E+02 -0.27849217386E+02 -0.28540379465E+03  0.85354208986E+03  0.79921822140E+03 0.  0.
         22    1    5    5    0    0 -0.17664801926E+03  0.96285713891E+02  0.20239107724E+03  0.28537275546E+03  0.00000000000E+00 0. -1.
         22    1    5    5    0    0  0.26355848373E+03 -0.12413493128E+03 -0.48779487189E+03  0.56816933440E+03  0.00000000000E+00 0. -1.
          5    1    4    4  502    0 -0.26298265194E+02 -0.46188617183E+02  0.46244741432E+02  0.70609158185E+02  0.47000000000E+01 0.  1.
         -5    1    4    4    0  502 -0.60612199277E+02  0.74037834569E+02  0.24256012553E+02  0.98822486276E+02  0.47000000000E+01 0.  1.
<mgrwt>
<rscale>  0 0.10001460E+04</rscale>
<asrwt>0</asrwt>
<pdfrwt beam="1">  1        2 0.62159284E-01 0.10001460E+04</pdfrwt>
<pdfrwt beam="2">  1       -2 0.95221291E-01 0.10001460E+04</pdfrwt>
<totfact> 0.86850741E+01</totfact>
</mgrwt>
</event>
<event>
 9    1  0.4342579E-036  0.9998181E+03  0.7818608E-02  0.8681211E-01
          2   -1    0    0  501    0  0.00000000000E+00  0.00000000000E+00  0.39420487877E+03  0.39420487877E+03  0.00000000000E+00 0.  1.
         -2   -1    0    0    0  501 -0.00000000000E+00 -0.00000000000E+00 -0.63395727651E+03  0.63395727651E+03  0.00000000000E+00 0.  1.
         36    2    1    2    0    0  0.14210854715E-13  0.71054273576E-14 -0.23975239774E+03  0.10281621553E+04  0.99981808612E+03 0.  0.
         25    2    3    3    0    0  0.20933264175E+02  0.51686009838E+02  0.86590434824E+02  0.16251009328E+03  0.12570593404E+03 0.  0.
         35    2    3    3    0    0 -0.20933264175E+02 -0.51686009838E+02 -0.32634283257E+03  0.86565206200E+03  0.79984011085E+03 0.  0.
         22    1    5    5    0    0 -0.16786648208E+03 -0.40395978836E+02  0.23143003082E+03  0.28874010819E+03  0.00000000000E+00 0.  1.
         22    1    5    5    0    0  0.14693321791E+03 -0.11290031002E+02 -0.55777286339E+03  0.57691195382E+03  0.00000000000E+00 0.  1.
          5    1    4    4  502    0 -0.47695186972E+02  0.32036869699E+02  0.66895885465E+02  0.88308218035E+02  0.47000000000E+01 0.  1.
         -5    1    4    4    0  502  0.68628451147E+02  0.19649140140E+02  0.19694549359E+02  0.74201875242E+02  0.47000000000E+01 0.  1.
<mgrwt>
<rscale>  0 0.99981809E+03</rscale>
<asrwt>0</asrwt>
<pdfrwt beam="1">  1        2 0.60646904E-01 0.99981809E+03</pdfrwt>
<pdfrwt beam="2">  1       -2 0.97531889E-01 0.99981809E+03</pdfrwt>
<totfact> 0.84297429E+01</totfact>
</mgrwt>
</event>
<event>
 9    1  0.4342579E-036  0.9998613E+03  0.7818608E-02  0.8681170E-01
         -1   -1    0    0    0  501 -0.00000000000E+00  0.00000000000E+00  0.18237161306E+03  0.18237161306E+03  0.00000000000E+00 0. -1.
          1   -1    0    0  501    0  0.00000000000E+00 -0.00000000000E+00 -0.13704471256E+04  0.13704471256E+04  0.00000000000E+00 0. -1.
         36    2    1    2    0    0  0.71054273576E-14  0.28421709430E-13 -0.11880755125E+04  0.15528187386E+04  0.99986129619E+03 0.  0.
         25    2    3    3    0    0 -0.46895733001E+02 -0.13119258880E+03 -0.19373763368E+03  0.26927095612E+03  0.12474723234E+03 0.  0.
         35    2    3    3    0    0  0.46895733001E+02  0.13119258880E+03 -0.99433787884E+03  0.12835477825E+04  0.79961014725E+03 0.  0.
         22    1    5    5    0    0  0.33975384414E+03  0.21932612006E+03 -0.24164161928E+03  0.47109159801E+03  0.00000000000E+00 0. -1.
         22    1    5    5    0    0 -0.29285811114E+03 -0.88133531261E+02 -0.75269625956E+03  0.81245618451E+03  0.00000000000E+00 0. -1.
          5    1    4    4  502    0 -0.88621080310E+02 -0.10132575342E+03 -0.12871654516E+03  0.18630792570E+03  0.47000000000E+01 0.  1.
         -5    1    4    4    0  502  0.41725347309E+02 -0.29866835379E+02 -0.65021088520E+02  0.82963030417E+02  0.47000000000E+01 0.  1.
<mgrwt>
<rscale>  0 0.99986130E+03</rscale>
<asrwt>0</asrwt>
<pdfrwt beam="1">  1        1 0.21083801E+00 0.99986130E+03</pdfrwt>
<pdfrwt beam="2">  1       -1 0.28057172E-01 0.99986130E+03</pdfrwt>
<totfact> 0.10072072E+02</totfact>
</mgrwt>
</event>
<event>
 9    1  0.4342579E-036  0.1000698E+04  0.7818608E-02  0.8680374E-01
         -2   -1    0    0    0  501 -0.00000000000E+00  0.00000000000E+00  0.11740142033E+03  0.11740142033E+03  0.00000000000E+00 0. -1.
          2   -1    0    0  501    0  0.00000000000E+00 -0.00000000000E+00 -0.21324187217E+04  0.21324187217E+04  0.00000000000E+00 0. -1.
         36    2    1    2    0    0  0.28421709430E-13  0.14210854715E-13 -0.20150173014E+04  0.22498201421E+04  0.10006977299E+04 0.  0.
         25    2    3    3    0    0  0.60252305697E+02 -0.10234495829E+03 -0.54839112852E+03  0.57485692814E+03  0.12499130834E+03 0.  0.
         35    2    3    3    0    0 -0.60252305697E+02  0.10234495829E+03 -0.14666261729E+04  0.16749632139E+04  0.80025283892E+03 0.  0.
         22    1    5    5    0    0 -0.30723684219E+03  0.34424089332E+03 -0.78114440721E+03  0.90723913868E+03  0.00000000000E+00 0.  1.
         22    1    5    5    0    0  0.24698453649E+03 -0.24189593503E+03 -0.68548176565E+03  0.76772407523E+03  0.00000000000E+00 0.  1.
          5    1    4    4  502    0  0.12419083514E+02 -0.11897842905E+03 -0.42092094123E+03  0.43761470380E+03  0.47000000000E+01 0.  1.
         -5    1    4    4    0  502  0.47833222184E+02  0.16633470764E+02 -0.12747018730E+03  0.13724222435E+03  0.47000000000E+01 0.  1.
<mgrwt>
<rscale>  0 0.10006977E+04</rscale>
<asrwt>0</asrwt>
<pdfrwt beam="1">  1        2 0.32806439E+00 0.10006977E+04</pdfrwt>
<pdfrwt beam="2">  1       -2 0.18061759E-01 0.10006977E+04</pdfrwt>
<totfact> 0.16774124E+02</totfact>
</mgrwt>
</event>
<event>
 9    1  0.4342579E-036  0.9995156E+03  0.7818608E-02  0.8681499E-01
         -2   -1    0    0    0  501 -0.00000000000E+00  0.00000000000E+00  0.22330101532E+03  0.22330101532E+03  0.00000000000E+00 0.  1.
          2   -1    0    0  501    0  0.00000000000E+00 -0.00000000000E+00 -0.11184806175E+04  0.11184806175E+04  0.00000000000E+00 0.  1.
         36    2    1    2    0    0 -0.14210854715E-13 -0.14210854715E-13 -0.89517960217E+03  0.13417816328E+04  0.99951559767E+03 0.  0.
         25    2    3    3    0    0  0.71967149797E+02  0.14912779221E+02 -0.32390704150E+03  0.35541446829E+03  0.12649905574E+03 0.  0.
         35    2    3    3    0    0 -0.71967149797E+02 -0.14912779221E+02 -0.57127256067E+03  0.98636716451E+03  0.80072853266E+03 0.  0.
         22    1    5    5    0    0  0.19063868160E+03 -0.27729254138E+03 -0.50867518536E+03  0.60990548828E+03  0.00000000000E+00 0. -1.
         22    1    5    5    0    0 -0.26260583140E+03  0.26237976216E+03 -0.62597375307E+02  0.37646167623E+03  0.00000000000E+00 0. -1.
          5    1    4    4  502    0  0.59658875410E+02 -0.16484316998E+02 -0.50847181588E+02  0.80239890314E+02  0.47000000000E+01 0. -1.
         -5    1    4    4    0  502  0.12308274387E+02  0.31397096219E+02 -0.27305985991E+03  0.27517457798E+03  0.47000000000E+01 0. -1.
<mgrwt>
<rscale>  0 0.99951560E+03</rscale>
<asrwt>0</asrwt>
<pdfrwt beam="1">  1        2 0.17207394E+00 0.99951560E+03</pdfrwt>
<pdfrwt beam="2">  1       -2 0.34354002E-01 0.99951560E+03</pdfrwt>
<totfact> 0.20323486E+02</totfact>
</mgrwt>
</event>
<event>
 9    1  0.4342579E-036  0.9957571E+03  0.7818608E-02  0.8685089E-01
         -1   -1    0    0    0  501 -0.00000000000E+00  0.00000000000E+00  0.67658126516E+02  0.67658126516E+02  0.00000000000E+00 0.  1.
          1   -1    0    0  501    0  0.00000000000E+00 -0.00000000000E+00 -0.36637586507E+04  0.36637586507E+04  0.00000000000E+00 0.  1.
         36    2    1    2    0    0 -0.56843418861E-13  0.00000000000E+00 -0.35961005241E+04  0.37314167772E+04  0.99575709149E+03 0.  0.
         25    2    3    3    0    0  0.13519863337E+03  0.54327108801E+01 -0.71830096444E+03  0.74147300505E+03  0.12457028898E+03 0.  0.
         35    2    3    3    0    0 -0.13519863337E+03 -0.54327108801E+01 -0.28777995597E+04  0.29899437721E+04  0.79982827520E+03 0.  0.
         22    1    5    5    0    0  0.32466481927E+03  0.82604682554E+02 -0.14111405124E+04  0.14503614460E+04  0.00000000000E+00 0.  1.
         22    1    5    5    0    0 -0.45986345264E+03 -0.88037393434E+02 -0.14666590473E+04  0.15395823261E+04  0.00000000000E+00 0.  1.
          5    1    4    4  502    0  0.38451714637E+02 -0.37809607758E+02 -0.96118603962E+02  0.11031308547E+03  0.47000000000E+01 0.  1.
         -5    1    4    4    0  502  0.96746918733E+02  0.43242318638E+02 -0.62218236047E+03  0.63115991958E+03  0.47000000000E+01 0.  1.
<mgrwt>
<rscale>  0 0.99575709E+03</rscale>
<asrwt>0</asrwt>
<pdfrwt beam="1">  1        1 0.56365536E+00 0.99575709E+03</pdfrwt>
<pdfrwt beam="2">  1       -1 0.10408939E-01 0.99575709E+03</pdfrwt>
<totfact> 0.11677756E+01</totfact>
</mgrwt>
</event>
<event>
 9    1  0.4342579E-036  0.1001689E+04  0.7818608E-02  0.8679431E-01
         -2   -1    0    0    0  501 -0.00000000000E+00  0.00000000000E+00  0.36123352514E+03  0.36123352514E+03  0.00000000000E+00 0. -1.
          2   -1    0    0  501    0  0.00000000000E+00 -0.00000000000E+00 -0.69441251782E+03  0.69441251782E+03  0.00000000000E+00 0. -1.
         36    2    1    2    0    0 -0.28421709430E-13  0.00000000000E+00 -0.33317899268E+03  0.10556460430E+04  0.10016887375E+04 0.  0.
         25    2    3    3    0    0 -0.10273351366E+03  0.93336779143E+02 -0.85510187641E+02  0.20547438349E+03  0.12506718558E+03 0.  0.
         35    2    3    3    0    0  0.10273351366E+03 -0.93336779143E+02 -0.24766880504E+03  0.85017165947E+03  0.80136513801E+03 0.  0.
         22    1    5    5    0    0 -0.16630405706E+03 -0.33829410825E+03  0.49752398210E+02  0.38023051456E+03  0.00000000000E+00 0. -1.
         22    1    5    5    0    0  0.26903757072E+03  0.24495732911E+03 -0.29742120325E+03  0.46994114492E+03  0.00000000000E+00 0. -1.
          5    1    4    4  502    0 -0.28833991296E+02  0.92420239897E+02 -0.88649415094E+02  0.13135337298E+03  0.47000000000E+01 0.  1.
         -5    1    4    4    0  502 -0.73899522363E+02  0.91653924595E+00  0.31392274526E+01  0.74121010508E+02  0.47000000000E+01 0.  1.
<mgrwt>
<rscale>  0 0.10016887E+04</rscale>
<asrwt>0</asrwt>
<pdfrwt beam="1">  1        2 0.10683269E+00 0.10016887E+04</pdfrwt>
<pdfrwt beam="2">  1       -2 0.55574389E-01 0.10016887E+04</pdfrwt>
<totfact> 0.15240937E+02</totfact>
</mgrwt>
</event>
<event>
 9    1  0.4342579E-036  0.9992854E+03  0.7818608E-02  0.8681719E-01
         -2   -1    0    0    0  501 -0.00000000000E+00  0.00000000000E+00  0.13127819199E+03  0.13127819199E+03  0.00000000000E+00 0. -1.
          2   -1    0    0  501    0  0.00000000000E+00 -0.00000000000E+00 -0.19016322581E+04  0.19016322581E+04  0.00000000000E+00 0. -1.
         36    2    1    2    0    0 -0.28421709430E-13  0.14210854715E-13 -0.17703540661E+04  0.20329104501E+04  0.99928543405E+03 0.  0.
         25    2    3    3    0    0 -0.10671760277E+03  0.37357525105E+02 -0.16419199981E+03  0.23514732395E+03  0.12470372784E+03 0.  0.
         35    2    3    3    0    0  0.10671760277E+03 -0.37357525105E+02 -0.16061620663E+04  0.17977631262E+04  0.79963206730E+03 0.  0.
         22    1    5    5    0    0 -0.17765921968E+03 -0.19685744850E+03 -0.13693442017E+04  0.13947828491E+04  0.00000000000E+00 0. -1.
         22    1    5    5    0    0  0.28437682245E+03  0.15949992339E+03 -0.23681786462E+03  0.40298027707E+03  0.00000000000E+00 0. -1.
          5    1    4    4  502    0 -0.41704836218E+02  0.78423309025E+02 -0.68320006035E+02  0.11215713079E+03  0.47000000000E+01 0. -1.
         -5    1    4    4    0  502 -0.65012766552E+02 -0.41065783920E+02 -0.95871993778E+02  0.12299019316E+03  0.47000000000E+01 0. -1.
<mgrwt>
<rscale>  0 0.99928543E+03</rscale>
<asrwt>0</asrwt>
<pdfrwt beam="1">  1        2 0.29255880E+00 0.99928543E+03</pdfrwt>
<pdfrwt beam="2">  1       -2 0.20196646E-01 0.99928543E+03</pdfrwt>
<totfact> 0.18744456E+02</totfact>
</mgrwt>
</event>
<event>
 9    1  0.4342579E-036  0.1000088E+04  0.7818608E-02  0.8680954E-01
         -2   -1    0    0    0  501 -0.00000000000E+00  0.00000000000E+00  0.55909159366E+03  0.55909159366E+03  0.00000000000E+00 0. -1.
          2   -1    0    0  501    0  0.00000000000E+00 -0.00000000000E+00 -0.44723305820E+03  0.44723305820E+03  0.00000000000E+00 0. -1.
         36    2    1    2    0    0  0.14210854715E-13  0.71054273576E-14  0.11185853546E+03  0.10063246519E+04  0.10000884826E+04 0.  0.
         25    2    3    3    0    0  0.99138547367E+02 -0.63597956744E+02  0.98051466201E+02  0.19813727200E+03  0.12558318700E+03 0.  0.
         35    2    3    3    0    0 -0.99138547367E+02  0.63597956744E+02  0.13807069260E+02  0.80818737985E+03  0.79943921227E+03 0.  0.
         22    1    5    5    0    0  0.89570383068E+02 -0.64070886584E+02  0.36962108125E+03  0.38567820231E+03  0.00000000000E+00 0. -1.
         22    1    5    5    0    0 -0.18870893043E+03  0.12766884333E+03 -0.35581401199E+03  0.42250917755E+03  0.00000000000E+00 0. -1.
          5    1    4    4  502    0  0.16879321679E+02 -0.42401700406E+02 -0.22092506845E+02  0.50921356584E+02  0.47000000000E+01 0. -1.
         -5    1    4    4    0  502  0.82259225688E+02 -0.21196256338E+02  0.12014397305E+03  0.14721591542E+03  0.47000000000E+01 0. -1.
<mgrwt>
<rscale>  0 0.10000885E+04</rscale>
<asrwt>0</asrwt>
<pdfrwt beam="1">  1        2 0.68805086E-01 0.10000885E+04</pdfrwt>
<pdfrwt beam="2">  1       -2 0.86014091E-01 0.10000885E+04</pdfrwt>
<totfact> 0.98430919E+01</totfact>
</mgrwt>
</event>
<event>
 9    1  0.4342579E-036  0.9997148E+03  0.7818608E-02  0.8681310E-01
         -1   -1    0    0    0  501 -0.00000000000E+00  0.00000000000E+00  0.29245534708E+03  0.29245534708E+03  0.00000000000E+00 0. -1.
          1   -1    0    0  501    0  0.00000000000E+00 -0.00000000000E+00 -0.85434391193E+03  0.85434391193E+03  0.00000000000E+00 0. -1.
         36    2    1    2    0    0  0.00000000000E+00  0.71054273576E-14 -0.56188856484E+03  0.11467992590E+04  0.99971484992E+03 0.  0.
         25    2    3    3    0    0  0.96610006737E+02  0.40040678493E+02 -0.21263051354E+03  0.26779100737E+03  0.12475391378E+03 0.  0.
         35    2    3    3    0    0 -0.96610006737E+02 -0.40040678493E+02 -0.34925805130E+03  0.87900825164E+03  0.79983596487E+03 0.  0.
         22    1    5    5    0    0 -0.36574962553E+03 -0.25795230871E+03 -0.27352575428E+03  0.52452694917E+03  0.00000000000E+00 0. -1.
         22    1    5    5    0    0  0.26913961879E+03  0.21791163022E+03 -0.75732297019E+02  0.35448130247E+03  0.00000000000E+00 0. -1.
          5    1    4    4  502    0 -0.26916171944E+02  0.19431710320E+02 -0.23639237024E+02  0.41024080796E+02  0.47000000000E+01 0. -1.
         -5    1    4    4    0  502  0.12352617868E+03  0.20608968173E+02 -0.18899127652E+03  0.22676692658E+03  0.47000000000E+01 0. -1.
<mgrwt>
<rscale>  0 0.99971485E+03</rscale>
<asrwt>0</asrwt>
<pdfrwt beam="1">  1        1 0.13143752E+00 0.99971485E+03</pdfrwt>
<pdfrwt beam="2">  1       -1 0.44993130E-01 0.99971485E+03</pdfrwt>
<totfact> 0.11023506E+02</totfact>
</mgrwt>
</event>
<event>
 9    1  0.4342579E-036  0.9994198E+03  0.7818608E-02  0.8681591E-01
         -4   -1    0    0    0  501 -0.00000000000E+00  0.00000000000E+00  0.29772961261E+03  0.29772961261E+03  0.00000000000E+00 0.  1.
          4   -1    0    0  501    0  0.00000000000E+00 -0.00000000000E+00 -0.83871396786E+03  0.83871396786E+03  0.00000000000E+00 0.  1.
         36    2    1    2    0    0  0.00000000000E+00  0.00000000000E+00 -0.54098435525E+03  0.11364435805E+04  0.99941980117E+03 0.  0.
         25    2    3    3    0    0 -0.20085694184E+02 -0.12327757473E+03 -0.17024193523E+03  0.24572577546E+03  0.12569027279E+03 0.  0.
         35    2    3    3    0    0  0.20085694184E+02  0.12327757473E+03 -0.37074242002E+03  0.89071780500E+03  0.80020464295E+03 0.  0.
         22    1    5    5    0    0  0.56440318006E+02 -0.38987061562E+02 -0.60199235660E+03  0.60588802420E+03  0.00000000000E+00 0. -1.
         22    1    5    5    0    0 -0.36354623821E+02  0.16226463630E+03  0.23124993658E+03  0.28482978080E+03  0.00000000000E+00 0. -1.
          5    1    4    4  502    0 -0.30845026162E+02 -0.79460062358E+02 -0.18009673546E+03  0.19930439351E+03  0.47000000000E+01 0.  1.
         -5    1    4    4    0  502  0.10759331978E+02 -0.43817512375E+02  0.98548002284E+01  0.46421381958E+02  0.47000000000E+01 0.  1.
<mgrwt>
<rscale>  0 0.99941980E+03</rscale>
<asrwt>0</asrwt>
<pdfrwt beam="1">  1        4 0.12903292E+00 0.99941980E+03</pdfrwt>
<pdfrwt beam="2">  1       -4 0.45804556E-01 0.99941980E+03</pdfrwt>
<totfact> 0.42941789E+00</totfact>
</mgrwt>
</event>
<event>
 9    1  0.4342579E-036  0.9997274E+03  0.7818608E-02  0.8681298E-01
          2   -1    0    0  501    0  0.00000000000E+00  0.00000000000E+00  0.70545940561E+03  0.70545940561E+03  0.00000000000E+00 0.  1.
         -2   -1    0    0    0  501 -0.00000000000E+00 -0.00000000000E+00 -0.35418580424E+03  0.35418580424E+03  0.00000000000E+00 0.  1.
         36    2    1    2    0    0  0.00000000000E+00  0.00000000000E+00  0.35127360136E+03  0.10596452099E+04  0.99972737671E+03 0.  0.
         25    2    3    3    0    0  0.74881465089E+02 -0.41482993154E+02 -0.50231200986E+02  0.16028768072E+03  0.12586061538E+03 0.  0.
         35    2    3    3    0    0 -0.74881465089E+02  0.41482993154E+02  0.40150480235E+03  0.89935752913E+03  0.80019359305E+03 0.  0.
         22    1    5    5    0    0  0.23561275954E+02 -0.12041726171E+03 -0.21874650174E+03  0.25080965425E+03  0.00000000000E+00 0.  1.
         22    1    5    5    0    0 -0.98442741043E+02  0.16190025486E+03  0.62025130409E+03  0.64854787488E+03  0.00000000000E+00 0.  1.
          5    1    4    4  502    0  0.53922304120E+02 -0.27938427167E+02 -0.92631919878E+02  0.11086448112E+03  0.47000000000E+01 0.  1.
         -5    1    4    4    0  502  0.20959160969E+02 -0.13544565987E+02  0.42400718892E+02  0.49423199601E+02  0.47000000000E+01 0.  1.
<mgrwt>
<rscale>  0 0.99972738E+03</rscale>
<asrwt>0</asrwt>
<pdfrwt beam="1">  1        2 0.10853222E+00 0.99972738E+03</pdfrwt>
<pdfrwt beam="2">  1       -2 0.54490124E-01 0.99972738E+03</pdfrwt>
<totfact> 0.15563867E+02</totfact>
</mgrwt>
</event>
<event>
 9    1  0.4342579E-036  0.1000002E+04  0.7818608E-02  0.8681036E-01
         -1   -1    0    0    0  501 -0.00000000000E+00  0.00000000000E+00  0.34719089684E+03  0.34719089684E+03  0.00000000000E+00 0.  1.
          1   -1    0    0  501    0  0.00000000000E+00 -0.00000000000E+00 -0.72006757961E+03  0.72006757961E+03  0.00000000000E+00 0.  1.
         36    2    1    2    0    0 -0.71054273576E-14  0.28421709430E-13 -0.37287668277E+03  0.10672584765E+04  0.10000018175E+04 0.  0.
         25    2    3    3    0    0  0.24857986463E+02 -0.90828662772E+02 -0.18136434078E+03  0.23945968991E+03  0.12482048516E+03 0.  0.
         35    2    3    3    0    0 -0.24857986463E+02  0.90828662772E+02 -0.19151234199E+03  0.82779878654E+03  0.79981628415E+03 0.  0.
         22    1    5    5    0    0  0.12655674589E+02  0.44656482572E+03 -0.87018106090E+02  0.45514004489E+03  0.00000000000E+00 0. -1.
         22    1    5    5    0    0 -0.37513661052E+02 -0.35573616295E+03 -0.10449423590E+03  0.37265874165E+03  0.00000000000E+00 0. -1.
          5    1    4    4  502    0 -0.47431324492E+02 -0.38956075200E+02 -0.43755789936E+02  0.75524601892E+02  0.47000000000E+01 0. -1.
         -5    1    4    4    0  502  0.72289310955E+02 -0.51872587572E+02 -0.13760855084E+03  0.16393508802E+03  0.47000000000E+01 0. -1.
<mgrwt>
<rscale>  0 0.10000018E+04</rscale>
<asrwt>0</asrwt>
<pdfrwt beam="1">  1        1 0.11077963E+00 0.10000018E+04</pdfrwt>
<pdfrwt beam="2">  1       -1 0.53413984E-01 0.10000018E+04</pdfrwt>
<totfact> 0.10589372E+02</totfact>
</mgrwt>
</event>
<event>
 9    1  0.4342579E-036  0.1001898E+04  0.7818608E-02  0.8679233E-01
          2   -1    0    0  501    0  0.00000000000E+00  0.00000000000E+00  0.15718757973E+04  0.15718757973E+04  0.00000000000E+00 0.  1.
         -2   -1    0    0    0  501 -0.00000000000E+00 -0.00000000000E+00 -0.15964993413E+03  0.15964993413E+03  0.00000000000E+00 0.  1.
         36    2    1    2    0    0  0.00000000000E+00  0.00000000000E+00  0.14122258632E+04  0.17315257315E+04  0.10018979339E+04 0.  0.
         25    2    3    3    0    0 -0.13405695735E+03  0.40069329555E+02  0.32360565420E+03  0.37391729751E+03  0.12456607468E+03 0.  0.
         35    2    3    3    0    0  0.13405695735E+03 -0.40069329555E+02  0.10886202090E+04  0.13576084340E+04  0.79901807334E+03 0.  0.
         22    1    5    5    0    0  0.21223176148E+03 -0.33995144993E+03  0.27250032926E+03  0.48462948563E+03  0.00000000000E+00 0.  1.
         22    1    5    5    0    0 -0.78174804130E+02  0.29988212038E+03  0.81611987975E+03  0.87297894834E+03  0.00000000000E+00 0.  1.
          5    1    4    4  502    0 -0.91546692971E+02 -0.14234032243E+02  0.27277140992E+03  0.28811410368E+03  0.47000000000E+01 0. -1.
         -5    1    4    4    0  502 -0.42510264378E+02  0.54303361798E+02  0.50834244278E+02  0.85803193830E+02  0.47000000000E+01 0. -1.
<mgrwt>
<rscale>  0 0.10018979E+04</rscale>
<asrwt>0</asrwt>
<pdfrwt beam="1">  1        2 0.24182703E+00 0.10018979E+04</pdfrwt>
<pdfrwt beam="2">  1       -2 0.24561529E-01 0.10018979E+04</pdfrwt>
<totfact> 0.20422963E+02</totfact>
</mgrwt>
</event>
<event>
 9    1  0.4342579E-036  0.1001260E+04  0.7818608E-02  0.8679839E-01
          2   -1    0    0  501    0  0.00000000000E+00  0.00000000000E+00  0.40056647212E+04  0.40056647212E+04  0.00000000000E+00 0.  1.
         -2   -1    0    0    0  501 -0.00000000000E+00 -0.00000000000E+00 -0.62568970303E+02  0.62568970303E+02  0.00000000000E+00 0.  1.
         36    2    1    2    0    0  0.00000000000E+00  0.71054273576E-14  0.39430957509E+04  0.40682336915E+04  0.10012598404E+04 0.  0.
         25    2    3    3    0    0 -0.14106694090E+03 -0.15255810439E+02  0.74352818674E+03  0.76707503833E+03  0.12424704581E+03 0.  0.
         35    2    3    3    0    0  0.14106694090E+03  0.15255810439E+02  0.31995675642E+04  0.33011586532E+04  0.80017700181E+03 0.  0.
         22    1    5    5    0    0  0.26117341927E+03 -0.11180745473E+03  0.37144483091E+03  0.46763631625E+03  0.00000000000E+00 0.  1.
         22    1    5    5    0    0 -0.12010647837E+03  0.12706326517E+03  0.28281227333E+04  0.28335223370E+04  0.00000000000E+00 0.  1.
          5    1    4    4  502    0 -0.15779858378E+03 -0.28782764892E+02  0.70156852782E+03  0.71968696655E+03  0.47000000000E+01 0.  1.
         -5    1    4    4    0  502  0.16731642886E+02  0.13526954453E+02  0.41959658921E+02  0.47388071782E+02  0.47000000000E+01 0.  1.
<mgrwt>
<rscale>  0 0.10012598E+04</rscale>
<asrwt>0</asrwt>
<pdfrwt beam="1">  1        2 0.61625591E+00 0.10012598E+04</pdfrwt>
<pdfrwt beam="2">  1       -2 0.96259985E-02 0.10012598E+04</pdfrwt>
<totfact> 0.23881431E+01</totfact>
</mgrwt>
</event>
<event>
 9    1  0.4342579E-036  0.1001398E+04  0.7818608E-02  0.8679707E-01
          1   -1    0    0  501    0  0.00000000000E+00  0.00000000000E+00  0.77067127299E+03  0.77067127299E+03  0.00000000000E+00 0.  1.
         -1   -1    0    0    0  501 -0.00000000000E+00 -0.00000000000E+00 -0.32530046181E+03  0.32530046181E+03  0.00000000000E+00 0.  1.
         36    2    1    2    0    0  0.71054273576E-14 -0.71054273576E-14  0.44537081118E+03  0.10959717348E+04  0.10013984642E+04 0.  0.
         25    2    3    3    0    0 -0.56672856906E+02 -0.62047365413E+02 -0.41681689141E+02  0.15590447742E+03  0.12452772625E+03 0.  0.
         35    2    3    3    0    0  0.56672856906E+02  0.62047365413E+02  0.48705250032E+03  0.94006725739E+03  0.79965281346E+03 0.  0.
         22    1    5    5    0    0  0.41065450721E+03  0.14990759748E+03  0.23101261832E+03  0.49444538819E+03  0.00000000000E+00 0. -1.
         22    1    5    5    0    0 -0.35398165031E+03 -0.87860232065E+02  0.25603988200E+03  0.44562186920E+03  0.00000000000E+00 0. -1.
          5    1    4    4  502    0  0.38369036168E+02 -0.29536604284E+02 -0.51693050814E+01  0.48922445197E+02  0.47000000000E+01 0.  1.
         -5    1    4    4    0  502 -0.95041893074E+02 -0.32510761130E+02 -0.36512384060E+02  0.10698203222E+03  0.47000000000E+01 0.  1.
<mgrwt>
<rscale>  0 0.10013985E+04</rscale>
<asrwt>0</asrwt>
<pdfrwt beam="1">  1        1 0.11856481E+00 0.10013985E+04</pdfrwt>
<pdfrwt beam="2">  1       -1 0.50046225E-01 0.10013985E+04</pdfrwt>
<totfact> 0.10738920E+02</totfact>
</mgrwt>
</event>
<event>
 9    1  0.4342579E-036  0.1000442E+04  0.7818608E-02  0.8680617E-01
         -2   -1    0    0    0  501 -0.00000000000E+00  0.00000000000E+00  0.13451992609E+03  0.13451992609E+03  0.00000000000E+00 0. -1.
          2   -1    0    0  501    0  0.00000000000E+00 -0.00000000000E+00 -0.18601042181E+04  0.18601042181E+04  0.00000000000E+00 0. -1.
         36    2    1    2    0    0 -0.14210854715E-13  0.28421709430E-13 -0.17255842920E+04  0.19946241442E+04  0.10004420662E+04 0.  0.
         25    2    3    3    0    0 -0.87357944402E+02  0.78286024824E+02 -0.16939195633E+03  0.24090226564E+03  0.12482048945E+03 0.  0.
         35    2    3    3    0    0  0.87357944402E+02 -0.78286024824E+02 -0.15561923357E+04  0.17537218785E+04  0.80002858047E+03 0.  0.
         22    1    5    5    0    0  0.76462618831E+02 -0.29968539447E+03 -0.17602884163E+03  0.35587079232E+03  0.00000000000E+00 0.  1.
         22    1    5    5    0    0  0.10895325571E+02  0.22139936965E+03 -0.13801634940E+04  0.13978510862E+04  0.00000000000E+00 0.  1.
          5    1    4    4  502    0  0.14122108069E+02  0.26852267331E+02 -0.10646680926E+03  0.11080500743E+03  0.47000000000E+01 0. -1.
         -5    1    4    4    0  502 -0.10148005247E+03  0.51433757493E+02 -0.62925147076E+02  0.13009725821E+03  0.47000000000E+01 0. -1.
<mgrwt>
<rscale>  0 0.10004421E+04</rscale>
<asrwt>0</asrwt>
<pdfrwt beam="1">  1        2 0.28616988E+00 0.10004421E+04</pdfrwt>
<pdfrwt beam="2">  1       -2 0.20695373E-01 0.10004421E+04</pdfrwt>
<totfact> 0.18967336E+02</totfact>
</mgrwt>
</event>
<event>
 9    1  0.4342579E-036  0.1007140E+04  0.7818608E-02  0.8674268E-01
         -2   -1    0    0    0  501 -0.00000000000E+00  0.00000000000E+00  0.22280293497E+03  0.22280293497E+03  0.00000000000E+00 0. -1.
          2   -1    0    0  501    0  0.00000000000E+00 -0.00000000000E+00 -0.11381490660E+04  0.11381490660E+04  0.00000000000E+00 0. -1.
         36    2    1    2    0    0  0.00000000000E+00  0.00000000000E+00 -0.91534613106E+03  0.13609520010E+04  0.10071404120E+04 0.  0.
         25    2    3    3    0    0  0.10810756681E+02 -0.73375713626E+02 -0.35114150158E+03  0.38013363857E+03  0.12530108231E+03 0.  0.
         35    2    3    3    0    0 -0.10810756681E+02  0.73375713626E+02 -0.56420462948E+03  0.98081836244E+03  0.79885976764E+03 0.  0.
         22    1    5    5    0    0 -0.14754302907E+02  0.35428327156E+03 -0.45617520423E+01  0.35461970552E+03  0.00000000000E+00 0.  1.
         22    1    5    5    0    0  0.39435462258E+01 -0.28090755793E+03 -0.55964287743E+03  0.62619865692E+03  0.00000000000E+00 0.  1.
          5    1    4    4  502    0  0.39862629830E+02 -0.93788622254E+02 -0.30570689114E+03  0.32227958082E+03  0.47000000000E+01 0.  1.
         -5    1    4    4    0  502 -0.29051873149E+02  0.20412908628E+02 -0.45434610438E+02  0.57854057747E+02  0.47000000000E+01 0.  1.
<mgrwt>
<rscale>  0 0.10071404E+04</rscale>
<asrwt>0</asrwt>
<pdfrwt beam="1">  1        2 0.17509985E+00 0.10071404E+04</pdfrwt>
<pdfrwt beam="2">  1       -2 0.34277375E-01 0.10071404E+04</pdfrwt>
<totfact> 0.19858863E+02</totfact>
</mgrwt>
</event>
<event>
 9    1  0.4342579E-036  0.9997493E+03  0.7818608E-02  0.8681277E-01
         -1   -1    0    0    0  501 -0.00000000000E+00  0.00000000000E+00  0.64160994542E+03  0.64160994542E+03  0.00000000000E+00 0.  1.
          1   -1    0    0  501    0  0.00000000000E+00 -0.00000000000E+00 -0.38944947770E+03  0.38944947770E+03  0.00000000000E+00 0.  1.
         36    2    1    2    0    0 -0.71054273576E-14 -0.28421709430E-13  0.25216046772E+03  0.10310594231E+04  0.99974928484E+03 0.  0.
         25    2    3    3    0    0 -0.41152801431E+01 -0.14083980798E+03  0.45702738653E+02  0.19351634687E+03  0.12452730281E+03 0.  0.
         35    2    3    3    0    0  0.41152801431E+01  0.14083980798E+03  0.20645772906E+03  0.83754307625E+03  0.79937527085E+03 0.  0.
         22    1    5    5    0    0 -0.38547547851E+03  0.12475827526E+03  0.20848317343E+02  0.40569770040E+03  0.00000000000E+00 0.  1.
         22    1    5    5    0    0  0.38959075865E+03  0.16081532715E+02  0.18560941172E+03  0.43184537585E+03  0.00000000000E+00 0.  1.
          5    1    4    4  502    0  0.49416830311E+02 -0.59953940618E+02 -0.14617161767E+02  0.79197534884E+02  0.47000000000E+01 0. -1.
         -5    1    4    4    0  502 -0.53532110454E+02 -0.80885867359E+02  0.60319900420E+02  0.11431881199E+03  0.47000000000E+01 0. -1.
<mgrwt>
<rscale>  0 0.99974928E+03</rscale>
<asrwt>0</asrwt>
<pdfrwt beam="1">  1        1 0.59915304E-01 0.99974928E+03</pdfrwt>
<pdfrwt beam="2">  1       -1 0.98709222E-01 0.99974928E+03</pdfrwt>
<totfact> 0.73087198E+01</totfact>
</mgrwt>
</event>
<event>
 9    1  0.4342579E-036  0.9998373E+03  0.7818608E-02  0.8681193E-01
          1   -1    0    0  501    0  0.00000000000E+00  0.00000000000E+00  0.11819937058E+04  0.11819937058E+04  0.00000000000E+00 0. -1.
         -1   -1    0    0    0  501 -0.00000000000E+00 -0.00000000000E+00 -0.21143823137E+03  0.21143823137E+03  0.00000000000E+00 0. -1.
         36    2    1    2    0    0  0.00000000000E+00 -0.14210854715E-13  0.97055547444E+03  0.13934319372E+04  0.99983730407E+03 0.  0.
         25    2    3    3    0    0 -0.80952512331E+02  0.11154842321E+03  0.23779709335E+03  0.30011279498E+03  0.12051502865E+03 0.  0.
         35    2    3    3    0    0  0.80952512331E+02 -0.11154842321E+03  0.73275838110E+03  0.10933191422E+04  0.79963463013E+03 0.  0.
         22    1    5    5    0    0  0.44786959788E+02 -0.25927456860E+03 -0.73223465775E+02  0.27311325422E+03  0.00000000000E+00 0.  1.
         22    1    5    5    0    0  0.36165552543E+02  0.14772614539E+03  0.80598184687E+03  0.82020588800E+03  0.00000000000E+00 0.  1.
          5    1    4    4  502    0 -0.73137003851E+02  0.98574475342E+01  0.60603076457E+02  0.95608647518E+02  0.47000000000E+01 0.  1.
         -5    1    4    4    0  502 -0.78155084805E+01  0.10169097567E+03  0.17719401689E+03  0.20450414746E+03  0.47000000000E+01 0.  1.
<mgrwt>
<rscale>  0 0.99983730E+03</rscale>
<asrwt>0</asrwt>
<pdfrwt beam="1">  1        1 0.18184518E+00 0.99983730E+03</pdfrwt>
<pdfrwt beam="2">  1       -1 0.32528959E-01 0.99983730E+03</pdfrwt>
<totfact> 0.10754222E+02</totfact>
</mgrwt>
</event>
<event>
 9    1  0.4342579E-036  0.1000226E+04  0.7818608E-02  0.8680823E-01
          2   -1    0    0  501    0  0.00000000000E+00  0.00000000000E+00  0.19177883315E+04  0.19177883315E+04  0.00000000000E+00 0.  1.
         -2   -1    0    0    0  501 -0.00000000000E+00 -0.00000000000E+00 -0.13041732813E+03  0.13041732813E+03  0.00000000000E+00 0.  1.
         36    2    1    2    0    0  0.00000000000E+00  0.00000000000E+00  0.17873710034E+04  0.20482056597E+04  0.10002256348E+04 0.  0.
         25    2    3    3    0    0 -0.14236561260E+02 -0.14186456734E+03  0.33914178256E+03  0.38787459635E+03  0.12288742277E+03 0.  0.
         35    2    3    3    0    0  0.14236561260E+02  0.14186456734E+03  0.14482292208E+04  0.16603310633E+04  0.79937671253E+03 0.  0.
         22    1    5    5    0    0 -0.29006630563E+03  0.14334385750E+03  0.21110619151E+03  0.38633113678E+03  0.00000000000E+00 0.  1.
         22    1    5    5    0    0  0.30430286689E+03 -0.14792901658E+01  0.12371230293E+04  0.12739999265E+04  0.00000000000E+00 0.  1.
          5    1    4    4  502    0  0.35056780598E+02 -0.10241064776E+03  0.12932101438E+03  0.16870961265E+03  0.47000000000E+01 0. -1.
         -5    1    4    4    0  502 -0.49293341859E+02 -0.39453919581E+02  0.20982076818E+03  0.21916498370E+03  0.47000000000E+01 0. -1.
<mgrwt>
<rscale>  0 0.10002256E+04</rscale>
<asrwt>0</asrwt>
<pdfrwt beam="1">  1        2 0.29504434E+00 0.10002256E+04</pdfrwt>
<pdfrwt beam="2">  1       -2 0.20064206E-01 0.10002256E+04</pdfrwt>
<totfact> 0.18563420E+02</totfact>
</mgrwt>
</event>
<event>
 9    1  0.4342579E-036  0.1000193E+04  0.7818608E-02  0.8680855E-01
         -2   -1    0    0    0  501 -0.00000000000E+00  0.00000000000E+00  0.12304535128E+03  0.12304535128E+03  0.00000000000E+00 0. -1.
          2   -1    0    0  501    0  0.00000000000E+00 -0.00000000000E+00 -0.20325538757E+04  0.20325538757E+04  0.00000000000E+00 0. -1.
         36    2    1    2    0    0  0.00000000000E+00 -0.28421709430E-13 -0.19095085244E+04  0.21555992270E+04  0.10001925927E+04 0.  0.
         25    2    3    3    0    0 -0.10101474313E+03  0.95436677651E+02 -0.40470311490E+03  0.44580906822E+03  0.12509586853E+03 0.  0.
         35    2    3    3    0    0  0.10101474313E+03 -0.95436677651E+02 -0.15048054095E+04  0.17097901588E+04  0.79976929719E+03 0.  0.
         22    1    5    5    0    0  0.26639135462E+03  0.28695106282E+03 -0.80958060595E+03  0.89929195693E+03  0.00000000000E+00 0.  1.
         22    1    5    5    0    0 -0.16537661149E+03 -0.38238774047E+03 -0.69522480355E+03  0.81049820182E+03  0.00000000000E+00 0.  1.
          5    1    4    4  502    0 -0.11405530222E+03  0.92322269569E+02 -0.40581809525E+03  0.43155814192E+03  0.47000000000E+01 0.  1.
         -5    1    4    4    0  502  0.13040559093E+02  0.31144080821E+01  0.11149803511E+01  0.14250926298E+02  0.47000000000E+01 0.  1.
<mgrwt>
<rscale>  0 0.10001926E+04</rscale>
<asrwt>0</asrwt>
<pdfrwt beam="1">  1        2 0.31270061E+00 0.10001926E+04</pdfrwt>
<pdfrwt beam="2">  1       -2 0.18930053E-01 0.10001926E+04</pdfrwt>
<totfact> 0.17659070E+02</totfact>
</mgrwt>
</event>
<event>
 9    1  0.4342579E-036  0.9980549E+03  0.7818608E-02  0.8682893E-01
         -2   -1    0    0    0  501 -0.00000000000E+00  0.00000000000E+00  0.13205279043E+03  0.13205279043E+03  0.00000000000E+00 0. -1.
          2   -1    0    0  501    0  0.00000000000E+00 -0.00000000000E+00 -0.18858244132E+04  0.18858244132E+04  0.00000000000E+00 0. -1.
         36    2    1    2    0    0 -0.42632564146E-13  0.00000000000E+00 -0.17537716228E+04  0.20178772036E+04  0.99805486027E+03 0.  0.
         25    2    3    3    0    0 -0.10909702925E+03  0.75620724835E+02 -0.40615704514E+03  0.44529470578E+03  0.12531230532E+03 0.  0.
         35    2    3    3    0    0  0.10909702925E+03 -0.75620724835E+02 -0.13476145776E+04  0.15725824979E+04  0.79958114466E+03 0.  0.
         22    1    5    5    0    0  0.40918486460E+03 -0.48116342903E+02 -0.38495687428E+03  0.56386100320E+03  0.00000000000E+00 0.  1.
         22    1    5    5    0    0 -0.30008783535E+03 -0.27504381932E+02 -0.96265770336E+03  0.10087214947E+04  0.00000000000E+00 0.  1.
          5    1    4    4  502    0 -0.20360873717E+02  0.22696623025E+02 -0.52916084693E+01  0.31301645252E+02  0.47000000000E+01 0. -1.
         -5    1    4    4    0  502 -0.88736155535E+02  0.52924101810E+02 -0.40086543667E+03  0.41399306053E+03  0.47000000000E+01 0. -1.
<mgrwt>
<rscale>  0 0.99805486E+03</rscale>
<asrwt>0</asrwt>
<pdfrwt beam="1">  1        2 0.29012680E+00 0.99805486E+03</pdfrwt>
<pdfrwt beam="2">  1       -2 0.20315816E-01 0.99805486E+03</pdfrwt>
<totfact> 0.18941007E+02</totfact>
</mgrwt>
</event>
<event>
 9    1  0.4342579E-036  0.1000805E+04  0.7818608E-02  0.8680272E-01
         -1   -1    0    0    0  501 -0.00000000000E+00  0.00000000000E+00  0.13900588448E+03  0.13900588448E+03  0.00000000000E+00 0.  1.
          1   -1    0    0  501    0  0.00000000000E+00 -0.00000000000E+00 -0.18013814424E+04  0.18013814424E+04  0.00000000000E+00 0.  1.
         36    2    1    2    0    0 -0.28421709430E-13  0.00000000000E+00 -0.16623755579E+04  0.19403873269E+04  0.10008049174E+04 0.  0.
         25    2    3    3    0    0 -0.93840977138E+02  0.10165694554E+03 -0.27093908290E+03  0.32889346807E+03  0.12499065218E+03 0.  0.
         35    2    3    3    0    0  0.93840977138E+02 -0.10165694554E+03 -0.13914364750E+04  0.16114938588E+04  0.80104727040E+03 0.  0.
         22    1    5    5    0    0  0.35673985667E+03 -0.10512101028E+03 -0.26982241948E+03  0.45947566877E+03  0.00000000000E+00 0. -1.
         22    1    5    5    0    0 -0.26289887953E+03  0.34640647405E+01 -0.11216140555E+04  0.11520181900E+04  0.00000000000E+00 0. -1.
          5    1    4    4  502    0 -0.38864586369E+02  0.12162343986E+03 -0.18511611583E+03  0.22492839646E+03  0.47000000000E+01 0.  1.
         -5    1    4    4    0  502 -0.54976390769E+02 -0.19966494321E+02 -0.85822967068E+02  0.10396507160E+03  0.47000000000E+01 0.  1.
<mgrwt>
<rscale>  0 0.10008049E+04</rscale>
<asrwt>0</asrwt>
<pdfrwt beam="1">  1        1 0.27713559E+00 0.10008049E+04</pdfrwt>
<pdfrwt beam="2">  1       -1 0.21385522E-01 0.10008049E+04</pdfrwt>
<totfact> 0.78556601E+01</totfact>
</mgrwt>
</event>
<event>
 9    1  0.4342579E-036  0.9991617E+03  0.7818608E-02  0.8681837E-01
          1   -1    0    0  501    0  0.00000000000E+00  0.00000000000E+00  0.15533408248E+04  0.15533408248E+04  0.00000000000E+00 0. -1.
         -1   -1    0    0    0  501 -0.00000000000E+00 -0.00000000000E+00 -0.16067369377E+03  0.16067369377E+03  0.00000000000E+00 0. -1.
         36    2    1    2    0    0 -0.14210854715E-13  0.00000000000E+00  0.13926671310E+04  0.17140145186E+04  0.99916166459E+03 0.  0.
         25    2    3    3    0    0 -0.87052324223E+02 -0.10598533897E+03  0.29844807253E+03  0.35140248193E+03  0.12490577682E+03 0.  0.
         35    2    3    3    0    0  0.87052324223E+02  0.10598533897E+03  0.10942190585E+04  0.13626120366E+04  0.80036567589E+03 0.  0.
         22    1    5    5    0    0 -0.85804800571E+01  0.37163136616E+03  0.19430855584E+03  0.41945120315E+03  0.00000000000E+00 0. -1.
         22    1    5    5    0    0  0.95632804280E+02 -0.26564602718E+03  0.89991050265E+03  0.94316083347E+03  0.00000000000E+00 0. -1.
          5    1    4    4  502    0 -0.84496978839E+02 -0.13293182158E+03  0.24492031096E+03  0.29123642860E+03  0.47000000000E+01 0.  1.
         -5    1    4    4    0  502 -0.25553453835E+01  0.26946482610E+02  0.53527761567E+02  0.60166053331E+02  0.47000000000E+01 0. -1.
<mgrwt>
<rscale>  0 0.99916166E+03</rscale>
<asrwt>0</asrwt>
<pdfrwt beam="1">  1        1 0.23897550E+00 0.99916166E+03</pdfrwt>
<pdfrwt beam="2">  1       -1 0.24719031E-01 0.99916166E+03</pdfrwt>
<totfact> 0.92306786E+01</totfact>
</mgrwt>
</event>
<event>
 9    1  0.4342579E-036  0.9928045E+03  0.7818608E-02  0.8687921E-01
          2   -1    0    0  501    0  0.00000000000E+00  0.00000000000E+00  0.12822558018E+04  0.12822558018E+04  0.00000000000E+00 0.  1.
         -2   -1    0    0    0  501 -0.00000000000E+00 -0.00000000000E+00 -0.19217318178E+03  0.19217318178E+03  0.00000000000E+00 0.  1.
         36    2    1    2    0    0  0.14210854715E-13  0.14210854715E-13  0.10900826200E+04  0.14744289836E+04  0.99280446672E+03 0.  0.
         25    2    3    3    0    0 -0.10939821456E+03 -0.32504757480E+02  0.29902971141E+03  0.34402925475E+03  0.12614607092E+03 0.  0.
         35    2    3    3    0    0  0.10939821456E+03  0.32504757480E+02  0.79105290859E+03  0.11303997288E+04  0.79938370893E+03 0.  0.
         22    1    5    5    0    0 -0.92340448220E+02 -0.25094395929E+03  0.12860851682E+01  0.26739723839E+03  0.00000000000E+00 0.  1.
         22    1    5    5    0    0  0.20173866278E+03  0.28344871677E+03  0.78976682343E+03  0.86300249043E+03  0.00000000000E+00 0.  1.
          5    1    4    4  502    0  0.12279732917E+02 -0.43283833422E+02  0.56018720933E+02  0.72003258059E+02  0.47000000000E+01 0. -1.
         -5    1    4    4    0  502 -0.12167794748E+03  0.10779075942E+02  0.24301099048E+03  0.27202599669E+03  0.47000000000E+01 0. -1.
<mgrwt>
<rscale>  0 0.99280447E+03</rscale>
<asrwt>0</asrwt>
<pdfrwt beam="1">  1        2 0.19727012E+00 0.99280447E+03</pdfrwt>
<pdfrwt beam="2">  1       -2 0.29565106E-01 0.99280447E+03</pdfrwt>
<totfact> 0.21430781E+02</totfact>
</mgrwt>
</event>
<event>
 9    1  0.4342579E-036  0.1000509E+04  0.7818608E-02  0.8680554E-01
          2   -1    0    0  501    0  0.00000000000E+00  0.00000000000E+00  0.66402466617E+03  0.66402466617E+03  0.00000000000E+00 0. -1.
         -2   -1    0    0    0  501 -0.00000000000E+00 -0.00000000000E+00 -0.37687514029E+03  0.37687514029E+03  0.00000000000E+00 0. -1.
         36    2    1    2    0    0  0.00000000000E+00  0.28421709430E-13  0.28714952588E+03  0.10408998065E+04  0.10005086491E+04 0.  0.
         25    2    3    3    0    0 -0.62217624791E+02  0.12337796257E+03  0.17574634610E+02  0.18577562660E+03  0.12292502257E+03 0.  0.
         35    2    3    3    0    0  0.62217624791E+02 -0.12337796257E+03  0.26957489127E+03  0.85512417986E+03  0.79967092388E+03 0.  0.
         22    1    5    5    0    0 -0.96138895390E+02  0.28556406938E+03 -0.59149571303E+02  0.30706383166E+03  0.00000000000E+00 0.  1.
         22    1    5    5    0    0  0.15835652018E+03 -0.40894203195E+03  0.32872446258E+03  0.54806034820E+03  0.00000000000E+00 0.  1.
          5    1    4    4  502    0  0.13057225347E+02  0.50008987376E+02 -0.40282165632E+02  0.65697281680E+02  0.47000000000E+01 0. -1.
         -5    1    4    4    0  502 -0.75274850138E+02  0.73368975194E+02  0.57856800242E+02  0.12007834492E+03  0.47000000000E+01 0. -1.
<mgrwt>
<rscale>  0 0.10005086E+04</rscale>
<asrwt>0</asrwt>
<pdfrwt beam="1">  1        2 0.10215764E+00 0.10005086E+04</pdfrwt>
<pdfrwt beam="2">  1       -2 0.57980791E-01 0.10005086E+04</pdfrwt>
<totfact> 0.14749178E+02</totfact>
</mgrwt>
</event>
<event>
 9    1  0.4342579E-036  0.9997991E+03  0.7818608E-02  0.8681229E-01
         -2   -1    0    0    0  501 -0.00000000000E+00  0.00000000000E+00  0.54641697342E+03  0.54641697342E+03  0.00000000000E+00 0.  1.
          2   -1    0    0  501    0  0.00000000000E+00 -0.00000000000E+00 -0.45734225526E+03  0.45734225526E+03  0.00000000000E+00 0.  1.
         36    2    1    2    0    0  0.14210854715E-13  0.14210854715E-13  0.89074718162E+02  0.10037592287E+04  0.99979912169E+03 0.  0.
         25    2    3    3    0    0 -0.11666004235E+03 -0.75365408582E+02 -0.49865691985E+01  0.18695689260E+03  0.12505400244E+03 0.  0.
         35    2    3    3    0    0  0.11666004235E+03  0.75365408582E+02  0.94061287361E+02  0.81680233607E+03  0.79939290724E+03 0.  0.
         22    1    5    5    0    0  0.41013879224E+02 -0.50594756012E+02 -0.34640574035E+03  0.35247539570E+03  0.00000000000E+00 0. -1.
         22    1    5    5    0    0  0.75646163126E+02  0.12596016459E+03  0.44046702771E+03  0.46432694038E+03  0.00000000000E+00 0. -1.
          5    1    4    4  502    0 -0.35178476214E+02 -0.91817813074E+02 -0.24501154997E+02  0.10144176942E+03  0.47000000000E+01 0.  1.
         -5    1    4    4    0  502 -0.81481566137E+02  0.16452404492E+02  0.19514585799E+02  0.85515123181E+02  0.47000000000E+01 0.  1.
<mgrwt>
<rscale>  0 0.99979912E+03</rscale>
<asrwt>0</asrwt>
<pdfrwt beam="1">  1        2 0.70360348E-01 0.99979912E+03</pdfrwt>
<pdfrwt beam="2">  1       -2 0.84064149E-01 0.99979912E+03</pdfrwt>
<totfact> 0.10125803E+02</totfact>
</mgrwt>
</event>
<event>
 9    1  0.4342579E-036  0.1000375E+04  0.7818608E-02  0.8680681E-01
         -1   -1    0    0    0  501 -0.00000000000E+00  0.00000000000E+00  0.17490936845E+03  0.17490936845E+03  0.00000000000E+00 0. -1.
          1   -1    0    0  501    0  0.00000000000E+00 -0.00000000000E+00 -0.14303841435E+04  0.14303841435E+04  0.00000000000E+00 0. -1.
         36    2    1    2    0    0  0.00000000000E+00  0.00000000000E+00 -0.12554747750E+04  0.16052935119E+04  0.10003751040E+04 0.  0.
         25    2    3    3    0    0  0.73377275704E+02  0.10861788267E+03 -0.31307744003E+03  0.36158327375E+03  0.12467121310E+03 0.  0.
         35    2    3    3    0    0 -0.73377275704E+02 -0.10861788267E+03 -0.94239733498E+03  0.12437102382E+04  0.80094965540E+03 0.  0.
         22    1    5    5    0    0  0.30318696682E+03 -0.21090953900E+03 -0.24078725419E+03  0.44088963729E+03  0.00000000000E+00 0.  1.
         22    1    5    5    0    0 -0.37656424252E+03  0.10229165633E+03 -0.70161008080E+03  0.80282060087E+03  0.00000000000E+00 0.  1.
          5    1    4    4  502    0  0.88909089005E+02  0.73635645042E+02 -0.29897417037E+03  0.32052250916E+03  0.47000000000E+01 0. -1.
         -5    1    4    4    0  502 -0.15531813302E+02  0.34982237626E+02 -0.14103269660E+02  0.41060764592E+02  0.47000000000E+01 0. -1.
<mgrwt>
<rscale>  0 0.10003751E+04</rscale>
<asrwt>0</asrwt>
<pdfrwt beam="1">  1        1 0.22005909E+00 0.10003751E+04</pdfrwt>
<pdfrwt beam="2">  1       -1 0.26909134E-01 0.10003751E+04</pdfrwt>
<totfact> 0.97890175E+01</totfact>
</mgrwt>
</event>
<event>
 9    1  0.4342579E-036  0.9979968E+03  0.7818608E-02  0.8682948E-01
          1   -1    0    0  501    0  0.00000000000E+00  0.00000000000E+00  0.13820624696E+04  0.13820624696E+04  0.00000000000E+00 0. -1.
         -1   -1    0    0    0  501 -0.00000000000E+00 -0.00000000000E+00 -0.18016507725E+03  0.18016507725E+03  0.00000000000E+00 0. -1.
         36    2    1    2    0    0 -0.14210854715E-13  0.21316282073E-13  0.12018973924E+04  0.15622275468E+04  0.99799677674E+03 0.  0.
         25    2    3    3    0    0  0.22202420451E+02  0.36949595286E+02  0.17964398668E+02  0.13294325879E+03  0.12447076111E+03 0.  0.
         35    2    3    3    0    0 -0.22202420451E+02 -0.36949595286E+02  0.11839329937E+04  0.14292842881E+04  0.79956114368E+03 0.  0.
         22    1    5    5    0    0 -0.34860693064E+03 -0.23160789185E+03  0.56808862132E+03  0.70561582276E+03  0.00000000000E+00 0. -1.
         22    1    5    5    0    0  0.32640451019E+03  0.19465829657E+03  0.61584437237E+03  0.72366846530E+03  0.00000000000E+00 0. -1.
          5    1    4    4  502    0  0.72638006188E+02  0.29225033541E+02 -0.61216070124E+00  0.78440087131E+02  0.47000000000E+01 0.  1.
         -5    1    4    4    0  502 -0.50435585737E+02  0.77245617450E+01  0.18576559370E+02  0.54503171659E+02  0.47000000000E+01 0.  1.
<mgrwt>
<rscale>  0 0.99799678E+03</rscale>
<asrwt>0</asrwt>
<pdfrwt beam="1">  1        1 0.21262499E+00 0.99799678E+03</pdfrwt>
<pdfrwt beam="2">  1       -1 0.27717705E-01 0.99799678E+03</pdfrwt>
<totfact> 0.10087578E+02</totfact>
</mgrwt>
</event>
<event>
 9    1  0.4342579E-036  0.1000241E+04  0.7818608E-02  0.8680808E-01
         -2   -1    0    0    0  501 -0.00000000000E+00  0.00000000000E+00  0.26432843370E+03  0.26432843370E+03  0.00000000000E+00 0.  1.
          2   -1    0    0  501    0  0.00000000000E+00 -0.00000000000E+00 -0.94624909828E+03  0.94624909828E+03  0.00000000000E+00 0.  1.
         36    2    1    2    0    0  0.23092638912E-13  0.00000000000E+00 -0.68192066458E+03  0.12105775320E+04  0.10002410550E+04 0.  0.
         25    2    3    3    0    0  0.11519201358E+02 -0.11148200102E+03 -0.22700018077E+03  0.28262153317E+03  0.12563805312E+03 0.  0.
         35    2    3    3    0    0 -0.11519201358E+02  0.11148200102E+03 -0.45492048381E+03  0.92795599881E+03  0.80099235988E+03 0.  0.
         22    1    5    5    0    0 -0.31686780361E+03 -0.11778973417E+03 -0.53283701231E+01  0.33809468787E+03  0.00000000000E+00 0.  1.
         22    1    5    5    0    0  0.30534860225E+03  0.22927173519E+03 -0.44959211368E+03  0.58986131094E+03  0.00000000000E+00 0.  1.
          5    1    4    4  502    0  0.13972001817E+02  0.17160268965E+02 -0.11523120363E+01  0.22651920200E+02  0.47000000000E+01 0.  1.
         -5    1    4    4    0  502 -0.24528004590E+01 -0.12864226998E+03 -0.22584786874E+03  0.25996961297E+03  0.47000000000E+01 0.  1.
<mgrwt>
<rscale>  0 0.10002411E+04</rscale>
<asrwt>0</asrwt>
<pdfrwt beam="1">  1        2 0.14557679E+00 0.10002411E+04</pdfrwt>
<pdfrwt beam="2">  1       -2 0.40665912E-01 0.10002411E+04</pdfrwt>
<totfact> 0.18906751E+02</totfact>
</mgrwt>
</event>
<event>
 9    1  0.4342579E-036  0.1000536E+04  0.7818608E-02  0.8680528E-01
          1   -1    0    0  501    0  0.00000000000E+00  0.00000000000E+00  0.13449711135E+04  0.13449711135E+04  0.00000000000E+00 0.  1.
         -1   -1    0    0    0  501 -0.00000000000E+00 -0.00000000000E+00 -0.18607675658E+03  0.18607675658E+03  0.00000000000E+00 0.  1.
         36    2    1    2    0    0  0.00000000000E+00  0.14210854715E-13  0.11588943569E+04  0.15310478701E+04  0.10005355816E+04 0.  0.
         25    2    3    3    0    0 -0.65328184923E+02  0.12297115224E+03  0.20677097105E+03  0.27926321412E+03  0.12587307998E+03 0.  0.
         35    2    3    3    0    0  0.65328184923E+02 -0.12297115224E+03  0.95212338588E+03  0.12517846560E+04  0.80064736741E+03 0.  0.
         22    1    5    5    0    0  0.14995526262E+03 -0.89473604477E+02 -0.96303002537E+02  0.19941508214E+03  0.00000000000E+00 0. -1.
         22    1    5    5    0    0 -0.84627077699E+02 -0.33497547766E+02  0.10484263884E+04  0.10523695738E+04  0.00000000000E+00 0. -1.
          5    1    4    4  502    0 -0.10254161875E+03  0.96885312815E+02  0.16726551869E+03  0.21886386444E+03  0.47000000000E+01 0. -1.
         -5    1    4    4    0  502  0.37213433825E+02  0.26085839428E+02  0.39505452360E+02  0.60399349681E+02  0.47000000000E+01 0. -1.
<mgrwt>
<rscale>  0 0.10005356E+04</rscale>
<asrwt>0</asrwt>
<pdfrwt beam="1">  1        1 0.20691863E+00 0.10005356E+04</pdfrwt>
<pdfrwt beam="2">  1       -1 0.28627194E-01 0.10005356E+04</pdfrwt>
<totfact> 0.10154578E+02</totfact>
</mgrwt>
</event>
<event>
 9    1  0.4342579E-036  0.9990142E+03  0.7818608E-02  0.8681977E-01
         -2   -1    0    0    0  501 -0.00000000000E+00  0.00000000000E+00  0.10046171233E+03  0.10046171233E+03  0.00000000000E+00 0. -1.
          2   -1    0    0  501    0  0.00000000000E+00 -0.00000000000E+00 -0.24836064010E+04  0.24836064010E+04  0.00000000000E+00 0. -1.
         36    2    1    2    0    0 -0.71054273576E-14 -0.14210854715E-13 -0.23831446886E+04  0.25840681133E+04  0.99901421770E+03 0.  0.
         25    2    3    3    0    0  0.52698104011E+02 -0.10884344622E+03 -0.62796672290E+03  0.65146894224E+03  0.12428029480E+03 0.  0.
         35    2    3    3    0    0 -0.52698104011E+02  0.10884344622E+03 -0.17551779657E+04  0.19325991711E+04  0.79979114687E+03 0.  0.
         22    1    5    5    0    0 -0.28350784217E+03  0.23176031786E+03 -0.15700893126E+04  0.16122251676E+04  0.00000000000E+00 0.  1.
         22    1    5    5    0    0  0.23080973816E+03 -0.12291687164E+03 -0.18508865310E+03  0.32037400342E+03  0.00000000000E+00 0.  1.
          5    1    4    4  502    0  0.26985892978E+02 -0.73913750594E+02 -0.13315668923E+03  0.15473937713E+03  0.47000000000E+01 0.  1.
         -5    1    4    4    0  502  0.25712211033E+02 -0.34929695625E+02 -0.49481003367E+03  0.49672956511E+03  0.47000000000E+01 0.  1.
<mgrwt>
<rscale>  0 0.99901422E+03</rscale>
<asrwt>0</asrwt>
<pdfrwt beam="1">  1        2 0.38209327E+00 0.99901422E+03</pdfrwt>
<pdfrwt beam="2">  1       -2 0.15455649E-01 0.99901422E+03</pdfrwt>
<totfact> 0.13550808E+02</totfact>
</mgrwt>
</event>
<event>
 9    1  0.4342579E-036  0.1000166E+04  0.7818608E-02  0.8680880E-01
         -2   -1    0    0    0  501 -0.00000000000E+00  0.00000000000E+00  0.39087444448E+03  0.39087444448E+03  0.00000000000E+00 0. -1.
          2   -1    0    0  501    0  0.00000000000E+00 -0.00000000000E+00 -0.63980392267E+03  0.63980392267E+03  0.00000000000E+00 0. -1.
         36    2    1    2    0    0  0.14210854715E-13  0.00000000000E+00 -0.24892947819E+03  0.10306783672E+04  0.10001659919E+04 0.  0.
         25    2    3    3    0    0 -0.10273563236E+03  0.82638999622E+02  0.47970711522E+01  0.18178271441E+03  0.12505250478E+03 0.  0.
         35    2    3    3    0    0  0.10273563236E+03 -0.82638999622E+02 -0.25372654934E+03  0.84889565274E+03  0.79928896714E+03 0.  0.
         22    1    5    5    0    0  0.57240451644E+02  0.55671126373E+02 -0.53033207417E+03  0.53630947456E+03  0.00000000000E+00 0. -1.
         22    1    5    5    0    0  0.45495180713E+02 -0.13831012599E+03  0.27660552483E+03  0.31258617818E+03  0.00000000000E+00 0. -1.
          5    1    4    4  502    0 -0.86643608074E+02  0.54351454741E+02 -0.52995824203E+02  0.11529025473E+03  0.47000000000E+01 0.  1.
         -5    1    4    4    0  502 -0.16092024284E+02  0.28287544881E+02  0.57792895356E+02  0.66492459682E+02  0.47000000000E+01 0.  1.
<mgrwt>
<rscale>  0 0.10001660E+04</rscale>
<asrwt>0</asrwt>
<pdfrwt beam="1">  1        2 0.98431371E-01 0.10001660E+04</pdfrwt>
<pdfrwt beam="2">  1       -2 0.60134531E-01 0.10001660E+04</pdfrwt>
<totfact> 0.14300067E+02</totfact>
</mgrwt>
</event>
<event>
 9    1  0.4342579E-036  0.9999284E+03  0.7818608E-02  0.8681106E-01
         -2   -1    0    0    0  501 -0.00000000000E+00  0.00000000000E+00  0.36204532442E+03  0.36204532442E+03  0.00000000000E+00 0.  1.
          2   -1    0    0  501    0  0.00000000000E+00 -0.00000000000E+00 -0.69042242072E+03  0.69042242072E+03  0.00000000000E+00 0.  1.
         36    2    1    2    0    0  0.24868995752E-13  0.00000000000E+00 -0.32837709630E+03  0.10524677451E+04  0.99992841602E+03 0.  0.
         25    2    3    3    0    0  0.25241442941E+02  0.42208042859E+02 -0.19873013382E+03  0.24066978809E+03  0.12652917248E+03 0.  0.
         35    2    3    3    0    0 -0.25241442941E+02 -0.42208042859E+02 -0.12964696247E+03  0.81179795704E+03  0.79986807590E+03 0.  0.
         22    1    5    5    0    0 -0.28215133135E+03 -0.22239045646E+03 -0.28787281772E+03  0.46036686251E+03  0.00000000000E+00 0. -1.
         22    1    5    5    0    0  0.25690988841E+03  0.18018241360E+03  0.15822585525E+03  0.35143109453E+03  0.00000000000E+00 0. -1.
          5    1    4    4  502    0  0.46296451217E+02  0.56158338426E+02 -0.20200810097E+03  0.21477076903E+03  0.47000000000E+01 0. -1.
         -5    1    4    4    0  502 -0.21055008276E+02 -0.13950295567E+02  0.32779671512E+01  0.25899019065E+02  0.47000000000E+01 0. -1.
<mgrwt>
<rscale>  0 0.99992842E+03</rscale>
<asrwt>0</asrwt>
<pdfrwt beam="1">  1        2 0.10621883E+00 0.99992842E+03</pdfrwt>
<pdfrwt beam="2">  1       -2 0.55699281E-01 0.99992842E+03</pdfrwt>
<totfact> 0.15279172E+02</totfact>
</mgrwt>
</event>
<event>
 9    1  0.4342579E-036  0.9994605E+03  0.7818608E-02  0.8681552E-01
          2   -1    0    0  501    0  0.00000000000E+00  0.00000000000E+00  0.44657041134E+03  0.44657041134E+03  0.00000000000E+00 0. -1.
         -2   -1    0    0    0  501 -0.00000000000E+00 -0.00000000000E+00 -0.55921828247E+03  0.55921828247E+03  0.00000000000E+00 0. -1.
         36    2    1    2    0    0  0.28421709430E-13  0.00000000000E+00 -0.11264787113E+03  0.10057886938E+04  0.99946053136E+03 0.  0.
         25    2    3    3    0    0 -0.35918882774E+02  0.13406725994E+03 -0.33743632701E+02  0.19002805286E+03  0.12533088924E+03 0.  0.
         35    2    3    3    0    0  0.35918882774E+02 -0.13406725994E+03 -0.78904238425E+02  0.81576064096E+03  0.79998459245E+03 0.  0.
         22    1    5    5    0    0  0.37730010090E+03 -0.59254005668E+02 -0.21782999315E+03  0.43967750596E+03  0.00000000000E+00 0. -1.
         22    1    5    5    0    0 -0.34138121813E+03 -0.74813254272E+02  0.13892575473E+03  0.37608313500E+03  0.00000000000E+00 0. -1.
          5    1    4    4  502    0 -0.31368059265E+02  0.17362579052E+02 -0.60161517014E+02  0.70191968364E+02  0.47000000000E+01 0.  1.
         -5    1    4    4    0  502 -0.45508235095E+01  0.11670468089E+03  0.26417884313E+02  0.11983608450E+03  0.47000000000E+01 0.  1.
<mgrwt>
<rscale>  0 0.99946053E+03</rscale>
<asrwt>0</asrwt>
<pdfrwt beam="1">  1        2 0.68703141E-01 0.99946053E+03</pdfrwt>
<pdfrwt beam="2">  1       -2 0.86033581E-01 0.99946053E+03</pdfrwt>
<totfact> 0.98547042E+01</totfact>
</mgrwt>
</event>
<event>
 9    1  0.4342579E-036  0.1001381E+04  0.7818608E-02  0.8679724E-01
          1   -1    0    0  501    0  0.00000000000E+00  0.00000000000E+00  0.34568803322E+04  0.34568803322E+04  0.00000000000E+00 0. -1.
         -1   -1    0    0    0  501 -0.00000000000E+00 -0.00000000000E+00 -0.72519392500E+02  0.72519392500E+02  0.00000000000E+00 0. -1.
         36    2    1    2    0    0  0.00000000000E+00  0.00000000000E+00  0.33843609397E+04  0.35293997247E+04  0.10013807700E+04 0.  0.
         25    2    3    3    0    0  0.37106176126E+02  0.13182965142E+03  0.68639525122E+03  0.71124978600E+03  0.12641950757E+03 0.  0.
         35    2    3    3    0    0 -0.37106176126E+02 -0.13182965142E+03  0.26979656885E+04  0.28181499387E+04  0.80261715373E+03 0.  0.
         22    1    5    5    0    0  0.92545079287E+02  0.12388464299E+03  0.61940662176E+02  0.16657923670E+03  0.00000000000E+00 0.  1.
         22    1    5    5    0    0 -0.12965125541E+03 -0.25571429441E+03  0.26360250263E+04  0.26515707020E+04  0.00000000000E+00 0.  1.
          5    1    4    4  502    0  0.77511610479E+02  0.80906679597E+02  0.31946914362E+03  0.33858021839E+03  0.47000000000E+01 0.  1.
         -5    1    4    4    0  502 -0.40405434352E+02  0.50922971823E+02  0.36692610760E+03  0.37266956761E+03  0.47000000000E+01 0.  1.
<mgrwt>
<rscale>  0 0.10013808E+04</rscale>
<asrwt>0</asrwt>
<pdfrwt beam="1">  1        1 0.53182762E+00 0.10013808E+04</pdfrwt>
<pdfrwt beam="2">  1       -1 0.11156832E-01 0.10013808E+04</pdfrwt>
<totfact> 0.14852297E+01</totfact>
</mgrwt>
</event>
<event>
 9    1  0.4342579E-036  0.1002044E+04  0.7818608E-02  0.8679094E-01
         -1   -1    0    0    0  501 -0.00000000000E+00  0.00000000000E+00  0.62314466672E+03  0.62314466672E+03  0.00000000000E+00 0.  1.
          1   -1    0    0  501    0  0.00000000000E+00 -0.00000000000E+00 -0.40283240737E+03  0.40283240737E+03  0.00000000000E+00 0.  1.
         36    2    1    2    0    0  0.00000000000E+00 -0.35527136788E-13  0.22031225935E+03  0.10259770741E+04  0.10020436442E+04 0.  0.
         25    2    3    3    0    0  0.70019695154E+02  0.50964229894E+02 -0.75131776571E+02  0.16863842734E+03  0.12366901345E+03 0.  0.
         35    2    3    3    0    0 -0.70019695154E+02 -0.50964229894E+02  0.29544403592E+03  0.85733864675E+03  0.80015140218E+03 0.  0.
         22    1    5    5    0    0  0.41763256937E+02 -0.30779766488E+03 -0.13909893143E+03  0.34034113014E+03  0.00000000000E+00 0.  1.
         22    1    5    5    0    0 -0.11178295209E+03  0.25683343499E+03  0.43454296736E+03  0.51699751662E+03  0.00000000000E+00 0.  1.
          5    1    4    4  502    0  0.51525432704E+02  0.82707870796E+02 -0.85986240657E+02  0.13004301477E+03  0.47000000000E+01 0. -1.
         -5    1    4    4    0  502  0.18494262450E+02 -0.31743640902E+02  0.10854464086E+02  0.38595412576E+02  0.47000000000E+01 0. -1.
<mgrwt>
<rscale>  0 0.10020436E+04</rscale>
<asrwt>0</asrwt>
<pdfrwt beam="1">  1        1 0.61974216E-01 0.10020436E+04</pdfrwt>
<pdfrwt beam="2">  1       -1 0.95868411E-01 0.10020436E+04</pdfrwt>
<totfact> 0.74502132E+01</totfact>
</mgrwt>
</event>
<event>
 9    1  0.4342579E-036  0.1000703E+04  0.7818608E-02  0.8680369E-01
         -2   -1    0    0    0  501 -0.00000000000E+00  0.00000000000E+00  0.15767759067E+03  0.15767759067E+03  0.00000000000E+00 0.  1.
          2   -1    0    0  501    0  0.00000000000E+00 -0.00000000000E+00 -0.15877422789E+04  0.15877422789E+04  0.00000000000E+00 0.  1.
         36    2    1    2    0    0 -0.14210854715E-13  0.71054273576E-14 -0.14300646882E+04  0.17454198695E+04  0.10007025075E+04 0.  0.
         25    2    3    3    0    0  0.37313006552E+02 -0.61046022526E+02 -0.47851116113E+03  0.49957331661E+03  0.12442543959E+03 0.  0.
         35    2    3    3    0    0 -0.37313006552E+02  0.61046022526E+02 -0.95155352708E+03  0.12458465529E+04  0.80097480687E+03 0.  0.
         22    1    5    5    0    0 -0.37463692338E+03  0.89712942982E+02 -0.22960417580E+03  0.44846328060E+03  0.00000000000E+00 0.  1.
         22    1    5    5    0    0  0.33732391683E+03 -0.28666920455E+02 -0.72194935129E+03  0.79738327235E+03  0.00000000000E+00 0.  1.
          5    1    4    4  502    0  0.40544991296E+01 -0.63964494424E+02 -0.45236656267E+03  0.45690862602E+03  0.47000000000E+01 0. -1.
         -5    1    4    4    0  502  0.33258507423E+02  0.29184718978E+01 -0.26144598458E+02  0.42664690585E+02  0.47000000000E+01 0. -1.
<mgrwt>
<rscale>  0 0.10007025E+04</rscale>
<asrwt>0</asrwt>
<pdfrwt beam="1">  1        2 0.24426803E+00 0.10007025E+04</pdfrwt>
<pdfrwt beam="2">  1       -2 0.24258092E-01 0.10007025E+04</pdfrwt>
<totfact> 0.20451182E+02</totfact>
</mgrwt>
</event>
<event>
 9    1  0.4342579E-036  0.1002308E+04  0.7818608E-02  0.8678843E-01
          2   -1    0    0  501    0  0.00000000000E+00  0.00000000000E+00  0.55771189555E+03  0.55771189555E+03  0.00000000000E+00 0.  1.
         -2   -1    0    0    0  501 -0.00000000000E+00 -0.00000000000E+00 -0.45033137172E+03  0.45033137172E+03  0.00000000000E+00 0.  1.
         36    2    1    2    0    0  0.42632564146E-13  0.00000000000E+00  0.10738052383E+03  0.10080432673E+04  0.10023076632E+04 0.  0.
         25    2    3    3    0    0 -0.10611342971E+03  0.35522936973E+02  0.10010302294E+03  0.20028477462E+03  0.13255729601E+03 0.  0.
         35    2    3    3    0    0  0.10611342971E+03 -0.35522936973E+02  0.72775008884E+01  0.80775849266E+03  0.79993679839E+03 0.  0.
         22    1    5    5    0    0  0.42118483537E+03  0.14048031985E+03  0.37630665105E+02  0.44558663890E+03  0.00000000000E+00 0.  1.
         22    1    5    5    0    0 -0.31507140566E+03 -0.17600325682E+03 -0.30353164216E+02  0.36217185376E+03  0.00000000000E+00 0.  1.
          5    1    4    4  502    0 -0.63027357631E+02 -0.57073612030E+01  0.12123700905E+03  0.13684123701E+03  0.47000000000E+01 0. -1.
         -5    1    4    4    0  502 -0.43086072078E+02  0.41230298176E+02 -0.21133986117E+02  0.63443537606E+02  0.47000000000E+01 0. -1.
<mgrwt>
<rscale>  0 0.10023077E+04</rscale>
<asrwt>0</asrwt>
<pdfrwt beam="1">  1        2 0.85801830E-01 0.10023077E+04</pdfrwt>
<pdfrwt beam="2">  1       -2 0.69281750E-01 0.10023077E+04</pdfrwt>
<totfact> 0.12453219E+02</totfact>
</mgrwt>
</event>
<event>
 9    1  0.4342579E-036  0.9996500E+03  0.7818608E-02  0.8681371E-01
          1   -1    0    0  501    0  0.00000000000E+00  0.00000000000E+00  0.39780994710E+03  0.39780994710E+03  0.00000000000E+00 0. -1.
         -1   -1    0    0    0  501 -0.00000000000E+00 -0.00000000000E+00 -0.62800092767E+03  0.62800092767E+03  0.00000000000E+00 0. -1.
         36    2    1    2    0    0 -0.28421709430E-13  0.71054273576E-14 -0.23019098057E+03  0.10258108748E+04  0.99964997036E+03 0.  0.
         25    2    3    3    0    0 -0.80004420493E+02 -0.58718016296E+02  0.41451961978E+02  0.16494402296E+03  0.12505899736E+03 0.  0.
         35    2    3    3    0    0  0.80004420493E+02  0.58718016296E+02 -0.27164294254E+03  0.86086685181E+03  0.81083496198E+03 0.  0.
         22    1    5    5    0    0  0.42826705450E+03  0.47281300448E+02 -0.27726518056E+03  0.51237112691E+03  0.00000000000E+00 0. -1.
         22    1    5    5    0    0 -0.34826263400E+03  0.11436715848E+02  0.56222380191E+01  0.34849572490E+03  0.00000000000E+00 0. -1.
          5    1    4    4  502    0  0.86407798561E+01 -0.23322179396E+02  0.62198600207E+02  0.67151641797E+02  0.47000000000E+01 0.  1.
         -5    1    4    4    0  502 -0.88645200350E+02 -0.35395836900E+02 -0.20746638229E+02  0.97792381159E+02  0.47000000000E+01 0.  1.
<mgrwt>
<rscale>  0 0.99964997E+03</rscale>
<asrwt>0</asrwt>
<pdfrwt beam="1">  1        1 0.61201530E-01 0.99964997E+03</pdfrwt>
<pdfrwt beam="2">  1       -1 0.96615527E-01 0.99964997E+03</pdfrwt>
<totfact> 0.74501016E+01</totfact>
</mgrwt>
</event>
<event>
 9    1  0.4342579E-036  0.9999687E+03  0.7818608E-02  0.8681068E-01
          1   -1    0    0  501    0  0.00000000000E+00  0.00000000000E+00  0.34974479258E+03  0.34974479258E+03  0.00000000000E+00 0. -1.
         -1   -1    0    0    0  501 -0.00000000000E+00 -0.00000000000E+00 -0.71476218599E+03  0.71476218599E+03  0.00000000000E+00 0. -1.
         36    2    1    2    0    0 -0.28421709430E-13  0.00000000000E+00 -0.36501739340E+03  0.10645069786E+04  0.99996870448E+03 0.  0.
         25    2    3    3    0    0  0.73221599067E+02  0.11836754560E+03 -0.52406859496E+02  0.19441322681E+03  0.12521080391E+03 0.  0.
         35    2    3    3    0    0 -0.73221599067E+02 -0.11836754560E+03 -0.31261053391E+03  0.87009375176E+03  0.79997844503E+03 0.  0.
         22    1    5    5    0    0 -0.26067831911E+03 -0.21895695652E+02  0.19115327858E+03  0.32399411022E+03  0.00000000000E+00 0. -1.
         22    1    5    5    0    0  0.18745672005E+03 -0.96471849950E+02 -0.50376381248E+03  0.54609964154E+03  0.00000000000E+00 0. -1.
          5    1    4    4  502    0  0.51810285074E+02 -0.13303636253E+02 -0.16760905111E+02  0.56252202776E+02  0.47000000000E+01 0. -1.
         -5    1    4    4    0  502  0.21411313992E+02  0.13167118185E+03 -0.35645954385E+02  0.13816102403E+03  0.47000000000E+01 0. -1.
<mgrwt>
<rscale>  0 0.99996870E+03</rscale>
<asrwt>0</asrwt>
<pdfrwt beam="1">  1        1 0.53806892E-01 0.99996870E+03</pdfrwt>
<pdfrwt beam="2">  1       -1 0.10996341E+00 0.99996870E+03</pdfrwt>
<totfact> 0.65849136E+01</totfact>
</mgrwt>
</event>
<event>
 9    1  0.4342579E-036  0.1000950E+04  0.7818608E-02  0.8680134E-01
          2   -1    0    0  501    0  0.00000000000E+00  0.00000000000E+00  0.64801389622E+03  0.64801389622E+03  0.00000000000E+00 0. -1.
         -2   -1    0    0    0  501 -0.00000000000E+00 -0.00000000000E+00 -0.38652739286E+03  0.38652739286E+03  0.00000000000E+00 0. -1.
         36    2    1    2    0    0 -0.14210854715E-13  0.14210854715E-13  0.26148650337E+03  0.10345412891E+04  0.10009497926E+04 0.  0.
         25    2    3    3    0    0  0.68389904712E+02  0.78506255230E+02  0.15017925772E+03  0.22162712381E+03  0.12539681568E+03 0.  0.
         35    2    3    3    0    0 -0.68389904712E+02 -0.78506255230E+02  0.11130724565E+03  0.81291416527E+03  0.79849841953E+03 0.  0.
         22    1    5    5    0    0  0.33082348405E+03  0.12865554095E+03  0.34403167395E+02  0.35662305554E+03  0.00000000000E+00 0. -1.
         22    1    5    5    0    0 -0.39921338877E+03 -0.20716179618E+03  0.76904078255E+02  0.45629110973E+03  0.00000000000E+00 0. -1.
          5    1    4    4  502    0  0.44268531504E+02  0.26850829981E+02 -0.87476926456E+01  0.52718896791E+02  0.47000000000E+01 0.  1.
         -5    1    4    4    0  502  0.24121373208E+02  0.51655425248E+02  0.15892695036E+03  0.16890822702E+03  0.47000000000E+01 0.  1.
<mgrwt>
<rscale>  0 0.10009498E+04</rscale>
<asrwt>0</asrwt>
<pdfrwt beam="1">  1        2 0.99694445E-01 0.10009498E+04</pdfrwt>
<pdfrwt beam="2">  1       -2 0.59465753E-01 0.10009498E+04</pdfrwt>
<totfact> 0.14413910E+02</totfact>
</mgrwt>
</event>
<event>
 9    1  0.4342579E-036  0.1001226E+04  0.7818608E-02  0.8679872E-01
         -4   -1    0    0    0  501 -0.00000000000E+00  0.00000000000E+00  0.20497127321E+03  0.20497127321E+03  0.00000000000E+00 0. -1.
          4   -1    0    0  501    0  0.00000000000E+00 -0.00000000000E+00 -0.12226746775E+04  0.12226746775E+04  0.00000000000E+00 0. -1.
         36    2    1    2    0    0  0.53290705182E-14 -0.28421709430E-13 -0.10177034043E+04  0.14276459507E+04  0.10012256197E+04 0.  0.
         25    2    3    3    0    0  0.10087443428E+02 -0.91506722270E+02 -0.34491839651E+03  0.37832564600E+03  0.12524518927E+03 0.  0.
         35    2    3    3    0    0 -0.10087443428E+02  0.91506722270E+02 -0.67278500778E+03  0.10493203047E+04  0.79997387359E+03 0.  0.
         22    1    5    5    0    0  0.11673918081E+03 -0.16915181382E+03  0.96633079130E+02  0.22710861814E+03  0.00000000000E+00 0.  1.
         22    1    5    5    0    0 -0.12682662423E+03  0.26065853609E+03 -0.76941808691E+03  0.82221168656E+03  0.00000000000E+00 0.  1.
          5    1    4    4  502    0  0.86602179697E+01  0.20836951539E+02 -0.16181789905E+03  0.16345121712E+03  0.47000000000E+01 0.  1.
         -5    1    4    4    0  502  0.14272254580E+01 -0.11234367381E+03 -0.18310049747E+03  0.21487442889E+03  0.47000000000E+01 0.  1.
<mgrwt>
<rscale>  0 0.10012256E+04</rscale>
<asrwt>0</asrwt>
<pdfrwt beam="1">  1        4 0.18810380E+00 0.10012256E+04</pdfrwt>
<pdfrwt beam="2">  1       -4 0.31534041E-01 0.10012256E+04</pdfrwt>
<totfact> 0.28007730E+00</totfact>
</mgrwt>
</event>
<event>
 9    1  0.4342579E-036  0.9997498E+03  0.7818608E-02  0.8681276E-01
          2   -1    0    0  501    0  0.00000000000E+00  0.00000000000E+00  0.11467324833E+04  0.11467324833E+04  0.00000000000E+00 0. -1.
         -2   -1    0    0    0  501 -0.00000000000E+00 -0.00000000000E+00 -0.21790164346E+03  0.21790164346E+03  0.00000000000E+00 0. -1.
         36    2    1    2    0    0 -0.14210854715E-13 -0.14210854715E-13  0.92883083983E+03  0.13646341268E+04  0.99974975413E+03 0.  0.
         25    2    3    3    0    0  0.95499664056E+02  0.66780517092E+02  0.64884568871E+02  0.18272107794E+03  0.12488859736E+03 0.  0.
         35    2    3    3    0    0 -0.95499664056E+02 -0.66780517092E+02  0.86394627095E+03  0.11819130488E+04  0.79808237203E+03 0.  0.
         22    1    5    5    0    0  0.12573667949E+03  0.29921019815E+03  0.59194086430E+03  0.67507810072E+03  0.00000000000E+00 0. -1.
         22    1    5    5    0    0 -0.22123634355E+03 -0.36599071524E+03  0.27200540666E+03  0.50683494809E+03  0.00000000000E+00 0. -1.
          5    1    4    4  502    0 -0.84749951686E+01 -0.22566928241E+01 -0.26274786317E+02  0.28095775512E+02  0.47000000000E+01 0. -1.
         -5    1    4    4    0  502  0.10397465922E+03  0.69037209916E+02  0.91159355188E+02  0.15462530243E+03  0.47000000000E+01 0. -1.
<mgrwt>
<rscale>  0 0.99974975E+03</rscale>
<asrwt>0</asrwt>
<pdfrwt beam="1">  1        2 0.17642038E+00 0.99974975E+03</pdfrwt>
<pdfrwt beam="2">  1       -2 0.33523330E-01 0.99974975E+03</pdfrwt>
<totfact> 0.20453479E+02</totfact>
</mgrwt>
</event>
<event>
 9    1  0.4342579E-036  0.9992263E+03  0.7818608E-02  0.8681775E-01
          1   -1    0    0  501    0  0.00000000000E+00  0.00000000000E+00  0.47298967404E+03  0.47298967404E+03  0.00000000000E+00 0. -1.
         -1   -1    0    0    0  501 -0.00000000000E+00 -0.00000000000E+00 -0.52773517967E+03  0.52773517967E+03  0.00000000000E+00 0. -1.
         36    2    1    2    0    0  0.21316282073E-13  0.00000000000E+00 -0.54745505633E+02  0.10007248537E+04  0.99922628190E+03 0.  0.
         25    2    3    3    0    0  0.53359587952E+01 -0.86173443880E+02 -0.12127104930E+03  0.19338634740E+03  0.12343936600E+03 0.  0.
         35    2    3    3    0    0 -0.53359587952E+01  0.86173443880E+02  0.66525543662E+02  0.80733850631E+03  0.79994717383E+03 0.  0.
         22    1    5    5    0    0  0.30163665564E+03 -0.12898868741E+03  0.22765059566E+03  0.39930883688E+03  0.00000000000E+00 0. -1.
         22    1    5    5    0    0 -0.30697261444E+03  0.21516213129E+03 -0.16112505199E+03  0.40802966943E+03  0.00000000000E+00 0. -1.
          5    1    4    4  502    0 -0.57794390718E+02 -0.52480625763E+02 -0.53827101429E+02  0.94941321495E+02  0.47000000000E+01 0.  1.
         -5    1    4    4    0  502  0.63130349513E+02 -0.33692818117E+02 -0.67443947866E+02  0.98445025908E+02  0.47000000000E+01 0.  1.
<mgrwt>
<rscale>  0 0.99922628E+03</rscale>
<asrwt>0</asrwt>
<pdfrwt beam="1">  1        1 0.72767642E-01 0.99922628E+03</pdfrwt>
<pdfrwt beam="2">  1       -1 0.81190027E-01 0.99922628E+03</pdfrwt>
<totfact> 0.85611072E+01</totfact>
</mgrwt>
</event>
<event>
 9    1  0.4342579E-036  0.9989743E+03  0.7818608E-02  0.8682015E-01
         -1   -1    0    0    0  501 -0.00000000000E+00  0.00000000000E+00  0.16978157104E+03  0.16978157104E+03  0.00000000000E+00 0.  1.
          1   -1    0    0  501    0  0.00000000000E+00 -0.00000000000E+00 -0.14694610571E+04  0.14694610571E+04  0.00000000000E+00 0.  1.
         36    2    1    2    0    0  0.00000000000E+00  0.00000000000E+00 -0.12996794861E+04  0.16392426281E+04  0.99897428768E+03 0.  0.
         25    2    3    3    0    0  0.85750058274E+02  0.68570167560E+02 -0.38686007184E+03  0.42095720385E+03  0.12445606420E+03 0.  0.
         35    2    3    3    0    0 -0.85750058274E+02 -0.68570167560E+02 -0.91281941423E+03  0.12182854243E+04  0.79932793752E+03 0.  0.
         22    1    5    5    0    0 -0.14999129161E+03  0.32917677295E+03 -0.62849586625E+03  0.72516328458E+03  0.00000000000E+00 0.  1.
         22    1    5    5    0    0  0.64241233339E+02 -0.39774694051E+03 -0.28432354797E+03  0.49312213972E+03  0.00000000000E+00 0.  1.
          5    1    4    4  502    0  0.11815092906E+03  0.50587770203E+02 -0.29982977900E+03  0.32624952246E+03  0.47000000000E+01 0.  1.
         -5    1    4    4    0  502 -0.32400870783E+02  0.17982397357E+02 -0.87030292840E+02  0.94707681389E+02  0.47000000000E+01 0.  1.
<mgrwt>
<rscale>  0 0.99897429E+03</rscale>
<asrwt>0</asrwt>
<pdfrwt beam="1">  1        1 0.22607092E+00 0.99897429E+03</pdfrwt>
<pdfrwt beam="2">  1       -1 0.26120243E-01 0.99897429E+03</pdfrwt>
<totfact> 0.96528746E+01</totfact>
</mgrwt>
</event>
<event>
 9    1  0.4342579E-036  0.1000726E+04  0.7818608E-02  0.8680346E-01
          2   -1    0    0  501    0  0.00000000000E+00  0.00000000000E+00  0.15323057047E+04  0.15323057047E+04  0.00000000000E+00 0.  1.
         -2   -1    0    0    0  501 -0.00000000000E+00 -0.00000000000E+00 -0.16338996452E+03  0.16338996452E+03  0.00000000000E+00 0.  1.
         36    2    1    2    0    0  0.28421709430E-13 -0.71054273576E-14  0.13689157402E+04  0.16956956692E+04  0.10007264855E+04 0.  0.
         25    2    3    3    0    0 -0.11783504738E+03  0.21146333051E+02  0.13065185035E+03  0.21773414704E+03  0.12651476987E+03 0.  0.
         35    2    3    3    0    0  0.11783504738E+03 -0.21146333051E+02  0.12382638898E+04  0.14779615222E+04  0.79796023357E+03 0.  0.
         22    1    5    5    0    0 -0.23745567913E+03 -0.10806962625E+03  0.10182048358E+04  0.10510972036E+04  0.00000000000E+00 0. -1.
         22    1    5    5    0    0  0.35529072651E+03  0.86923293194E+02  0.22005905401E+03  0.42686431860E+03  0.00000000000E+00 0. -1.
          5    1    4    4  502    0 -0.66385239710E+02 -0.28907352167E+02  0.12631210768E+03  0.14566905508E+03  0.47000000000E+01 0.  1.
         -5    1    4    4    0  502 -0.51449807668E+02  0.50053685219E+02  0.43397426667E+01  0.72065091962E+02  0.47000000000E+01 0.  1.
<mgrwt>
<rscale>  0 0.10007265E+04</rscale>
<asrwt>0</asrwt>
<pdfrwt beam="1">  1        2 0.23573933E+00 0.10007265E+04</pdfrwt>
<pdfrwt beam="2">  1       -2 0.25136919E-01 0.10007265E+04</pdfrwt>
<totfact> 0.20637213E+02</totfact>
</mgrwt>
</event>
<event>
 9    1  0.4342579E-036  0.1001018E+04  0.7818608E-02  0.8680069E-01
         -1   -1    0    0    0  501 -0.00000000000E+00  0.00000000000E+00  0.13637289457E+03  0.13637289457E+03  0.00000000000E+00 0. -1.
          1   -1    0    0  501    0  0.00000000000E+00 -0.00000000000E+00 -0.18369434881E+04  0.18369434881E+04  0.00000000000E+00 0. -1.
         36    2    1    2    0    0  0.00000000000E+00  0.71054273576E-14 -0.17005705935E+04  0.19733163826E+04  0.10010180830E+04 0.  0.
         25    2    3    3    0    0 -0.13483152392E+03 -0.45388938566E+02 -0.31357869361E+03  0.36567323130E+03  0.12306754005E+03 0.  0.
         35    2    3    3    0    0  0.13483152392E+03  0.45388938566E+02 -0.13869918999E+04  0.16076431514E+04  0.80033135394E+03 0.  0.
         22    1    5    5    0    0 -0.28261119441E+03  0.18514834346E+03 -0.37908125263E+03  0.50779089435E+03  0.00000000000E+00 0.  1.
         22    1    5    5    0    0  0.41744271833E+03 -0.13975940489E+03 -0.10079106473E+04  0.10998522570E+04  0.00000000000E+00 0.  1.
          5    1    4    4  502    0  0.21179343287E+02 -0.20030490307E+02 -0.40593427016E+02  0.50196627785E+02  0.47000000000E+01 0. -1.
         -5    1    4    4    0  502 -0.15601086721E+03 -0.25358448259E+02 -0.27298526659E+03  0.31547660351E+03  0.47000000000E+01 0. -1.
<mgrwt>
<rscale>  0 0.10010181E+04</rscale>
<asrwt>0</asrwt>
<pdfrwt beam="1">  1        1 0.28260668E+00 0.10010181E+04</pdfrwt>
<pdfrwt beam="2">  1       -1 0.20980446E-01 0.10010181E+04</pdfrwt>
<totfact> 0.76558498E+01</totfact>
</mgrwt>
</event>
<event>
 9    1  0.4342579E-036  0.1000548E+04  0.7818608E-02  0.8680516E-01
         -2   -1    0    0    0  501 -0.00000000000E+00  0.00000000000E+00  0.23445331391E+03  0.23445331391E+03  0.00000000000E+00 0.  1.
          2   -1    0    0  501    0  0.00000000000E+00 -0.00000000000E+00 -0.10674801011E+04  0.10674801011E+04  0.00000000000E+00 0.  1.
         36    2    1    2    0    0 -0.21316282073E-13  0.00000000000E+00 -0.83302678714E+03  0.13019334150E+04  0.10005483441E+04 0.  0.
         25    2    3    3    0    0  0.59205898646E+02  0.45695039135E+02 -0.45036441116E+01  0.14716038312E+03  0.12665907197E+03 0.  0.
         35    2    3    3    0    0 -0.59205898646E+02 -0.45695039135E+02 -0.82852314303E+03  0.11547730319E+04  0.80090997092E+03 0.  0.
         22    1    5    5    0    0 -0.31281689085E+03 -0.19811962391E+03 -0.76821877545E+03  0.85279885057E+03  0.00000000000E+00 0.  1.
         22    1    5    5    0    0  0.25361099220E+03  0.15242458478E+03 -0.60304367575E+02  0.30197418128E+03  0.00000000000E+00 0.  1.
          5    1    4    4  502    0  0.27216146683E+02 -0.41440856060E+02 -0.18589788717E+02  0.53157628200E+02  0.47000000000E+01 0.  1.
         -5    1    4    4    0  502  0.31989751963E+02  0.87135895195E+02  0.14086144606E+02  0.94002754917E+02  0.47000000000E+01 0.  1.
<mgrwt>
<rscale>  0 0.10005483E+04</rscale>
<asrwt>0</asrwt>
<pdfrwt beam="1">  1        2 0.16422771E+00 0.10005483E+04</pdfrwt>
<pdfrwt beam="2">  1       -2 0.36069741E-01 0.10005483E+04</pdfrwt>
<totfact> 0.19927692E+02</totfact>
</mgrwt>
</event>
<event>
 9    1  0.4342579E-036  0.1000716E+04  0.7818608E-02  0.8680357E-01
          1   -1    0    0  501    0  0.00000000000E+00  0.00000000000E+00  0.48199182684E+03  0.48199182684E+03  0.00000000000E+00 0. -1.
         -1   -1    0    0    0  501 -0.00000000000E+00 -0.00000000000E+00 -0.51942380267E+03  0.51942380267E+03  0.00000000000E+00 0. -1.
         36    2    1    2    0    0  0.00000000000E+00  0.00000000000E+00 -0.37431975833E+02  0.10014156295E+04  0.10007157989E+04 0.  0.
         25    2    3    3    0    0  0.44289139588E+02 -0.14504717237E+02  0.12454495967E+03  0.18164939680E+03  0.12374627942E+03 0.  0.
         35    2    3    3    0    0 -0.44289139588E+02  0.14504717237E+02 -0.16197693550E+03  0.81976623272E+03  0.80225197660E+03 0.  0.
         22    1    5    5    0    0  0.12564818501E+03  0.15239486156E+03  0.27058007718E+03  0.33500035581E+03  0.00000000000E+00 0. -1.
         22    1    5    5    0    0 -0.16993732460E+03 -0.13789014432E+03 -0.43255701268E+03  0.48476587691E+03  0.00000000000E+00 0. -1.
          5    1    4    4  502    0  0.47330820410E+02 -0.47103091970E+02  0.16904355962E+02  0.69041690915E+02  0.47000000000E+01 0. -1.
         -5    1    4    4    0  502 -0.30416808226E+01  0.32598374734E+02  0.10764060371E+03  0.11260770588E+03  0.47000000000E+01 0. -1.
<mgrwt>
<rscale>  0 0.10007158E+04</rscale>
<asrwt>0</asrwt>
<pdfrwt beam="1">  1        1 0.74152589E-01 0.10007158E+04</pdfrwt>
<pdfrwt beam="2">  1       -1 0.79911354E-01 0.10007158E+04</pdfrwt>
<totfact> 0.86223677E+01</totfact>
</mgrwt>
</event>
<event>
 9    1  0.4342579E-036  0.9997908E+03  0.7818608E-02  0.8681237E-01
          1   -1    0    0  501    0  0.00000000000E+00  0.00000000000E+00  0.13546986010E+04  0.13546986010E+04  0.00000000000E+00 0.  1.
         -1   -1    0    0    0  501 -0.00000000000E+00 -0.00000000000E+00 -0.18446567351E+03  0.18446567351E+03  0.00000000000E+00 0.  1.
         36    2    1    2    0    0  0.00000000000E+00  0.10658141036E-13  0.11702329274E+04  0.15391642745E+04  0.99979075777E+03 0.  0.
         25    2    3    3    0    0 -0.49566128031E+02 -0.56684782394E+01  0.42389510535E+03  0.44466330772E+03  0.12469749074E+03 0.  0.
         35    2    3    3    0    0  0.49566128031E+02  0.56684782394E+01  0.74633782209E+03  0.10945009667E+04  0.79901394783E+03 0.  0.
         22    1    5    5    0    0  0.35205771485E+03  0.20333804216E+03  0.54784940633E+03  0.68222427836E+03  0.00000000000E+00 0.  1.
         22    1    5    5    0    0 -0.30249158681E+03 -0.19766956392E+03  0.19848841577E+03  0.41227668839E+03  0.00000000000E+00 0.  1.
          5    1    4    4  502    0 -0.25228779367E+02 -0.35424228121E+02  0.39216577066E+03  0.39459783188E+03  0.47000000000E+01 0.  1.
         -5    1    4    4    0  502 -0.24337348664E+02  0.29755749882E+02  0.31729334690E+02  0.50065475838E+02  0.47000000000E+01 0.  1.
<mgrwt>
<rscale>  0 0.99979076E+03</rscale>
<asrwt>0</asrwt>
<pdfrwt beam="1">  1        1 0.20841516E+00 0.99979076E+03</pdfrwt>
<pdfrwt beam="2">  1       -1 0.28379335E-01 0.99979076E+03</pdfrwt>
<totfact> 0.10140775E+02</totfact>
</mgrwt>
</event>
<event>
 9    1  0.4342579E-036  0.9997635E+03  0.7818608E-02  0.8681263E-01
          2   -1    0    0  501    0  0.00000000000E+00  0.00000000000E+00  0.24263326386E+03  0.24263326386E+03  0.00000000000E+00 0.  1.
         -2   -1    0    0    0  501 -0.00000000000E+00 -0.00000000000E+00 -0.10298743984E+04  0.10298743984E+04  0.00000000000E+00 0.  1.
         36    2    1    2    0    0 -0.14210854715E-13  0.00000000000E+00 -0.78724113454E+03  0.12725076623E+04  0.99976354534E+03 0.  0.
         25    2    3    3    0    0 -0.57265308208E+02 -0.11323391160E+03 -0.72339344962E+02  0.19273095889E+03  0.12574182846E+03 0.  0.
         35    2    3    3    0    0  0.57265308208E+02  0.11323391160E+03 -0.71490178958E+03  0.10797767034E+04  0.79920706086E+03 0.  0.
         22    1    5    5    0    0  0.31195183781E+03  0.12671283769E+03 -0.17451015880E+02  0.33715668509E+03  0.00000000000E+00 0.  1.
         22    1    5    5    0    0 -0.25468652960E+03 -0.13478926083E+02 -0.69745077370E+03  0.74262001827E+03  0.00000000000E+00 0.  1.
          5    1    4    4  502    0  0.50635900205E+01 -0.77967028215E+02 -0.89541367459E+02  0.11892957546E+03  0.47000000000E+01 0. -1.
         -5    1    4    4    0  502 -0.62328898229E+02 -0.35266883389E+02  0.17202022497E+02  0.73801383431E+02  0.47000000000E+01 0. -1.
<mgrwt>
<rscale>  0 0.99976355E+03</rscale>
<asrwt>0</asrwt>
<pdfrwt beam="1">  1        2 0.37328194E-01 0.99976355E+03</pdfrwt>
<pdfrwt beam="2">  1       -2 0.15844222E+00 0.99976355E+03</pdfrwt>
<totfact> 0.40449015E+01</totfact>
</mgrwt>
</event>
<event>
 9    1  0.4342579E-036  0.1001679E+04  0.7818608E-02  0.8679441E-01
          2   -1    0    0  501    0  0.00000000000E+00  0.00000000000E+00  0.98490867299E+03  0.98490867299E+03  0.00000000000E+00 0.  1.
         -2   -1    0    0    0  501 -0.00000000000E+00 -0.00000000000E+00 -0.25468359471E+03  0.25468359471E+03  0.00000000000E+00 0.  1.
         36    2    1    2    0    0 -0.14210854715E-13  0.00000000000E+00  0.73022507828E+03  0.12395922677E+04  0.10016787535E+04 0.  0.
         25    2    3    3    0    0  0.10868996923E+03  0.90206870713E+02  0.11420473977E+03  0.22024062720E+03  0.12454887533E+03 0.  0.
         35    2    3    3    0    0 -0.10868996923E+03 -0.90206870713E+02  0.61602033851E+03  0.10193516405E+04  0.79977866975E+03 0.  0.
         22    1    5    5    0    0  0.29465051350E+03  0.70288455437E+01  0.23036344356E+02  0.29563322367E+03  0.00000000000E+00 0. -1.
         22    1    5    5    0    0 -0.40334048274E+03 -0.97235716256E+02  0.59298399415E+03  0.72371841682E+03  0.00000000000E+00 0. -1.
          5    1    4    4  502    0  0.42541204252E+02 -0.90436753756E+01  0.87643882590E+02  0.97954490856E+02  0.47000000000E+01 0.  1.
         -5    1    4    4    0  502  0.66148764983E+02  0.99250546088E+02  0.26560857185E+02  0.12228613634E+03  0.47000000000E+01 0.  1.
<mgrwt>
<rscale>  0 0.10016788E+04</rscale>
<asrwt>0</asrwt>
<pdfrwt beam="1">  1        2 0.15152441E+00 0.10016788E+04</pdfrwt>
<pdfrwt beam="2">  1       -2 0.39182092E-01 0.10016788E+04</pdfrwt>
<totfact> 0.19179938E+02</totfact>
</mgrwt>
</event>
<event>
 9    1  0.4342579E-036  0.9996145E+03  0.7818608E-02  0.8681405E-01
         -1   -1    0    0    0  501 -0.00000000000E+00  0.00000000000E+00  0.22506853697E+03  0.22506853697E+03  0.00000000000E+00 0. -1.
          1   -1    0    0  501    0  0.00000000000E+00 -0.00000000000E+00 -0.11099165921E+04  0.11099165921E+04  0.00000000000E+00 0. -1.
         36    2    1    2    0    0  0.14210854715E-13 -0.14210854715E-13 -0.88484805511E+03  0.13349851290E+04  0.99961453277E+03 0.  0.
         25    2    3    3    0    0  0.10783942525E+03 -0.38665410045E+02 -0.27874076055E+03  0.32741413596E+03  0.12798144109E+03 0.  0.
         35    2    3    3    0    0 -0.10783942525E+03  0.38665410045E+02 -0.60610729455E+03  0.10075709931E+04  0.79668619795E+03 0.  0.
         22    1    5    5    0    0 -0.23315883613E+03  0.32279085403E+03 -0.56947788374E+03  0.69488275154E+03  0.00000000000E+00 0. -1.
         22    1    5    5    0    0  0.12531941088E+03 -0.28412544398E+03 -0.36629410811E+02  0.31268824154E+03  0.00000000000E+00 0. -1.
          5    1    4    4  502    0  0.84506142077E+02 -0.63930461856E+02 -0.10150708315E+03  0.14681338472E+03  0.47000000000E+01 0. -1.
         -5    1    4    4    0  502  0.23333283178E+02  0.25265051811E+02 -0.17723367740E+03  0.18060075125E+03  0.47000000000E+01 0. -1.
<mgrwt>
<rscale>  0 0.99961453E+03</rscale>
<asrwt>0</asrwt>
<pdfrwt beam="1">  1        1 0.17075640E+00 0.99961453E+03</pdfrwt>
<pdfrwt beam="2">  1       -1 0.34625929E-01 0.99961453E+03</pdfrwt>
<totfact> 0.10941850E+02</totfact>
</mgrwt>
</event>
<event>
 9    1  0.4342579E-036  0.9993327E+03  0.7818608E-02  0.8681674E-01
          2   -1    0    0  501    0  0.00000000000E+00  0.00000000000E+00  0.19731424488E+03  0.19731424488E+03  0.00000000000E+00 0.  1.
         -2   -1    0    0    0  501 -0.00000000000E+00 -0.00000000000E+00 -0.12653239352E+04  0.12653239352E+04  0.00000000000E+00 0.  1.
         36    2    1    2    0    0 -0.14210854715E-13  0.35527136788E-14 -0.10680096903E+04  0.14626381801E+04  0.99933265094E+03 0.  0.
         25    2    3    3    0    0 -0.29370407185E+02 -0.65848120056E+01 -0.75470560843E+00  0.12885654823E+03  0.12528950424E+03 0.  0.
         35    2    3    3    0    0  0.29370407185E+02  0.65848120056E+01 -0.10672549847E+04  0.13337816319E+04  0.79939618371E+03 0.  0.
         22    1    5    5    0    0  0.31370197115E+03 -0.30474749928E+02 -0.98688848947E+03  0.10359954284E+04  0.00000000000E+00 0. -1.
         22    1    5    5    0    0 -0.28433156396E+03  0.37059561933E+02 -0.80366495243E+02  0.29778620343E+03  0.00000000000E+00 0. -1.
          5    1    4    4  502    0  0.38830272294E+02  0.24523178650E+02  0.20919587009E+02  0.50684272295E+02  0.47000000000E+01 0.  1.
         -5    1    4    4    0  502 -0.68200679479E+02 -0.31107990656E+02 -0.21674292617E+02  0.78172275932E+02  0.47000000000E+01 0.  1.
<mgrwt>
<rscale>  0 0.99933265E+03</rscale>
<asrwt>0</asrwt>
<pdfrwt beam="1">  1        2 0.30356037E-01 0.99933265E+03</pdfrwt>
<pdfrwt beam="2">  1       -2 0.19466523E+00 0.99933265E+03</pdfrwt>
<totfact> 0.27694898E+01</totfact>
</mgrwt>
</event>
<event>
 9    1  0.4342579E-036  0.9995426E+03  0.7818608E-02  0.8681474E-01
         -2   -1    0    0    0  501 -0.00000000000E+00  0.00000000000E+00  0.58399193876E+03  0.58399193876E+03  0.00000000000E+00 0.  1.
          2   -1    0    0  501    0  0.00000000000E+00 -0.00000000000E+00 -0.42769657631E+03  0.42769657631E+03  0.00000000000E+00 0.  1.
         36    2    1    2    0    0  0.28421709430E-13 -0.17763568394E-14  0.15629536245E+03  0.10116885151E+04  0.99954260100E+03 0.  0.
         25    2    3    3    0    0  0.59346821046E+02  0.88136813583E+01  0.15722453107E+03  0.20924408712E+03  0.12435356320E+03 0.  0.
         35    2    3    3    0    0 -0.59346821046E+02 -0.88136813583E+01 -0.92916862058E+00  0.80244442795E+03  0.80019776958E+03 0.  0.
         22    1    5    5    0    0 -0.38189727107E+03 -0.17758740739E+03 -0.83003140384E+02  0.42926953564E+03  0.00000000000E+00 0.  1.
         22    1    5    5    0    0  0.32255045002E+03  0.16877372603E+03  0.82073971764E+02  0.37317489231E+03  0.00000000000E+00 0.  1.
          5    1    4    4  502    0 -0.36152836500E+01 -0.71351134717E+01  0.14208411862E+03  0.14238668085E+03  0.47000000000E+01 0.  1.
         -5    1    4    4    0  502  0.62962104696E+02  0.15948794830E+02  0.15140412446E+02  0.66857406271E+02  0.47000000000E+01 0.  1.
<mgrwt>
<rscale>  0 0.99954260E+03</rscale>
<asrwt>0</asrwt>
<pdfrwt beam="1">  1        2 0.65799473E-01 0.99954260E+03</pdfrwt>
<pdfrwt beam="2">  1       -2 0.89844914E-01 0.99954260E+03</pdfrwt>
<totfact> 0.93476151E+01</totfact>
</mgrwt>
</event>
<event>
 9    1  0.4342579E-036  0.1000781E+04  0.7818608E-02  0.8680294E-01
          2   -1    0    0  501    0  0.00000000000E+00  0.00000000000E+00  0.19728345795E+04  0.19728345795E+04  0.00000000000E+00 0. -1.
         -2   -1    0    0    0  501 -0.00000000000E+00 -0.00000000000E+00 -0.12691932101E+03  0.12691932101E+03  0.00000000000E+00 0. -1.
         36    2    1    2    0    0  0.21316282073E-13  0.00000000000E+00  0.18459152585E+04  0.20997539006E+04  0.10007813454E+04 0.  0.
         25    2    3    3    0    0  0.51158648857E+02  0.10462968269E+03  0.51485391807E+03  0.54239747351E+03  0.12472323147E+03 0.  0.
         35    2    3    3    0    0 -0.51158648857E+02 -0.10462968269E+03  0.13310613405E+04  0.15573564270E+04  0.80004385562E+03 0.  0.
         22    1    5    5    0    0  0.36929351915E+03 -0.29241048715E+02  0.74642253871E+03  0.83329427486E+03  0.00000000000E+00 0.  1.
         22    1    5    5    0    0 -0.42045216800E+03 -0.75388633979E+02  0.58463880175E+03  0.72406215218E+03  0.00000000000E+00 0.  1.
          5    1    4    4  502    0  0.72760100245E+02  0.81615490732E+02  0.21895331149E+03  0.24478105141E+03  0.47000000000E+01 0. -1.
         -5    1    4    4    0  502 -0.21601451388E+02  0.23014191962E+02  0.29590060657E+03  0.29761642210E+03  0.47000000000E+01 0. -1.
<mgrwt>
<rscale>  0 0.10007813E+04</rscale>
<asrwt>0</asrwt>
<pdfrwt beam="1">  1        2 0.30351299E+00 0.10007813E+04</pdfrwt>
<pdfrwt beam="2">  1       -2 0.19526051E-01 0.10007813E+04</pdfrwt>
<totfact> 0.18105671E+02</totfact>
</mgrwt>
</event>
<event>
 9    1  0.4342579E-036  0.9998348E+03  0.7818608E-02  0.8681195E-01
          1   -1    0    0  501    0  0.00000000000E+00  0.00000000000E+00  0.34427909786E+03  0.34427909786E+03  0.00000000000E+00 0.  1.
         -1   -1    0    0    0  501 -0.00000000000E+00 -0.00000000000E+00 -0.72591516487E+03  0.72591516487E+03  0.00000000000E+00 0.  1.
         36    2    1    2    0    0  0.00000000000E+00 -0.35527136788E-14 -0.38163606700E+03  0.10701942627E+04  0.99983482253E+03 0.  0.
         25    2    3    3    0    0 -0.74991086675E+02 -0.25398481865E+02  0.49564792845E+02  0.15673056277E+03  0.12585330610E+03 0.  0.
         35    2    3    3    0    0  0.74991086675E+02  0.25398481865E+02 -0.43120085985E+03  0.91346369996E+03  0.80138193369E+03 0.  0.
         22    1    5    5    0    0 -0.33870464239E+03  0.42858876999E+02 -0.39850691021E+02  0.34372342906E+03  0.00000000000E+00 0. -1.
         22    1    5    5    0    0  0.41369572906E+03 -0.17460395134E+02 -0.39135016883E+03  0.56974027090E+03  0.00000000000E+00 0. -1.
          5    1    4    4  502    0  0.30082167911E+02 -0.27183513496E+02  0.27589859140E+02  0.49266322773E+02  0.47000000000E+01 0.  1.
         -5    1    4    4    0  502 -0.10507325459E+03  0.17850316315E+01  0.21974933705E+02  0.10746424000E+03  0.47000000000E+01 0.  1.
<mgrwt>
<rscale>  0 0.99983482E+03</rscale>
<asrwt>0</asrwt>
<pdfrwt beam="1">  1        1 0.52966016E-01 0.99983482E+03</pdfrwt>
<pdfrwt beam="2">  1       -1 0.11167925E+00 0.99983482E+03</pdfrwt>
<totfact> 0.64820871E+01</totfact>
</mgrwt>
</event>
<event>
 9    1  0.4342579E-036  0.9993288E+03  0.7818608E-02  0.8681677E-01
          1   -1    0    0  501    0  0.00000000000E+00  0.00000000000E+00  0.75903495016E+03  0.75903495016E+03  0.00000000000E+00 0. -1.
         -1   -1    0    0    0  501 -0.00000000000E+00 -0.00000000000E+00 -0.32892361705E+03  0.32892361705E+03  0.00000000000E+00 0. -1.
         36    2    1    2    0    0 -0.71054273576E-14  0.00000000000E+00  0.43011133311E+03  0.10879585672E+04  0.99932881730E+03 0.  0.
         25    2    3    3    0    0 -0.23267293902E+02 -0.68190463030E+02  0.21195098116E+03  0.25652071414E+03  0.12525315227E+03 0.  0.
         35    2    3    3    0    0  0.23267293902E+02  0.68190463030E+02  0.21816035195E+03  0.83143785306E+03  0.79906423905E+03 0.  0.
         22    1    5    5    0    0  0.23082297642E+03 -0.26746610096E+03  0.25406562779E+03  0.43516284864E+03  0.00000000000E+00 0.  1.
         22    1    5    5    0    0 -0.20755568252E+03  0.33565656400E+03 -0.35905275844E+02  0.39627500443E+03  0.00000000000E+00 0.  1.
          5    1    4    4  502    0  0.39449980731E+02 -0.10684928840E+02  0.18456669817E+02  0.45091100505E+02  0.47000000000E+01 0. -1.
         -5    1    4    4    0  502 -0.62717274633E+02 -0.57505534190E+02  0.19349431135E+03  0.21142961364E+03  0.47000000000E+01 0. -1.
<mgrwt>
<rscale>  0 0.99932882E+03</rscale>
<asrwt>0</asrwt>
<pdfrwt beam="1">  1        1 0.11677461E+00 0.99932882E+03</pdfrwt>
<pdfrwt beam="2">  1       -1 0.50603634E-01 0.99932882E+03</pdfrwt>
<totfact> 0.10781163E+02</totfact>
</mgrwt>
</event>
<event>
 9    1  0.4342579E-036  0.9986329E+03  0.7818608E-02  0.8682341E-01
          1   -1    0    0  501    0  0.00000000000E+00  0.00000000000E+00  0.32926719475E+03  0.32926719475E+03  0.00000000000E+00 0. -1.
         -1   -1    0    0    0  501 -0.00000000000E+00 -0.00000000000E+00 -0.75718726672E+03  0.75718726672E+03  0.00000000000E+00 0. -1.
         36    2    1    2    0    0  0.00000000000E+00 -0.71054273576E-14 -0.42792007196E+03  0.10864544615E+04  0.99863291998E+03 0.  0.
         25    2    3    3    0    0  0.85808783344E+02 -0.17393287803E+02 -0.19956744871E+03  0.25005534478E+03  0.12261661840E+03 0.  0.
         35    2    3    3    0    0 -0.85808783344E+02  0.17393287803E+02 -0.22835262325E+03  0.83639911669E+03  0.79984554015E+03 0.  0.
         22    1    5    5    0    0  0.23452101419E+02  0.27365932095E+03 -0.41744539820E+03  0.49969999548E+03  0.00000000000E+00 0. -1.
         22    1    5    5    0    0 -0.10926088476E+03 -0.25626603315E+03  0.18909277495E+03  0.33669912121E+03  0.00000000000E+00 0. -1.
          5    1    4    4  502    0  0.10752546958E+03  0.86789154656E+00 -0.10180952578E+03  0.14815447811E+03  0.47000000000E+01 0.  1.
         -5    1    4    4    0  502 -0.21716686235E+02 -0.18261179350E+02 -0.97757922935E+02  0.10190086667E+03  0.47000000000E+01 0.  1.
<mgrwt>
<rscale>  0 0.99863292E+03</rscale>
<asrwt>0</asrwt>
<pdfrwt beam="1">  1        1 0.50656491E-01 0.99863292E+03</pdfrwt>
<pdfrwt beam="2">  1       -1 0.11649035E+00 0.99863292E+03</pdfrwt>
<totfact> 0.62127650E+01</totfact>
</mgrwt>
</event>
<event>
 9    1  0.4342579E-036  0.1000085E+04  0.7818608E-02  0.8680957E-01
          2   -1    0    0  501    0  0.00000000000E+00  0.00000000000E+00  0.54039289873E+03  0.54039289873E+03  0.00000000000E+00 0. -1.
         -2   -1    0    0    0  501 -0.00000000000E+00 -0.00000000000E+00 -0.46270508433E+03  0.46270508433E+03  0.00000000000E+00 0. -1.
         36    2    1    2    0    0 -0.14210854715E-13  0.00000000000E+00  0.77687814403E+02  0.10030979831E+04  0.10000850799E+04 0.  0.
         25    2    3    3    0    0  0.12643135953E+03  0.17385801635E+02  0.73143073658E+02  0.19335723263E+03  0.12549882634E+03 0.  0.
         35    2    3    3    0    0 -0.12643135953E+03 -0.17385801635E+02  0.45447407458E+01  0.80974075043E+03  0.79960757467E+03 0.  0.
         22    1    5    5    0    0 -0.42748478789E+03  0.63700133264E+02 -0.15544159257E+03  0.45930712988E+03  0.00000000000E+00 0. -1.
         22    1    5    5    0    0  0.30105342836E+03 -0.81085934899E+02  0.15998633331E+03  0.35043362055E+03  0.00000000000E+00 0. -1.
          5    1    4    4  502    0  0.10147581009E+03 -0.45020704182E+02  0.52484849883E+02  0.12288593616E+03  0.47000000000E+01 0. -1.
         -5    1    4    4    0  502  0.24955549438E+02  0.62406505817E+02  0.20658223775E+02  0.70471296466E+02  0.47000000000E+01 0. -1.
<mgrwt>
<rscale>  0 0.10000851E+04</rscale>
<asrwt>0</asrwt>
<pdfrwt beam="1">  1        2 0.83137369E-01 0.10000851E+04</pdfrwt>
<pdfrwt beam="2">  1       -2 0.71185397E-01 0.10000851E+04</pdfrwt>
<totfact> 0.12180229E+02</totfact>
</mgrwt>
</event>
<event>
 9    1  0.4342579E-036  0.1001673E+04  0.7818608E-02  0.8679446E-01
          2   -1    0    0  501    0  0.00000000000E+00  0.00000000000E+00  0.19617061674E+04  0.19617061674E+04  0.00000000000E+00 0. -1.
         -2   -1    0    0    0  501 -0.00000000000E+00 -0.00000000000E+00 -0.12786688218E+03  0.12786688218E+03  0.00000000000E+00 0. -1.
         36    2    1    2    0    0  0.00000000000E+00  0.71054273576E-14  0.18338392852E+04  0.20895730496E+04  0.10016731031E+04 0.  0.
         25    2    3    3    0    0  0.12431255098E+03 -0.30453468839E+02  0.48868386307E+03  0.51919644535E+03  0.11988330467E+03 0.  0.
         35    2    3    3    0    0 -0.12431255098E+03  0.30453468839E+02  0.13451554221E+04  0.15703766042E+04  0.80016157447E+03 0.  0.
         22    1    5    5    0    0 -0.98571022756E+02 -0.84360054528E+02 -0.71975741495E+02  0.14836904223E+03  0.00000000000E+00 0.  1.
         22    1    5    5    0    0 -0.25741528227E+02  0.11481352337E+03  0.14171311636E+04  0.14220075620E+04  0.00000000000E+00 0.  1.
          5    1    4    4  502    0  0.89112813257E+02  0.72922948092E+01  0.13665788781E+03  0.16337606726E+03  0.47000000000E+01 0.  1.
         -5    1    4    4    0  502  0.35199737726E+02 -0.37745763648E+02  0.35202597526E+03  0.35582037809E+03  0.47000000000E+01 0.  1.
<mgrwt>
<rscale>  0 0.10016731E+04</rscale>
<asrwt>0</asrwt>
<pdfrwt beam="1">  1        2 0.30180093E+00 0.10016731E+04</pdfrwt>
<pdfrwt beam="2">  1       -2 0.19671829E-01 0.10016731E+04</pdfrwt>
<totfact> 0.18136671E+02</totfact>
</mgrwt>
</event>
<event>
 9    1  0.4342579E-036  0.1000318E+04  0.7818608E-02  0.8680736E-01
         -1   -1    0    0    0  501 -0.00000000000E+00  0.00000000000E+00  0.45644469436E+03  0.45644469436E+03  0.00000000000E+00 0.  1.
          1   -1    0    0  501    0  0.00000000000E+00 -0.00000000000E+00 -0.54805942964E+03  0.54805942964E+03  0.00000000000E+00 0.  1.
         36    2    1    2    0    0  0.14210854715E-13  0.14210854715E-13 -0.91614735288E+02  0.10045041240E+04  0.10003175873E+04 0.  0.
         25    2    3    3    0    0 -0.63143504346E+02  0.72238631548E+02  0.87429685141E+02  0.17854728932E+03  0.12259552460E+03 0.  0.
         35    2    3    3    0    0  0.63143504346E+02 -0.72238631548E+02 -0.17904442043E+03  0.82595683468E+03  0.80058869979E+03 0.  0.
         22    1    5    5    0    0  0.10900875623E+03  0.96548756672E+02 -0.46692602267E+03  0.48910579837E+03  0.00000000000E+00 0.  1.
         22    1    5    5    0    0 -0.45865251886E+02 -0.16878738822E+03  0.28788160224E+03  0.33685103631E+03  0.00000000000E+00 0.  1.
          5    1    4    4  502    0 -0.67250849135E+02  0.52536719264E+02  0.11550332503E+03  0.14368678322E+03  0.47000000000E+01 0. -1.
         -5    1    4    4    0  502  0.41073447889E+01  0.19701912284E+02 -0.28073639889E+02  0.34860506099E+02  0.47000000000E+01 0. -1.
<mgrwt>
<rscale>  0 0.10003176E+04</rscale>
<asrwt>0</asrwt>
<pdfrwt beam="1">  1        1 0.84316835E-01 0.10003176E+04</pdfrwt>
<pdfrwt beam="2">  1       -1 0.70222261E-01 0.10003176E+04</pdfrwt>
<totfact> 0.93693321E+01</totfact>
</mgrwt>
</event>
<event>
 9    1  0.4342579E-036  0.9996406E+03  0.7818608E-02  0.8681380E-01
         -2   -1    0    0    0  501 -0.00000000000E+00  0.00000000000E+00  0.23373152572E+03  0.23373152572E+03  0.00000000000E+00 0.  1.
          2   -1    0    0  501    0  0.00000000000E+00 -0.00000000000E+00 -0.10688345197E+04  0.10688345197E+04  0.00000000000E+00 0.  1.
         36    2    1    2    0    0  0.28421709430E-13  0.14210854715E-13 -0.83510299396E+03  0.13025660454E+04  0.99964058148E+03 0.  0.
         25    2    3    3    0    0  0.85765837556E+02  0.69629722549E+02 -0.43908297930E+02  0.17271511490E+03  0.12529363565E+03 0.  0.
         35    2    3    3    0    0 -0.85765837556E+02 -0.69629722549E+02 -0.79119469603E+03  0.11298509305E+04  0.79898060113E+03 0.  0.
         22    1    5    5    0    0 -0.37058655447E+03 -0.24844336522E+03 -0.31201882808E+03  0.54443938979E+03  0.00000000000E+00 0. -1.
         22    1    5    5    0    0  0.28482071691E+03  0.17881364267E+03 -0.47917586795E+03  0.58541154072E+03  0.00000000000E+00 0. -1.
          5    1    4    4  502    0  0.72752773510E+02 -0.88158760278E+01 -0.55727836204E+02  0.92186590410E+02  0.47000000000E+01 0.  1.
         -5    1    4    4    0  502  0.13013064046E+02  0.78445598576E+02  0.11819538274E+02  0.80528524492E+02  0.47000000000E+01 0.  1.
<mgrwt>
<rscale>  0 0.99964058E+03</rscale>
<asrwt>0</asrwt>
<pdfrwt beam="1">  1        2 0.16443609E+00 0.99964058E+03</pdfrwt>
<pdfrwt beam="2">  1       -2 0.35958695E-01 0.99964058E+03</pdfrwt>
<totfact> 0.20005150E+02</totfact>
</mgrwt>
</event>
<event>
 9    1  0.4342579E-036  0.1000354E+04  0.7818608E-02  0.8680701E-01
          2   -1    0    0  501    0  0.00000000000E+00  0.00000000000E+00  0.13775356420E+04  0.13775356420E+04  0.00000000000E+00 0. -1.
         -2   -1    0    0    0  501 -0.00000000000E+00 -0.00000000000E+00 -0.18161190108E+03  0.18161190108E+03  0.00000000000E+00 0. -1.
         36    2    1    2    0    0  0.14210854715E-13  0.00000000000E+00  0.11959237409E+04  0.15591475430E+04  0.10003536709E+04 0.  0.
         25    2    3    3    0    0  0.94961873026E+02 -0.10150991653E+03  0.25635183478E+03  0.31738310824E+03  0.12527471300E+03 0.  0.
         35    2    3    3    0    0 -0.94961873026E+02  0.10150991653E+03  0.93957190610E+03  0.12417644348E+04  0.79991344802E+03 0.  0.
         22    1    5    5    0    0  0.13899085699E+03 -0.30322591420E+03  0.49310913375E+03  0.59533270627E+03  0.00000000000E+00 0. -1.
         22    1    5    5    0    0 -0.23395273002E+03  0.40473583073E+03  0.44646277236E+03  0.64643172854E+03  0.00000000000E+00 0. -1.
          5    1    4    4  502    0  0.95949083631E+02 -0.28357387578E+02  0.20411497957E+03  0.22736618695E+03  0.47000000000E+01 0.  1.
         -5    1    4    4    0  502 -0.98721060500E+00 -0.73152528955E+02  0.52236855206E+02  0.90016921293E+02  0.47000000000E+01 0.  1.
<mgrwt>
<rscale>  0 0.10003537E+04</rscale>
<asrwt>0</asrwt>
<pdfrwt beam="1">  1        2 0.21192855E+00 0.10003537E+04</pdfrwt>
<pdfrwt beam="2">  1       -2 0.27940293E-01 0.10003537E+04</pdfrwt>
<totfact> 0.20916969E+02</totfact>
</mgrwt>
</event>
<event>
 9    1  0.4342579E-036  0.9994725E+03  0.7818608E-02  0.8681540E-01
         -1   -1    0    0    0  501 -0.00000000000E+00  0.00000000000E+00  0.25899122662E+03  0.25899122662E+03  0.00000000000E+00 0. -1.
          1   -1    0    0  501    0  0.00000000000E+00 -0.00000000000E+00 -0.96426548805E+03  0.96426548805E+03  0.00000000000E+00 0. -1.
         36    2    1    2    0    0  0.14210854715E-13  0.14210854715E-13 -0.70527426143E+03  0.12232567147E+04  0.99947246393E+03 0.  0.
         25    2    3    3    0    0  0.59074347580E+02 -0.12404072994E+03 -0.10065042153E+03  0.21125112200E+03  0.12498259066E+03 0.  0.
         35    2    3    3    0    0 -0.59074347580E+02  0.12404072994E+03 -0.60462383989E+03  0.10120055927E+04  0.79981838601E+03 0.  0.
         22    1    5    5    0    0  0.35756024858E+03  0.46901782040E+02 -0.40909525816E+03  0.54535129849E+03  0.00000000000E+00 0. -1.
         22    1    5    5    0    0 -0.41663459615E+03  0.77138947899E+02 -0.19552858173E+03  0.46665429417E+03  0.00000000000E+00 0. -1.
          5    1    4    4  502    0 -0.19490208729E+02 -0.92427726007E+02 -0.80200776797E+02  0.12400406191E+03  0.47000000000E+01 0.  1.
         -5    1    4    4    0  502  0.78564556308E+02 -0.31613003932E+02 -0.20449644734E+02  0.87247060095E+02  0.47000000000E+01 0.  1.
<mgrwt>
<rscale>  0 0.99947246E+03</rscale>
<asrwt>0</asrwt>
<pdfrwt beam="1">  1        1 0.14834854E+00 0.99947246E+03</pdfrwt>
<pdfrwt beam="2">  1       -1 0.39844804E-01 0.99947246E+03</pdfrwt>
<totfact> 0.11117763E+02</totfact>
</mgrwt>
</event>
<event>
 9    1  0.4342579E-036  0.9982717E+03  0.7818608E-02  0.8682686E-01
          2   -1    0    0  501    0  0.00000000000E+00  0.00000000000E+00  0.15953244083E+04  0.15953244083E+04  0.00000000000E+00 0. -1.
         -2   -1    0    0    0  501 -0.00000000000E+00 -0.00000000000E+00 -0.15616674456E+03  0.15616674456E+03  0.00000000000E+00 0. -1.
         36    2    1    2    0    0  0.14210854715E-13 -0.10658141036E-13  0.14391576637E+04  0.17514911528E+04  0.99827174527E+03 0.  0.
         25    2    3    3    0    0 -0.12577162177E+03 -0.43948389427E+01  0.20296997725E+03  0.27424149735E+03  0.13481013222E+03 0.  0.
         35    2    3    3    0    0  0.12577162177E+03  0.43948389427E+01  0.12361876864E+04  0.14772496555E+04  0.79891722537E+03 0.  0.
         22    1    5    5    0    0  0.16230769588E+03 -0.38158682963E+03  0.73115362456E+03  0.84055809996E+03  0.00000000000E+00 0.  1.
         22    1    5    5    0    0 -0.36536074111E+02  0.38598166858E+03  0.50503406189E+03  0.63669155551E+03  0.00000000000E+00 0.  1.
          5    1    4    4  502    0 -0.13534490997E+03 -0.24613941262E+02  0.20931548178E+03  0.25051776718E+03  0.47000000000E+01 0.  1.
         -5    1    4    4    0  502  0.95732881967E+01  0.20219102320E+02 -0.63455045291E+01  0.23723730171E+02  0.47000000000E+01 0.  1.
<mgrwt>
<rscale>  0 0.99827175E+03</rscale>
<asrwt>0</asrwt>
<pdfrwt beam="1">  1        2 0.24543451E+00 0.99827175E+03</pdfrwt>
<pdfrwt beam="2">  1       -2 0.24025654E-01 0.99827175E+03</pdfrwt>
<totfact> 0.20598346E+02</totfact>
</mgrwt>
</event>
<event>
 9    1  0.4342579E-036  0.9952824E+03  0.7818608E-02  0.8685544E-01
          3   -1    0    0  501    0  0.00000000000E+00  0.00000000000E+00  0.29961531061E+04  0.29961531061E+04  0.00000000000E+00 0. -1.
         -3   -1    0    0    0  501 -0.00000000000E+00 -0.00000000000E+00 -0.82654916834E+02  0.82654916834E+02  0.00000000000E+00 0. -1.
         36    2    1    2    0    0  0.71054273576E-14  0.42632564146E-13  0.29134981892E+04  0.30788080229E+04  0.99528244394E+03 0.  0.
         25    2    3    3    0    0 -0.17748746896E+02 -0.10182633860E+03  0.68692865931E+03  0.70767214398E+03  0.13507501299E+03 0.  0.
         35    2    3    3    0    0  0.17748746896E+02  0.10182633860E+03  0.22265695299E+04  0.23711358789E+04  0.80869639759E+03 0.  0.
         22    1    5    5    0    0  0.11061152860E+03  0.44405498318E+03  0.11518498536E+04  0.12394264091E+04  0.00000000000E+00 0.  1.
         22    1    5    5    0    0 -0.92862781704E+02 -0.34222864458E+03  0.10747196763E+04  0.11317094698E+04  0.00000000000E+00 0.  1.
          5    1    4    4  502    0 -0.55156501106E+02 -0.17391120827E+02  0.12046773586E+03  0.13371333546E+03  0.47000000000E+01 0. -1.
         -5    1    4    4    0  502  0.37407754210E+02 -0.84435217774E+02  0.56646092345E+03  0.57395880851E+03  0.47000000000E+01 0. -1.
<mgrwt>
<rscale>  0 0.99528244E+03</rscale>
<asrwt>0</asrwt>
<pdfrwt beam="1">  1        3 0.46094655E+00 0.99528244E+03</pdfrwt>
<pdfrwt beam="2">  1       -3 0.12716143E-01 0.99528244E+03</pdfrwt>
<totfact> 0.31108860E+00</totfact>
</mgrwt>
</event>
<event>
 9    1  0.4342579E-036  0.1000612E+04  0.7818608E-02  0.8680455E-01
          2   -1    0    0  501    0  0.00000000000E+00  0.00000000000E+00  0.13383455062E+04  0.13383455062E+04  0.00000000000E+00 0. -1.
         -2   -1    0    0    0  501 -0.00000000000E+00 -0.00000000000E+00 -0.18702669925E+03  0.18702669925E+03  0.00000000000E+00 0. -1.
         36    2    1    2    0    0  0.00000000000E+00 -0.14210854715E-13  0.11513188069E+04  0.15253722054E+04  0.10006124974E+04 0.  0.
         25    2    3    3    0    0  0.12734535805E+03 -0.54395313368E+02  0.18338601433E+03  0.26136889976E+03  0.12452943900E+03 0.  0.
         35    2    3    3    0    0 -0.12734535805E+03  0.54395313368E+02  0.96793279260E+03  0.12640033057E+04  0.80102108299E+03 0.  0.
         22    1    5    5    0    0 -0.38142351283E+03 -0.21514001734E+03  0.59066180907E+03  0.73528939602E+03  0.00000000000E+00 0.  1.
         22    1    5    5    0    0  0.25407815478E+03  0.26953533071E+03  0.37727098353E+03  0.52871390964E+03  0.00000000000E+00 0. -1.
          5    1    4    4  502    0  0.29298816604E+02 -0.17266741319E+01 -0.15416514199E+02  0.33483741846E+02  0.47000000000E+01 0.  1.
         -5    1    4    4    0  502  0.98046541448E+02 -0.52668639236E+02  0.19880252853E+03  0.22788515792E+03  0.47000000000E+01 0.  1.
<mgrwt>
<rscale>  0 0.10006125E+04</rscale>
<asrwt>0</asrwt>
<pdfrwt beam="1">  1        2 0.20589930E+00 0.10006125E+04</pdfrwt>
<pdfrwt beam="2">  1       -2 0.28773339E-01 0.10006125E+04</pdfrwt>
<totfact> 0.20890325E+02</totfact>
</mgrwt>
</event>
<event>
 9    1  0.4342579E-036  0.9997999E+03  0.7818608E-02  0.8681228E-01
          2   -1    0    0  501    0  0.00000000000E+00  0.00000000000E+00  0.15250163271E+04  0.15250163271E+04  0.00000000000E+00 0.  1.
         -2   -1    0    0    0  501 -0.00000000000E+00 -0.00000000000E+00 -0.16386708593E+03  0.16386708593E+03  0.00000000000E+00 0.  1.
         36    2    1    2    0    0  0.14210854715E-13  0.14210854715E-13  0.13611492412E+04  0.16888834131E+04  0.99979994304E+03 0.  0.
         25    2    3    3    0    0 -0.11456921848E+03 -0.82219170168E+02  0.18795100221E+03  0.26179552794E+03  0.11543492302E+03 0.  0.
         35    2    3    3    0    0  0.11456921848E+03  0.82219170168E+02  0.11731982390E+04  0.14270878851E+04  0.80018724441E+03 0.  0.
         22    1    5    5    0    0  0.16769190016E+03  0.30072744472E+03  0.14334299538E+03  0.37296753708E+03  0.00000000000E+00 0.  1.
         22    1    5    5    0    0 -0.53122681681E+02 -0.21850827455E+03  0.10298552436E+04  0.10541203481E+04  0.00000000000E+00 0.  1.
          5    1    4    4  502    0 -0.84900142727E+02 -0.17356016873E+02  0.16549692415E+03  0.18687050987E+03  0.47000000000E+01 0. -1.
         -5    1    4    4    0  502 -0.29669075752E+02 -0.64863153295E+02  0.22454078060E+02  0.74925018071E+02  0.47000000000E+01 0. -1.
<mgrwt>
<rscale>  0 0.99979994E+03</rscale>
<asrwt>0</asrwt>
<pdfrwt beam="1">  1        2 0.23461789E+00 0.99979994E+03</pdfrwt>
<pdfrwt beam="2">  1       -2 0.25210322E-01 0.99979994E+03</pdfrwt>
<totfact> 0.20726550E+02</totfact>
</mgrwt>
</event>
<event>
 9    1  0.4342579E-036  0.9960464E+03  0.7818608E-02  0.8684812E-01
          2   -1    0    0  501    0  0.00000000000E+00  0.00000000000E+00  0.69925521052E+03  0.69925521052E+03  0.00000000000E+00 0. -1.
         -2   -1    0    0    0  501 -0.00000000000E+00 -0.00000000000E+00 -0.35470186042E+03  0.35470186042E+03  0.00000000000E+00 0. -1.
         36    2    1    2    0    0  0.00000000000E+00  0.71054273576E-14  0.34455335011E+03  0.10539570709E+04  0.99604643281E+03 0.  0.
         25    2    3    3    0    0  0.13372661491E+03 -0.26892999142E+02  0.58239562107E+02  0.19409322054E+03  0.12519700766E+03 0.  0.
         35    2    3    3    0    0 -0.13372661491E+03  0.26892999142E+02  0.28631378800E+03  0.85986385040E+03  0.79923977321E+03 0.  0.
         22    1    5    5    0    0  0.53037993970E+02 -0.23339773699E+03 -0.17621740258E+03  0.29722063422E+03  0.00000000000E+00 0.  1.
         22    1    5    5    0    0 -0.18676460888E+03  0.26029073613E+03  0.46253119058E+03  0.56264321617E+03  0.00000000000E+00 0.  1.
          5    1    4    4  502    0  0.98138397281E+02 -0.67528400005E+02  0.68933940280E+01  0.11941875359E+03  0.47000000000E+01 0.  1.
         -5    1    4    4    0  502  0.35588217632E+02  0.40635400862E+02  0.51346168079E+02  0.74674466948E+02  0.47000000000E+01 0.  1.
<mgrwt>
<rscale>  0 0.99604643E+03</rscale>
<asrwt>0</asrwt>
<pdfrwt beam="1">  1        2 0.10757772E+00 0.99604643E+03</pdfrwt>
<pdfrwt beam="2">  1       -2 0.54569517E-01 0.99604643E+03</pdfrwt>
<totfact> 0.15688836E+02</totfact>
</mgrwt>
</event>
<event>
 9    1  0.4342579E-036  0.9988909E+03  0.7818608E-02  0.8682095E-01
          3   -1    0    0  501    0  0.00000000000E+00  0.00000000000E+00  0.19193969792E+03  0.19193969792E+03  0.00000000000E+00 0. -1.
         -3   -1    0    0    0  501 -0.00000000000E+00 -0.00000000000E+00 -0.12996048699E+04  0.12996048699E+04  0.00000000000E+00 0. -1.
         36    2    1    2    0    0 -0.71054273576E-14  0.28421709430E-13 -0.11076651719E+04  0.14915445678E+04  0.99889091723E+03 0.  0.
         25    2    3    3    0    0  0.55237650236E+02 -0.11400217520E+03 -0.12549345412E+03  0.21857722189E+03  0.12641084189E+03 0.  0.
         35    2    3    3    0    0 -0.55237650236E+02  0.11400217520E+03 -0.98217171783E+03  0.12729673459E+04  0.79983553713E+03 0.  0.
         22    1    5    5    0    0 -0.93105629718E+02  0.26320334941E+03 -0.38434927301E+00  0.27918597592E+03  0.00000000000E+00 0.  1.
         22    1    5    5    0    0  0.37867979482E+02 -0.14920117421E+03 -0.98178736855E+03  0.99378136997E+03  0.00000000000E+00 0.  1.
          5    1    4    4  502    0  0.72574248187E+02 -0.21991057614E+02 -0.22354331016E+02  0.79198700936E+02  0.47000000000E+01 0. -1.
         -5    1    4    4    0  502 -0.17336597951E+02 -0.92011117587E+02 -0.10313912311E+03  0.13937852095E+03  0.47000000000E+01 0. -1.
<mgrwt>
<rscale>  0 0.99889092E+03</rscale>
<asrwt>0</asrwt>
<pdfrwt beam="1">  1        3 0.29529186E-01 0.99889092E+03</pdfrwt>
<pdfrwt beam="2">  1       -3 0.19993920E+00 0.99889092E+03</pdfrwt>
<totfact> 0.45209182E+00</totfact>
</mgrwt>
</event>
<event>
 9    1  0.4342579E-036  0.1000119E+04  0.7818608E-02  0.8680925E-01
         -2   -1    0    0    0  501 -0.00000000000E+00  0.00000000000E+00  0.26400971285E+03  0.26400971285E+03  0.00000000000E+00 0. -1.
          2   -1    0    0  501    0  0.00000000000E+00 -0.00000000000E+00 -0.94716032935E+03  0.94716032935E+03  0.00000000000E+00 0. -1.
         36    2    1    2    0    0 -0.21316282073E-13 -0.56843418861E-13 -0.68315061650E+03  0.12111700422E+04  0.10001190461E+04 0.  0.
         25    2    3    3    0    0 -0.19060479368E+02  0.13601002232E+03 -0.93740504939E+02  0.20817030474E+03  0.12524202755E+03 0.  0.
         35    2    3    3    0    0  0.19060479368E+02 -0.13601002232E+03 -0.58941011157E+03  0.10029997375E+04  0.79983883732E+03 0.  0.
         22    1    5    5    0    0 -0.24128441918E+03  0.15748173011E+03 -0.53401311509E+03  0.60678552499E+03  0.00000000000E+00 0. -1.
         22    1    5    5    0    0  0.26034489854E+03 -0.29349175243E+03 -0.55396996476E+02  0.39621421246E+03  0.00000000000E+00 0. -1.
          5    1    4    4  502    0 -0.26014745922E+02 -0.14340637161E+02  0.12972452288E+01  0.30103051751E+02  0.47000000000E+01 0. -1.
         -5    1    4    4    0  502  0.69542665538E+01  0.15035065948E+03 -0.95037750168E+02  0.17806725298E+03  0.47000000000E+01 0. -1.
<mgrwt>
<rscale>  0 0.10001190E+04</rscale>
<asrwt>0</asrwt>
<pdfrwt beam="1">  1        2 0.14571697E+00 0.10001190E+04</pdfrwt>
<pdfrwt beam="2">  1       -2 0.40616880E-01 0.10001190E+04</pdfrwt>
<totfact> 0.18925062E+02</totfact>
</mgrwt>
</event>
<event>
 9    1  0.4342579E-036  0.9998279E+03  0.7818608E-02  0.8681202E-01
         -2   -1    0    0    0  501 -0.00000000000E+00  0.00000000000E+00  0.47573949359E+03  0.47573949359E+03  0.00000000000E+00 0.  1.
          2   -1    0    0  501    0  0.00000000000E+00 -0.00000000000E+00 -0.52531682765E+03  0.52531682765E+03  0.00000000000E+00 0.  1.
         36    2    1    2    0    0  0.00000000000E+00  0.14210854715E-13 -0.49577334059E+02  0.10010563212E+04  0.99982790831E+03 0.  0.
         25    2    3    3    0    0 -0.11161123210E+03 -0.68516885126E+02 -0.59505384099E+02  0.19044159956E+03  0.12480176853E+03 0.  0.
         35    2    3    3    0    0  0.11161123210E+03  0.68516885126E+02  0.99280500397E+01  0.81061472167E+03  0.79990376305E+03 0.  0.
         22    1    5    5    0    0  0.30287269539E+02  0.32737803614E+03 -0.26653728767E+03  0.42324440099E+03  0.00000000000E+00 0. -1.
         22    1    5    5    0    0  0.81323962562E+02 -0.25886115102E+03  0.27646533771E+03  0.38737032069E+03  0.00000000000E+00 0. -1.
          5    1    4    4  502    0  0.26150415980E+02 -0.63098452265E+00 -0.30708223967E+01  0.26753735209E+02  0.47000000000E+01 0.  1.
         -5    1    4    4    0  502 -0.13776164808E+03 -0.67885900604E+02 -0.56434561702E+02  0.16368786436E+03  0.47000000000E+01 0.  1.
<mgrwt>
<rscale>  0 0.99982791E+03</rscale>
<asrwt>0</asrwt>
<pdfrwt beam="1">  1        2 0.80817973E-01 0.99982791E+03</pdfrwt>
<pdfrwt beam="2">  1       -2 0.73190692E-01 0.99982791E+03</pdfrwt>
<totfact> 0.11841402E+02</totfact>
</mgrwt>
</event>
<event>
 9    1  0.4342579E-036  0.9992853E+03  0.7818608E-02  0.8681719E-01
          2   -1    0    0  501    0  0.00000000000E+00  0.00000000000E+00  0.16014971722E+04  0.16014971722E+04  0.00000000000E+00 0.  1.
         -2   -1    0    0    0  501 -0.00000000000E+00 -0.00000000000E+00 -0.15588086175E+03  0.15588086175E+03  0.00000000000E+00 0.  1.
         36    2    1    2    0    0  0.35527136788E-14  0.00000000000E+00  0.14456163105E+04  0.17573780340E+04  0.99928526317E+03 0.  0.
         25    2    3    3    0    0  0.17933576678E+01  0.13315026250E+03  0.35174983233E+03  0.39650823652E+03  0.12553337623E+03 0.  0.
         35    2    3    3    0    0 -0.17933576678E+01 -0.13315026250E+03  0.10938664782E+04  0.13608697975E+04  0.79855527366E+03 0.  0.
         22    1    5    5    0    0  0.34904880041E+03  0.10036226991E+03  0.34162318623E+03  0.49861212546E+03  0.00000000000E+00 0. -1.
         22    1    5    5    0    0 -0.35084215808E+03 -0.23351253241E+03  0.75224329193E+03  0.86225767200E+03  0.00000000000E+00 0. -1.
          5    1    4    4  502    0  0.12470728600E+02 -0.71005159531E+01 -0.25189027749E+01  0.15309189065E+02  0.47000000000E+01 0.  1.
         -5    1    4    4    0  502 -0.10677370933E+02  0.14025077846E+03  0.35426873511E+03  0.38119904746E+03  0.47000000000E+01 0.  1.
<mgrwt>
<rscale>  0 0.99928526E+03</rscale>
<asrwt>0</asrwt>
<pdfrwt beam="1">  1        2 0.24638417E+00 0.99928526E+03</pdfrwt>
<pdfrwt beam="2">  1       -2 0.23981672E-01 0.99928526E+03</pdfrwt>
<totfact> 0.20500217E+02</totfact>
</mgrwt>
</event>
<event>
 9    1  0.4342579E-036  0.9999742E+03  0.7818608E-02  0.8681063E-01
         -2   -1    0    0    0  501 -0.00000000000E+00  0.00000000000E+00  0.11356074243E+03  0.11356074243E+03  0.00000000000E+00 0. -1.
          2   -1    0    0  501    0  0.00000000000E+00 -0.00000000000E+00 -0.22013513067E+04  0.22013513067E+04  0.00000000000E+00 0. -1.
         36    2    1    2    0    0 -0.42632564146E-13  0.28421709430E-13 -0.20877905642E+04  0.23149120491E+04  0.99997417711E+03 0.  0.
         25    2    3    3    0    0 -0.14939055814E+02  0.11801251660E+03 -0.21897632149E+03  0.27863303085E+03  0.12464191528E+03 0.  0.
         35    2    3    3    0    0  0.14939055814E+02 -0.11801251660E+03 -0.18688142427E+04  0.20362790182E+04  0.79988463965E+03 0.  0.
         22    1    5    5    0    0 -0.24609970311E+03 -0.32327535064E+03 -0.59920913086E+03  0.72396381036E+03  0.00000000000E+00 0.  1.
         22    1    5    5    0    0  0.26103875893E+03  0.20526283404E+03 -0.12696051119E+04  0.13123152079E+04  0.00000000000E+00 0.  1.
          5    1    4    4  502    0 -0.47660716114E+02  0.95018746353E+02 -0.21276485148E+03  0.23788879344E+03  0.47000000000E+01 0. -1.
         -5    1    4    4    0  502  0.32721660300E+02  0.22993770244E+02 -0.62114700171E+01  0.40744237416E+02  0.47000000000E+01 0. -1.
<mgrwt>
<rscale>  0 0.99997418E+03</rscale>
<asrwt>0</asrwt>
<pdfrwt beam="1">  1        2 0.33866939E+00 0.99997418E+03</pdfrwt>
<pdfrwt beam="2">  1       -2 0.17470886E-01 0.99997418E+03</pdfrwt>
<totfact> 0.16194750E+02</totfact>
</mgrwt>
</event>
<event>
 9    1  0.4342579E-036  0.9915952E+03  0.7818608E-02  0.8689083E-01
         -1   -1    0    0    0  501 -0.00000000000E+00  0.00000000000E+00  0.24851203585E+03  0.24851203585E+03  0.00000000000E+00 0. -1.
          1   -1    0    0  501    0  0.00000000000E+00 -0.00000000000E+00 -0.98914826834E+03  0.98914826834E+03  0.00000000000E+00 0. -1.
         36    2    1    2    0    0 -0.71054273576E-14  0.00000000000E+00 -0.74063623249E+03  0.12376603042E+04  0.99159517933E+03 0.  0.
         25    2    3    3    0    0  0.21851165384E+02  0.12865410457E+03 -0.12440558820E+03  0.21956322206E+03  0.12530724661E+03 0.  0.
         35    2    3    3    0    0 -0.21851165384E+02 -0.12865410457E+03 -0.61623064429E+03  0.10180970821E+04  0.79984505351E+03 0.  0.
         22    1    5    5    0    0  0.10008088494E+03 -0.13854698061E+03 -0.78849981483E+03  0.80681063909E+03  0.00000000000E+00 0.  1.
         22    1    5    5    0    0 -0.12193205033E+03  0.98928760491E+01  0.17226917054E+03  0.21128644304E+03  0.00000000000E+00 0.  1.
          5    1    4    4  502    0  0.91815019959E+01 -0.23854673606E+02 -0.78782603728E+01  0.27156995752E+02  0.47000000000E+01 0. -1.
         -5    1    4    4    0  502  0.12669663389E+02  0.15250877817E+03 -0.11652732783E+03  0.19240622630E+03  0.47000000000E+01 0. -1.
<mgrwt>
<rscale>  0 0.99159518E+03</rscale>
<asrwt>0</asrwt>
<pdfrwt beam="1">  1        1 0.15217666E+00 0.99159518E+03</pdfrwt>
<pdfrwt beam="2">  1       -1 0.38232621E-01 0.99159518E+03</pdfrwt>
<totfact> 0.11433440E+02</totfact>
</mgrwt>
</event>
<event>
 9    1  0.4342579E-036  0.9993647E+03  0.7818608E-02  0.8681643E-01
          1   -1    0    0  501    0  0.00000000000E+00  0.00000000000E+00  0.25579122480E+03  0.25579122480E+03  0.00000000000E+00 0. -1.
         -1   -1    0    0    0  501 -0.00000000000E+00 -0.00000000000E+00 -0.97611809655E+03  0.97611809655E+03  0.00000000000E+00 0. -1.
         36    2    1    2    0    0 -0.28421709430E-13  0.00000000000E+00 -0.72032687175E+03  0.12319093214E+04  0.99936468512E+03 0.  0.
         25    2    3    3    0    0 -0.56483714198E+02  0.11509351486E+03 -0.19753668323E+03  0.26726649056E+03  0.12638713787E+03 0.  0.
         35    2    3    3    0    0  0.56483714198E+02 -0.11509351486E+03 -0.52279018851E+03  0.96464283080E+03  0.80049314967E+03 0.  0.
         22    1    5    5    0    0 -0.26914414088E+03 -0.22701270690E+03 -0.51043771864E+03  0.62009676848E+03  0.00000000000E+00 0. -1.
         22    1    5    5    0    0  0.32562785508E+03  0.11191919203E+03 -0.12352469868E+02  0.34454606232E+03  0.00000000000E+00 0. -1.
          5    1    4    4  502    0 -0.79549077176E+02  0.57726598556E+02 -0.17597206689E+03  0.20161516358E+03  0.47000000000E+01 0. -1.
         -5    1    4    4    0  502  0.23065362979E+02  0.57366916305E+02 -0.21564616348E+02  0.65651326977E+02  0.47000000000E+01 0. -1.
<mgrwt>
<rscale>  0 0.99936469E+03</rscale>
<asrwt>0</asrwt>
<pdfrwt beam="1">  1        1 0.39352496E-01 0.99936469E+03</pdfrwt>
<pdfrwt beam="2">  1       -1 0.15017201E+00 0.99936469E+03</pdfrwt>
<totfact> 0.44095527E+01</totfact>
</mgrwt>
</event>
<event>
 9    1  0.4342579E-036  0.1000926E+04  0.7818608E-02  0.8680157E-01
         -2   -1    0    0    0  501 -0.00000000000E+00  0.00000000000E+00  0.27506702509E+03  0.27506702509E+03  0.00000000000E+00 0.  1.
          2   -1    0    0  501    0  0.00000000000E+00 -0.00000000000E+00 -0.91055281613E+03  0.91055281613E+03  0.00000000000E+00 0.  1.
         36    2    1    2    0    0 -0.21316282073E-13 -0.28421709430E-13 -0.63548579104E+03  0.11856198412E+04  0.10009256802E+04 0.  0.
         25    2    3    3    0    0 -0.63617706475E+02 -0.86958266040E+02 -0.19183624892E+02  0.17106603484E+03  0.13147860739E+03 0.  0.
         35    2    3    3    0    0  0.63617706475E+02  0.86958266040E+02 -0.61630216614E+03  0.10145538064E+04  0.79867522402E+03 0.  0.
         22    1    5    5    0    0  0.24825827104E+03 -0.28628394836E+03 -0.21224148315E+03  0.43432374492E+03  0.00000000000E+00 0. -1.
         22    1    5    5    0    0 -0.18464056456E+03  0.37324221440E+03 -0.40406068299E+03  0.58023006147E+03  0.00000000000E+00 0. -1.
          5    1    4    4  502    0 -0.31640458119E+02 -0.73169750779E+02  0.49473174094E+02  0.93939427154E+02  0.47000000000E+01 0. -1.
         -5    1    4    4    0  502 -0.31977248356E+02 -0.13788515261E+02 -0.68656798986E+02  0.77126607682E+02  0.47000000000E+01 0. -1.
<mgrwt>
<rscale>  0 0.10009257E+04</rscale>
<asrwt>0</asrwt>
<pdfrwt beam="1">  1        2 0.14008505E+00 0.10009257E+04</pdfrwt>
<pdfrwt beam="2">  1       -2 0.42318004E-01 0.10009257E+04</pdfrwt>
<totfact> 0.18469280E+02</totfact>
</mgrwt>
</event>
<event>
 9    1  0.4342579E-036  0.9997639E+03  0.7818608E-02  0.8681263E-01
         -2   -1    0    0    0  501 -0.00000000000E+00  0.00000000000E+00  0.96602942499E+02  0.96602942499E+02  0.00000000000E+00 0. -1.
          2   -1    0    0  501    0  0.00000000000E+00 -0.00000000000E+00 -0.25866907949E+04  0.25866907949E+04  0.00000000000E+00 0. -1.
         36    2    1    2    0    0 -0.71054273576E-14  0.71054273576E-14 -0.24900878524E+04  0.26832937374E+04  0.99976385637E+03 0.  0.
         25    2    3    3    0    0  0.39705790873E+02 -0.14945885931E+02 -0.11815639325E+03  0.17766967341E+03  0.12572052438E+03 0.  0.
         35    2    3    3    0    0 -0.39705790873E+02  0.14945885931E+02 -0.23719314592E+04  0.25056240640E+04  0.80640757300E+03 0.  0.
         22    1    5    5    0    0  0.13932032970E+03 -0.14545242217E+03 -0.22021439997E+04  0.22113355143E+04  0.00000000000E+00 0. -1.
         22    1    5    5    0    0 -0.17902612057E+03  0.16039830810E+03 -0.16978745945E+03  0.29428854969E+03  0.00000000000E+00 0. -1.
          5    1    4    4  502    0  0.34964368816E+02 -0.56545524003E+02 -0.18035987205E+02  0.69045566157E+02  0.47000000000E+01 0.  1.
         -5    1    4    4    0  502  0.47414220574E+01  0.41599638072E+02 -0.10012040604E+03  0.10862410726E+03  0.47000000000E+01 0.  1.
<mgrwt>
<rscale>  0 0.99976386E+03</rscale>
<asrwt>0</asrwt>
<pdfrwt beam="1">  1        2 0.39795236E+00 0.99976386E+03</pdfrwt>
<pdfrwt beam="2">  1       -2 0.14861994E-01 0.99976386E+03</pdfrwt>
<totfact> 0.12514432E+02</totfact>
</mgrwt>
</event>
<event>
 9    1  0.4342579E-036  0.1001001E+04  0.7818608E-02  0.8680086E-01
          1   -1    0    0  501    0  0.00000000000E+00  0.00000000000E+00  0.23041151896E+04  0.23041151896E+04  0.00000000000E+00 0.  1.
         -1   -1    0    0    0  501 -0.00000000000E+00 -0.00000000000E+00 -0.10871879598E+03  0.10871879598E+03  0.00000000000E+00 0.  1.
         36    2    1    2    0    0  0.00000000000E+00 -0.35527136788E-14  0.21953963936E+04  0.24128339856E+04  0.10010007577E+04 0.  0.
         25    2    3    3    0    0 -0.33563219680E+02 -0.30010718647E+02  0.73941004146E+03  0.75121301663E+03  0.12476639768E+03 0.  0.
         35    2    3    3    0    0  0.33563219680E+02  0.30010718647E+02  0.14559863522E+04  0.16616209690E+04  0.79941281816E+03 0.  0.
         22    1    5    5    0    0  0.24698035874E+03 -0.35086206560E+01  0.14215623413E+04  0.14428621203E+04  0.00000000000E+00 0. -1.
         22    1    5    5    0    0 -0.21341713906E+03  0.33519339303E+02  0.34424010907E+02  0.21875884868E+03  0.00000000000E+00 0. -1.
          5    1    4    4  502    0 -0.43802894310E+02 -0.27444587948E+02  0.73770956215E+03  0.73953322240E+03  0.47000000000E+01 0.  1.
         -5    1    4    4    0  502  0.10239674630E+02 -0.25661306992E+01  0.17004793187E+01  0.11679794228E+02  0.47000000000E+01 0.  1.
<mgrwt>
<rscale>  0 0.10010008E+04</rscale>
<asrwt>0</asrwt>
<pdfrwt beam="1">  1        1 0.35447922E+00 0.10010008E+04</pdfrwt>
<pdfrwt beam="2">  1       -1 0.16725970E-01 0.10010008E+04</pdfrwt>
<totfact> 0.52239766E+01</totfact>
</mgrwt>
</event>
<event>
 9    1  0.4342579E-036  0.9986445E+03  0.7818608E-02  0.8682330E-01
         -2   -1    0    0    0  501 -0.00000000000E+00  0.00000000000E+00  0.21753396248E+03  0.21753396248E+03  0.00000000000E+00 0.  1.
          2   -1    0    0  501    0  0.00000000000E+00 -0.00000000000E+00 -0.11461322574E+04  0.11461322574E+04  0.00000000000E+00 0.  1.
         36    2    1    2    0    0  0.28421709430E-13 -0.28421709430E-13 -0.92859829489E+03  0.13636662198E+04  0.99864446421E+03 0.  0.
         25    2    3    3    0    0 -0.11258531113E+03  0.79959419393E+02 -0.18490116320E+03  0.26236638353E+03  0.12481473480E+03 0.  0.
         35    2    3    3    0    0  0.11258531113E+03 -0.79959419393E+02 -0.74369713169E+03  0.11012998363E+04  0.80044171853E+03 0.  0.
         22    1    5    5    0    0 -0.16109728755E+03 -0.35388558769E+03 -0.53515175642E+03  0.66149432925E+03  0.00000000000E+00 0. -1.
         22    1    5    5    0    0  0.27368259868E+03  0.27392616830E+03 -0.20854537526E+03  0.43980550706E+03  0.00000000000E+00 0. -1.
          5    1    4    4  502    0 -0.13142892504E+03  0.74864920543E+02 -0.18874931744E+03  0.24192294951E+03  0.47000000000E+01 0.  1.
         -5    1    4    4    0  502  0.18843613908E+02  0.50944988505E+01  0.38481542386E+01  0.20443434024E+02  0.47000000000E+01 0.  1.
<mgrwt>
<rscale>  0 0.99864446E+03</rscale>
<asrwt>0</asrwt>
<pdfrwt beam="1">  1        2 0.17632804E+00 0.99864446E+03</pdfrwt>
<pdfrwt beam="2">  1       -2 0.33466764E-01 0.99864446E+03</pdfrwt>
<totfact> 0.20534690E+02</totfact>
</mgrwt>
</event>
<event>
 9    1  0.4342579E-036  0.9993008E+03  0.7818608E-02  0.8681704E-01
         -2   -1    0    0    0  501 -0.00000000000E+00  0.00000000000E+00  0.11350165486E+03  0.11350165486E+03  0.00000000000E+00 0.  1.
          2   -1    0    0  501    0  0.00000000000E+00 -0.00000000000E+00 -0.21995321237E+04  0.21995321237E+04  0.00000000000E+00 0.  1.
         36    2    1    2    0    0  0.00000000000E+00  0.00000000000E+00 -0.20860304688E+04  0.23130337785E+04  0.99930082749E+03 0.  0.
         25    2    3    3    0    0  0.70937204799E+02 -0.92077487136E+02 -0.57077964647E+03  0.59583597240E+03  0.12538241714E+03 0.  0.
         35    2    3    3    0    0 -0.70937204799E+02  0.92077487136E+02 -0.15152508224E+04  0.17171978061E+04  0.79954543341E+03 0.  0.
         22    1    5    5    0    0  0.35628530396E+03  0.21560689276E+02 -0.86736100078E+03  0.93793346609E+03  0.00000000000E+00 0. -1.
         22    1    5    5    0    0 -0.42722250876E+03  0.70516797860E+02 -0.64788982159E+03  0.77926434006E+03  0.00000000000E+00 0. -1.
          5    1    4    4  502    0  0.21858496534E+02  0.20096452617E+02 -0.26065169452E+03  0.26237960503E+03  0.47000000000E+01 0.  1.
         -5    1    4    4    0  502  0.49078708264E+02 -0.11217393975E+03 -0.31012795194E+03  0.33345636737E+03  0.47000000000E+01 0.  1.
<mgrwt>
<rscale>  0 0.99930083E+03</rscale>
<asrwt>0</asrwt>
<pdfrwt beam="1">  1        2 0.33838957E+00 0.99930083E+03</pdfrwt>
<pdfrwt beam="2">  1       -2 0.17461793E-01 0.99930083E+03</pdfrwt>
<totfact> 0.16248724E+02</totfact>
</mgrwt>
</event>
<event>
 9    1  0.4342579E-036  0.9995055E+03  0.7818608E-02  0.8681509E-01
         -2   -1    0    0    0  501 -0.00000000000E+00  0.00000000000E+00  0.50226973205E+03  0.50226973205E+03  0.00000000000E+00 0. -1.
          2   -1    0    0  501    0  0.00000000000E+00 -0.00000000000E+00 -0.49724842353E+03  0.49724842353E+03  0.00000000000E+00 0. -1.
         36    2    1    2    0    0  0.71054273576E-14  0.28421709430E-13  0.50213085243E+01  0.99951815558E+03  0.99950554265E+03 0.  0.
         25    2    3    3    0    0  0.11105727481E+02  0.13128598319E+03 -0.56360353270E+02  0.18987733495E+03  0.12456952413E+03 0.  0.
         35    2    3    3    0    0 -0.11105727481E+02 -0.13128598319E+03  0.61381661794E+02  0.80964082062E+03  0.79648678799E+03 0.  0.
         22    1    5    5    0    0 -0.15578389864E+03  0.30646157535E+03 -0.51883441736E+01  0.34382297648E+03  0.00000000000E+00 0. -1.
         22    1    5    5    0    0  0.14467817116E+03 -0.43774755855E+03  0.66570005968E+02  0.46581784414E+03  0.00000000000E+00 0. -1.
          5    1    4    4  502    0  0.65818644896E+02  0.51979050829E+02 -0.17057150394E+02  0.85714363561E+02  0.47000000000E+01 0.  1.
         -5    1    4    4    0  502 -0.54712917415E+02  0.79306932365E+02 -0.39303202876E+02  0.10416297139E+03  0.47000000000E+01 0.  1.
<mgrwt>
<rscale>  0 0.99950554E+03</rscale>
<asrwt>0</asrwt>
<pdfrwt beam="1">  1        2 0.76499758E-01 0.99950554E+03</pdfrwt>
<pdfrwt beam="2">  1       -2 0.77272266E-01 0.99950554E+03</pdfrwt>
<totfact> 0.11175427E+02</totfact>
</mgrwt>
</event>
<event>
 9    1  0.4342579E-036  0.1000376E+04  0.7818608E-02  0.8680680E-01
          2   -1    0    0  501    0  0.00000000000E+00  0.00000000000E+00  0.40441344996E+03  0.40441344996E+03  0.00000000000E+00 0.  1.
         -2   -1    0    0    0  501 -0.00000000000E+00 -0.00000000000E+00 -0.61864463502E+03  0.61864463502E+03  0.00000000000E+00 0.  1.
         36    2    1    2    0    0 -0.28421709430E-13  0.00000000000E+00 -0.21423118506E+03  0.10230580850E+04  0.10003763515E+04 0.  0.
         25    2    3    3    0    0 -0.47295344452E+02  0.61745040785E+02 -0.16004922918E+03  0.21717000135E+03  0.12448997572E+03 0.  0.
         35    2    3    3    0    0  0.47295344452E+02 -0.61745040785E+02 -0.54181955874E+02  0.80588808364E+03  0.80029408303E+03 0.  0.
         22    1    5    5    0    0 -0.21024300970E+03 -0.35250586903E+02 -0.35184461029E+03  0.41138711307E+03  0.00000000000E+00 0.  1.
         22    1    5    5    0    0  0.25753835416E+03 -0.26494453882E+02  0.29766265442E+03  0.39450097057E+03  0.00000000000E+00 0.  1.
          5    1    4    4  502    0  0.12749496808E+02 -0.29640038595E+02 -0.16174388942E+02  0.36397560556E+02  0.47000000000E+01 0. -1.
         -5    1    4    4    0  502 -0.60044841260E+02  0.91385079381E+02 -0.14387484024E+03  0.18077244079E+03  0.47000000000E+01 0. -1.
<mgrwt>
<rscale>  0 0.10003764E+04</rscale>
<asrwt>0</asrwt>
<pdfrwt beam="1">  1        2 0.62217454E-01 0.10003764E+04</pdfrwt>
<pdfrwt beam="2">  1       -2 0.95176098E-01 0.10003764E+04</pdfrwt>
<totfact> 0.86856642E+01</totfact>
</mgrwt>
</event>
<event>
 9    1  0.4342579E-036  0.9993527E+03  0.7818608E-02  0.8681655E-01
          2   -1    0    0  501    0  0.00000000000E+00  0.00000000000E+00  0.20461691161E+04  0.20461691161E+04  0.00000000000E+00 0.  1.
         -2   -1    0    0    0  501 -0.00000000000E+00 -0.00000000000E+00 -0.12202142532E+03  0.12202142532E+03  0.00000000000E+00 0.  1.
         36    2    1    2    0    0 -0.14210854715E-13  0.42632564146E-13  0.19241476908E+04  0.21681905414E+04  0.99935273450E+03 0.  0.
         25    2    3    3    0    0 -0.42029192412E+02  0.92778012118E+02  0.15723923392E+03  0.22567919863E+03  0.12582810284E+03 0.  0.
         35    2    3    3    0    0  0.42029192412E+02 -0.92778012118E+02  0.17669084569E+04  0.19425113428E+04  0.80063138170E+03 0.  0.
         22    1    5    5    0    0  0.24169853898E+03  0.13682615129E+03  0.18999160513E+03  0.33650615067E+03  0.00000000000E+00 0. -1.
         22    1    5    5    0    0 -0.19966934656E+03 -0.22960416341E+03  0.15769168518E+04  0.16060051921E+04  0.00000000000E+00 0. -1.
          5    1    4    4  502    0 -0.39295557791E+02 -0.22508656878E+02  0.33913127088E+02  0.56771213528E+02  0.47000000000E+01 0. -1.
         -5    1    4    4    0  502 -0.27336346218E+01  0.11528666900E+03  0.12332610683E+03  0.16890798511E+03  0.47000000000E+01 0. -1.
<mgrwt>
<rscale>  0 0.99935273E+03</rscale>
<asrwt>0</asrwt>
<pdfrwt beam="1">  1        2 0.31479522E+00 0.99935273E+03</pdfrwt>
<pdfrwt beam="2">  1       -2 0.18772528E-01 0.99935273E+03</pdfrwt>
<totfact> 0.17596500E+02</totfact>
</mgrwt>
</event>
<event>
 9    1  0.4342579E-036  0.9999498E+03  0.7818608E-02  0.8681086E-01
         -2   -1    0    0    0  501 -0.00000000000E+00  0.00000000000E+00  0.14710596304E+03  0.14710596304E+03  0.00000000000E+00 0. -1.
          2   -1    0    0  501    0  0.00000000000E+00 -0.00000000000E+00 -0.16992846193E+04  0.16992846193E+04  0.00000000000E+00 0. -1.
         36    2    1    2    0    0  0.00000000000E+00 -0.42632564146E-13 -0.15521786563E+04  0.18463905823E+04  0.99994979956E+03 0.  0.
         25    2    3    3    0    0 -0.74636378629E+02 -0.11881156362E+03 -0.27228495008E+03  0.33060947821E+03  0.12440561233E+03 0.  0.
         35    2    3    3    0    0  0.74636378629E+02  0.11881156362E+03 -0.12798937062E+04  0.15157811041E+04  0.79986103786E+03 0.  0.
         22    1    5    5    0    0 -0.21486673692E+03  0.36525735397E+03 -0.56725074343E+03  0.70806359544E+03  0.00000000000E+00 0. -1.
         22    1    5    5    0    0  0.28950311555E+03 -0.24644579036E+03 -0.71264296276E+03  0.80771750870E+03  0.00000000000E+00 0. -1.
          5    1    4    4  502    0 -0.10792181762E+03 -0.92792057261E+02 -0.18443006751E+03  0.23301078175E+03  0.47000000000E+01 0.  1.
         -5    1    4    4    0  502  0.33285438992E+02 -0.26019506356E+02 -0.87854882562E+02  0.97598696456E+02  0.47000000000E+01 0.  1.
<mgrwt>
<rscale>  0 0.99994980E+03</rscale>
<asrwt>0</asrwt>
<pdfrwt beam="1">  1        2 0.26142839E+00 0.99994980E+03</pdfrwt>
<pdfrwt beam="2">  1       -2 0.22631688E-01 0.99994980E+03</pdfrwt>
<totfact> 0.19994923E+02</totfact>
</mgrwt>
</event>
<event>
 9    1  0.4342579E-036  0.1004231E+04  0.7818608E-02  0.8677019E-01
         -2   -1    0    0    0  501 -0.00000000000E+00  0.00000000000E+00  0.29091116917E+03  0.29091116917E+03  0.00000000000E+00 0. -1.
          2   -1    0    0  501    0  0.00000000000E+00 -0.00000000000E+00 -0.86665575594E+03  0.86665575594E+03  0.00000000000E+00 0. -1.
         36    2    1    2    0    0 -0.21316282073E-13 -0.14210854715E-13 -0.57574458677E+03  0.11575669251E+04  0.10042307289E+04 0.  0.
         25    2    3    3    0    0 -0.27324799631E+02  0.47167254584E+02 -0.26446920801E+03  0.29812676378E+03  0.12634955763E+03 0.  0.
         35    2    3    3    0    0  0.27324799631E+02 -0.47167254584E+02 -0.31127537876E+03  0.85944016134E+03  0.79923315429E+03 0.  0.
         22    1    5    5    0    0  0.18833411609E+03 -0.27337306351E+03 -0.44181109716E+03  0.55262972840E+03  0.00000000000E+00 0. -1.
         22    1    5    5    0    0 -0.16100931646E+03  0.22620580893E+03  0.13053571841E+03  0.30681043294E+03  0.00000000000E+00 0. -1.
          5    1    4    4  502    0 -0.98141323781E+01 -0.29265959748E+02 -0.18034687422E+03  0.18302977527E+03  0.47000000000E+01 0. -1.
         -5    1    4    4    0  502 -0.17510667253E+02  0.76433214332E+02 -0.84122333794E+02  0.11509698851E+03  0.47000000000E+01 0. -1.
<mgrwt>
<rscale>  0 0.10042307E+04</rscale>
<asrwt>0</asrwt>
<pdfrwt beam="1">  1        2 0.13333165E+00 0.10042307E+04</pdfrwt>
<pdfrwt beam="2">  1       -2 0.44755565E-01 0.10042307E+04</pdfrwt>
<totfact> 0.17709750E+02</totfact>
</mgrwt>
</event>
<event>
 9    1  0.4342579E-036  0.9994162E+03  0.7818608E-02  0.8681594E-01
         -2   -1    0    0    0  501 -0.00000000000E+00  0.00000000000E+00  0.32314423890E+03  0.32314423890E+03  0.00000000000E+00 0.  1.
          2   -1    0    0  501    0  0.00000000000E+00 -0.00000000000E+00 -0.77274525436E+03  0.77274525436E+03  0.00000000000E+00 0.  1.
         36    2    1    2    0    0  0.00000000000E+00  0.00000000000E+00 -0.44960101545E+03  0.10958894933E+04  0.99941618375E+03 0.  0.
         25    2    3    3    0    0  0.73000603091E+02 -0.78702394517E+02 -0.17949057913E+03  0.24242731800E+03  0.12260090358E+03 0.  0.
         35    2    3    3    0    0 -0.73000603091E+02  0.78702394517E+02 -0.27011043632E+03  0.85346217526E+03  0.80244307078E+03 0.  0.
         22    1    5    5    0    0 -0.29585184587E+02 -0.12452330182E+03 -0.51593240000E+03  0.53157085813E+03  0.00000000000E+00 0. -1.
         22    1    5    5    0    0 -0.43415418504E+02  0.20322569634E+03  0.24582196368E+03  0.32189131713E+03  0.00000000000E+00 0. -1.
          5    1    4    4  502    0  0.16262352170E+02  0.11141744359E+02 -0.11767058945E+03  0.11940293207E+03  0.47000000000E+01 0. -1.
         -5    1    4    4    0  502  0.56738250921E+02 -0.89844138875E+02 -0.61819989677E+02  0.12302438592E+03  0.47000000000E+01 0. -1.
<mgrwt>
<rscale>  0 0.99941618E+03</rscale>
<asrwt>0</asrwt>
<pdfrwt beam="1">  1        2 0.11888388E+00 0.99941618E+03</pdfrwt>
<pdfrwt beam="2">  1       -2 0.49714499E-01 0.99941618E+03</pdfrwt>
<totfact> 0.16712294E+02</totfact>
</mgrwt>
</event>
<event>
 9    1  0.4342579E-036  0.1000535E+04  0.7818608E-02  0.8680529E-01
          1   -1    0    0  501    0  0.00000000000E+00  0.00000000000E+00  0.77645058613E+03  0.77645058613E+03  0.00000000000E+00 0. -1.
         -1   -1    0    0    0  501 -0.00000000000E+00 -0.00000000000E+00 -0.32232241217E+03  0.32232241217E+03  0.00000000000E+00 0. -1.
         36    2    1    2    0    0 -0.14210854715E-13 -0.71054273576E-14  0.45412817396E+03  0.10987729983E+04  0.10005347088E+04 0.  0.
         25    2    3    3    0    0 -0.79894169467E+02  0.53208130737E+02 -0.31177573915E+02  0.15730093584E+03  0.12065388435E+03 0.  0.
         35    2    3    3    0    0  0.79894169467E+02 -0.53208130737E+02  0.48530574788E+03  0.94147206247E+03  0.80102046915E+03 0.  0.
         22    1    5    5    0    0  0.37386590404E+03 -0.25287471143E+03  0.26756604877E+03  0.52470270091E+03  0.00000000000E+00 0.  1.
         22    1    5    5    0    0 -0.29397173457E+03  0.19966658069E+03  0.21773969910E+03  0.41676936156E+03  0.00000000000E+00 0.  1.
          5    1    4    4  502    0  0.54953423052E+01  0.24916751090E+02 -0.57813578289E+02  0.63368313111E+02  0.47000000000E+01 0.  1.
         -5    1    4    4    0  502 -0.85389511772E+02  0.28291379647E+02  0.26636004375E+02  0.93932622725E+02  0.47000000000E+01 0.  1.
<mgrwt>
<rscale>  0 0.10005347E+04</rscale>
<asrwt>0</asrwt>
<pdfrwt beam="1">  1        1 0.11945394E+00 0.10005347E+04</pdfrwt>
<pdfrwt beam="2">  1       -1 0.49588064E-01 0.10005347E+04</pdfrwt>
<totfact> 0.10793844E+02</totfact>
</mgrwt>
</event>
<event>
 9    1  0.4342579E-036  0.9993853E+03  0.7818608E-02  0.8681624E-01
         -1   -1    0    0    0  501 -0.00000000000E+00  0.00000000000E+00  0.65255075866E+03  0.65255075866E+03  0.00000000000E+00 0. -1.
          1   -1    0    0  501    0  0.00000000000E+00 -0.00000000000E+00 -0.38264106932E+03  0.38264106932E+03  0.00000000000E+00 0. -1.
         36    2    1    2    0    0  0.28421709430E-13  0.56843418861E-13  0.26990968934E+03  0.10351918280E+04  0.99938525121E+03 0.  0.
         25    2    3    3    0    0 -0.10836746230E+03  0.30053639226E+02  0.13958113081E+03  0.21850845600E+03  0.12496529577E+03 0.  0.
         35    2    3    3    0    0  0.10836746230E+03 -0.30053639226E+02  0.13032855853E+03  0.81668337199E+03  0.79833543626E+03 0.  0.
         22    1    5    5    0    0  0.13804458441E+03  0.36268296895E+03 -0.34775707046E+02  0.38962108907E+03  0.00000000000E+00 0. -1.
         22    1    5    5    0    0 -0.29677122102E+02 -0.39273660818E+03  0.16510426557E+03  0.42706228291E+03  0.00000000000E+00 0. -1.
          5    1    4    4  502    0 -0.10759785235E+03  0.65518973908E+02  0.13080409540E+03  0.18166407224E+03  0.47000000000E+01 0. -1.
         -5    1    4    4    0  502 -0.76960995795E+00 -0.35465334683E+02  0.87770354181E+01  0.36844383756E+02  0.47000000000E+01 0. -1.
<mgrwt>
<rscale>  0 0.99938525E+03</rscale>
<asrwt>0</asrwt>
<pdfrwt beam="1">  1        1 0.58867857E-01 0.99938525E+03</pdfrwt>
<pdfrwt beam="2">  1       -1 0.10039242E+00 0.99938525E+03</pdfrwt>
<totfact> 0.72046878E+01</totfact>
</mgrwt>
</event>
<event>
 9    1  0.4342579E-036  0.1001243E+04  0.7818608E-02  0.8679855E-01
         -2   -1    0    0    0  501 -0.00000000000E+00  0.00000000000E+00  0.19822133904E+03  0.19822133904E+03  0.00000000000E+00 0.  1.
          2   -1    0    0  501    0  0.00000000000E+00 -0.00000000000E+00 -0.12643548423E+04  0.12643548423E+04  0.00000000000E+00 0.  1.
         36    2    1    2    0    0  0.28421709430E-13  0.28421709430E-13 -0.10661335033E+04  0.14625761813E+04  0.10012434466E+04 0.  0.
         25    2    3    3    0    0  0.94842021690E+02 -0.74744507090E+02 -0.29092370604E+03  0.33873026528E+03  0.12457864769E+03 0.  0.
         35    2    3    3    0    0 -0.94842021690E+02  0.74744507090E+02 -0.77520979723E+03  0.11238459161E+04  0.80467239478E+03 0.  0.
         22    1    5    5    0    0 -0.35083220416E+03  0.27876851837E+03 -0.61076294681E+03  0.75751336590E+03  0.00000000000E+00 0.  1.
         22    1    5    5    0    0  0.25599018247E+03 -0.20402401128E+03 -0.16444685041E+03  0.36633255017E+03  0.00000000000E+00 0.  1.
          5    1    4    4  502    0  0.35199776887E+02 -0.88341828512E+02 -0.99504292536E+02  0.13771890644E+03  0.47000000000E+01 0. -1.
         -5    1    4    4    0  502  0.59642244803E+02  0.13597321422E+02 -0.19141941351E+03  0.20101135884E+03  0.47000000000E+01 0. -1.
<mgrwt>
<rscale>  0 0.10012434E+04</rscale>
<asrwt>0</asrwt>
<pdfrwt beam="1">  1        2 0.19451612E+00 0.10012434E+04</pdfrwt>
<pdfrwt beam="2">  1       -2 0.30495592E-01 0.10012434E+04</pdfrwt>
<totfact> 0.20745787E+02</totfact>
</mgrwt>
</event>
<event>
 9    1  0.4342579E-036  0.9996553E+03  0.7818608E-02  0.8681366E-01
         -3   -1    0    0    0  501 -0.00000000000E+00  0.00000000000E+00  0.49982409653E+03  0.49982409653E+03  0.00000000000E+00 0. -1.
          3   -1    0    0  501    0  0.00000000000E+00 -0.00000000000E+00 -0.49983117340E+03  0.49983117340E+03  0.00000000000E+00 0. -1.
         36    2    1    2    0    0  0.42632564146E-13  0.00000000000E+00 -0.70768660657E-02  0.99965526994E+03  0.99965526991E+03 0.  0.
         25    2    3    3    0    0  0.10028729017E+03  0.29566735397E+02 -0.90623521161E+02  0.18691145381E+03  0.12566438065E+03 0.  0.
         35    2    3    3    0    0 -0.10028729017E+03 -0.29566735397E+02  0.90616444295E+02  0.81274381613E+03  0.80088041446E+03 0.  0.
         22    1    5    5    0    0 -0.26616295875E+03 -0.12166200310E+03  0.37203468489E+03  0.47334360709E+03  0.00000000000E+00 0. -1.
         22    1    5    5    0    0  0.16587566858E+03  0.92095267708E+02 -0.28141824059E+03  0.33940020904E+03  0.00000000000E+00 0. -1.
          5    1    4    4  502    0 -0.13375620326E+02 -0.23303099110E+02  0.67610588241E+01  0.28102376477E+02  0.47000000000E+01 0. -1.
         -5    1    4    4    0  502  0.11366291050E+03  0.52869834507E+02 -0.97384579985E+02  0.15880907733E+03  0.47000000000E+01 0. -1.
<mgrwt>
<rscale>  0 0.99965527E+03</rscale>
<asrwt>0</asrwt>
<pdfrwt beam="1">  1        3 0.76897103E-01 0.99965527E+03</pdfrwt>
<pdfrwt beam="2">  1       -3 0.76896015E-01 0.99965527E+03</pdfrwt>
<totfact> 0.10038874E+01</totfact>
</mgrwt>
</event>
<event>
 9    1  0.4342579E-036  0.1000135E+04  0.7818608E-02  0.8680910E-01
          1   -1    0    0  501    0  0.00000000000E+00  0.00000000000E+00  0.15715972326E+03  0.15715972326E+03  0.00000000000E+00 0. -1.
         -1   -1    0    0    0  501 -0.00000000000E+00 -0.00000000000E+00 -0.15911670041E+04  0.15911670041E+04  0.00000000000E+00 0. -1.
         36    2    1    2    0    0  0.00000000000E+00  0.14210854715E-13 -0.14340072809E+04  0.17483267274E+04  0.10001347230E+04 0.  0.
         25    2    3    3    0    0 -0.79361780952E+02 -0.92853071732E+02 -0.15104914638E+03  0.23122364426E+03  0.12541349145E+03 0.  0.
         35    2    3    3    0    0  0.79361780952E+02  0.92853071732E+02 -0.12829581345E+04  0.15171030831E+04  0.80043750836E+03 0.  0.
         22    1    5    5    0    0 -0.29544871845E+03 -0.13465596658E+03 -0.30552652753E+03  0.44583476041E+03  0.00000000000E+00 0. -1.
         22    1    5    5    0    0  0.37481049940E+03  0.22750903831E+03 -0.97743160696E+03  0.10712683227E+04  0.00000000000E+00 0. -1.
          5    1    4    4  502    0 -0.89898370020E+02 -0.50710036427E+02 -0.15614469807E+03  0.18723376155E+03  0.47000000000E+01 0.  1.
         -5    1    4    4    0  502  0.10536589068E+02 -0.42143035305E+02  0.50955516943E+01  0.43989882712E+02  0.47000000000E+01 0.  1.
<mgrwt>
<rscale>  0 0.10001347E+04</rscale>
<asrwt>0</asrwt>
<pdfrwt beam="1">  1        1 0.24178419E-01 0.10001347E+04</pdfrwt>
<pdfrwt beam="2">  1       -1 0.24479492E+00 0.10001347E+04</pdfrwt>
<totfact> 0.12809757E+01</totfact>
</mgrwt>
</event>
<event>
 9    1  0.4342579E-036  0.1000874E+04  0.7818608E-02  0.8680206E-01
         -2   -1    0    0    0  501 -0.00000000000E+00  0.00000000000E+00  0.23218904178E+03  0.23218904178E+03  0.00000000000E+00 0. -1.
          2   -1    0    0  501    0  0.00000000000E+00 -0.00000000000E+00 -0.10785916211E+04  0.10785916211E+04  0.00000000000E+00 0. -1.
         36    2    1    2    0    0  0.28421709430E-13  0.71054273576E-14 -0.84640257928E+03  0.13107806628E+04  0.10008739281E+04 0.  0.
         25    2    3    3    0    0 -0.12948362058E+03 -0.53736550135E+02 -0.18131724566E+03  0.26110868654E+03  0.12509267681E+03 0.  0.
         35    2    3    3    0    0  0.12948362058E+03  0.53736550135E+02 -0.66508533362E+03  0.10496719763E+04  0.79988694953E+03 0.  0.
         22    1    5    5    0    0  0.22313467628E+02 -0.11795389261E+03 -0.79836275381E+03  0.80733766064E+03  0.00000000000E+00 0.  1.
         22    1    5    5    0    0  0.10717015295E+03  0.17169044274E+03  0.13327742019E+03  0.24233431566E+03  0.00000000000E+00 0.  1.
          5    1    4    4  502    0 -0.58521062508E+02 -0.63610843575E+02 -0.26624270742E+02  0.90564871611E+02  0.47000000000E+01 0.  1.
         -5    1    4    4    0  502 -0.70962558075E+02  0.98742934400E+01 -0.15469297492E+03  0.17054381493E+03  0.47000000000E+01 0.  1.
<mgrwt>
<rscale>  0 0.10008739E+04</rscale>
<asrwt>0</asrwt>
<pdfrwt beam="1">  1        2 0.16593717E+00 0.10008739E+04</pdfrwt>
<pdfrwt beam="2">  1       -2 0.35721391E-01 0.10008739E+04</pdfrwt>
<totfact> 0.19978242E+02</totfact>
</mgrwt>
</event>
<event>
 9    1  0.4342579E-036  0.1000233E+04  0.7818608E-02  0.8680816E-01
          3   -1    0    0  501    0  0.00000000000E+00  0.00000000000E+00  0.11170525102E+04  0.11170525102E+04  0.00000000000E+00 0.  1.
         -3   -1    0    0    0  501 -0.00000000000E+00 -0.00000000000E+00 -0.22390749529E+03  0.22390749529E+03  0.00000000000E+00 0.  1.
         36    2    1    2    0    0  0.42632564146E-13  0.28421709430E-13  0.89314501495E+03  0.13409600055E+04  0.10002328322E+04 0.  0.
         25    2    3    3    0    0  0.76819240901E+02  0.11882424765E+03  0.19054513089E+03  0.26791554219E+03  0.12430162202E+03 0.  0.
         35    2    3    3    0    0 -0.76819240901E+02 -0.11882424765E+03  0.70259988406E+03  0.10730444633E+04  0.79859716105E+03 0.  0.
         22    1    5    5    0    0 -0.37243923897E+03 -0.19663128347E+03  0.63173135108E+03  0.75924920040E+03  0.00000000000E+00 0.  1.
         22    1    5    5    0    0  0.29561999807E+03  0.77807035819E+02  0.70868532983E+02  0.31379526295E+03  0.00000000000E+00 0.  1.
          5    1    4    4  502    0 -0.18900671152E+02 -0.13562917444E+02  0.35043695707E+02  0.42324209484E+02  0.47000000000E+01 0.  1.
         -5    1    4    4    0  502  0.95719912053E+02  0.13238716510E+03  0.15550143518E+03  0.22559133270E+03  0.47000000000E+01 0.  1.
<mgrwt>
<rscale>  0 0.10002328E+04</rscale>
<asrwt>0</asrwt>
<pdfrwt beam="1">  1        3 0.17185423E+00 0.10002328E+04</pdfrwt>
<pdfrwt beam="2">  1       -3 0.34447307E-01 0.10002328E+04</pdfrwt>
<totfact> 0.76907172E+00</totfact>
</mgrwt>
</event>
<event>
 9    1  0.4342579E-036  0.1005413E+04  0.7818608E-02  0.8675900E-01
         -1   -1    0    0    0  501 -0.00000000000E+00  0.00000000000E+00  0.92408535115E+03  0.92408535115E+03  0.00000000000E+00 0. -1.
          1   -1    0    0  501    0  0.00000000000E+00 -0.00000000000E+00 -0.27347443292E+03  0.27347443292E+03  0.00000000000E+00 0. -1.
         36    2    1    2    0    0 -0.71054273576E-14  0.14210854715E-13  0.65061091823E+03  0.11975597841E+04  0.10054127856E+04 0.  0.
         25    2    3    3    0    0 -0.38221933529E+02  0.43411552486E+02 -0.35866338191E+02  0.14178227133E+03  0.12437981813E+03 0.  0.
         35    2    3    3    0    0  0.38221933529E+02 -0.43411552486E+02  0.68647725642E+03  0.10557775127E+04  0.80004353240E+03 0.  0.
         22    1    5    5    0    0 -0.93492231724E+01  0.36215399455E+03  0.47056382252E+03  0.59386297646E+03  0.00000000000E+00 0. -1.
         22    1    5    5    0    0  0.47571156701E+02 -0.40556554703E+03  0.21591343389E+03  0.46191453628E+03  0.00000000000E+00 0. -1.
          5    1    4    4  502    0 -0.52765849263E+01  0.55426369793E+02 -0.72048751672E+02  0.91175859932E+02  0.47000000000E+01 0.  1.
         -5    1    4    4    0  502 -0.32945348603E+02 -0.12014817307E+02  0.36182413481E+02  0.50606411400E+02  0.47000000000E+01 0.  1.
<mgrwt>
<rscale>  0 0.10054128E+04</rscale>
<asrwt>0</asrwt>
<pdfrwt beam="1">  1        1 0.42072990E-01 0.10054128E+04</pdfrwt>
<pdfrwt beam="2">  1       -1 0.14216698E+00 0.10054128E+04</pdfrwt>
<totfact> 0.47193204E+01</totfact>
</mgrwt>
</event>
<event>
 9    1  0.4342579E-036  0.9992375E+03  0.7818608E-02  0.8681764E-01
          2   -1    0    0  501    0  0.00000000000E+00  0.00000000000E+00  0.19176466747E+04  0.19176466747E+04  0.00000000000E+00 0. -1.
         -2   -1    0    0    0  501 -0.00000000000E+00 -0.00000000000E+00 -0.13016937851E+03  0.13016937851E+03  0.00000000000E+00 0. -1.
         36    2    1    2    0    0 -0.28421709430E-13  0.00000000000E+00  0.17874772962E+04  0.20478160532E+04  0.99923746095E+03 0.  0.
         25    2    3    3    0    0  0.10758144801E+03 -0.88651049201E+02  0.28527535863E+03  0.34035851100E+03  0.12259326769E+03 0.  0.
         35    2    3    3    0    0 -0.10758144801E+03  0.88651049201E+02  0.15022019375E+04  0.17074575422E+04  0.79960479035E+03 0.  0.
         22    1    5    5    0    0  0.32509330082E+03  0.93212735703E+02  0.40267126021E+03  0.52585018031E+03  0.00000000000E+00 0.  1.
         22    1    5    5    0    0 -0.43267474883E+03 -0.45616865020E+01  0.10995306773E+04  0.11816073619E+04  0.00000000000E+00 0.  1.
          5    1    4    4  502    0 -0.86267587203E+00  0.29834384044E+01  0.12917694634E+03  0.12929972382E+03  0.47000000000E+01 0. -1.
         -5    1    4    4    0  502  0.10844412388E+03 -0.91634487605E+02  0.15609841229E+03  0.21105878717E+03  0.47000000000E+01 0. -1.
<mgrwt>
<rscale>  0 0.99923746E+03</rscale>
<asrwt>0</asrwt>
<pdfrwt beam="1">  1        2 0.29502255E+00 0.99923746E+03</pdfrwt>
<pdfrwt beam="2">  1       -2 0.20026060E-01 0.99923746E+03</pdfrwt>
<totfact> 0.18628160E+02</totfact>
</mgrwt>
</event>
<event>
 9    1  0.4342579E-036  0.1000895E+04  0.7818608E-02  0.8680186E-01
         -1   -1    0    0    0  501 -0.00000000000E+00  0.00000000000E+00  0.21905689967E+03  0.21905689967E+03  0.00000000000E+00 0. -1.
          1   -1    0    0  501    0  0.00000000000E+00 -0.00000000000E+00 -0.11432988253E+04  0.11432988253E+04  0.00000000000E+00 0. -1.
         36    2    1    2    0    0  0.00000000000E+00  0.00000000000E+00 -0.92424192567E+03  0.13623557250E+04  0.10008945920E+04 0.  0.
         25    2    3    3    0    0 -0.10761502273E+03  0.52277512185E+02 -0.27517438156E+03  0.32540037659E+03  0.12589890160E+03 0.  0.
         35    2    3    3    0    0  0.10761502273E+03 -0.52277512185E+02 -0.64906754411E+03  0.10369553484E+04  0.79979609051E+03 0.  0.
         22    1    5    5    0    0 -0.18540644673E+03 -0.19563216575E+02 -0.71154703461E+03  0.73556607616E+03  0.00000000000E+00 0. -1.
         22    1    5    5    0    0  0.29302146946E+03 -0.32714295609E+02  0.62479490497E+02  0.30138927226E+03  0.00000000000E+00 0. -1.
          5    1    4    4  502    0 -0.78174322957E+02 -0.31754410907E+02 -0.13535205903E+03  0.15956765733E+03  0.47000000000E+01 0. -1.
         -5    1    4    4    0  502 -0.29440699774E+02  0.84031923092E+02 -0.13982232253E+03  0.16583271927E+03  0.47000000000E+01 0. -1.
<mgrwt>
<rscale>  0 0.10008946E+04</rscale>
<asrwt>0</asrwt>
<pdfrwt beam="1">  1        1 0.17589213E+00 0.10008946E+04</pdfrwt>
<pdfrwt beam="2">  1       -1 0.33701061E-01 0.10008946E+04</pdfrwt>
<totfact> 0.10816667E+02</totfact>
</mgrwt>
</event>
<event>
 9    1  0.4342579E-036  0.9986975E+03  0.7818608E-02  0.8682279E-01
         -2   -1    0    0    0  501 -0.00000000000E+00  0.00000000000E+00  0.36769376334E+03  0.36769376334E+03  0.00000000000E+00 0. -1.
          2   -1    0    0  501    0  0.00000000000E+00 -0.00000000000E+00 -0.67814363739E+03  0.67814363739E+03  0.00000000000E+00 0. -1.
         36    2    1    2    0    0  0.14210854715E-13  0.00000000000E+00 -0.31044987405E+03  0.10458374007E+04  0.99869752401E+03 0.  0.
         25    2    3    3    0    0  0.91056660057E+02  0.10418193784E+03 -0.72692613814E+02  0.20045466344E+03  0.12550961906E+03 0.  0.
         35    2    3    3    0    0 -0.91056660057E+02 -0.10418193784E+03 -0.23775726024E+03  0.84538273729E+03  0.79937367120E+03 0.  0.
         22    1    5    5    0    0  0.35238858663E+03 -0.10406238838E+03 -0.12066794296E+03  0.38673951068E+03  0.00000000000E+00 0.  1.
         22    1    5    5    0    0 -0.44344524669E+03 -0.11954946672E+00 -0.11708931728E+03  0.45864322662E+03  0.00000000000E+00 0.  1.
          5    1    4    4  502    0 -0.13808158788E+02  0.59204853575E+02  0.67393269901E+01  0.61346462524E+02  0.47000000000E+01 0.  1.
         -5    1    4    4    0  502  0.10486481885E+03  0.44977084270E+02 -0.79431940804E+02  0.13910820091E+03  0.47000000000E+01 0.  1.
<mgrwt>
<rscale>  0 0.99869752E+03</rscale>
<asrwt>0</asrwt>
<pdfrwt beam="1">  1        2 0.10432979E+00 0.99869752E+03</pdfrwt>
<pdfrwt beam="2">  1       -2 0.56568272E-01 0.99869752E+03</pdfrwt>
<totfact> 0.15129027E+02</totfact>
</mgrwt>
</event>
<event>
 9    1  0.4342579E-036  0.1000247E+04  0.7818608E-02  0.8680803E-01
          2   -1    0    0  501    0  0.00000000000E+00  0.00000000000E+00  0.13694722291E+04  0.13694722291E+04  0.00000000000E+00 0.  1.
         -2   -1    0    0    0  501 -0.00000000000E+00 -0.00000000000E+00 -0.18264208851E+03  0.18264208851E+03  0.00000000000E+00 0.  1.
         36    2    1    2    0    0  0.14210854715E-13  0.00000000000E+00  0.11868301406E+04  0.15521143176E+04  0.10002465058E+04 0.  0.
         25    2    3    3    0    0 -0.72395360839E+02  0.11984406046E+03  0.23741419292E+03  0.30259270516E+03  0.12487257150E+03 0.  0.
         35    2    3    3    0    0  0.72395360839E+02 -0.11984406046E+03  0.94941594769E+03  0.12495216125E+04  0.80019368357E+03 0.  0.
         22    1    5    5    0    0  0.30128534458E+03 -0.35444044519E+03  0.68687242633E+03  0.82957496231E+03  0.00000000000E+00 0. -1.
         22    1    5    5    0    0 -0.22888998374E+03  0.23459638472E+03  0.26254352137E+03  0.41994665017E+03  0.00000000000E+00 0. -1.
          5    1    4    4  502    0  0.31812009363E+02  0.84395109646E+01  0.59755595883E+02  0.68381653419E+02  0.47000000000E+01 0. -1.
         -5    1    4    4    0  502 -0.10420737020E+03  0.11140454950E+03  0.17765859704E+03  0.23421105174E+03  0.47000000000E+01 0. -1.
<mgrwt>
<rscale>  0 0.10002465E+04</rscale>
<asrwt>0</asrwt>
<pdfrwt beam="1">  1        2 0.21068803E+00 0.10002465E+04</pdfrwt>
<pdfrwt beam="2">  1       -2 0.28098784E-01 0.10002465E+04</pdfrwt>
<totfact> 0.20926041E+02</totfact>
</mgrwt>
</event>
<event>
 9    1  0.4342579E-036  0.9991531E+03  0.7818608E-02  0.8681845E-01
         -2   -1    0    0    0  501 -0.00000000000E+00  0.00000000000E+00  0.48978242076E+03  0.48978242076E+03  0.00000000000E+00 0. -1.
          2   -1    0    0  501    0  0.00000000000E+00 -0.00000000000E+00 -0.50956653961E+03  0.50956653961E+03  0.00000000000E+00 0. -1.
         36    2    1    2    0    0  0.14210854715E-13  0.00000000000E+00 -0.19784118845E+02  0.99934896037E+03  0.99915310800E+03 0.  0.
         25    2    3    3    0    0 -0.34052671909E+02  0.42448815358E+02 -0.13228453862E+03  0.18992276559E+03  0.12493987090E+03 0.  0.
         35    2    3    3    0    0  0.34052671909E+02 -0.42448815358E+02  0.11250041977E+03  0.80942619478E+03  0.79972053491E+03 0.  0.
         22    1    5    5    0    0  0.17010241476E+03  0.82448561561E+02 -0.30163713691E+03  0.35597409902E+03  0.00000000000E+00 0. -1.
         22    1    5    5    0    0 -0.13604974285E+03 -0.12489737692E+03  0.41413755669E+03  0.45345209576E+03  0.00000000000E+00 0. -1.
          5    1    4    4  502    0  0.42990092301E+02  0.15742925820E+01 -0.71275062487E+02  0.83383757206E+02  0.47000000000E+01 0.  1.
         -5    1    4    4    0  502 -0.77042764210E+02  0.40874522775E+02 -0.61009476128E+02  0.10653900838E+03  0.47000000000E+01 0.  1.
<mgrwt>
<rscale>  0 0.99915311E+03</rscale>
<asrwt>0</asrwt>
<pdfrwt beam="1">  1        2 0.78394852E-01 0.99915311E+03</pdfrwt>
<pdfrwt beam="2">  1       -2 0.75351142E-01 0.99915311E+03</pdfrwt>
<totfact> 0.11497723E+02</totfact>
</mgrwt>
</event>
<event>
 9    1  0.4342579E-036  0.9971199E+03  0.7818608E-02  0.8683785E-01
         -2   -1    0    0    0  501 -0.00000000000E+00  0.00000000000E+00  0.77365605108E+02  0.77365605108E+02  0.00000000000E+00 0.  1.
          2   -1    0    0  501    0  0.00000000000E+00 -0.00000000000E+00 -0.32128235893E+04  0.32128235893E+04  0.00000000000E+00 0.  1.
         36    2    1    2    0    0  0.00000000000E+00 -0.42632564146E-13 -0.31354579841E+04  0.32901891944E+04  0.99711993479E+03 0.  0.
         25    2    3    3    0    0 -0.41784736267E+02 -0.81880455604E+02 -0.92094813033E+03  0.93438259138E+03  0.12835495755E+03 0.  0.
         35    2    3    3    0    0  0.41784736267E+02  0.81880455604E+02 -0.22145098538E+04  0.23558066030E+04  0.79832354644E+03 0.  0.
         22    1    5    5    0    0 -0.29407144942E+01 -0.26830683111E+03 -0.27420860953E+03  0.38365031600E+03  0.00000000000E+00 0. -1.
         22    1    5    5    0    0  0.44725450762E+02  0.35018728671E+03 -0.19403012443E+04  0.19721562870E+04  0.00000000000E+00 0. -1.
          5    1    4    4  502    0 -0.36574442726E+02 -0.28186302734E+02 -0.80581699121E+03  0.80715256974E+03  0.47000000000E+01 0. -1.
         -5    1    4    4    0  502 -0.52102935419E+01 -0.53694152870E+02 -0.11513113912E+03  0.12723002164E+03  0.47000000000E+01 0. -1.
<mgrwt>
<rscale>  0 0.99711993E+03</rscale>
<asrwt>0</asrwt>
<pdfrwt beam="1">  1        2 0.49428053E+00 0.99711993E+03</pdfrwt>
<pdfrwt beam="2">  1       -2 0.11902401E-01 0.99711993E+03</pdfrwt>
<totfact> 0.70271980E+01</totfact>
</mgrwt>
</event>
<event>
 9    1  0.4342579E-036  0.9998809E+03  0.7818608E-02  0.8681151E-01
          2   -1    0    0  501    0  0.00000000000E+00  0.00000000000E+00  0.18040672041E+04  0.18040672041E+04  0.00000000000E+00 0. -1.
         -2   -1    0    0    0  501 -0.00000000000E+00 -0.00000000000E+00 -0.13854276089E+03  0.13854276089E+03  0.00000000000E+00 0. -1.
         36    2    1    2    0    0  0.28421709430E-13 -0.71054273576E-14  0.16655244432E+04  0.19426099650E+04  0.99988089549E+03 0.  0.
         25    2    3    3    0    0  0.12899561829E+03  0.52351367523E+02  0.33823952517E+03  0.38675911115E+03  0.12568253041E+03 0.  0.
         35    2    3    3    0    0 -0.12899561829E+03 -0.52351367523E+02  0.13272849180E+04  0.15558508538E+04  0.79975376868E+03 0.  0.
         22    1    5    5    0    0 -0.33556835532E+03  0.12578113797E+01  0.16464466389E+03  0.37378545789E+03  0.00000000000E+00 0.  1.
         22    1    5    5    0    0  0.20657273703E+03 -0.53609178903E+02  0.11626402541E+04  0.11820653960E+04  0.00000000000E+00 0.  1.
          5    1    4    4  502    0  0.11820690438E+03  0.86492964193E+02  0.30157598613E+03  0.33529698852E+03  0.47000000000E+01 0.  1.
         -5    1    4    4    0  502  0.10788713919E+02 -0.34141596670E+02  0.36663539033E+02  0.51462122630E+02  0.47000000000E+01 0.  1.
<mgrwt>
<rscale>  0 0.99988090E+03</rscale>
<asrwt>0</asrwt>
<pdfrwt beam="1">  1        2 0.27754878E+00 0.99988090E+03</pdfrwt>
<pdfrwt beam="2">  1       -2 0.21314272E-01 0.99988090E+03</pdfrwt>
<totfact> 0.19381365E+02</totfact>
</mgrwt>
</event>
<event>
 9    1  0.4342579E-036  0.9997939E+03  0.7818608E-02  0.8681234E-01
         -1   -1    0    0    0  501 -0.00000000000E+00  0.00000000000E+00  0.20896263788E+03  0.20896263788E+03  0.00000000000E+00 0.  1.
          1   -1    0    0  501    0  0.00000000000E+00 -0.00000000000E+00 -0.11958929891E+04  0.11958929891E+04  0.00000000000E+00 0.  1.
         36    2    1    2    0    0  0.28421709430E-13  0.35527136788E-14 -0.98693035118E+03  0.14048556269E+04  0.99979388600E+03 0.  0.
         25    2    3    3    0    0 -0.83807208614E+02  0.15523066166E+02 -0.34283868856E+03  0.37472002802E+03  0.12494846628E+03 0.  0.
         35    2    3    3    0    0  0.83807208614E+02 -0.15523066166E+02 -0.64409166262E+03  0.10301355989E+04  0.79941270226E+03 0.  0.
         22    1    5    5    0    0  0.36924031319E+03  0.47225916480E+02 -0.63700964944E+03  0.73780077904E+03  0.00000000000E+00 0.  1.
         22    1    5    5    0    0 -0.28543310457E+03 -0.62748982646E+02 -0.70820131784E+01  0.29233481989E+03  0.00000000000E+00 0.  1.
          5    1    4    4  502    0 -0.70804641381E+02 -0.43574430905E+01 -0.34321564512E+03  0.35050157433E+03  0.47000000000E+01 0. -1.
         -5    1    4    4    0  502 -0.13002567233E+02  0.19880509256E+02  0.37695655900E+00  0.24218453691E+02  0.47000000000E+01 0. -1.
<mgrwt>
<rscale>  0 0.99979389E+03</rscale>
<asrwt>0</asrwt>
<pdfrwt beam="1">  1        1 0.18398354E+00 0.99979389E+03</pdfrwt>
<pdfrwt beam="2">  1       -1 0.32148098E-01 0.99979389E+03</pdfrwt>
<totfact> 0.10715136E+02</totfact>
</mgrwt>
</event>
<event>
 9    1  0.4342579E-036  0.1000392E+04  0.7818608E-02  0.8680664E-01
         -2   -1    0    0    0  501 -0.00000000000E+00  0.00000000000E+00  0.50185009335E+03  0.50185009335E+03  0.00000000000E+00 0. -1.
          2   -1    0    0  501    0  0.00000000000E+00 -0.00000000000E+00 -0.49854769895E+03  0.49854769895E+03  0.00000000000E+00 0. -1.
         36    2    1    2    0    0 -0.14210854715E-13  0.14210854715E-13  0.33023944004E+01  0.10003977923E+04  0.10003923416E+04 0.  0.
         25    2    3    3    0    0  0.99850479563E+02 -0.70599633330E+02  0.65854067034E+02  0.18705026974E+03  0.12528614756E+03 0.  0.
         35    2    3    3    0    0 -0.99850479563E+02  0.70599633330E+02 -0.62551672633E+02  0.81334752256E+03  0.80166517587E+03 0.  0.
         22    1    5    5    0    0 -0.34189415130E+03  0.20595959379E+03 -0.25693428749E+03  0.47468536217E+03  0.00000000000E+00 0. -1.
         22    1    5    5    0    0  0.24204367174E+03 -0.13535996046E+03  0.19438261485E+03  0.33866216039E+03  0.00000000000E+00 0. -1.
          5    1    4    4  502    0  0.23185952714E+02 -0.37705741010E+02  0.89718077847E+02  0.10015355611E+03  0.47000000000E+01 0. -1.
         -5    1    4    4    0  502  0.76664526849E+02 -0.32893892320E+02 -0.23864010814E+02  0.86896713637E+02  0.47000000000E+01 0. -1.
<mgrwt>
<rscale>  0 0.10003923E+04</rscale>
<asrwt>0</asrwt>
<pdfrwt beam="1">  1        2 0.76699646E-01 0.10003923E+04</pdfrwt>
<pdfrwt beam="2">  1       -2 0.77207707E-01 0.10003923E+04</pdfrwt>
<totfact> 0.11162697E+02</totfact>
</mgrwt>
</event>
<event>
 9    1  0.4342579E-036  0.9960814E+03  0.7818608E-02  0.8684779E-01
          2   -1    0    0  501    0  0.00000000000E+00  0.00000000000E+00  0.28514345037E+04  0.28514345037E+04  0.00000000000E+00 0.  1.
         -2   -1    0    0    0  501 -0.00000000000E+00 -0.00000000000E+00 -0.86989382835E+02  0.86989382835E+02  0.00000000000E+00 0.  1.
         36    2    1    2    0    0  0.00000000000E+00  0.00000000000E+00  0.27644451209E+04  0.29384238866E+04  0.99608137755E+03 0.  0.
         25    2    3    3    0    0 -0.12316796978E+02 -0.12678728311E+03  0.65161718022E+03  0.67558334489E+03  0.12482462776E+03 0.  0.
         35    2    3    3    0    0  0.12316796978E+02  0.12678728311E+03  0.21128279407E+04  0.22628405417E+04  0.80011167439E+03 0.  0.
         22    1    5    5    0    0 -0.36403179156E+02 -0.19200359107E+03  0.18097884040E+04  0.18203089402E+04  0.00000000000E+00 0.  1.
         22    1    5    5    0    0  0.48719976134E+02  0.31879087417E+03  0.30303953666E+03  0.44253160148E+03  0.00000000000E+00 0.  1.
          5    1    4    4  502    0  0.48918150308E+02 -0.91521363039E+02  0.45175088078E+03  0.46354082195E+03  0.47000000000E+01 0. -1.
         -5    1    4    4    0  502 -0.61234947286E+02 -0.35265920066E+02  0.19986629944E+03  0.21204252295E+03  0.47000000000E+01 0. -1.
<mgrwt>
<rscale>  0 0.99608138E+03</rscale>
<asrwt>0</asrwt>
<pdfrwt beam="1">  1        2 0.43868216E+00 0.99608138E+03</pdfrwt>
<pdfrwt beam="2">  1       -2 0.13382984E-01 0.99608138E+03</pdfrwt>
<totfact> 0.10138000E+02</totfact>
</mgrwt>
</event>
<event>
 9    1  0.4342579E-036  0.9997156E+03  0.7818608E-02  0.8681309E-01
          2   -1    0    0  501    0  0.00000000000E+00  0.00000000000E+00  0.93450493289E+03  0.93450493289E+03  0.00000000000E+00 0. -1.
         -2   -1    0    0    0  501 -0.00000000000E+00 -0.00000000000E+00 -0.26736917043E+03  0.26736917043E+03  0.00000000000E+00 0. -1.
         36    2    1    2    0    0  0.00000000000E+00  0.00000000000E+00  0.66713576246E+03  0.12018741033E+04  0.99971557689E+03 0.  0.
         25    2    3    3    0    0 -0.95864040881E+02  0.77641486562E+02  0.45491202118E+02  0.18130472217E+03  0.12483524358E+03 0.  0.
         35    2    3    3    0    0  0.95864040881E+02 -0.77641486562E+02  0.62164456034E+03  0.10205693811E+04  0.79993861488E+03 0.  0.
         22    1    5    5    0    0 -0.13156813147E+03 -0.31604188907E+03  0.59948041778E+03  0.69034007574E+03  0.00000000000E+00 0. -1.
         22    1    5    5    0    0  0.22743217236E+03  0.23840040251E+03  0.22164142560E+02  0.33022930541E+03  0.00000000000E+00 0. -1.
          5    1    4    4  502    0 -0.47890775963E-01  0.25140006370E+02  0.65333339154E+02  0.70160939409E+02  0.47000000000E+01 0.  1.
         -5    1    4    4    0  502 -0.95816150106E+02  0.52501480192E+02 -0.19842137036E+02  0.11114378276E+03  0.47000000000E+01 0.  1.
<mgrwt>
<rscale>  0 0.99971558E+03</rscale>
<asrwt>0</asrwt>
<pdfrwt beam="1">  1        2 0.14376999E+00 0.99971558E+03</pdfrwt>
<pdfrwt beam="2">  1       -2 0.41133719E-01 0.99971558E+03</pdfrwt>
<totfact> 0.18821265E+02</totfact>
</mgrwt>
</event>
<event>
 9    1  0.4342579E-036  0.9998272E+03  0.7818608E-02  0.8681203E-01
         -2   -1    0    0    0  501 -0.00000000000E+00  0.00000000000E+00  0.96317293060E+03  0.96317293060E+03  0.00000000000E+00 0.  1.
          2   -1    0    0  501    0  0.00000000000E+00 -0.00000000000E+00 -0.25946907741E+03  0.25946907741E+03  0.00000000000E+00 0.  1.
         36    2    1    2    0    0  0.28421709430E-13  0.13322676296E-13  0.70370385320E+03  0.12226420080E+04  0.99982716844E+03 0.  0.
         25    2    3    3    0    0  0.13883855166E+03 -0.27397413263E+01  0.10775742193E+03  0.21543231098E+03  0.12456230980E+03 0.  0.
         35    2    3    3    0    0 -0.13883855166E+03  0.27397413263E+01  0.59594643126E+03  0.10072096970E+04  0.80002223422E+03 0.  0.
         22    1    5    5    0    0 -0.37787040018E+03  0.18441003420E+03  0.56656507279E+03  0.70554169384E+03  0.00000000000E+00 0. -1.
         22    1    5    5    0    0  0.23903184852E+03 -0.18167029287E+03  0.29381358474E+02  0.30166800318E+03  0.00000000000E+00 0. -1.
          5    1    4    4  502    0  0.79960215812E+02  0.65520925345E+01  0.12899425676E+03  0.15198083533E+03  0.47000000000E+01 0. -1.
         -5    1    4    4    0  502  0.58878335849E+02 -0.92918338608E+01 -0.21236834831E+02  0.63451475652E+02  0.47000000000E+01 0. -1.
<mgrwt>
<rscale>  0 0.99982717E+03</rscale>
<asrwt>0</asrwt>
<pdfrwt beam="1">  1        2 0.39918320E-01 0.99982717E+03</pdfrwt>
<pdfrwt beam="2">  1       -2 0.14818045E+00 0.99982717E+03</pdfrwt>
<totfact> 0.45318983E+01</totfact>
</mgrwt>
</event>
<event>
 9    1  0.4342579E-036  0.1004756E+04  0.7818608E-02  0.8676522E-01
          1   -1    0    0  501    0  0.00000000000E+00  0.00000000000E+00  0.89608462343E+03  0.89608462343E+03  0.00000000000E+00 0. -1.
         -1   -1    0    0    0  501 -0.00000000000E+00 -0.00000000000E+00 -0.28165180507E+03  0.28165180507E+03  0.00000000000E+00 0. -1.
         36    2    1    2    0    0  0.00000000000E+00  0.00000000000E+00  0.61443281835E+03  0.11777364285E+04  0.10047563917E+04 0.  0.
         25    2    3    3    0    0 -0.41495235139E+02 -0.13729523930E+03  0.14660963274E+03  0.24005708646E+03  0.12474447111E+03 0.  0.
         35    2    3    3    0    0  0.41495235139E+02  0.13729523930E+03  0.46782318561E+03  0.93767934204E+03  0.79988260277E+03 0.  0.
         22    1    5    5    0    0  0.15922376652E+03  0.28780108395E+02 -0.19637948028E+03  0.25445117948E+03  0.00000000000E+00 0.  1.
         22    1    5    5    0    0 -0.11772853138E+03  0.10851513090E+03  0.66420266589E+03  0.68322816256E+03  0.00000000000E+00 0.  1.
          5    1    4    4  502    0 -0.22945109902E+02 -0.15818955305E+03  0.13557870599E+03  0.20965230331E+03  0.47000000000E+01 0.  1.
         -5    1    4    4    0  502 -0.18550125237E+02  0.20894313755E+02  0.11030926752E+02  0.30404783154E+02  0.47000000000E+01 0.  1.
<mgrwt>
<rscale>  0 0.10047564E+04</rscale>
<asrwt>0</asrwt>
<pdfrwt beam="1">  1        1 0.13785917E+00 0.10047564E+04</pdfrwt>
<pdfrwt beam="2">  1       -1 0.43331047E-01 0.10047564E+04</pdfrwt>
<totfact> 0.10876567E+02</totfact>
</mgrwt>
</event>
<event>
 9    1  0.4342579E-036  0.1000749E+04  0.7818608E-02  0.8680325E-01
          2   -1    0    0  501    0  0.00000000000E+00  0.00000000000E+00  0.17244341286E+04  0.17244341286E+04  0.00000000000E+00 0.  1.
         -2   -1    0    0    0  501 -0.00000000000E+00 -0.00000000000E+00 -0.14519240846E+03  0.14519240846E+03  0.00000000000E+00 0.  1.
         36    2    1    2    0    0  0.00000000000E+00  0.71054273576E-14  0.15792417202E+04  0.18696265371E+04  0.10007492081E+04 0.  0.
         25    2    3    3    0    0 -0.13653388015E+03 -0.36107696332E+02  0.33107158379E+03  0.38074048886E+03  0.12413565200E+03 0.  0.
         35    2    3    3    0    0  0.13653388015E+03  0.36107696332E+02  0.12481701364E+04  0.14888860482E+04  0.79931702667E+03 0.  0.
         22    1    5    5    0    0 -0.19184959027E+03 -0.92455895997E+02  0.10752168609E+04  0.10961047651E+04  0.00000000000E+00 0.  1.
         22    1    5    5    0    0  0.32838347042E+03  0.12856359233E+03  0.17295327546E+03  0.39278128317E+03  0.00000000000E+00 0.  1.
          5    1    4    4  502    0 -0.11873419040E+03 -0.78087956795E+02  0.24987030778E+03  0.28749399589E+03  0.47000000000E+01 0. -1.
         -5    1    4    4    0  502 -0.17799689756E+02  0.41980260463E+02  0.81201276012E+02  0.93246492963E+02  0.47000000000E+01 0. -1.
<mgrwt>
<rscale>  0 0.10007492E+04</rscale>
<asrwt>0</asrwt>
<pdfrwt beam="1">  1        2 0.26529754E+00 0.10007492E+04</pdfrwt>
<pdfrwt beam="2">  1       -2 0.22337295E-01 0.10007492E+04</pdfrwt>
<totfact> 0.19802667E+02</totfact>
</mgrwt>
</event>
<event>
 9    1  0.4342579E-036  0.9981790E+03  0.7818608E-02  0.8682774E-01
          2   -1    0    0  501    0  0.00000000000E+00  0.00000000000E+00  0.17624542554E+04  0.17624542554E+04  0.00000000000E+00 0. -1.
         -2   -1    0    0    0  501 -0.00000000000E+00 -0.00000000000E+00 -0.14133151732E+03  0.14133151732E+03  0.00000000000E+00 0. -1.
         36    2    1    2    0    0  0.00000000000E+00 -0.21316282073E-13  0.16211227381E+04  0.19037857727E+04  0.99817901026E+03 0.  0.
         25    2    3    3    0    0 -0.50714955501E+02  0.83127887293E+01  0.60127902903E+02  0.14819367012E+03  0.12531915252E+03 0.  0.
         35    2    3    3    0    0  0.50714955501E+02 -0.83127887293E+01  0.15609948352E+04  0.17555921026E+04  0.80172167622E+03 0.  0.
         22    1    5    5    0    0  0.16711187632E+02 -0.27868342923E+03  0.14230274729E+04  0.14501554766E+04  0.00000000000E+00 0. -1.
         22    1    5    5    0    0  0.34003767869E+02  0.27037064050E+03  0.13796736223E+03  0.30543662602E+03  0.00000000000E+00 0. -1.
          5    1    4    4  502    0  0.22459811562E+02  0.43829352353E+02  0.41602266252E+02  0.64639723239E+02  0.47000000000E+01 0. -1.
         -5    1    4    4    0  502 -0.73174767063E+02 -0.35516563624E+02  0.18525636651E+02  0.83553946883E+02  0.47000000000E+01 0. -1.
<mgrwt>
<rscale>  0 0.99817901E+03</rscale>
<asrwt>0</asrwt>
<pdfrwt beam="1">  1        2 0.27114679E+00 0.99817901E+03</pdfrwt>
<pdfrwt beam="2">  1       -2 0.21743312E-01 0.99817901E+03</pdfrwt>
<totfact> 0.19759191E+02</totfact>
</mgrwt>
</event>
<event>
 9    1  0.4342579E-036  0.1002664E+04  0.7818608E-02  0.8678505E-01
         -3   -1    0    0    0  501 -0.00000000000E+00  0.00000000000E+00  0.36235606328E+03  0.36235606328E+03  0.00000000000E+00 0. -1.
          3   -1    0    0  501    0  0.00000000000E+00 -0.00000000000E+00 -0.69361012961E+03  0.69361012961E+03  0.00000000000E+00 0. -1.
         36    2    1    2    0    0 -0.71054273576E-14  0.28421709430E-13 -0.33125406632E+03  0.10559661929E+04  0.10026641233E+04 0.  0.
         25    2    3    3    0    0 -0.61701941016E+02 -0.19623471265E+02  0.71719021135E+02  0.15780552167E+03  0.12476680058E+03 0.  0.
         35    2    3    3    0    0  0.61701941016E+02  0.19623471265E+02 -0.40297308746E+03  0.89816067123E+03  0.80007066686E+03 0.  0.
         22    1    5    5    0    0 -0.16804592126E+03  0.17410926019E+03 -0.53816142307E+03  0.59006032185E+03  0.00000000000E+00 0. -1.
         22    1    5    5    0    0  0.22974786227E+03 -0.15448578893E+03  0.13518833562E+03  0.30810034938E+03  0.00000000000E+00 0. -1.
          5    1    4    4  502    0  0.16582927693E+02 -0.10017425273E+02 -0.25602395717E+02  0.32448651227E+02  0.47000000000E+01 0. -1.
         -5    1    4    4    0  502 -0.78284868709E+02 -0.96060459916E+01  0.97321416852E+02  0.12535687044E+03  0.47000000000E+01 0. -1.
<mgrwt>
<rscale>  0 0.10026641E+04</rscale>
<asrwt>0</asrwt>
<pdfrwt beam="1">  1        3 0.10670925E+00 0.10026641E+04</pdfrwt>
<pdfrwt beam="2">  1       -3 0.55747087E-01 0.10026641E+04</pdfrwt>
<totfact> 0.98942007E+00</totfact>
</mgrwt>
</event>
<event>
 9    1  0.4342579E-036  0.9999837E+03  0.7818608E-02  0.8681053E-01
         -2   -1    0    0    0  501 -0.00000000000E+00  0.00000000000E+00  0.28630850603E+03  0.28630850603E+03  0.00000000000E+00 0. -1.
          2   -1    0    0  501    0  0.00000000000E+00 -0.00000000000E+00 -0.87315557351E+03  0.87315557351E+03  0.00000000000E+00 0. -1.
         36    2    1    2    0    0 -0.13766765505E-13  0.28421709430E-13 -0.58684706748E+03  0.11594640795E+04  0.99998373543E+03 0.  0.
         25    2    3    3    0    0  0.93327125360E+00 -0.14004349951E+03 -0.93745377845E+02  0.20993280339E+03  0.12518200078E+03 0.  0.
         35    2    3    3    0    0 -0.93327125360E+00  0.14004349951E+03 -0.49310168963E+03  0.94953127615E+03  0.79927924740E+03 0.  0.
         22    1    5    5    0    0 -0.21904695057E+03 -0.25794591232E+03 -0.11065223072E+03  0.35603592010E+03  0.00000000000E+00 0. -1.
         22    1    5    5    0    0  0.21811367932E+03  0.39798941183E+03 -0.38244945891E+03  0.59349535605E+03  0.00000000000E+00 0. -1.
          5    1    4    4  502    0  0.48968015847E+01 -0.31256506468E+02 -0.95752893990E+02  0.10095372489E+03  0.47000000000E+01 0.  1.
         -5    1    4    4    0  502 -0.39635303311E+01 -0.10878699304E+03  0.20075161442E+01  0.10897907849E+03  0.47000000000E+01 0.  1.
<mgrwt>
<rscale>  0 0.99998374E+03</rscale>
<asrwt>0</asrwt>
<pdfrwt beam="1">  1        2 0.13433163E+00 0.99998374E+03</pdfrwt>
<pdfrwt beam="2">  1       -2 0.44047463E-01 0.99998374E+03</pdfrwt>
<totfact> 0.18088992E+02</totfact>
</mgrwt>
</event>
<event>
 9    1  0.4342579E-036  0.1002127E+04  0.7818608E-02  0.8679015E-01
         -2   -1    0    0    0  501 -0.00000000000E+00  0.00000000000E+00  0.15600966290E+03  0.15600966290E+03  0.00000000000E+00 0. -1.
          2   -1    0    0  501    0  0.00000000000E+00 -0.00000000000E+00 -0.16092875864E+04  0.16092875864E+04  0.00000000000E+00 0. -1.
         36    2    1    2    0    0 -0.71054273576E-14  0.17763568394E-13 -0.14532779235E+04  0.17652972493E+04  0.10021265666E+04 0.  0.
         25    2    3    3    0    0  0.32601640093E+02 -0.52711805762E+01 -0.52088600854E+03  0.53676490347E+03  0.12531430651E+03 0.  0.
         35    2    3    3    0    0 -0.32601640093E+02  0.52711805762E+01 -0.93239191500E+03  0.12285323459E+04  0.79927866818E+03 0.  0.
         22    1    5    5    0    0  0.62062832170E+02  0.36434251229E+03 -0.23366767791E+03  0.43726175810E+03  0.00000000000E+00 0. -1.
         22    1    5    5    0    0 -0.94664472262E+02 -0.35907133171E+03 -0.69872423709E+03  0.79127058776E+03  0.00000000000E+00 0. -1.
          5    1    4    4  502    0  0.59215375344E+02  0.26737691265E+02 -0.15018016176E+03  0.16369952901E+03  0.47000000000E+01 0.  1.
         -5    1    4    4    0  502 -0.26613735252E+02 -0.32008871841E+02 -0.37070584678E+03  0.37306537446E+03  0.47000000000E+01 0.  1.
<mgrwt>
<rscale>  0 0.10021266E+04</rscale>
<asrwt>0</asrwt>
<pdfrwt beam="1">  1        2 0.24758271E+00 0.10021266E+04</pdfrwt>
<pdfrwt beam="2">  1       -2 0.24001486E-01 0.10021266E+04</pdfrwt>
<totfact> 0.20264488E+02</totfact>
</mgrwt>
</event>
<event>
 9    1  0.4342579E-036  0.1000088E+04  0.7818608E-02  0.8680954E-01
          2   -1    0    0  501    0  0.00000000000E+00  0.00000000000E+00  0.69400096608E+03  0.69400096608E+03  0.00000000000E+00 0.  1.
         -2   -1    0    0    0  501 -0.00000000000E+00 -0.00000000000E+00 -0.36029322002E+03  0.36029322002E+03  0.00000000000E+00 0.  1.
         36    2    1    2    0    0  0.00000000000E+00  0.00000000000E+00  0.33370774605E+03  0.10542941861E+04  0.10000876817E+04 0.  0.
         25    2    3    3    0    0 -0.13458228315E+03  0.38585932088E+02  0.72602989588E+02  0.20864858702E+03  0.13660810253E+03 0.  0.
         35    2    3    3    0    0  0.13458228315E+03 -0.38585932088E+02  0.26110475646E+03  0.84564559907E+03  0.79204767552E+03 0.  0.
         22    1    5    5    0    0  0.47279592824E+02  0.12382030129E+03 -0.26057164147E+03  0.29234296169E+03  0.00000000000E+00 0. -1.
         22    1    5    5    0    0  0.87302690330E+02 -0.16240623338E+03  0.52167639793E+03  0.55330263739E+03  0.00000000000E+00 0. -1.
          5    1    4    4  502    0 -0.50870063336E+02  0.68207484355E+02  0.83198177599E+02  0.11909681365E+03  0.47000000000E+01 0. -1.
         -5    1    4    4    0  502 -0.83712219818E+02 -0.29621552267E+02 -0.10595188011E+02  0.89551773375E+02  0.47000000000E+01 0. -1.
<mgrwt>
<rscale>  0 0.10000877E+04</rscale>
<asrwt>0</asrwt>
<pdfrwt beam="1">  1        2 0.10676938E+00 0.10000877E+04</pdfrwt>
<pdfrwt beam="2">  1       -2 0.55429726E-01 0.10000877E+04</pdfrwt>
<totfact> 0.15334433E+02</totfact>
</mgrwt>
</event>
<event>
 9    1  0.4342579E-036  0.9991158E+03  0.7818608E-02  0.8681880E-01
         -2   -1    0    0    0  501 -0.00000000000E+00  0.00000000000E+00  0.36340729744E+03  0.36340729744E+03  0.00000000000E+00 0. -1.
          2   -1    0    0  501    0  0.00000000000E+00 -0.00000000000E+00 -0.68671733098E+03  0.68671733098E+03  0.00000000000E+00 0. -1.
         36    2    1    2    0    0  0.28421709430E-13  0.00000000000E+00 -0.32331003354E+03  0.10501246284E+04  0.99911578780E+03 0.  0.
         25    2    3    3    0    0 -0.54792842439E+02  0.11410207858E+02 -0.19419899202E+03  0.23717357963E+03  0.12411933753E+03 0.  0.
         35    2    3    3    0    0  0.54792842439E+02 -0.11410207858E+02 -0.12911104152E+03  0.81295104879E+03  0.80067927303E+03 0.  0.
         22    1    5    5    0    0 -0.23604698186E+03  0.29651277534E+03 -0.55407347944E+02  0.38302477438E+03  0.00000000000E+00 0.  1.
         22    1    5    5    0    0  0.29083982430E+03 -0.30792298320E+03 -0.73703693579E+02  0.42992627441E+03  0.00000000000E+00 0.  1.
          5    1    4    4  502    0 -0.89040812473E+02  0.27069049227E+02 -0.16420136292E+03  0.18879930428E+03  0.47000000000E+01 0. -1.
         -5    1    4    4    0  502  0.34247970034E+02 -0.15658841370E+02 -0.29997629105E+02  0.48374275358E+02  0.47000000000E+01 0. -1.
<mgrwt>
<rscale>  0 0.99911579E+03</rscale>
<asrwt>0</asrwt>
<pdfrwt beam="1">  1        2 0.10564882E+00 0.99911579E+03</pdfrwt>
<pdfrwt beam="2">  1       -2 0.55908815E-01 0.99911579E+03</pdfrwt>
<totfact> 0.15262338E+02</totfact>
</mgrwt>
</event>
<event>
 9    1  0.4342579E-036  0.9993320E+03  0.7818608E-02  0.8681674E-01
          2   -1    0    0  501    0  0.00000000000E+00  0.00000000000E+00  0.11428396412E+04  0.11428396412E+04  0.00000000000E+00 0.  1.
         -2   -1    0    0    0  501 -0.00000000000E+00 -0.00000000000E+00 -0.21846117206E+03  0.21846117206E+03  0.00000000000E+00 0.  1.
         36    2    1    2    0    0  0.21316282073E-13 -0.14210854715E-13  0.92437846910E+03  0.13613008132E+04  0.99933195184E+03 0.  0.
         25    2    3    3    0    0 -0.43330483093E+02 -0.94684611858E+01 -0.63363746156E+01  0.13304892214E+03  0.12527842398E+03 0.  0.
         35    2    3    3    0    0  0.43330483093E+02  0.94684611858E+01  0.93071484372E+03  0.12282518911E+04  0.80025333810E+03 0.  0.
         22    1    5    5    0    0 -0.82360000240E+02 -0.32102579918E+03  0.77306218878E+03  0.84110991024E+03  0.00000000000E+00 0.  1.
         22    1    5    5    0    0  0.12569048333E+03  0.33049426036E+03  0.15765265494E+03  0.38714198086E+03  0.00000000000E+00 0.  1.
          5    1    4    4  502    0 -0.32867331803E+02  0.43396376599E+02  0.35069129786E+02  0.64926426559E+02  0.47000000000E+01 0.  1.
         -5    1    4    4    0  502 -0.10463151290E+02 -0.52864837785E+02 -0.41405504402E+02  0.68122495577E+02  0.47000000000E+01 0.  1.
<mgrwt>
<rscale>  0 0.99933195E+03</rscale>
<asrwt>0</asrwt>
<pdfrwt beam="1">  1        2 0.17582148E+00 0.99933195E+03</pdfrwt>
<pdfrwt beam="2">  1       -2 0.33609412E-01 0.99933195E+03</pdfrwt>
<totfact> 0.20466109E+02</totfact>
</mgrwt>
</event>
<event>
 9    1  0.4342579E-036  0.9996751E+03  0.7818608E-02  0.8681347E-01
         -2   -1    0    0    0  501 -0.00000000000E+00  0.00000000000E+00  0.14039284743E+03  0.14039284743E+03  0.00000000000E+00 0.  1.
          2   -1    0    0  501    0  0.00000000000E+00 -0.00000000000E+00 -0.17795606878E+04  0.17795606878E+04  0.00000000000E+00 0.  1.
         36    2    1    2    0    0 -0.71054273576E-14  0.00000000000E+00 -0.16391678403E+04  0.19199535352E+04  0.99967513148E+03 0.  0.
         25    2    3    3    0    0 -0.62420492524E+02  0.10713817906E+03 -0.16035007568E+03  0.23826038183E+03  0.12522362189E+03 0.  0.
         35    2    3    3    0    0  0.62420492524E+02 -0.10713817906E+03 -0.14788177647E+04  0.16816931534E+04  0.79108468174E+03 0.  0.
         22    1    5    5    0    0 -0.90250066382E+02 -0.34111521532E+03 -0.13068067402E+04  0.13536057480E+04  0.00000000000E+00 0. -1.
         22    1    5    5    0    0  0.15267055891E+03  0.23397703626E+03 -0.17201102442E+03  0.32808740539E+03  0.00000000000E+00 0. -1.
          5    1    4    4  502    0 -0.43856061904E+02  0.65812449763E+02 -0.84459012728E+01  0.79674688314E+02  0.47000000000E+01 0.  1.
         -5    1    4    4    0  502 -0.18564430620E+02  0.41325729298E+02 -0.15190417441E+03  0.15858569352E+03  0.47000000000E+01 0.  1.
<mgrwt>
<rscale>  0 0.99967513E+03</rscale>
<asrwt>0</asrwt>
<pdfrwt beam="1">  1        2 0.27377856E+00 0.99967513E+03</pdfrwt>
<pdfrwt beam="2">  1       -2 0.21598900E-01 0.99967513E+03</pdfrwt>
<totfact> 0.19551097E+02</totfact>
</mgrwt>
</event>
<event>
 9    1  0.4342579E-036  0.9999546E+03  0.7818608E-02  0.8681081E-01
          2   -1    0    0  501    0  0.00000000000E+00  0.00000000000E+00  0.51868477202E+03  0.51868477202E+03  0.00000000000E+00 0. -1.
         -2   -1    0    0    0  501 -0.00000000000E+00 -0.00000000000E+00 -0.48194458400E+03  0.48194458400E+03  0.00000000000E+00 0. -1.
         36    2    1    2    0    0  0.14210854715E-13  0.00000000000E+00  0.36740188022E+02  0.10006293560E+04  0.99995463232E+03 0.  0.
         25    2    3    3    0    0 -0.49370481951E+02  0.27397578644E+02  0.13451892556E+03  0.19218632950E+03  0.12510864122E+03 0.  0.
         35    2    3    3    0    0  0.49370481951E+02 -0.27397578644E+02 -0.97778737540E+02  0.80844302652E+03  0.80051943999E+03 0.  0.
         22    1    5    5    0    0 -0.33845940882E+03  0.10208305957E+02 -0.21553353096E+03  0.40138969082E+03  0.00000000000E+00 0. -1.
         22    1    5    5    0    0  0.38782989077E+03 -0.37605884601E+02  0.11775479342E+03  0.40705333570E+03  0.00000000000E+00 0. -1.
          5    1    4    4  502    0  0.24013880718E+02  0.53531438764E+02  0.50995403857E+02  0.77877484665E+02  0.47000000000E+01 0. -1.
         -5    1    4    4    0  502 -0.73384362669E+02 -0.26133860120E+02  0.83523521705E+02  0.11430884483E+03  0.47000000000E+01 0. -1.
<mgrwt>
<rscale>  0 0.99995463E+03</rscale>
<asrwt>0</asrwt>
<pdfrwt beam="1">  1        2 0.79797658E-01 0.99995463E+03</pdfrwt>
<pdfrwt beam="2">  1       -2 0.74145320E-01 0.99995463E+03</pdfrwt>
<totfact> 0.11676672E+02</totfact>
</mgrwt>
</event>
<event>
 9    1  0.4342579E-036  0.1000927E+04  0.7818608E-02  0.8680155E-01
         -3   -1    0    0    0  501 -0.00000000000E+00  0.00000000000E+00  0.18645084295E+03  0.18645084295E+03  0.00000000000E+00 0.  1.
          3   -1    0    0  501    0  0.00000000000E+00 -0.00000000000E+00 -0.13433240325E+04  0.13433240325E+04  0.00000000000E+00 0.  1.
         36    2    1    2    0    0 -0.17763568394E-14  0.00000000000E+00 -0.11568731895E+04  0.15297748754E+04  0.10009273664E+04 0.  0.
         25    2    3    3    0    0 -0.13781810107E+02 -0.13126805984E+03 -0.29251767357E+03  0.34450314863E+03  0.12527804374E+03 0.  0.
         35    2    3    3    0    0  0.13781810107E+02  0.13126805984E+03 -0.86435551596E+03  0.11852717268E+04  0.80021082632E+03 0.  0.
         22    1    5    5    0    0 -0.15160007235E+03  0.43665024678E+03 -0.45745515601E+03  0.65031626130E+03  0.00000000000E+00 0.  1.
         22    1    5    5    0    0  0.16538188246E+03 -0.30538218694E+03 -0.40690035996E+03  0.53495546551E+03  0.00000000000E+00 0.  1.
          5    1    4    4  502    0 -0.19581273723E+01 -0.42453844967E+02 -0.46884966534E+01  0.43014360581E+02  0.47000000000E+01 0.  1.
         -5    1    4    4    0  502 -0.11823682734E+02 -0.88814214876E+02 -0.28782917691E+03  0.30148878805E+03  0.47000000000E+01 0.  1.
<mgrwt>
<rscale>  0 0.10009274E+04</rscale>
<asrwt>0</asrwt>
<pdfrwt beam="1">  1        3 0.20666524E+00 0.10009274E+04</pdfrwt>
<pdfrwt beam="2">  1       -3 0.28684745E-01 0.10009274E+04</pdfrwt>
<totfact> 0.62937500E+00</totfact>
</mgrwt>
</event>
<event>
 9    1  0.4342579E-036  0.1011694E+04  0.7818608E-02  0.8669981E-01
          1   -1    0    0  501    0  0.00000000000E+00  0.00000000000E+00  0.17048132690E+03  0.17048132690E+03  0.00000000000E+00 0. -1.
         -1   -1    0    0    0  501 -0.00000000000E+00 -0.00000000000E+00 -0.15009328719E+04  0.15009328719E+04  0.00000000000E+00 0. -1.
         36    2    1    2    0    0 -0.14210854715E-13  0.00000000000E+00 -0.13304515450E+04  0.16714141988E+04  0.10116936841E+04 0.  0.
         25    2    3    3    0    0  0.39825932619E+02 -0.83465161796E+02 -0.53849473433E+02  0.16510890348E+03  0.12573243844E+03 0.  0.
         35    2    3    3    0    0 -0.39825932619E+02  0.83465161796E+02 -0.12766020716E+04  0.15063052954E+04  0.79416009436E+03 0.  0.
         22    1    5    5    0    0 -0.31133810310E+03 -0.22097081433E+03 -0.50007306402E+03  0.62915227456E+03  0.00000000000E+00 0. -1.
         22    1    5    5    0    0  0.27151217048E+03  0.30443597612E+03 -0.77652900757E+03  0.87715302079E+03  0.00000000000E+00 0. -1.
          5    1    4    4  502    0  0.29286158736E+02 -0.35930790364E+02  0.38608035609E+02  0.60509265433E+02  0.47000000000E+01 0. -1.
         -5    1    4    4    0  502  0.10539773883E+02 -0.47534371432E+02 -0.92457509042E+02  0.10459963805E+03  0.47000000000E+01 0. -1.
<mgrwt>
<rscale>  0 0.10116937E+04</rscale>
<asrwt>0</asrwt>
<pdfrwt beam="1">  1        1 0.26227898E-01 0.10116937E+04</pdfrwt>
<pdfrwt beam="2">  1       -1 0.23091274E+00 0.10116937E+04</pdfrwt>
<totfact> 0.15363910E+01</totfact>
</mgrwt>
</event>
<event>
 9    1  0.4342579E-036  0.9998141E+03  0.7818608E-02  0.8681215E-01
          1   -1    0    0  501    0  0.00000000000E+00  0.00000000000E+00  0.61612593851E+03  0.61612593851E+03  0.00000000000E+00 0. -1.
         -1   -1    0    0    0  501 -0.00000000000E+00 -0.00000000000E+00 -0.40561036058E+03  0.40561036058E+03  0.00000000000E+00 0. -1.
         36    2    1    2    0    0  0.71054273576E-14  0.00000000000E+00  0.21051557793E+03  0.10217362991E+04  0.99981411088E+03 0.  0.
         25    2    3    3    0    0 -0.61283782115E+02  0.12082579827E+03  0.82584027288E+02  0.20202875741E+03  0.12506367091E+03 0.  0.
         35    2    3    3    0    0  0.61283782115E+02 -0.12082579827E+03  0.12793155064E+03  0.81970754168E+03  0.79824770388E+03 0.  0.
         22    1    5    5    0    0  0.38159864156E+03 -0.25537882202E+03  0.10805529386E+03  0.47171157767E+03  0.00000000000E+00 0.  1.
         22    1    5    5    0    0 -0.32031485944E+03  0.13455302375E+03  0.19876256783E+02  0.34799596401E+03  0.00000000000E+00 0.  1.
          5    1    4    4  502    0 -0.75789082700E+02  0.23115854756E+02  0.62712169052E+02  0.10115944812E+03  0.47000000000E+01 0. -1.
         -5    1    4    4    0  502  0.14505300585E+02  0.97709943511E+02  0.19871858236E+02  0.10086930929E+03  0.47000000000E+01 0. -1.
<mgrwt>
<rscale>  0 0.99981411E+03</rscale>
<asrwt>0</asrwt>
<pdfrwt beam="1">  1        1 0.94788606E-01 0.99981411E+03</pdfrwt>
<pdfrwt beam="2">  1       -1 0.62401594E-01 0.99981411E+03</pdfrwt>
<totfact> 0.99680343E+01</totfact>
</mgrwt>
</event>
<event>
 9    1  0.4342579E-036  0.9998474E+03  0.7818608E-02  0.8681183E-01
          1   -1    0    0  501    0  0.00000000000E+00  0.00000000000E+00  0.12217471418E+04  0.12217471418E+04  0.00000000000E+00 0. -1.
         -1   -1    0    0    0  501 -0.00000000000E+00 -0.00000000000E+00 -0.20456254629E+03  0.20456254629E+03  0.00000000000E+00 0. -1.
         36    2    1    2    0    0 -0.14210854715E-13  0.00000000000E+00  0.10171845955E+04  0.14263096881E+04  0.99984740085E+03 0.  0.
         25    2    3    3    0    0 -0.88807170399E+02  0.66478507922E+01  0.35664070410E+02  0.15734129834E+03  0.12471347485E+03 0.  0.
         35    2    3    3    0    0  0.88807170399E+02 -0.66478507922E+01  0.98152052507E+03  0.12689683897E+04  0.79935431791E+03 0.  0.
         22    1    5    5    0    0 -0.25743173692E+03  0.21950100066E+03  0.67220830404E+03  0.75253956207E+03  0.00000000000E+00 0. -1.
         22    1    5    5    0    0  0.34623890732E+03 -0.22614885145E+03  0.30931222103E+03  0.51642882766E+03  0.00000000000E+00 0. -1.
          5    1    4    4  502    0 -0.11535538543E+03  0.27369963793E+02  0.21891863630E+02  0.12065373412E+03  0.47000000000E+01 0. -1.
         -5    1    4    4    0  502  0.26548215026E+02 -0.20722113000E+02  0.13772206780E+02  0.36687564213E+02  0.47000000000E+01 0. -1.
<mgrwt>
<rscale>  0 0.99984740E+03</rscale>
<asrwt>0</asrwt>
<pdfrwt beam="1">  1        1 0.18796110E+00 0.99984740E+03</pdfrwt>
<pdfrwt beam="2">  1       -1 0.31471162E-01 0.99984740E+03</pdfrwt>
<totfact> 0.10632821E+02</totfact>
</mgrwt>
</event>
<event>
 9    1  0.4342579E-036  0.9995430E+03  0.7818608E-02  0.8681473E-01
          2   -1    0    0  501    0  0.00000000000E+00  0.00000000000E+00  0.13737097104E+04  0.13737097104E+04  0.00000000000E+00 0. -1.
         -2   -1    0    0    0  501 -0.00000000000E+00 -0.00000000000E+00 -0.18182265967E+03  0.18182265967E+03  0.00000000000E+00 0. -1.
         36    2    1    2    0    0  0.28421709430E-13  0.00000000000E+00  0.11918870507E+04  0.15555323700E+04  0.99954300190E+03 0.  0.
         25    2    3    3    0    0  0.93584391330E+02 -0.96379872148E+02  0.19075505388E+03  0.26451327506E+03  0.12463010890E+03 0.  0.
         35    2    3    3    0    0 -0.93584391330E+02  0.96379872148E+02  0.10011319968E+04  0.12910190950E+04  0.80400118814E+03 0.  0.
         22    1    5    5    0    0  0.12616074988E+03 -0.16835114351E+03  0.91153086686E+03  0.93549300562E+03  0.00000000000E+00 0. -1.
         22    1    5    5    0    0 -0.21974514121E+03  0.26473101565E+03  0.89601129959E+02  0.35552608937E+03  0.00000000000E+00 0. -1.
          5    1    4    4  502    0  0.83069237826E+02 -0.44876381885E+02  0.18944515397E+03  0.21172138363E+03  0.47000000000E+01 0. -1.
         -5    1    4    4    0  502  0.10515153504E+02 -0.51503490263E+02  0.13098999121E+01  0.52791891425E+02  0.47000000000E+01 0. -1.
<mgrwt>
<rscale>  0 0.99954300E+03</rscale>
<asrwt>0</asrwt>
<pdfrwt beam="1">  1        2 0.21133995E+00 0.99954300E+03</pdfrwt>
<pdfrwt beam="2">  1       -2 0.27972718E-01 0.99954300E+03</pdfrwt>
<totfact> 0.20978942E+02</totfact>
</mgrwt>
</event>
<event>
 9    1  0.4342579E-036  0.1001344E+04  0.7818608E-02  0.8679759E-01
         -2   -1    0    0    0  501 -0.00000000000E+00  0.00000000000E+00  0.96750135578E+02  0.96750135578E+02  0.00000000000E+00 0.  1.
          2   -1    0    0  501    0  0.00000000000E+00 -0.00000000000E+00 -0.25909244216E+04  0.25909244216E+04  0.00000000000E+00 0.  1.
         36    2    1    2    0    0  0.00000000000E+00  0.00000000000E+00 -0.24941742861E+04  0.26876745572E+04  0.10013436754E+04 0.  0.
         25    2    3    3    0    0  0.62942589101E+02 -0.91138169310E+02 -0.22775572735E+03  0.28178779786E+03  0.12354657525E+03 0.  0.
         35    2    3    3    0    0 -0.62942589101E+02  0.91138169310E+02 -0.22664185587E+04  0.24058867594E+04  0.79960620316E+03 0.  0.
         22    1    5    5    0    0  0.15754821053E+03 -0.85225819791E+02 -0.20292676939E+04  0.20371578860E+04  0.00000000000E+00 0. -1.
         22    1    5    5    0    0 -0.22049079963E+03  0.17636398910E+03 -0.23715086487E+03  0.36872887340E+03  0.00000000000E+00 0. -1.
          5    1    4    4  502    0  0.59070024283E+02 -0.23667289269E+02 -0.25894975766E+02  0.68862530595E+02  0.47000000000E+01 0.  1.
         -5    1    4    4    0  502  0.38725648186E+01 -0.67470880041E+02 -0.20186075158E+03  0.21292526727E+03  0.47000000000E+01 0.  1.
<mgrwt>
<rscale>  0 0.10013437E+04</rscale>
<asrwt>0</asrwt>
<pdfrwt beam="1">  1        2 0.39860374E+00 0.10013437E+04</pdfrwt>
<pdfrwt beam="2">  1       -2 0.14884637E-01 0.10013437E+04</pdfrwt>
<totfact> 0.12407111E+02</totfact>
</mgrwt>
</event>
<event>
 9    1  0.4342579E-036  0.1000342E+04  0.7818608E-02  0.8680712E-01
          2   -1    0    0  501    0  0.00000000000E+00  0.00000000000E+00  0.11493340715E+04  0.11493340715E+04  0.00000000000E+00 0. -1.
         -2   -1    0    0    0  501 -0.00000000000E+00 -0.00000000000E+00 -0.21766628503E+03  0.21766628503E+03  0.00000000000E+00 0. -1.
         36    2    1    2    0    0  0.00000000000E+00  0.00000000000E+00  0.93166778648E+03  0.13670003565E+04  0.10003424966E+04 0.  0.
         25    2    3    3    0    0 -0.10790393466E+03  0.10968334522E+03  0.18273734176E+03  0.26973617731E+03  0.12526361778E+03 0.  0.
         35    2    3    3    0    0  0.10790393466E+03 -0.10968334522E+03  0.74893044472E+03  0.10972641792E+04  0.78703123995E+03 0.  0.
         22    1    5    5    0    0  0.34512842543E+03 -0.29932905161E+03  0.27154981728E+03  0.53146101874E+03  0.00000000000E+00 0. -1.
         22    1    5    5    0    0 -0.23722449077E+03  0.18964570638E+03  0.47738062744E+03  0.56580316049E+03  0.00000000000E+00 0. -1.
          5    1    4    4  502    0 -0.71347182193E+02  0.98347548906E+02  0.49931823145E+02  0.13144556952E+03  0.47000000000E+01 0. -1.
         -5    1    4    4    0  502 -0.36556752471E+02  0.11335796317E+02  0.13280551861E+03  0.13829060779E+03  0.47000000000E+01 0. -1.
<mgrwt>
<rscale>  0 0.10003425E+04</rscale>
<asrwt>0</asrwt>
<pdfrwt beam="1">  1        2 0.17682062E+00 0.10003425E+04</pdfrwt>
<pdfrwt beam="2">  1       -2 0.33487121E-01 0.10003425E+04</pdfrwt>
<totfact> 0.20421068E+02</totfact>
</mgrwt>
</event>
<event>
 9    1  0.4342579E-036  0.9998868E+03  0.7818608E-02  0.8681146E-01
         -2   -1    0    0    0  501 -0.00000000000E+00  0.00000000000E+00  0.21825921509E+03  0.21825921509E+03  0.00000000000E+00 0. -1.
          2   -1    0    0  501    0  0.00000000000E+00 -0.00000000000E+00 -0.11451676811E+04  0.11451676811E+04  0.00000000000E+00 0. -1.
         36    2    1    2    0    0 -0.14210854715E-13  0.14210854715E-13 -0.92690846597E+03  0.13634268962E+04  0.99988679202E+03 0.  0.
         25    2    3    3    0    0 -0.89982298477E+02 -0.99684842637E+02 -0.23013479211E+03  0.29499424209E+03  0.12659264763E+03 0.  0.
         35    2    3    3    0    0  0.89982298477E+02  0.99684842637E+02 -0.69677367386E+03  0.10684326541E+04  0.79876210588E+03 0.  0.
         22    1    5    5    0    0  0.74827915792E+02 -0.18817539350E+03  0.96561571862E+02  0.22435091456E+03  0.00000000000E+00 0. -1.
         22    1    5    5    0    0  0.15154382685E+02  0.28786023614E+03 -0.79333524572E+03  0.84408173951E+03  0.00000000000E+00 0. -1.
          5    1    4    4  502    0 -0.10668703348E+01 -0.55441718543E+02 -0.16981578594E+03  0.17870202440E+03  0.47000000000E+01 0.  1.
         -5    1    4    4    0  502 -0.88915428142E+02 -0.44243124094E+02 -0.60319006170E+02  0.11629221770E+03  0.47000000000E+01 0.  1.
<mgrwt>
<rscale>  0 0.99988679E+03</rscale>
<asrwt>0</asrwt>
<pdfrwt beam="1">  1        2 0.17617964E+00 0.99988679E+03</pdfrwt>
<pdfrwt beam="2">  1       -2 0.33578341E-01 0.99988679E+03</pdfrwt>
<totfact> 0.20435440E+02</totfact>
</mgrwt>
</event>
<event>
 9    1  0.4342579E-036  0.9998635E+03  0.7818608E-02  0.8681168E-01
          2   -1    0    0  501    0  0.00000000000E+00  0.00000000000E+00  0.16863379739E+04  0.16863379739E+04  0.00000000000E+00 0. -1.
         -2   -1    0    0    0  501 -0.00000000000E+00 -0.00000000000E+00 -0.14820977570E+03  0.14820977570E+03  0.00000000000E+00 0. -1.
         36    2    1    2    0    0  0.00000000000E+00  0.00000000000E+00  0.15381281982E+04  0.18345477496E+04  0.99986353641E+03 0.  0.
         25    2    3    3    0    0 -0.84285922548E+02  0.10664208021E+03  0.34251583321E+03  0.38925041325E+03  0.12538795080E+03 0.  0.
         35    2    3    3    0    0  0.84285922548E+02 -0.10664208021E+03  0.11956123650E+04  0.14452973364E+04  0.80057405223E+03 0.  0.
         22    1    5    5    0    0  0.29834167990E+01 -0.45165779399E+03  0.75516207137E+03  0.87992807529E+03  0.00000000000E+00 0.  1.
         22    1    5    5    0    0  0.81302505749E+02  0.34501571377E+03  0.44045029364E+03  0.56536926106E+03  0.00000000000E+00 0.  1.
          5    1    4    4  502    0 -0.37417759948E+02  0.12223658327E+03  0.29022037779E+03  0.31716214896E+03  0.47000000000E+01 0.  1.
         -5    1    4    4    0  502 -0.46868162601E+02 -0.15594503054E+02  0.52295455418E+02  0.72088264291E+02  0.47000000000E+01 0.  1.
<mgrwt>
<rscale>  0 0.99986354E+03</rscale>
<asrwt>0</asrwt>
<pdfrwt beam="1">  1        2 0.25943660E+00 0.99986354E+03</pdfrwt>
<pdfrwt beam="2">  1       -2 0.22801505E-01 0.99986354E+03</pdfrwt>
<totfact> 0.20068670E+02</totfact>
</mgrwt>
</event>
<event>
 9    1  0.4342579E-036  0.1000225E+04  0.7818608E-02  0.8680823E-01
         -1   -1    0    0    0  501 -0.00000000000E+00  0.00000000000E+00  0.39741261223E+03  0.39741261223E+03  0.00000000000E+00 0. -1.
          1   -1    0    0  501    0  0.00000000000E+00 -0.00000000000E+00 -0.62935267827E+03  0.62935267827E+03  0.00000000000E+00 0. -1.
         36    2    1    2    0    0  0.00000000000E+00  0.00000000000E+00 -0.23194006603E+03  0.10267652905E+04  0.10002253584E+04 0.  0.
         25    2    3    3    0    0 -0.10218670856E+03 -0.81303799233E+01  0.55900041880E+02  0.17102456586E+03  0.12496543906E+03 0.  0.
         35    2    3    3    0    0  0.10218670856E+03  0.81303799233E+01 -0.28784010791E+03  0.85574072465E+03  0.79933224232E+03 0.  0.
         22    1    5    5    0    0  0.61129651082E+02 -0.22614327414E+03 -0.49030382815E+03  0.54339254557E+03  0.00000000000E+00 0. -1.
         22    1    5    5    0    0  0.41057057475E+02  0.23427365406E+03  0.20246372024E+03  0.31234817907E+03  0.00000000000E+00 0. -1.
          5    1    4    4  502    0 -0.37683046608E+01  0.47607009774E+01 -0.35313195340E+02  0.36138292142E+02  0.47000000000E+01 0. -1.
         -5    1    4    4    0  502 -0.98418403896E+02 -0.12891080901E+02  0.91213237220E+02  0.13488627371E+03  0.47000000000E+01 0. -1.
<mgrwt>
<rscale>  0 0.10002254E+04</rscale>
<asrwt>0</asrwt>
<pdfrwt beam="1">  1        1 0.96823489E-01 0.10002254E+04</pdfrwt>
<pdfrwt beam="2">  1       -1 0.61140402E-01 0.10002254E+04</pdfrwt>
<totfact> 0.10047678E+02</totfact>
</mgrwt>
</event>
<event>
 9    1  0.4342579E-036  0.1001821E+04  0.7818608E-02  0.8679306E-01
         -2   -1    0    0    0  501 -0.00000000000E+00  0.00000000000E+00  0.98072630900E+02  0.98072630900E+02  0.00000000000E+00 0. -1.
          2   -1    0    0  501    0  0.00000000000E+00 -0.00000000000E+00 -0.25584238146E+04  0.25584238146E+04  0.00000000000E+00 0. -1.
         36    2    1    2    0    0 -0.14210854715E-13  0.00000000000E+00 -0.24603511837E+04  0.26564964455E+04  0.10018210508E+04 0.  0.
         25    2    3    3    0    0  0.12601032538E+03  0.57746207512E+02 -0.38133037105E+03  0.42445819638E+03  0.12465424985E+03 0.  0.
         35    2    3    3    0    0 -0.12601032538E+03 -0.57746207512E+02 -0.20790208126E+04  0.22320382491E+04  0.80028368689E+03 0.  0.
         22    1    5    5    0    0 -0.91048242532E+02  0.14959496117E+03 -0.19996262568E+04  0.20072801503E+04  0.00000000000E+00 0. -1.
         22    1    5    5    0    0 -0.34962082848E+02 -0.20734116868E+03 -0.79394555776E+02  0.22475809875E+03  0.00000000000E+00 0. -1.
          5    1    4    4  502    0  0.65843368862E+01  0.20028619589E+02  0.14828380818E+01  0.21651510424E+02  0.47000000000E+01 0.  1.
         -5    1    4    4    0  502  0.11942598849E+03  0.37717587923E+02 -0.38281320913E+03  0.40280668596E+03  0.47000000000E+01 0.  1.
<mgrwt>
<rscale>  0 0.10018211E+04</rscale>
<asrwt>0</asrwt>
<pdfrwt beam="1">  1        2 0.39360360E+00 0.10018211E+04</pdfrwt>
<pdfrwt beam="2">  1       -2 0.15088100E-01 0.10018211E+04</pdfrwt>
<totfact> 0.12700035E+02</totfact>
</mgrwt>
</event>
<event>
 9    1  0.4342579E-036  0.1000625E+04  0.7818608E-02  0.8680443E-01
          2   -1    0    0  501    0  0.00000000000E+00  0.00000000000E+00  0.11323013739E+04  0.11323013739E+04  0.00000000000E+00 0.  1.
         -2   -1    0    0    0  501 -0.00000000000E+00 -0.00000000000E+00 -0.22106548321E+03  0.22106548321E+03  0.00000000000E+00 0.  1.
         36    2    1    2    0    0 -0.28421709430E-13 -0.56843418861E-13  0.91123589070E+03  0.13533668571E+04  0.10006253052E+04 0.  0.
         25    2    3    3    0    0 -0.62325446817E+02 -0.63385985600E+02  0.32016738716E+03  0.35450699579E+03  0.12355488568E+03 0.  0.
         35    2    3    3    0    0  0.62325446817E+02  0.63385985600E+02  0.59106850354E+03  0.99885986133E+03  0.80028545045E+03 0.  0.
         22    1    5    5    0    0 -0.14838651457E+03 -0.30867936569E+03  0.41074830391E+03  0.53480433588E+03  0.00000000000E+00 0.  1.
         22    1    5    5    0    0  0.21071196139E+03  0.37206535129E+03  0.18032019964E+03  0.46405552545E+03  0.00000000000E+00 0.  1.
          5    1    4    4  502    0  0.11900082666E+02 -0.75743389060E+02  0.16195349867E+03  0.17924759046E+03  0.47000000000E+01 0.  1.
         -5    1    4    4    0  502 -0.74225529483E+02  0.12357403461E+02  0.15821388849E+03  0.17525940534E+03  0.47000000000E+01 0.  1.
<mgrwt>
<rscale>  0 0.10006253E+04</rscale>
<asrwt>0</asrwt>
<pdfrwt beam="1">  1        2 0.17420021E+00 0.10006253E+04</pdfrwt>
<pdfrwt beam="2">  1       -2 0.34010075E-01 0.10006253E+04</pdfrwt>
<totfact> 0.20314350E+02</totfact>
</mgrwt>
</event>
<event>
 9    1  0.4342579E-036  0.1000286E+04  0.7818608E-02  0.8680765E-01
          2   -1    0    0  501    0  0.00000000000E+00  0.00000000000E+00  0.52464623526E+03  0.52464623526E+03  0.00000000000E+00 0. -1.
         -2   -1    0    0    0  501 -0.00000000000E+00 -0.00000000000E+00 -0.47678458955E+03  0.47678458955E+03  0.00000000000E+00 0. -1.
         36    2    1    2    0    0  0.00000000000E+00 -0.35527136788E-13  0.47861645704E+02  0.10014308248E+04  0.10002864389E+04 0.  0.
         25    2    3    3    0    0 -0.10980836325E+03 -0.74696856616E+01 -0.74570845368E+02  0.18459055632E+03  0.12805932086E+03 0.  0.
         35    2    3    3    0    0  0.10980836325E+03  0.74696856616E+01  0.12243249107E+03  0.81684026850E+03  0.80007789404E+03 0.  0.
         22    1    5    5    0    0  0.80304599272E+01 -0.33284723989E+03 -0.15390934691E+03  0.36679675633E+03  0.00000000000E+00 0. -1.
         22    1    5    5    0    0  0.10177790332E+03  0.34031692555E+03  0.27634183798E+03  0.45004351216E+03  0.00000000000E+00 0. -1.
          5    1    4    4  502    0 -0.18446966001E+02  0.51088053538E+02 -0.48306777122E+02  0.72841708415E+02  0.47000000000E+01 0. -1.
         -5    1    4    4    0  502 -0.91361397245E+02 -0.58557739199E+02 -0.26264068246E+02  0.11174884790E+03  0.47000000000E+01 0. -1.
<mgrwt>
<rscale>  0 0.10002864E+04</rscale>
<asrwt>0</asrwt>
<pdfrwt beam="1">  1        2 0.80714805E-01 0.10002864E+04</pdfrwt>
<pdfrwt beam="2">  1       -2 0.73351475E-01 0.10002864E+04</pdfrwt>
<totfact> 0.11801379E+02</totfact>
</mgrwt>
</event>
<event>
 9    1  0.4342579E-036  0.9992117E+03  0.7818608E-02  0.8681789E-01
         -2   -1    0    0    0  501 -0.00000000000E+00  0.00000000000E+00  0.12614062619E+03  0.12614062619E+03  0.00000000000E+00 0.  1.
          2   -1    0    0  501    0  0.00000000000E+00 -0.00000000000E+00 -0.19787916200E+04  0.19787916200E+04  0.00000000000E+00 0.  1.
         36    2    1    2    0    0  0.00000000000E+00  0.42632564146E-13 -0.18526509938E+04  0.21049322462E+04  0.99921171742E+03 0.  0.
         25    2    3    3    0    0 -0.69049981990E+02  0.94193599458E+02 -0.19410798430E+03  0.25898879276E+03  0.12552669443E+03 0.  0.
         35    2    3    3    0    0  0.69049981990E+02 -0.94193599458E+02 -0.16585430095E+04  0.18459434535E+04  0.80193639692E+03 0.  0.
         22    1    5    5    0    0  0.26083945698E+03  0.27561174002E+03 -0.61926670371E+03  0.72628527719E+03  0.00000000000E+00 0.  1.
         22    1    5    5    0    0 -0.19178947499E+03 -0.36980533947E+03 -0.10392763058E+04  0.11196581763E+04  0.00000000000E+00 0.  1.
          5    1    4    4  502    0 -0.33377437870E+02 -0.23959383074E+02 -0.83550027316E+02  0.93224473506E+02  0.47000000000E+01 0.  1.
         -5    1    4    4    0  502 -0.35672544120E+02  0.11815298253E+03 -0.11055795698E+03  0.16576431925E+03  0.47000000000E+01 0.  1.
<mgrwt>
<rscale>  0 0.99921172E+03</rscale>
<asrwt>0</asrwt>
<pdfrwt beam="1">  1        2 0.30442944E+00 0.99921172E+03</pdfrwt>
<pdfrwt beam="2">  1       -2 0.19406253E-01 0.99921172E+03</pdfrwt>
<totfact> 0.18156924E+02</totfact>
</mgrwt>
</event>
<event>
 9    1  0.4342579E-036  0.9965601E+03  0.7818608E-02  0.8684321E-01
         -2   -1    0    0    0  501 -0.00000000000E+00  0.00000000000E+00  0.82902327007E+02  0.82902327007E+02  0.00000000000E+00 0.  1.
          2   -1    0    0  501    0  0.00000000000E+00 -0.00000000000E+00 -0.29948857451E+04  0.29948857451E+04  0.00000000000E+00 0.  1.
         36    2    1    2    0    0  0.00000000000E+00 -0.35527136788E-14 -0.29119834181E+04  0.30777880721E+04  0.99656007825E+03 0.  0.
         25    2    3    3    0    0  0.10484025300E+03 -0.23476229710E+02 -0.75482625757E+03  0.77282067320E+03  0.12627945910E+03 0.  0.
         35    2    3    3    0    0 -0.10484025300E+03  0.23476229710E+02 -0.21571571605E+04  0.23049673989E+04  0.80498762900E+03 0.  0.
         22    1    5    5    0    0 -0.21164189331E+03  0.36707734369E+03 -0.14626165778E+04  0.15227558310E+04  0.00000000000E+00 0. -1.
         22    1    5    5    0    0  0.10680164031E+03 -0.34360111398E+03 -0.69454058277E+03  0.78221156794E+03  0.00000000000E+00 0. -1.
          5    1    4    4  502    0  0.44038115720E+02 -0.34060311956E+01 -0.58059402426E+02  0.73102263266E+02  0.47000000000E+01 0.  1.
         -5    1    4    4    0  502  0.60802137280E+02 -0.20070198514E+02 -0.69676685514E+03  0.69971840993E+03  0.47000000000E+01 0.  1.
<mgrwt>
<rscale>  0 0.99656008E+03</rscale>
<asrwt>0</asrwt>
<pdfrwt beam="1">  1        2 0.46075166E+00 0.99656008E+03</pdfrwt>
<pdfrwt beam="2">  1       -2 0.12754204E-01 0.99656008E+03</pdfrwt>
<totfact> 0.88368293E+01</totfact>
</mgrwt>
</event>
<event>
 9    1  0.4342579E-036  0.1000102E+04  0.7818608E-02  0.8680941E-01
          3   -1    0    0  501    0  0.00000000000E+00  0.00000000000E+00  0.51126608966E+03  0.51126608966E+03  0.00000000000E+00 0.  1.
         -3   -1    0    0    0  501 -0.00000000000E+00 -0.00000000000E+00 -0.48908203705E+03  0.48908203705E+03  0.00000000000E+00 0.  1.
         36    2    1    2    0    0 -0.71054273576E-14  0.00000000000E+00  0.22184052605E+02  0.10003481267E+04  0.10001021160E+04 0.  0.
         25    2    3    3    0    0  0.57259521267E+02 -0.12629358907E+03  0.27986995150E+02  0.18900451410E+03  0.12534237526E+03 0.  0.
         35    2    3    3    0    0 -0.57259521267E+02  0.12629358907E+03 -0.58029425454E+01  0.81134361261E+03  0.79938480106E+03 0.  0.
         22    1    5    5    0    0  0.26193287502E+02  0.27525482954E+02 -0.39726556940E+03  0.39907853005E+03  0.00000000000E+00 0.  1.
         22    1    5    5    0    0 -0.83452808770E+02  0.98768106115E+02  0.39146262685E+03  0.41226508256E+03  0.00000000000E+00 0.  1.
          5    1    4    4  502    0  0.83818917997E+02 -0.13464369069E+03  0.22914919675E+02  0.16031755362E+03  0.47000000000E+01 0. -1.
         -5    1    4    4    0  502 -0.26559396730E+02  0.83501016164E+01  0.50720754748E+01  0.28686960475E+02  0.47000000000E+01 0. -1.
<mgrwt>
<rscale>  0 0.10001021E+04</rscale>
<asrwt>0</asrwt>
<pdfrwt beam="1">  1        3 0.78656321E-01 0.10001021E+04</pdfrwt>
<pdfrwt beam="2">  1       -3 0.75243391E-01 0.10001021E+04</pdfrwt>
<totfact> 0.10063178E+01</totfact>
</mgrwt>
</event>
<event>
 9    1  0.4342579E-036  0.9981054E+03  0.7818608E-02  0.8682844E-01
         -2   -1    0    0    0  501 -0.00000000000E+00  0.00000000000E+00  0.74828885723E+03  0.74828885723E+03  0.00000000000E+00 0. -1.
          2   -1    0    0  501    0  0.00000000000E+00 -0.00000000000E+00 -0.33283085408E+03  0.33283085408E+03  0.00000000000E+00 0. -1.
         36    2    1    2    0    0  0.28421709430E-13  0.00000000000E+00  0.41545800316E+03  0.10811197113E+04  0.99810544422E+03 0.  0.
         25    2    3    3    0    0  0.91608355838E+02 -0.27753120713E+02 -0.34162767016E+02  0.16063411451E+03  0.12439412175E+03 0.  0.
         35    2    3    3    0    0 -0.91608355838E+02  0.27753120713E+02  0.44962077017E+03  0.92048559679E+03  0.79747888396E+03 0.  0.
         22    1    5    5    0    0 -0.44275822360E+03  0.73471917535E+02  0.23931656039E+03  0.50863089103E+03  0.00000000000E+00 0.  1.
         22    1    5    5    0    0  0.35114986776E+03 -0.45718796821E+02  0.21030420978E+03  0.41185470577E+03  0.00000000000E+00 0.  1.
          5    1    4    4  502    0 -0.21283732174E+02 -0.37489794829E+02 -0.12957651780E+02  0.45260056465E+02  0.47000000000E+01 0. -1.
         -5    1    4    4    0  502  0.11289208801E+03  0.97366741151E+01 -0.21205115236E+02  0.11537405805E+03  0.47000000000E+01 0. -1.
<mgrwt>
<rscale>  0 0.99810544E+03</rscale>
<asrwt>0</asrwt>
<pdfrwt beam="1">  1        2 0.51204747E-01 0.99810544E+03</pdfrwt>
<pdfrwt beam="2">  1       -2 0.11512136E+00 0.99810544E+03</pdfrwt>
<totfact> 0.67416447E+01</totfact>
</mgrwt>
</event>
<event>
 9    1  0.4342579E-036  0.1000046E+04  0.7818608E-02  0.8680994E-01
         -1   -1    0    0    0  501 -0.00000000000E+00  0.00000000000E+00  0.90377099369E+03  0.90377099369E+03  0.00000000000E+00 0. -1.
          1   -1    0    0  501    0  0.00000000000E+00 -0.00000000000E+00 -0.27664419388E+03  0.27664419388E+03  0.00000000000E+00 0. -1.
         36    2    1    2    0    0 -0.14210854715E-13  0.14210854715E-13  0.62712679981E+03  0.11804151876E+04  0.10000459950E+04 0.  0.
         25    2    3    3    0    0 -0.16765878708E+02  0.68669895619E+02  0.26049580746E+03  0.29764449773E+03  0.12544932072E+03 0.  0.
         35    2    3    3    0    0  0.16765878708E+02 -0.68669895619E+02  0.36663099235E+03  0.88277068985E+03  0.79991821898E+03 0.  0.
         22    1    5    5    0    0 -0.36337891619E+03  0.26630907542E+02  0.29040401009E+02  0.36550894224E+03  0.00000000000E+00 0.  1.
         22    1    5    5    0    0  0.38014479490E+03 -0.95300803161E+02  0.33759059135E+03  0.51726174761E+03  0.00000000000E+00 0.  1.
          5    1    4    4  502    0  0.46296498647E+02  0.25738155906E+02  0.47331415608E+02  0.71191090453E+02  0.47000000000E+01 0.  1.
         -5    1    4    4    0  502 -0.63062377355E+02  0.42931739713E+02  0.21316439185E+03  0.22645340727E+03  0.47000000000E+01 0.  1.
<mgrwt>
<rscale>  0 0.10000460E+04</rscale>
<asrwt>0</asrwt>
<pdfrwt beam="1">  1        1 0.42560646E-01 0.10000460E+04</pdfrwt>
<pdfrwt beam="2">  1       -1 0.13904169E+00 0.10000460E+04</pdfrwt>
<totfact> 0.49462482E+01</totfact>
</mgrwt>
</event>
<event>
 9    1  0.4342579E-036  0.9980888E+03  0.7818608E-02  0.8682860E-01
         -2   -1    0    0    0  501 -0.00000000000E+00  0.00000000000E+00  0.15595020815E+03  0.15595020815E+03  0.00000000000E+00 0.  1.
          2   -1    0    0  501    0  0.00000000000E+00 -0.00000000000E+00 -0.15969538880E+04  0.15969538880E+04  0.00000000000E+00 0.  1.
         36    2    1    2    0    0  0.00000000000E+00 -0.71054273576E-14 -0.14410036799E+04  0.17529040962E+04  0.99808875607E+03 0.  0.
         25    2    3    3    0    0 -0.12018582004E+03 -0.93735726580E+01 -0.15447767084E+03  0.23322038243E+03  0.12647490181E+03 0.  0.
         35    2    3    3    0    0  0.12018582004E+03  0.93735726580E+01 -0.12865260090E+04  0.15196837138E+04  0.79984806228E+03 0.  0.
         22    1    5    5    0    0 -0.31121230939E+03 -0.42448377452E+02 -0.83928925911E+03  0.89613694641E+03  0.00000000000E+00 0. -1.
         22    1    5    5    0    0  0.43139812943E+03  0.51821950110E+02 -0.44723674994E+03  0.62354676736E+03  0.00000000000E+00 0. -1.
          5    1    4    4  502    0 -0.48866041937E+02  0.56779881060E+02 -0.48897735620E+02  0.89581937334E+02  0.47000000000E+01 0.  1.
         -5    1    4    4    0  502 -0.71319778102E+02 -0.66153453718E+02 -0.10557993522E+03  0.14363844509E+03  0.47000000000E+01 0.  1.
<mgrwt>
<rscale>  0 0.99808876E+03</rscale>
<asrwt>0</asrwt>
<pdfrwt beam="1">  1        2 0.24568523E+00 0.99808876E+03</pdfrwt>
<pdfrwt beam="2">  1       -2 0.23992338E-01 0.99808876E+03</pdfrwt>
<totfact> 0.20605252E+02</totfact>
</mgrwt>
</event>
<event>
 9    1  0.4342579E-036  0.1001087E+04  0.7818608E-02  0.8680003E-01
          4   -1    0    0  501    0  0.00000000000E+00  0.00000000000E+00  0.13817597093E+03  0.13817597093E+03  0.00000000000E+00 0. -1.
         -4   -1    0    0    0  501 -0.00000000000E+00 -0.00000000000E+00 -0.18132230154E+04  0.18132230154E+04  0.00000000000E+00 0. -1.
         36    2    1    2    0    0  0.21316282073E-13  0.00000000000E+00 -0.16750470445E+04  0.19513989864E+04  0.10010871104E+04 0.  0.
         25    2    3    3    0    0  0.31852630670E+02 -0.72354216095E+02 -0.54309499830E+03  0.56290852211E+03  0.12515631997E+03 0.  0.
         35    2    3    3    0    0 -0.31852630670E+02  0.72354216095E+02 -0.11319520462E+04  0.13884904642E+04  0.80021285400E+03 0.  0.
         22    1    5    5    0    0 -0.26436138743E+03 -0.22228516492E+03 -0.85473465927E+03  0.92188338496E+03  0.00000000000E+00 0. -1.
         22    1    5    5    0    0  0.23250875676E+03  0.29463938101E+03 -0.27721738694E+03  0.46660707929E+03  0.00000000000E+00 0. -1.
          5    1    4    4  502    0  0.51186791070E+02 -0.49319400985E+02 -0.12630665812E+03  0.14501018164E+03  0.47000000000E+01 0. -1.
         -5    1    4    4    0  502 -0.19334160400E+02 -0.23034815111E+02 -0.41678834017E+03  0.41789834047E+03  0.47000000000E+01 0. -1.
<mgrwt>
<rscale>  0 0.10010871E+04</rscale>
<asrwt>0</asrwt>
<pdfrwt beam="1">  1        4 0.21257842E-01 0.10010871E+04</pdfrwt>
<pdfrwt beam="2">  1       -4 0.27895738E+00 0.10010871E+04</pdfrwt>
<totfact> 0.13568464E+00</totfact>
</mgrwt>
</event>
<event>
 9    1  0.4342579E-036  0.9997458E+03  0.7818608E-02  0.8681280E-01
          2   -1    0    0  501    0  0.00000000000E+00  0.00000000000E+00  0.10711309030E+04  0.10711309030E+04  0.00000000000E+00 0. -1.
         -2   -1    0    0    0  501 -0.00000000000E+00 -0.00000000000E+00 -0.23327951696E+03  0.23327951696E+03  0.00000000000E+00 0. -1.
         36    2    1    2    0    0  0.71054273576E-14  0.00000000000E+00  0.83785138599E+03  0.13044104199E+04  0.99974576698E+03 0.  0.
         25    2    3    3    0    0  0.12724398970E+02 -0.22055796860E+02  0.33619270607E+03  0.35962378394E+03  0.12512138849E+03 0.  0.
         35    2    3    3    0    0 -0.12724398970E+02  0.22055796860E+02  0.50165867992E+03  0.94478663598E+03  0.80019496867E+03 0.  0.
         22    1    5    5    0    0  0.33765631730E+03  0.18476208781E+03  0.12359720425E+03  0.40425868773E+03  0.00000000000E+00 0. -1.
         22    1    5    5    0    0 -0.35038071627E+03 -0.16270629095E+03  0.37806147567E+03  0.54052794825E+03  0.00000000000E+00 0. -1.
          5    1    4    4  502    0 -0.40033279273E+02 -0.20499228298E+02  0.27492782067E+03  0.27862210678E+03  0.47000000000E+01 0.  1.
         -5    1    4    4    0  502  0.52757678243E+02 -0.15565685620E+01  0.61264885406E+02  0.81001677162E+02  0.47000000000E+01 0.  1.
<mgrwt>
<rscale>  0 0.99974577E+03</rscale>
<asrwt>0</asrwt>
<pdfrwt beam="1">  1        2 0.16478937E+00 0.99974577E+03</pdfrwt>
<pdfrwt beam="2">  1       -2 0.35889157E-01 0.99974577E+03</pdfrwt>
<totfact> 0.20012943E+02</totfact>
</mgrwt>
</event>
<event>
 9    1  0.4342579E-036  0.9987844E+03  0.7818608E-02  0.8682196E-01
         -2   -1    0    0    0  501 -0.00000000000E+00  0.00000000000E+00  0.38727456808E+03  0.38727456808E+03  0.00000000000E+00 0.  1.
          2   -1    0    0  501    0  0.00000000000E+00 -0.00000000000E+00 -0.64396836259E+03  0.64396836259E+03  0.00000000000E+00 0.  1.
         36    2    1    2    0    0 -0.14210854715E-13  0.00000000000E+00 -0.25669379452E+03  0.10312429307E+04  0.99878440012E+03 0.  0.
         25    2    3    3    0    0  0.59348206781E+02 -0.88198315650E+02 -0.13931141388E+03  0.21576165549E+03  0.12587402198E+03 0.  0.
         35    2    3    3    0    0 -0.59348206781E+02  0.88198315650E+02 -0.11738238063E+03  0.81548127518E+03  0.79995620777E+03 0.  0.
         22    1    5    5    0    0  0.15146334303E+03 -0.21256171219E+03  0.20098346066E+03  0.32942066910E+03  0.00000000000E+00 0.  1.
         22    1    5    5    0    0 -0.21081154981E+03  0.30076002784E+03 -0.31836584129E+03  0.48606060608E+03  0.00000000000E+00 0.  1.
          5    1    4    4  502    0 -0.14639775808E+02 -0.40429133754E+02 -0.11707165137E+03  0.12480664824E+03  0.47000000000E+01 0. -1.
         -5    1    4    4    0  502  0.73987982589E+02 -0.47769181896E+02 -0.22239762519E+02  0.90955007248E+02  0.47000000000E+01 0. -1.
<mgrwt>
<rscale>  0 0.99878440E+03</rscale>
<asrwt>0</asrwt>
<pdfrwt beam="1">  1        2 0.99072056E-01 0.99878440E+03</pdfrwt>
<pdfrwt beam="2">  1       -2 0.59580703E-01 0.99878440E+03</pdfrwt>
<totfact> 0.14465752E+02</totfact>
</mgrwt>
</event>
<event>
 9    1  0.4342579E-036  0.1000809E+04  0.7818608E-02  0.8680268E-01
          2   -1    0    0  501    0  0.00000000000E+00  0.00000000000E+00  0.15610193350E+04  0.15610193350E+04  0.00000000000E+00 0.  1.
         -2   -1    0    0    0  501 -0.00000000000E+00 -0.00000000000E+00 -0.16041108300E+03  0.16041108300E+03  0.00000000000E+00 0.  1.
         36    2    1    2    0    0  0.21316282073E-13  0.00000000000E+00  0.14006082520E+04  0.17214304180E+04  0.10008092768E+04 0.  0.
         25    2    3    3    0    0 -0.52330348680E+02 -0.11061014376E+03  0.38134649088E+03  0.41965639944E+03  0.12535261543E+03 0.  0.
         35    2    3    3    0    0  0.52330348680E+02  0.11061014376E+03  0.10192617611E+04  0.13017740186E+04  0.80046735625E+03 0.  0.
         22    1    5    5    0    0  0.36687862178E+03 -0.14575746315E+03  0.40492583713E+03  0.56551754593E+03  0.00000000000E+00 0.  1.
         22    1    5    5    0    0 -0.31454827310E+03  0.25636760691E+03  0.61433592401E+03  0.73625647264E+03  0.00000000000E+00 0.  1.
          5    1    4    4  502    0 -0.53432771473E+02 -0.94270527285E+02  0.13709635046E+03  0.17481273607E+03  0.47000000000E+01 0.  1.
         -5    1    4    4    0  502  0.11024227938E+01 -0.16339616479E+02  0.24425014041E+03  0.24484366337E+03  0.47000000000E+01 0.  1.
<mgrwt>
<rscale>  0 0.10008093E+04</rscale>
<asrwt>0</asrwt>
<pdfrwt beam="1">  1        2 0.24015681E+00 0.10008093E+04</pdfrwt>
<pdfrwt beam="2">  1       -2 0.24678629E-01 0.10008093E+04</pdfrwt>
<totfact> 0.20539616E+02</totfact>
</mgrwt>
</event>
<event>
 9    1  0.4342579E-036  0.9991914E+03  0.7818608E-02  0.8681808E-01
          2   -1    0    0  501    0  0.00000000000E+00  0.00000000000E+00  0.11203643054E+04  0.11203643054E+04  0.00000000000E+00 0. -1.
         -2   -1    0    0    0  501 -0.00000000000E+00 -0.00000000000E+00 -0.22278098130E+03  0.22278098130E+03  0.00000000000E+00 0. -1.
         36    2    1    2    0    0  0.28421709430E-13 -0.71054273576E-14  0.89758332406E+03  0.13431452867E+04  0.99919139179E+03 0.  0.
         25    2    3    3    0    0 -0.71631160615E+02  0.66455907878E+01  0.32885055326E+03  0.35931651732E+03  0.12566020129E+03 0.  0.
         35    2    3    3    0    0  0.71631160615E+02 -0.66455907878E+01  0.56873277080E+03  0.98382876933E+03  0.79955418562E+03 0.  0.
         22    1    5    5    0    0 -0.31788469583E+03 -0.52514681105E+02  0.38765253815E+02  0.32451689706E+03  0.00000000000E+00 0. -1.
         22    1    5    5    0    0  0.38951585644E+03  0.45869090318E+02  0.52996751698E+03  0.65931187228E+03  0.00000000000E+00 0. -1.
          5    1    4    4  502    0 -0.88959042142E+02 -0.37858070593E+02  0.21759788067E+03  0.23815514347E+03  0.47000000000E+01 0.  1.
         -5    1    4    4    0  502  0.17327881527E+02  0.44503661381E+02  0.11125267259E+03  0.12116137385E+03  0.47000000000E+01 0.  1.
<mgrwt>
<rscale>  0 0.99919139E+03</rscale>
<asrwt>0</asrwt>
<pdfrwt beam="1">  1        2 0.17236374E+00 0.99919139E+03</pdfrwt>
<pdfrwt beam="2">  1       -2 0.34273998E-01 0.99919139E+03</pdfrwt>
<totfact> 0.20358570E+02</totfact>
</mgrwt>
</event>
<event>
 9    1  0.4342579E-036  0.1000147E+04  0.7818608E-02  0.8680898E-01
         -4   -1    0    0    0  501 -0.00000000000E+00  0.00000000000E+00  0.32674400386E+03  0.32674400386E+03  0.00000000000E+00 0.  1.
          4   -1    0    0  501    0  0.00000000000E+00 -0.00000000000E+00 -0.76534972862E+03  0.76534972862E+03  0.00000000000E+00 0.  1.
         36    2    1    2    0    0  0.14210854715E-13  0.14210854715E-13 -0.43860572477E+03  0.10920937325E+04  0.10001468586E+04 0.  0.
         25    2    3    3    0    0 -0.43788775788E+02 -0.61540336754E+02  0.46426587974E+02  0.15331915287E+03  0.12508662851E+03 0.  0.
         35    2    3    3    0    0  0.43788775788E+02  0.61540336754E+02 -0.48503231274E+03  0.93877457961E+03  0.80021040795E+03 0.  0.
         22    1    5    5    0    0 -0.27465086006E+03  0.88649517286E+01  0.81607441821E+02  0.28665564160E+03  0.00000000000E+00 0. -1.
         22    1    5    5    0    0  0.31843963584E+03  0.52675385025E+02 -0.56663975456E+03  0.65211893801E+03  0.00000000000E+00 0. -1.
          5    1    4    4  502    0 -0.74559133333E+02 -0.30904097968E+01  0.44620532353E+02  0.87072940134E+02  0.47000000000E+01 0.  1.
         -5    1    4    4    0  502  0.30770357546E+02 -0.58449926957E+02  0.18060556215E+01  0.66246212735E+02  0.47000000000E+01 0.  1.
<mgrwt>
<rscale>  0 0.10001469E+04</rscale>
<asrwt>0</asrwt>
<pdfrwt beam="1">  1        4 0.11774611E+00 0.10001469E+04</pdfrwt>
<pdfrwt beam="2">  1       -4 0.50268309E-01 0.10001469E+04</pdfrwt>
<totfact> 0.45773909E+00</totfact>
</mgrwt>
</event>
<event>
 9    1  0.4342579E-036  0.1000334E+04  0.7818608E-02  0.8680720E-01
          2   -1    0    0  501    0  0.00000000000E+00  0.00000000000E+00  0.34771070419E+04  0.34771070419E+04  0.00000000000E+00 0. -1.
         -2   -1    0    0    0  501 -0.00000000000E+00 -0.00000000000E+00 -0.71946931727E+02  0.71946931727E+02  0.00000000000E+00 0. -1.
         36    2    1    2    0    0  0.00000000000E+00 -0.28421709430E-13  0.34051601102E+04  0.35490539737E+04  0.10003343100E+04 0.  0.
         25    2    3    3    0    0 -0.10023372503E+03  0.65044410525E+02  0.36592972043E+03  0.40267034306E+03  0.11815781784E+03 0.  0.
         35    2    3    3    0    0  0.10023372503E+03 -0.65044410525E+02  0.30392303898E+04  0.31463836306E+04  0.80531423293E+03 0.  0.
         22    1    5    5    0    0 -0.23299917367E+03 -0.31796787480E+03  0.15727075743E+04  0.16213578564E+04  0.00000000000E+00 0.  1.
         22    1    5    5    0    0  0.33323289870E+03  0.25292346428E+03  0.14665228155E+04  0.15250257742E+04  0.00000000000E+00 0.  1.
          5    1    4    4  502    0 -0.12576640164E+03  0.42192618038E+02  0.27426863092E+03  0.30470112685E+03  0.47000000000E+01 0.  1.
         -5    1    4    4    0  502  0.25532676614E+02  0.22851792486E+02  0.91661089510E+02  0.97969216212E+02  0.47000000000E+01 0.  1.
<mgrwt>
<rscale>  0 0.10003343E+04</rscale>
<asrwt>0</asrwt>
<pdfrwt beam="1">  1        2 0.53493941E+00 0.10003343E+04</pdfrwt>
<pdfrwt beam="2">  1       -2 0.11068761E-01 0.10003343E+04</pdfrwt>
<totfact> 0.50892062E+01</totfact>
</mgrwt>
</event>
<event>
 9    1  0.4342579E-036  0.9998080E+03  0.7818608E-02  0.8681221E-01
          3   -1    0    0  501    0  0.00000000000E+00  0.00000000000E+00  0.18264855732E+03  0.18264855732E+03  0.00000000000E+00 0.  1.
         -3   -1    0    0    0  501 -0.00000000000E+00 -0.00000000000E+00 -0.13682231927E+04  0.13682231927E+04  0.00000000000E+00 0.  1.
         36    2    1    2    0    0  0.28421709430E-13  0.28421709430E-13 -0.11855746354E+04  0.15508717500E+04  0.99980796605E+03 0.  0.
         25    2    3    3    0    0 -0.10514513822E+03  0.81826503828E+02 -0.29448278909E+03  0.34607718339E+03  0.12368600152E+03 0.  0.
         35    2    3    3    0    0  0.10514513822E+03 -0.81826503828E+02 -0.89109184628E+03  0.12047945666E+04  0.79983385304E+03 0.  0.
         22    1    5    5    0    0  0.27300104581E+03  0.19280466852E+03 -0.97092800190E+02  0.34803767478E+03  0.00000000000E+00 0. -1.
         22    1    5    5    0    0 -0.16785590760E+03 -0.27463117235E+03 -0.79399904609E+03  0.85675689185E+03  0.00000000000E+00 0. -1.
          5    1    4    4  502    0  0.53640677256E+01 -0.25937416176E+02 -0.53067637363E+02  0.59496108409E+02  0.47000000000E+01 0.  1.
         -5    1    4    4    0  502 -0.11050920594E+03  0.10776392000E+03 -0.24141515173E+03  0.28658107498E+03  0.47000000000E+01 0.  1.
<mgrwt>
<rscale>  0 0.99980797E+03</rscale>
<asrwt>0</asrwt>
<pdfrwt beam="1">  1        3 0.28099777E-01 0.99980797E+03</pdfrwt>
<pdfrwt beam="2">  1       -3 0.21049588E+00 0.99980797E+03</pdfrwt>
<totfact> 0.41151476E+00</totfact>
</mgrwt>
</event>
<event>
 9    1  0.4342579E-036  0.1000619E+04  0.7818608E-02  0.8680449E-01
         -1   -1    0    0    0  501 -0.00000000000E+00  0.00000000000E+00  0.27206533200E+03  0.27206533200E+03  0.00000000000E+00 0. -1.
          1   -1    0    0  501    0  0.00000000000E+00 -0.00000000000E+00 -0.92003445741E+03  0.92003445741E+03  0.00000000000E+00 0. -1.
         36    2    1    2    0    0  0.00000000000E+00 -0.14210854715E-13 -0.64796912541E+03  0.11920997894E+04  0.10006187688E+04 0.  0.
         25    2    3    3    0    0  0.10195784511E+03  0.78002345764E+02 -0.18406847969E+03  0.25765008263E+03  0.12658037659E+03 0.  0.
         35    2    3    3    0    0 -0.10195784511E+03 -0.78002345764E+02 -0.46390064571E+03  0.93444970678E+03  0.80094486532E+03 0.  0.
         22    1    5    5    0    0  0.29478152728E+02  0.16459567330E+03  0.17284674290E+03  0.24049260631E+03  0.00000000000E+00 0. -1.
         22    1    5    5    0    0 -0.13143599784E+03 -0.24259801907E+03 -0.63674738861E+03  0.69395710047E+03  0.00000000000E+00 0. -1.
          5    1    4    4  502    0  0.73292696384E+02  0.76463884841E+02 -0.19860435250E+03  0.22513179221E+03  0.47000000000E+01 0. -1.
         -5    1    4    4    0  502  0.28665148731E+02  0.15384609232E+01  0.14535872811E+02  0.32518290424E+02  0.47000000000E+01 0. -1.
<mgrwt>
<rscale>  0 0.10006188E+04</rscale>
<asrwt>0</asrwt>
<pdfrwt beam="1">  1        1 0.14154376E+00 0.10006188E+04</pdfrwt>
<pdfrwt beam="2">  1       -1 0.41856205E-01 0.10006188E+04</pdfrwt>
<totfact> 0.11062212E+02</totfact>
</mgrwt>
</event>
<event>
 9    1 -0.4342579E-036  0.1000849E+04  0.7818608E-02  0.8680230E-01
         -1   -1    0    0    0  501 -0.00000000000E+00  0.00000000000E+00  0.31174742480E+04  0.31174742480E+04  0.00000000000E+00 0. -1.
          1   -1    0    0  501    0  0.00000000000E+00 -0.00000000000E+00 -0.80329352179E+02  0.80329352179E+02  0.00000000000E+00 0. -1.
         36    2    1    2    0    0  0.42632564146E-13  0.00000000000E+00  0.30371448958E+04  0.31978036002E+04  0.10008490131E+04 0.  0.
         25    2    3    3    0    0 -0.11569604376E+03  0.62270718762E+02  0.40342391511E+03  0.44228812857E+03  0.12491883939E+03 0.  0.
         35    2    3    3    0    0  0.11569604376E+03 -0.62270718762E+02  0.26337209807E+04  0.27555154716E+04  0.79944736730E+03 0.  0.
         22    1    5    5    0    0 -0.20794347848E+03  0.27363481849E+03  0.11034306065E+04  0.11557143278E+04  0.00000000000E+00 0.  1.
         22    1    5    5    0    0  0.32363952224E+03 -0.33590553725E+03  0.15302903742E+04  0.15998011438E+04  0.00000000000E+00 0.  1.
          5    1    4    4  502    0 -0.40708208676E+02  0.15417501311E+02  0.18878026979E+02  0.47679424314E+02  0.47000000000E+01 0. -1.
         -5    1    4    4    0  502 -0.74987835082E+02  0.46853217450E+02  0.38454588814E+03  0.39460870426E+03  0.47000000000E+01 0. -1.
<mgrwt>
<rscale>  0 0.10008490E+04</rscale>
<asrwt>0</asrwt>
<pdfrwt beam="1">  1        1 0.12358364E-01 0.10008490E+04</pdfrwt>
<pdfrwt beam="2">  1       -1 0.47961133E+00 0.10008490E+04</pdfrwt>
<totfact>-0.29350023E+00</totfact>
</mgrwt>
</event>
<event>
 9    1  0.4342579E-036  0.1000321E+04  0.7818608E-02  0.8680732E-01
          2   -1    0    0  501    0  0.00000000000E+00  0.00000000000E+00  0.93218000576E+03  0.93218000576E+03  0.00000000000E+00 0. -1.
         -2   -1    0    0    0  501 -0.00000000000E+00 -0.00000000000E+00 -0.26836081910E+03  0.26836081910E+03  0.00000000000E+00 0. -1.
         36    2    1    2    0    0 -0.14210854715E-13  0.00000000000E+00  0.66381918666E+03  0.12005408249E+04  0.10003211282E+04 0.  0.
         25    2    3    3    0    0 -0.51973947400E+01  0.10396182203E+03  0.23902278148E+03  0.28915049236E+03  0.12506415880E+03 0.  0.
         35    2    3    3    0    0  0.51973947400E+01 -0.10396182203E+03  0.42479640518E+03  0.91139033249E+03  0.79959069464E+03 0.  0.
         22    1    5    5    0    0  0.17103745372E+03  0.89371525098E+02 -0.17452112285E+03  0.26018974306E+03  0.00000000000E+00 0.  1.
         22    1    5    5    0    0 -0.16584005898E+03 -0.19333334713E+03  0.59931752803E+03  0.65120058943E+03  0.00000000000E+00 0.  1.
          5    1    4    4  502    0  0.11962700804E+02  0.22261097008E+02  0.19100744120E+03  0.19272933156E+03  0.47000000000E+01 0. -1.
         -5    1    4    4    0  502 -0.17160095544E+02  0.81700725021E+02  0.48015340274E+02  0.96421160798E+02  0.47000000000E+01 0. -1.
<mgrwt>
<rscale>  0 0.10003211E+04</rscale>
<asrwt>0</asrwt>
<pdfrwt beam="1">  1        2 0.14341231E+00 0.10003211E+04</pdfrwt>
<pdfrwt beam="2">  1       -2 0.41286280E-01 0.10003211E+04</pdfrwt>
<totfact> 0.18752368E+02</totfact>
</mgrwt>
</event>
<event>
 9    1  0.4342579E-036  0.1007533E+04  0.7818608E-02  0.8673897E-01
          2   -1    0    0  501    0  0.00000000000E+00  0.00000000000E+00  0.28697859990E+04  0.28697859990E+04  0.00000000000E+00 0.  1.
         -2   -1    0    0    0  501 -0.00000000000E+00 -0.00000000000E+00 -0.88431977011E+02  0.88431977011E+02  0.00000000000E+00 0.  1.
         36    2    1    2    0    0  0.14210854715E-13  0.56843418861E-13  0.27813540220E+04  0.29582179760E+04  0.10075333235E+04 0.  0.
         25    2    3    3    0    0 -0.37163156024E+01 -0.14835859875E+03  0.54318184360E+03  0.57693039981E+03  0.12561085220E+03 0.  0.
         35    2    3    3    0    0  0.37163156024E+01  0.14835859875E+03  0.22381721784E+04  0.23812875762E+04  0.79943213321E+03 0.  0.
         22    1    5    5    0    0  0.20753563099E+03 -0.24313013648E+03  0.54782754917E+03  0.63426991497E+03  0.00000000000E+00 0.  1.
         22    1    5    5    0    0 -0.20381931539E+03  0.39148873523E+03  0.16903446292E+04  0.17470176613E+04  0.00000000000E+00 0.  1.
          5    1    4    4  502    0 -0.51909262870E+02 -0.12699520224E+03  0.33294947397E+03  0.36013857775E+03  0.47000000000E+01 0.  1.
         -5    1    4    4    0  502  0.48192947267E+02 -0.21363396511E+02  0.21023236962E+03  0.21679182207E+03  0.47000000000E+01 0.  1.
<mgrwt>
<rscale>  0 0.10075333E+04</rscale>
<asrwt>0</asrwt>
<pdfrwt beam="1">  1        2 0.44150547E+00 0.10075333E+04</pdfrwt>
<pdfrwt beam="2">  1       -2 0.13604922E-01 0.10075333E+04</pdfrwt>
<totfact> 0.95937568E+01</totfact>
</mgrwt>
</event>
<event>
 9    1  0.4342579E-036  0.9994600E+03  0.7818608E-02  0.8681552E-01
         -1   -1    0    0    0  501 -0.00000000000E+00  0.00000000000E+00  0.39205311151E+03  0.39205311151E+03  0.00000000000E+00 0.  1.
          1   -1    0    0  501    0  0.00000000000E+00 -0.00000000000E+00 -0.63698017236E+03  0.63698017236E+03  0.00000000000E+00 0.  1.
         36    2    1    2    0    0  0.28421709430E-13  0.00000000000E+00 -0.24492706085E+03  0.10290332839E+04  0.99945997128E+03 0.  0.
         25    2    3    3    0    0  0.60290533523E+02  0.10658454173E+02  0.86869616404E+02  0.16321037884E+03  0.12386584045E+03 0.  0.
         35    2    3    3    0    0 -0.60290533523E+02 -0.10658454173E+02 -0.33179667726E+03  0.86582290503E+03  0.79737802626E+03 0.  0.
         22    1    5    5    0    0 -0.41559363793E+03  0.90967204721E+02 -0.22437629863E+03  0.48097591168E+03  0.00000000000E+00 0.  1.
         22    1    5    5    0    0  0.35530310441E+03 -0.10162565889E+03 -0.10742037863E+03  0.38484699335E+03  0.00000000000E+00 0.  1.
          5    1    4    4  502    0  0.28893821644E+02 -0.27453456688E+02  0.10340891855E+03  0.11092357571E+03  0.47000000000E+01 0. -1.
         -5    1    4    4    0  502  0.31396711879E+02  0.38111910861E+02 -0.16539302144E+02  0.52286803131E+02  0.47000000000E+01 0. -1.
<mgrwt>
<rscale>  0 0.99945997E+03</rscale>
<asrwt>0</asrwt>
<pdfrwt beam="1">  1        1 0.97996949E-01 0.99945997E+03</pdfrwt>
<pdfrwt beam="2">  1       -1 0.60315864E-01 0.99945997E+03</pdfrwt>
<totfact> 0.10131161E+02</totfact>
</mgrwt>
</event>
<event>
 9    1  0.4342579E-036  0.1000312E+04  0.7818608E-02  0.8680741E-01
         -3   -1    0    0    0  501 -0.00000000000E+00  0.00000000000E+00  0.22431546812E+03  0.22431546812E+03  0.00000000000E+00 0. -1.
          3   -1    0    0  501    0  0.00000000000E+00 -0.00000000000E+00 -0.11151974205E+04  0.11151974205E+04  0.00000000000E+00 0. -1.
         36    2    1    2    0    0  0.00000000000E+00 -0.35527136788E-13 -0.89088195235E+03  0.13395128886E+04  0.10003120142E+04 0.  0.
         25    2    3    3    0    0  0.88162890958E+02 -0.11777788476E+02 -0.31446107907E+03  0.34988423705E+03  0.12498718912E+03 0.  0.
         35    2    3    3    0    0 -0.88162890958E+02  0.11777788476E+02 -0.57642087328E+03  0.98962865153E+03  0.79949511139E+03 0.  0.
         22    1    5    5    0    0 -0.12023556104E+03  0.39717947871E+03 -0.33888341892E+03  0.53577056663E+03  0.00000000000E+00 0. -1.
         22    1    5    5    0    0  0.32072670087E+02 -0.38540169024E+03 -0.23753745436E+03  0.45385808490E+03  0.00000000000E+00 0. -1.
          5    1    4    4  502    0  0.86349072143E+02 -0.58030632131E+02 -0.24571438364E+03  0.26687331236E+03  0.47000000000E+01 0.  1.
         -5    1    4    4    0  502  0.18138188154E+01  0.46252843655E+02 -0.68746695433E+02  0.83010924690E+02  0.47000000000E+01 0.  1.
<mgrwt>
<rscale>  0 0.10003120E+04</rscale>
<asrwt>0</asrwt>
<pdfrwt beam="1">  1        3 0.17156883E+00 0.10003120E+04</pdfrwt>
<pdfrwt beam="2">  1       -3 0.34510072E-01 0.10003120E+04</pdfrwt>
<totfact> 0.77001171E+00</totfact>
</mgrwt>
</event>
<event>
 9    1  0.4342579E-036  0.1000035E+04  0.7818608E-02  0.8681005E-01
          2   -1    0    0  501    0  0.00000000000E+00  0.00000000000E+00  0.14182690952E+04  0.14182690952E+04  0.00000000000E+00 0. -1.
         -2   -1    0    0    0  501 -0.00000000000E+00 -0.00000000000E+00 -0.17628336799E+03  0.17628336799E+03  0.00000000000E+00 0. -1.
         36    2    1    2    0    0  0.56843418861E-13  0.00000000000E+00  0.12419857272E+04  0.15945524632E+04  0.10000345050E+04 0.  0.
         25    2    3    3    0    0 -0.92322334289E+02  0.66268063611E+02  0.36227198027E+03  0.39935280881E+03  0.12380148849E+03 0.  0.
         35    2    3    3    0    0  0.92322334289E+02 -0.66268063611E+02  0.87971374698E+03  0.11951996544E+04  0.80105622002E+03 0.  0.
         22    1    5    5    0    0  0.27531777695E+03  0.29197635023E+03  0.36983459640E+03  0.54573592157E+03  0.00000000000E+00 0. -1.
         22    1    5    5    0    0 -0.18299544266E+03 -0.35824441385E+03  0.50987915057E+03  0.64946373284E+03  0.00000000000E+00 0. -1.
          5    1    4    4  502    0  0.12587525689E+02  0.52048286165E+02  0.18663340270E+03  0.19422045953E+03  0.47000000000E+01 0.  1.
         -5    1    4    4    0  502 -0.10490985998E+03  0.14219777446E+02  0.17563857757E+03  0.20513234928E+03  0.47000000000E+01 0.  1.
<mgrwt>
<rscale>  0 0.10000345E+04</rscale>
<asrwt>0</asrwt>
<pdfrwt beam="1">  1        2 0.21819524E+00 0.10000345E+04</pdfrwt>
<pdfrwt beam="2">  1       -2 0.27120519E-01 0.10000345E+04</pdfrwt>
<totfact> 0.20916222E+02</totfact>
</mgrwt>
</event>
<event>
 9    1  0.4342579E-036  0.1001083E+04  0.7818608E-02  0.8680007E-01
         -2   -1    0    0    0  501 -0.00000000000E+00  0.00000000000E+00  0.11595848784E+03  0.11595848784E+03  0.00000000000E+00 0. -1.
          2   -1    0    0  501    0  0.00000000000E+00 -0.00000000000E+00 -0.21606154159E+04  0.21606154159E+04  0.00000000000E+00 0. -1.
         36    2    1    2    0    0 -0.71054273576E-14  0.28421709430E-13 -0.20446569280E+04  0.22765739037E+04  0.10010828066E+04 0.  0.
         25    2    3    3    0    0 -0.15327304621E+02 -0.66181358392E+02 -0.10440926561E+03  0.17691664144E+03  0.12563162344E+03 0.  0.
         35    2    3    3    0    0  0.15327304621E+02  0.66181358392E+02 -0.19402476624E+04  0.20996572623E+04  0.79961536313E+03 0.  0.
         22    1    5    5    0    0  0.37920103198E+03 -0.11031879635E+03 -0.86572956517E+03  0.95155206873E+03  0.00000000000E+00 0.  1.
         22    1    5    5    0    0 -0.36387372736E+03  0.17650015475E+03 -0.10745180972E+04  0.11481051935E+04  0.00000000000E+00 0.  1.
          5    1    4    4  502    0  0.24911452832E+02 -0.43154809887E+02  0.12050245909E+02  0.51480253740E+02  0.47000000000E+01 0. -1.
         -5    1    4    4    0  502 -0.40238757453E+02 -0.23026548505E+02 -0.11645951152E+03  0.12543638770E+03  0.47000000000E+01 0. -1.
<mgrwt>
<rscale>  0 0.10010828E+04</rscale>
<asrwt>0</asrwt>
<pdfrwt beam="1">  1        2 0.33240239E+00 0.10010828E+04</pdfrwt>
<pdfrwt beam="2">  1       -2 0.17839766E-01 0.10010828E+04</pdfrwt>
<totfact> 0.16501310E+02</totfact>
</mgrwt>
</event>
<event>
 9    1  0.4342579E-036  0.9997463E+03  0.7818608E-02  0.8681280E-01
         -2   -1    0    0    0  501 -0.00000000000E+00  0.00000000000E+00  0.20802280349E+03  0.20802280349E+03  0.00000000000E+00 0. -1.
          2   -1    0    0  501    0  0.00000000000E+00 -0.00000000000E+00 -0.12011816181E+04  0.12011816181E+04  0.00000000000E+00 0. -1.
         36    2    1    2    0    0  0.00000000000E+00  0.00000000000E+00 -0.99315881465E+03  0.14092044216E+04  0.99974630323E+03 0.  0.
         25    2    3    3    0    0  0.13704823615E+03  0.44118172094E+02 -0.17849361851E+03  0.26140133589E+03  0.12546734403E+03 0.  0.
         35    2    3    3    0    0 -0.13704823615E+03 -0.44118172094E+02 -0.81466519614E+03  0.11478030857E+04  0.79564056562E+03 0.  0.
         22    1    5    5    0    0 -0.16682848832E+02 -0.11848395847E+03  0.13916806558E+03  0.18353342022E+03  0.00000000000E+00 0.  1.
         22    1    5    5    0    0 -0.12036538732E+03  0.74365786378E+02 -0.95383326172E+03  0.96426966551E+03  0.00000000000E+00 0.  1.
          5    1    4    4  502    0  0.61798617935E+02 -0.22269139527E+02 -0.11989001649E+02  0.66938852056E+02  0.47000000000E+01 0.  1.
         -5    1    4    4    0  502  0.75249618218E+02  0.66387311621E+02 -0.16650461686E+03  0.19446248384E+03  0.47000000000E+01 0.  1.
<mgrwt>
<rscale>  0 0.99974630E+03</rscale>
<asrwt>0</asrwt>
<pdfrwt beam="1">  1        2 0.18479717E+00 0.99974630E+03</pdfrwt>
<pdfrwt beam="2">  1       -2 0.32003509E-01 0.99974630E+03</pdfrwt>
<totfact> 0.20681382E+02</totfact>
</mgrwt>
</event>
<event>
 9    1  0.4342579E-036  0.9998603E+03  0.7818608E-02  0.8681171E-01
         -2   -1    0    0    0  501 -0.00000000000E+00  0.00000000000E+00  0.43441571357E+03  0.43441571357E+03  0.00000000000E+00 0.  1.
          2   -1    0    0  501    0  0.00000000000E+00 -0.00000000000E+00 -0.57532483723E+03  0.57532483723E+03  0.00000000000E+00 0.  1.
         36    2    1    2    0    0  0.14210854715E-13  0.28421709430E-13 -0.14090912365E+03  0.10097405508E+04  0.99986028964E+03 0.  0.
         25    2    3    3    0    0  0.72454202033E+02  0.11908358670E+03 -0.14310947720E+02  0.18795579874E+03  0.12526798091E+03 0.  0.
         35    2    3    3    0    0 -0.72454202033E+02 -0.11908358670E+03 -0.12659817593E+03  0.82178475206E+03  0.79992035138E+03 0.  0.
         22    1    5    5    0    0  0.23714473485E+03  0.21673435740E+03 -0.16910940553E+03  0.36305564034E+03  0.00000000000E+00 0. -1.
         22    1    5    5    0    0 -0.30959893688E+03 -0.33581794410E+03  0.42511229597E+02  0.45872911172E+03  0.00000000000E+00 0. -1.
          5    1    4    4  502    0 -0.10459780669E+02  0.74168178152E+02 -0.46402145282E+02  0.88235903967E+02  0.47000000000E+01 0.  1.
         -5    1    4    4    0  502  0.82913982701E+02  0.44915408552E+02  0.32091197563E+02  0.99719894774E+02  0.47000000000E+01 0.  1.
<mgrwt>
<rscale>  0 0.99986029E+03</rscale>
<asrwt>0</asrwt>
<pdfrwt beam="1">  1        2 0.88511514E-01 0.99986029E+03</pdfrwt>
<pdfrwt beam="2">  1       -2 0.66833186E-01 0.99986029E+03</pdfrwt>
<totfact> 0.12976938E+02</totfact>
</mgrwt>
</event>
<event>
 9    1  0.4342579E-036  0.1001553E+04  0.7818608E-02  0.8679560E-01
         -2   -1    0    0    0  501 -0.00000000000E+00  0.00000000000E+00  0.18257149903E+03  0.18257149903E+03  0.00000000000E+00 0. -1.
          2   -1    0    0  501    0  0.00000000000E+00 -0.00000000000E+00 -0.13735828843E+04  0.13735828843E+04  0.00000000000E+00 0. -1.
         36    2    1    2    0    0 -0.35527136788E-14  0.00000000000E+00 -0.11910113852E+04  0.15561543833E+04  0.10015529666E+04 0.  0.
         25    2    3    3    0    0 -0.22085668076E+02 -0.11888074849E+03 -0.33060665234E+03  0.37364532726E+03  0.12525838462E+03 0.  0.
         35    2    3    3    0    0  0.22085668076E+02  0.11888074849E+03 -0.86040473291E+03  0.11825090560E+04  0.80212901339E+03 0.  0.
         22    1    5    5    0    0  0.41570042750E+02 -0.69518363099E+02 -0.96347691415E+03  0.96687570833E+03  0.00000000000E+00 0.  1.
         22    1    5    5    0    0 -0.19484374673E+02  0.18839911159E+03  0.10307218124E+03  0.21563334772E+03  0.00000000000E+00 0.  1.
          5    1    4    4  502    0 -0.47068956602E+02 -0.93298959514E+02 -0.11670139997E+03  0.15672105563E+03  0.47000000000E+01 0. -1.
         -5    1    4    4    0  502  0.24983288526E+02 -0.25581788973E+02 -0.21390525237E+03  0.21692427163E+03  0.47000000000E+01 0. -1.
<mgrwt>
<rscale>  0 0.10015530E+04</rscale>
<asrwt>0</asrwt>
<pdfrwt beam="1">  1        2 0.21132044E+00 0.10015530E+04</pdfrwt>
<pdfrwt beam="2">  1       -2 0.28087924E-01 0.10015530E+04</pdfrwt>
<totfact> 0.20827251E+02</totfact>
</mgrwt>
</event>
<event>
 9    1  0.4342579E-036  0.9999080E+03  0.7818608E-02  0.8681126E-01
          2   -1    0    0  501    0  0.00000000000E+00  0.00000000000E+00  0.12547550505E+04  0.12547550505E+04  0.00000000000E+00 0. -1.
         -2   -1    0    0    0  501 -0.00000000000E+00 -0.00000000000E+00 -0.19920541593E+03  0.19920541593E+03  0.00000000000E+00 0. -1.
         36    2    1    2    0    0  0.28421709430E-13  0.71054273576E-14  0.10555496345E+04  0.14539604664E+04  0.99990799921E+03 0.  0.
         25    2    3    3    0    0 -0.13164697560E+03  0.22407005028E+02  0.25710926615E+03  0.31550411064E+03  0.12491864967E+03 0.  0.
         35    2    3    3    0    0  0.13164697560E+03 -0.22407005028E+02  0.79844036837E+03  0.11384563557E+04  0.80046414787E+03 0.  0.
         22    1    5    5    0    0 -0.16674623810E+03  0.13805226163E+03 -0.52325142618E+02  0.22271204595E+03  0.00000000000E+00 0. -1.
         22    1    5    5    0    0  0.29839321369E+03 -0.16045926666E+03  0.85076551099E+03  0.91574430980E+03  0.00000000000E+00 0. -1.
          5    1    4    4  502    0 -0.37794637115E+02  0.68308018176E+02  0.11434735759E+03  0.13853457377E+03  0.47000000000E+01 0. -1.
         -5    1    4    4    0  502 -0.93852338482E+02 -0.45901013149E+02  0.14276190855E+03  0.17696953687E+03  0.47000000000E+01 0. -1.
<mgrwt>
<rscale>  0 0.99990800E+03</rscale>
<asrwt>0</asrwt>
<pdfrwt beam="1">  1        2 0.19303924E+00 0.99990800E+03</pdfrwt>
<pdfrwt beam="2">  1       -2 0.30646988E-01 0.99990800E+03</pdfrwt>
<totfact> 0.20825947E+02</totfact>
</mgrwt>
</event>
<event>
 9    1  0.4342579E-036  0.1000229E+04  0.7818608E-02  0.8680820E-01
         -1   -1    0    0    0  501 -0.00000000000E+00  0.00000000000E+00  0.35547648750E+03  0.35547648750E+03  0.00000000000E+00 0. -1.
          1   -1    0    0  501    0  0.00000000000E+00 -0.00000000000E+00 -0.70360390181E+03  0.70360390181E+03  0.00000000000E+00 0. -1.
         36    2    1    2    0    0 -0.14210854715E-13 -0.28421709430E-13 -0.34812741431E+03  0.10590803893E+04  0.10002292609E+04 0.  0.
         25    2    3    3    0    0 -0.11809316143E+03  0.69837453631E+02 -0.33305822174E+02  0.18848934410E+03  0.12488270633E+03 0.  0.
         35    2    3    3    0    0  0.11809316143E+03 -0.69837453631E+02 -0.31482159213E+03  0.87059104521E+03  0.79999554275E+03 0.  0.
         22    1    5    5    0    0  0.28841884491E+02  0.35643223032E+03 -0.23478479245E+03  0.42778462791E+03  0.00000000000E+00 0. -1.
         22    1    5    5    0    0  0.89251276942E+02 -0.42626968395E+03 -0.80036799685E+02  0.44280641730E+03  0.00000000000E+00 0. -1.
          5    1    4    4  502    0 -0.74294724182E+02  0.23966130132E+02 -0.78236801572E+02  0.11062173636E+03  0.47000000000E+01 0.  1.
         -5    1    4    4    0  502 -0.43798437251E+02  0.45871323500E+02  0.44930979398E+02  0.77867607738E+02  0.47000000000E+01 0.  1.
<mgrwt>
<rscale>  0 0.10002293E+04</rscale>
<asrwt>0</asrwt>
<pdfrwt beam="1">  1        1 0.10824675E+00 0.10002293E+04</pdfrwt>
<pdfrwt beam="2">  1       -1 0.54688691E-01 0.10002293E+04</pdfrwt>
<totfact> 0.10499514E+02</totfact>
</mgrwt>
</event>
<event>
 9    1  0.4342579E-036  0.1000272E+04  0.7818608E-02  0.8680779E-01
          2   -1    0    0  501    0  0.00000000000E+00  0.00000000000E+00  0.87306399761E+03  0.87306399761E+03  0.00000000000E+00 0. -1.
         -2   -1    0    0    0  501 -0.00000000000E+00 -0.00000000000E+00 -0.28650363642E+03  0.28650363642E+03  0.00000000000E+00 0. -1.
         36    2    1    2    0    0 -0.14210854715E-13  0.42632564146E-13  0.58656036119E+03  0.11595676340E+04  0.10002719833E+04 0.  0.
         25    2    3    3    0    0  0.37035935306E+02 -0.31488278483E+02  0.26329300694E+03  0.29553329135E+03  0.12511413432E+03 0.  0.
         35    2    3    3    0    0 -0.37035935306E+02  0.31488278483E+02  0.32326735425E+03  0.86403434267E+03  0.79980647085E+03 0.  0.
         22    1    5    5    0    0 -0.13815175413E+03  0.34192125214E+03  0.38349690744E+03  0.53203940441E+03  0.00000000000E+00 0.  1.
         22    1    5    5    0    0  0.10111581882E+03 -0.31043297366E+03 -0.60229553192E+02  0.33199493826E+03  0.00000000000E+00 0.  1.
          5    1    4    4  502    0  0.43455426412E+02 -0.75811475690E+02  0.15063943001E+03  0.17421274869E+03  0.47000000000E+01 0. -1.
         -5    1    4    4    0  502 -0.64194911058E+01  0.44323197208E+02  0.11265357693E+03  0.12132054266E+03  0.47000000000E+01 0. -1.
<mgrwt>
<rscale>  0 0.10002720E+04</rscale>
<asrwt>0</asrwt>
<pdfrwt beam="1">  1        2 0.13431754E+00 0.10002720E+04</pdfrwt>
<pdfrwt beam="2">  1       -2 0.44077483E-01 0.10002720E+04</pdfrwt>
<totfact> 0.18067444E+02</totfact>
</mgrwt>
</event>
<event>
 9    1  0.4342579E-036  0.9996434E+03  0.7818608E-02  0.8681378E-01
          2   -1    0    0  501    0  0.00000000000E+00  0.00000000000E+00  0.32787500375E+04  0.32787500375E+04  0.00000000000E+00 0.  1.
         -2   -1    0    0    0  501 -0.00000000000E+00 -0.00000000000E+00 -0.76194200514E+02  0.76194200514E+02  0.00000000000E+00 0.  1.
         36    2    1    2    0    0  0.71054273576E-14 -0.28421709430E-13  0.32025558370E+04  0.33549442380E+04  0.99964341201E+03 0.  0.
         25    2    3    3    0    0  0.58240255371E+02 -0.80387830668E+02  0.92797320934E+03  0.94156191571E+03  0.12470137607E+03 0.  0.
         35    2    3    3    0    0 -0.58240255371E+02  0.80387830668E+02  0.22745826276E+04  0.24133823223E+04  0.80052106341E+03 0.  0.
         22    1    5    5    0    0  0.31058801196E+03 -0.11418467760E+03  0.14741948585E+04  0.15108783983E+04  0.00000000000E+00 0. -1.
         22    1    5    5    0    0 -0.36882826733E+03  0.19457250827E+03  0.80038776913E+03  0.90250392394E+03  0.00000000000E+00 0. -1.
          5    1    4    4  502    0  0.55538860979E+02 -0.99677251351E+02  0.89964086089E+03  0.90686045680E+03  0.47000000000E+01 0.  1.
         -5    1    4    4    0  502  0.27013943923E+01  0.19289420682E+02  0.28332348442E+02  0.34701458905E+02  0.47000000000E+01 0.  1.
<mgrwt>
<rscale>  0 0.99964341E+03</rscale>
<asrwt>0</asrwt>
<pdfrwt beam="1">  1        2 0.50442297E+00 0.99964341E+03</pdfrwt>
<pdfrwt beam="2">  1       -2 0.11722187E-01 0.99964341E+03</pdfrwt>
<totfact> 0.64714359E+01</totfact>
</mgrwt>
</event>
<event>
 9    1  0.4342579E-036  0.1000369E+04  0.7818608E-02  0.8680687E-01
         -2   -1    0    0    0  501 -0.00000000000E+00  0.00000000000E+00  0.21033748343E+03  0.21033748343E+03  0.00000000000E+00 0.  1.
          2   -1    0    0  501    0  0.00000000000E+00 -0.00000000000E+00 -0.11894428501E+04  0.11894428501E+04  0.00000000000E+00 0.  1.
         36    2    1    2    0    0 -0.14210854715E-13 -0.28421709430E-13 -0.97910536672E+03  0.13997803336E+04  0.10003687636E+04 0.  0.
         25    2    3    3    0    0 -0.11478664764E+03  0.81944899215E+02 -0.17617008921E+03  0.25777877040E+03  0.12459154527E+03 0.  0.
         35    2    3    3    0    0  0.11478664764E+03 -0.81944899215E+02 -0.80293527751E+03  0.11420015632E+04  0.79973218606E+03 0.  0.
         22    1    5    5    0    0  0.18016582592E+03  0.31157421469E+03 -0.58657346375E+03  0.68819084887E+03  0.00000000000E+00 0.  1.
         22    1    5    5    0    0 -0.65379178276E+02 -0.39351911390E+03 -0.21636181375E+03  0.45381071430E+03  0.00000000000E+00 0.  1.
          5    1    4    4  502    0 -0.38814359132E+02  0.21068016983E+02  0.11876717102E+02  0.45973494793E+02  0.47000000000E+01 0.  1.
         -5    1    4    4    0  502 -0.75972288512E+02  0.60876882232E+02 -0.18804680631E+03  0.21180527561E+03  0.47000000000E+01 0.  1.
<mgrwt>
<rscale>  0 0.10003688E+04</rscale>
<asrwt>0</asrwt>
<pdfrwt beam="1">  1        2 0.18299121E+00 0.10003688E+04</pdfrwt>
<pdfrwt beam="2">  1       -2 0.32359612E-01 0.10003688E+04</pdfrwt>
<totfact> 0.20591028E+02</totfact>
</mgrwt>
</event>
<event>
 9    1  0.4342579E-036  0.9996835E+03  0.7818608E-02  0.8681339E-01
         -1   -1    0    0    0  501 -0.00000000000E+00  0.00000000000E+00  0.23549296858E+03  0.23549296858E+03  0.00000000000E+00 0. -1.
          1   -1    0    0  501    0  0.00000000000E+00 -0.00000000000E+00 -0.10609308648E+04  0.10609308648E+04  0.00000000000E+00 0. -1.
         36    2    1    2    0    0  0.00000000000E+00  0.71054273576E-14 -0.82543789624E+03  0.12964238334E+04  0.99968346752E+03 0.  0.
         25    2    3    3    0    0  0.11960076599E+03  0.22312901223E+02 -0.23812737551E+03  0.29652577052E+03  0.12814318878E+03 0.  0.
         35    2    3    3    0    0 -0.11960076599E+03 -0.22312901223E+02 -0.58731052073E+03  0.99989806287E+03  0.80003767385E+03 0.  0.
         22    1    5    5    0    0 -0.23105010406E+03  0.32759962845E+03 -0.46245383408E+03  0.61202060080E+03  0.00000000000E+00 0. -1.
         22    1    5    5    0    0  0.11144933807E+03 -0.34991252967E+03 -0.12485668665E+03  0.38787746207E+03  0.00000000000E+00 0. -1.
          5    1    4    4  502    0  0.77769648857E+02  0.63856469673E+02 -0.83062094924E+02  0.13056480619E+03  0.47000000000E+01 0. -1.
         -5    1    4    4    0  502  0.41831117137E+02 -0.41543568450E+02 -0.15506528058E+03  0.16596096433E+03  0.47000000000E+01 0. -1.
<mgrwt>
<rscale>  0 0.99968347E+03</rscale>
<asrwt>0</asrwt>
<pdfrwt beam="1">  1        1 0.16322013E+00 0.99968347E+03</pdfrwt>
<pdfrwt beam="2">  1       -1 0.36229688E-01 0.99968347E+03</pdfrwt>
<totfact> 0.11028074E+02</totfact>
</mgrwt>
</event>
<event>
 9    1  0.4342579E-036  0.9989573E+03  0.7818608E-02  0.8682032E-01
         -2   -1    0    0    0  501 -0.00000000000E+00  0.00000000000E+00  0.54291240010E+02  0.54291240010E+02  0.00000000000E+00 0.  1.
          2   -1    0    0  501    0  0.00000000000E+00 -0.00000000000E+00 -0.45951970264E+04  0.45951970264E+04  0.00000000000E+00 0.  1.
         36    2    1    2    0    0  0.00000000000E+00  0.14210854715E-13 -0.45409057864E+04  0.46494882664E+04  0.99895734574E+03 0.  0.
         25    2    3    3    0    0 -0.90845385899E+02  0.71747229579E+02 -0.12184161011E+04  0.12300940971E+04  0.12326046939E+03 0.  0.
         35    2    3    3    0    0  0.90845385899E+02 -0.71747229579E+02 -0.33224896853E+04  0.34193941693E+04  0.79994889016E+03 0.  0.
         22    1    5    5    0    0  0.38068588545E+03 -0.19949715247E+03 -0.12268964628E+04  0.12999983798E+04  0.00000000000E+00 0.  1.
         22    1    5    5    0    0 -0.28984049955E+03  0.12774992290E+03 -0.20955932225E+04  0.21193957894E+04  0.00000000000E+00 0.  1.
          5    1    4    4  502    0 -0.62984078809E+02  0.84441042098E+02 -0.11519312433E+04  0.11567475797E+04  0.47000000000E+01 0.  1.
         -5    1    4    4    0  502 -0.27861307091E+02 -0.12693812519E+02 -0.66484857789E+02  0.73346517465E+02  0.47000000000E+01 0.  1.
<mgrwt>
<rscale>  0 0.99895735E+03</rscale>
<asrwt>0</asrwt>
<pdfrwt beam="1">  1        2 0.70695336E+00 0.99895735E+03</pdfrwt>
<pdfrwt beam="2">  1       -2 0.83524988E-02 0.99895735E+03</pdfrwt>
<totfact> 0.80579014E+00</totfact>
</mgrwt>
</event>
<event>
 9    1  0.4342579E-036  0.9989229E+03  0.7818608E-02  0.8682064E-01
          1   -1    0    0  501    0  0.00000000000E+00  0.00000000000E+00  0.49848514869E+03  0.49848514869E+03  0.00000000000E+00 0. -1.
         -1   -1    0    0    0  501 -0.00000000000E+00 -0.00000000000E+00 -0.50043968195E+03  0.50043968195E+03  0.00000000000E+00 0. -1.
         36    2    1    2    0    0 -0.42632564146E-13  0.14210854715E-13 -0.19545332603E+01  0.99892483063E+03  0.99892291847E+03 0.  0.
         25    2    3    3    0    0 -0.62858534998E+02 -0.92437269044E+02  0.88143295013E+02  0.18941332696E+03  0.12494928509E+03 0.  0.
         35    2    3    3    0    0  0.62858534998E+02  0.92437269044E+02 -0.90097828274E+02  0.80951150367E+03  0.79667773396E+03 0.  0.
         22    1    5    5    0    0  0.37614955677E+03  0.19210764493E+03  0.94016872196E+02  0.43270429690E+03  0.00000000000E+00 0.  1.
         22    1    5    5    0    0 -0.31329102177E+03 -0.99670375883E+02 -0.18411470047E+03  0.37680720678E+03  0.00000000000E+00 0.  1.
          5    1    4    4  502    0 -0.70050542266E+01 -0.10802638778E+03  0.46739713688E+02  0.11800619508E+03  0.47000000000E+01 0. -1.
         -5    1    4    4    0  502 -0.55853480772E+02  0.15589118733E+02  0.41403581325E+02  0.71407131883E+02  0.47000000000E+01 0. -1.
<mgrwt>
<rscale>  0 0.99892292E+03</rscale>
<asrwt>0</asrwt>
<pdfrwt beam="1">  1        1 0.76690023E-01 0.99892292E+03</pdfrwt>
<pdfrwt beam="2">  1       -1 0.76990720E-01 0.99892292E+03</pdfrwt>
<totfact> 0.88906028E+01</totfact>
</mgrwt>
</event>
<event>
 9    1  0.4342579E-036  0.9998319E+03  0.7818608E-02  0.8681198E-01
         -1   -1    0    0    0  501 -0.00000000000E+00  0.00000000000E+00  0.66873648840E+03  0.66873648840E+03  0.00000000000E+00 0. -1.
          1   -1    0    0  501    0  0.00000000000E+00 -0.00000000000E+00 -0.37371362753E+03  0.37371362753E+03  0.00000000000E+00 0. -1.
         36    2    1    2    0    0  0.21316282073E-13  0.28421709430E-13  0.29502286087E+03  0.10424501159E+04  0.99983186374E+03 0.  0.
         25    2    3    3    0    0 -0.55344999822E+02  0.12194480100E+03  0.13550852012E+02  0.18425699173E+03  0.12583087822E+03 0.  0.
         35    2    3    3    0    0  0.55344999822E+02 -0.12194480100E+03  0.28147200886E+03  0.85819312420E+03  0.79958448156E+03 0.  0.
         22    1    5    5    0    0 -0.29088685829E+03 -0.28413683631E+03  0.46154813740E+02  0.40924219346E+03  0.00000000000E+00 0.  1.
         22    1    5    5    0    0  0.34623185812E+03  0.16219203530E+03  0.23531719512E+03  0.44895093074E+03  0.00000000000E+00 0.  1.
          5    1    4    4  502    0 -0.22629954173E+02  0.11307179450E+03 -0.38761844009E+02  0.12174529186E+03  0.47000000000E+01 0.  1.
         -5    1    4    4    0  502 -0.32715045649E+02  0.88730064996E+01  0.52312696022E+02  0.62511699875E+02  0.47000000000E+01 0.  1.
<mgrwt>
<rscale>  0 0.99983186E+03</rscale>
<asrwt>0</asrwt>
<pdfrwt beam="1">  1        1 0.57494404E-01 0.99983186E+03</pdfrwt>
<pdfrwt beam="2">  1       -1 0.10288254E+00 0.99983186E+03</pdfrwt>
<totfact> 0.70335072E+01</totfact>
</mgrwt>
</event>
<event>
 9    1  0.4342579E-036  0.9995074E+03  0.7818608E-02  0.8681507E-01
          1   -1    0    0  501    0  0.00000000000E+00  0.00000000000E+00  0.96121308777E+03  0.96121308777E+03  0.00000000000E+00 0. -1.
         -1   -1    0    0    0  501 -0.00000000000E+00 -0.00000000000E+00 -0.25983181019E+03  0.25983181019E+03  0.00000000000E+00 0. -1.
         36    2    1    2    0    0  0.00000000000E+00  0.14210854715E-13  0.70138127759E+03  0.12210448980E+04  0.99950735179E+03 0.  0.
         25    2    3    3    0    0 -0.10878007244E+03  0.32361319290E+02  0.23323633983E+03  0.28738637664E+03  0.12373916162E+03 0.  0.
         35    2    3    3    0    0  0.10878007244E+03 -0.32361319290E+02  0.46814493776E+03  0.93365852132E+03  0.79979884504E+03 0.  0.
         22    1    5    5    0    0  0.33634526674E+03 -0.27148556006E+03  0.10883147405E+03  0.44573179999E+03  0.00000000000E+00 0.  1.
         22    1    5    5    0    0 -0.22756519430E+03  0.23912424077E+03  0.35931346371E+03  0.48792672133E+03  0.00000000000E+00 0.  1.
          5    1    4    4  502    0 -0.52460559071E+02 -0.41981084058E+02  0.14033491534E+03  0.15566149216E+03  0.47000000000E+01 0. -1.
         -5    1    4    4    0  502 -0.56319513367E+02  0.74342403348E+02  0.92901424486E+02  0.13172488449E+03  0.47000000000E+01 0. -1.
<mgrwt>
<rscale>  0 0.99950735E+03</rscale>
<asrwt>0</asrwt>
<pdfrwt beam="1">  1        1 0.14787893E+00 0.99950735E+03</pdfrwt>
<pdfrwt beam="2">  1       -1 0.39974125E-01 0.99950735E+03</pdfrwt>
<totfact> 0.11116715E+02</totfact>
</mgrwt>
</event>
<event>
 9    1  0.4342579E-036  0.9989993E+03  0.7818608E-02  0.8681991E-01
         -1   -1    0    0    0  501 -0.00000000000E+00  0.00000000000E+00  0.15220872688E+03  0.15220872688E+03  0.00000000000E+00 0. -1.
          1   -1    0    0  501    0  0.00000000000E+00 -0.00000000000E+00 -0.16391959128E+04  0.16391959128E+04  0.00000000000E+00 0. -1.
         36    2    1    2    0    0  0.17763568394E-14 -0.14210854715E-13 -0.14869871859E+04  0.17914046396E+04  0.99899934533E+03 0.  0.
         25    2    3    3    0    0 -0.34972409079E+01 -0.38687119773E+02 -0.51833195481E+03  0.53447884092E+03  0.12446160886E+03 0.  0.
         35    2    3    3    0    0  0.34972409079E+01  0.38687119773E+02 -0.96865523107E+03  0.12569257987E+04  0.80003786342E+03 0.  0.
         22    1    5    5    0    0 -0.10611234278E+03 -0.35142177809E+03 -0.62855869312E+03  0.72790323952E+03  0.00000000000E+00 0. -1.
         22    1    5    5    0    0  0.10960958369E+03  0.39010889786E+03 -0.34009653795E+03  0.52902255921E+03  0.00000000000E+00 0. -1.
          5    1    4    4  502    0  0.14442597009E+02  0.35218771798E+02 -0.70938934217E+02  0.80643492504E+02  0.47000000000E+01 0. -1.
         -5    1    4    4    0  502 -0.17939837917E+02 -0.73905891572E+02 -0.44739302060E+03  0.45383534841E+03  0.47000000000E+01 0. -1.
<mgrwt>
<rscale>  0 0.99899935E+03</rscale>
<asrwt>0</asrwt>
<pdfrwt beam="1">  1        1 0.25218399E+00 0.99899935E+03</pdfrwt>
<pdfrwt beam="2">  1       -1 0.23416727E-01 0.99899935E+03</pdfrwt>
<totfact> 0.87866549E+01</totfact>
</mgrwt>
</event>
<event>
 9    1  0.4342579E-036  0.9994878E+03  0.7818608E-02  0.8681526E-01
          3   -1    0    0  501    0  0.00000000000E+00  0.00000000000E+00  0.11698491257E+04  0.11698491257E+04  0.00000000000E+00 0. -1.
         -3   -1    0    0    0  501 -0.00000000000E+00 -0.00000000000E+00 -0.21348390796E+03  0.21348390796E+03  0.00000000000E+00 0. -1.
         36    2    1    2    0    0  0.19539925233E-13  0.00000000000E+00  0.95636521778E+03  0.13833330337E+04  0.99948779499E+03 0.  0.
         25    2    3    3    0    0  0.12558934094E+02 -0.44843103562E+02  0.36160220977E+03  0.38547879783E+03  0.12517633442E+03 0.  0.
         35    2    3    3    0    0 -0.12558934094E+02  0.44843103562E+02  0.59476300801E+03  0.99785423587E+03  0.79987587136E+03 0.  0.
         22    1    5    5    0    0 -0.16905345092E+03  0.38470937290E+03  0.37932246333E+03  0.56609707829E+03  0.00000000000E+00 0.  1.
         22    1    5    5    0    0  0.15649451683E+03 -0.33986626933E+03  0.21544054467E+03  0.43175715758E+03  0.00000000000E+00 0.  1.
          5    1    4    4  502    0 -0.31320058597E+01 -0.87498612135E+02  0.22793637433E+03  0.24421895366E+03  0.47000000000E+01 0.  1.
         -5    1    4    4    0  502  0.15690939954E+02  0.42655508574E+02  0.13366583544E+03  0.14125984416E+03  0.47000000000E+01 0.  1.
<mgrwt>
<rscale>  0 0.99948779E+03</rscale>
<asrwt>0</asrwt>
<pdfrwt beam="1">  1        3 0.17997678E+00 0.99948779E+03</pdfrwt>
<pdfrwt beam="2">  1       -3 0.32843679E-01 0.99948779E+03</pdfrwt>
<totfact> 0.73767167E+00</totfact>
</mgrwt>
</event>
<event>
 9    1  0.4342579E-036  0.1000070E+04  0.7818608E-02  0.8680971E-01
         -2   -1    0    0    0  501 -0.00000000000E+00  0.00000000000E+00  0.72351805098E+03  0.72351805098E+03  0.00000000000E+00 0.  1.
          2   -1    0    0  501    0  0.00000000000E+00 -0.00000000000E+00 -0.34558221023E+03  0.34558221023E+03  0.00000000000E+00 0.  1.
         36    2    1    2    0    0  0.00000000000E+00  0.21316282073E-13  0.37793584074E+03  0.10691002612E+04  0.10000699320E+04 0.  0.
         25    2    3    3    0    0  0.48081233233E+02 -0.28682934503E+02 -0.59326690072E+02  0.14923550124E+03  0.12496824779E+03 0.  0.
         35    2    3    3    0    0 -0.48081233233E+02  0.28682934503E+02  0.43726253081E+03  0.91986475997E+03  0.80735255004E+03 0.  0.
         22    1    5    5    0    0 -0.16538709081E+03 -0.33699403092E+03  0.37538812713E+03  0.53088050696E+03  0.00000000000E+00 0.  1.
         22    1    5    5    0    0  0.11730585758E+03  0.36567696542E+03  0.61874403686E+02  0.38898425301E+03  0.00000000000E+00 0.  1.
          5    1    4    4  502    0 -0.25104616360E+02 -0.33462979671E+02 -0.62865332457E+02  0.75658131064E+02  0.47000000000E+01 0. -1.
         -5    1    4    4    0  502  0.73185849593E+02  0.47800451676E+01  0.35386423857E+01  0.73577370179E+02  0.47000000000E+01 0. -1.
<mgrwt>
<rscale>  0 0.10000699E+04</rscale>
<asrwt>0</asrwt>
<pdfrwt beam="1">  1        2 0.53166494E-01 0.10000699E+04</pdfrwt>
<pdfrwt beam="2">  1       -2 0.11131047E+00 0.10000699E+04</pdfrwt>
<totfact> 0.70433118E+01</totfact>
</mgrwt>
</event>
<event>
 9    1  0.4342579E-036  0.9994601E+03  0.7818608E-02  0.8681552E-01
          1   -1    0    0  501    0  0.00000000000E+00  0.00000000000E+00  0.13669966429E+04  0.13669966429E+04  0.00000000000E+00 0. -1.
         -1   -1    0    0    0  501 -0.00000000000E+00 -0.00000000000E+00 -0.18268525553E+03  0.18268525553E+03  0.00000000000E+00 0. -1.
         36    2    1    2    0    0 -0.28421709430E-13  0.00000000000E+00  0.11843113874E+04  0.15496818985E+04  0.99946011630E+03 0.  0.
         25    2    3    3    0    0 -0.12919396195E+03 -0.48297737227E+02  0.21917471626E+03  0.28769580553E+03  0.12532984100E+03 0.  0.
         35    2    3    3    0    0  0.12919396195E+03  0.48297737227E+02  0.96513667114E+03  0.12619860929E+04  0.80130914979E+03 0.  0.
         22    1    5    5    0    0  0.29974944517E+03  0.23667632855E+03  0.15370264988E+03  0.41169153374E+03  0.00000000000E+00 0.  1.
         22    1    5    5    0    0 -0.17055548322E+03 -0.18837859132E+03  0.81143402125E+03  0.85029455918E+03  0.00000000000E+00 0.  1.
          5    1    4    4  502    0 -0.13913617613E+03 -0.67609828177E+02  0.15193465976E+03  0.21687829585E+03  0.47000000000E+01 0.  1.
         -5    1    4    4    0  502  0.99422141734E+01  0.19312090950E+02  0.67240056504E+02  0.70817509686E+02  0.47000000000E+01 0.  1.
<mgrwt>
<rscale>  0 0.99946012E+03</rscale>
<asrwt>0</asrwt>
<pdfrwt beam="1">  1        1 0.21030717E+00 0.99946012E+03</pdfrwt>
<pdfrwt beam="2">  1       -1 0.28105425E-01 0.99946012E+03</pdfrwt>
<totfact> 0.10100814E+02</totfact>
</mgrwt>
</event>
<event>
 9    1  0.4342579E-036  0.1000114E+04  0.7818608E-02  0.8680929E-01
          2   -1    0    0  501    0  0.00000000000E+00  0.00000000000E+00  0.10809020369E+04  0.10809020369E+04  0.00000000000E+00 0.  1.
         -2   -1    0    0    0  501 -0.00000000000E+00 -0.00000000000E+00 -0.23134107689E+03  0.23134107689E+03  0.00000000000E+00 0.  1.
         36    2    1    2    0    0 -0.14210854715E-13  0.00000000000E+00  0.84956096004E+03  0.13122431138E+04  0.10001140760E+04 0.  0.
         25    2    3    3    0    0 -0.63970411467E+02 -0.79588342213E+02  0.23134374172E+02  0.15837538965E+03  0.11883201176E+03 0.  0.
         35    2    3    3    0    0  0.63970411467E+02  0.79588342213E+02  0.82642658587E+03  0.11538677242E+04  0.79875109095E+03 0.  0.
         22    1    5    5    0    0  0.34064691983E+03  0.24420383420E+03  0.23507310162E+03  0.48055717634E+03  0.00000000000E+00 0.  1.
         22    1    5    5    0    0 -0.27667650837E+03 -0.16461549199E+03  0.59135348425E+03  0.67331054783E+03  0.00000000000E+00 0.  1.
          5    1    4    4  502    0 -0.94478561223E+02 -0.52994604532E+02  0.38162678311E+02  0.11494827818E+03  0.47000000000E+01 0.  1.
         -5    1    4    4    0  502  0.30508149755E+02 -0.26593737681E+02 -0.15028304139E+02  0.43427111470E+02  0.47000000000E+01 0.  1.
<mgrwt>
<rscale>  0 0.10001141E+04</rscale>
<asrwt>0</asrwt>
<pdfrwt beam="1">  1        2 0.16629262E+00 0.10001141E+04</pdfrwt>
<pdfrwt beam="2">  1       -2 0.35590936E-01 0.10001141E+04</pdfrwt>
<totfact> 0.20050464E+02</totfact>
</mgrwt>
</event>
<event>
 9    1  0.4342579E-036  0.1000972E+04  0.7818608E-02  0.8680113E-01
          2   -1    0    0  501    0  0.00000000000E+00  0.00000000000E+00  0.30684602838E+03  0.30684602838E+03  0.00000000000E+00 0. -1.
         -2   -1    0    0    0  501 -0.00000000000E+00 -0.00000000000E+00 -0.81632502792E+03  0.81632502792E+03  0.00000000000E+00 0. -1.
         36    2    1    2    0    0  0.00000000000E+00  0.14210854715E-13 -0.50947899954E+03  0.11231710563E+04  0.10009717133E+04 0.  0.
         25    2    3    3    0    0  0.13591338767E+03  0.38585420200E+02 -0.13139851031E+03  0.22950516111E+03  0.12428099961E+03 0.  0.
         35    2    3    3    0    0 -0.13591338767E+03 -0.38585420200E+02 -0.37808048924E+03  0.89366589519E+03  0.79732840931E+03 0.  0.
         22    1    5    5    0    0  0.56851702237E+02 -0.12194898577E+03  0.22105686184E+03  0.25878525333E+03  0.00000000000E+00 0. -1.
         22    1    5    5    0    0 -0.19276508991E+03  0.83363565568E+02 -0.59913735108E+03  0.63488064186E+03  0.00000000000E+00 0. -1.
          5    1    4    4  502    0  0.14498950807E+03  0.37812606278E+02 -0.14757017009E+03  0.21035873108E+03  0.47000000000E+01 0. -1.
         -5    1    4    4    0  502 -0.90761203946E+01  0.77281392175E+00  0.16171659779E+02  0.19146430027E+02  0.47000000000E+01 0. -1.
<mgrwt>
<rscale>  0 0.10009717E+04</rscale>
<asrwt>0</asrwt>
<pdfrwt beam="1">  1        2 0.47207082E-01 0.10009717E+04</pdfrwt>
<pdfrwt beam="2">  1       -2 0.12558846E+00 0.10009717E+04</pdfrwt>
<totfact> 0.58828884E+01</totfact>
</mgrwt>
</event>
<event>
 9    1  0.4342579E-036  0.9994692E+03  0.7818608E-02  0.8681544E-01
          2   -1    0    0  501    0  0.00000000000E+00  0.00000000000E+00  0.14402963512E+04  0.14402963512E+04  0.00000000000E+00 0. -1.
         -2   -1    0    0    0  501 -0.00000000000E+00 -0.00000000000E+00 -0.17339117835E+03  0.17339117835E+03  0.00000000000E+00 0. -1.
         36    2    1    2    0    0 -0.14210854715E-13  0.42632564146E-13  0.12669051729E+04  0.16136875296E+04  0.99946922217E+03 0.  0.
         25    2    3    3    0    0 -0.12333237793E+03  0.58670561402E+02  0.28824362518E+03  0.34248800332E+03  0.12474187244E+03 0.  0.
         35    2    3    3    0    0  0.12333237793E+03 -0.58670561402E+02  0.97866154772E+03  0.12711995263E+04  0.79969788071E+03 0.  0.
         22    1    5    5    0    0 -0.87762341985E+02 -0.32772321318E+03  0.83309303520E+03  0.89952695258E+03  0.00000000000E+00 0. -1.
         22    1    5    5    0    0  0.21109471991E+03  0.26905265178E+03  0.14556851252E+03  0.37167257370E+03  0.00000000000E+00 0. -1.
          5    1    4    4  502    0 -0.17705828225E+02 -0.31133271619E+02  0.22061933329E+02  0.42327247218E+02  0.47000000000E+01 0.  1.
         -5    1    4    4    0  502 -0.10562654970E+03  0.89803833021E+02  0.26618169185E+03  0.30016075610E+03  0.47000000000E+01 0.  1.
<mgrwt>
<rscale>  0 0.99946922E+03</rscale>
<asrwt>0</asrwt>
<pdfrwt beam="1">  1        2 0.22158405E+00 0.99946922E+03</pdfrwt>
<pdfrwt beam="2">  1       -2 0.26675567E-01 0.99946922E+03</pdfrwt>
<totfact> 0.20932056E+02</totfact>
</mgrwt>
</event>
<event>
 9    1  0.4342579E-036  0.1000877E+04  0.7818608E-02  0.8680204E-01
         -2   -1    0    0    0  501 -0.00000000000E+00  0.00000000000E+00  0.38499146465E+03  0.38499146465E+03  0.00000000000E+00 0. -1.
          2   -1    0    0  501    0  0.00000000000E+00 -0.00000000000E+00 -0.65050388632E+03  0.65050388632E+03  0.00000000000E+00 0. -1.
         36    2    1    2    0    0  0.35527136788E-13 -0.14210854715E-13 -0.26551242167E+03  0.10354953510E+04  0.10008765038E+04 0.  0.
         25    2    3    3    0    0 -0.18136187437E+02  0.11936704509E+03  0.26693425462E+02  0.17519272167E+03  0.12410696199E+03 0.  0.
         35    2    3    3    0    0  0.18136187437E+02 -0.11936704509E+03 -0.29220584713E+03  0.86030262929E+03  0.80009933390E+03 0.  0.
         22    1    5    5    0    0 -0.31584970016E+03 -0.45907000836E+02  0.10516190397E+03  0.33604688938E+03  0.00000000000E+00 0.  1.
         22    1    5    5    0    0  0.33398588759E+03 -0.73460044257E+02 -0.39736775110E+03  0.52425573991E+03  0.00000000000E+00 0.  1.
          5    1    4    4  502    0 -0.83212786459E+01  0.22184424308E+02  0.65631579328E+02  0.69935588689E+02  0.47000000000E+01 0. -1.
         -5    1    4    4    0  502 -0.98149087908E+01  0.97182620785E+02 -0.38938153866E+02  0.10525713298E+03  0.47000000000E+01 0. -1.
<mgrwt>
<rscale>  0 0.10008765E+04</rscale>
<asrwt>0</asrwt>
<pdfrwt beam="1">  1        2 0.10007752E+00 0.10008765E+04</pdfrwt>
<pdfrwt beam="2">  1       -2 0.59229456E-01 0.10008765E+04</pdfrwt>
<totfact> 0.14466721E+02</totfact>
</mgrwt>
</event>
<event>
 9    1  0.4342579E-036  0.9992386E+03  0.7818608E-02  0.8681763E-01
          2   -1    0    0  501    0  0.00000000000E+00  0.00000000000E+00  0.10150081115E+04  0.10150081115E+04  0.00000000000E+00 0. -1.
         -2   -1    0    0    0  501 -0.00000000000E+00 -0.00000000000E+00 -0.24592854212E+03  0.24592854212E+03  0.00000000000E+00 0. -1.
         36    2    1    2    0    0  0.00000000000E+00  0.42632564146E-13  0.76907956941E+03  0.12609366536E+04  0.99923864038E+03 0.  0.
         25    2    3    3    0    0 -0.98920063995E+02 -0.72791019798E+02  0.63780295929E+02  0.18738329601E+03  0.12633630456E+03 0.  0.
         35    2    3    3    0    0  0.98920063995E+02  0.72791019798E+02  0.70529927348E+03  0.10735533576E+04  0.79999127176E+03 0.  0.
         22    1    5    5    0    0 -0.62286113895E+01 -0.28835295364E+03  0.16680137436E+02  0.28890214339E+03  0.00000000000E+00 0. -1.
         22    1    5    5    0    0  0.10514867538E+03  0.36114397344E+03  0.68861913604E+03  0.78465121424E+03  0.00000000000E+00 0. -1.
          5    1    4    4  502    0 -0.10535107373E+03 -0.47955538893E+02 -0.27950804447E+01  0.11588133983E+03  0.47000000000E+01 0.  1.
         -5    1    4    4    0  502  0.64310097351E+01 -0.24835480906E+02  0.66575376374E+02  0.71501956179E+02  0.47000000000E+01 0.  1.
<mgrwt>
<rscale>  0 0.99923864E+03</rscale>
<asrwt>0</asrwt>
<pdfrwt beam="1">  1        2 0.15615509E+00 0.99923864E+03</pdfrwt>
<pdfrwt beam="2">  1       -2 0.37835161E-01 0.99923864E+03</pdfrwt>
<totfact> 0.19625190E+02</totfact>
</mgrwt>
</event>
<event>
 9    1  0.4342579E-036  0.9995614E+03  0.7818608E-02  0.8681456E-01
         -2   -1    0    0    0  501 -0.00000000000E+00  0.00000000000E+00  0.19452285788E+03  0.19452285788E+03  0.00000000000E+00 0.  1.
          2   -1    0    0  501    0  0.00000000000E+00 -0.00000000000E+00 -0.12840689952E+04  0.12840689952E+04  0.00000000000E+00 0.  1.
         36    2    1    2    0    0  0.14210854715E-13 -0.35527136788E-14 -0.10895461373E+04  0.14785918531E+04  0.99956144516E+03 0.  0.
         25    2    3    3    0    0  0.48132261035E+02 -0.24230531258E+02 -0.39248443283E+03  0.41542701498E+03  0.12502696335E+03 0.  0.
         35    2    3    3    0    0 -0.48132261035E+02  0.24230531258E+02 -0.69706170451E+03  0.10631648381E+04  0.80094982359E+03 0.  0.
         22    1    5    5    0    0 -0.34756628095E+03  0.23081730581E+03 -0.24847922105E+03  0.48561391208E+03  0.00000000000E+00 0. -1.
         22    1    5    5    0    0  0.29943401991E+03 -0.20658677455E+03 -0.44858248347E+03  0.57755092604E+03  0.00000000000E+00 0. -1.
          5    1    4    4  502    0  0.70233074382E+02  0.45832198925E+01 -0.11063700224E+03  0.13121100147E+03  0.47000000000E+01 0.  1.
         -5    1    4    4    0  502 -0.22100813347E+02 -0.28813751150E+02 -0.28184743059E+03  0.28421601351E+03  0.47000000000E+01 0.  1.
<mgrwt>
<rscale>  0 0.99956145E+03</rscale>
<asrwt>0</asrwt>
<pdfrwt beam="1">  1        2 0.19754908E+00 0.99956145E+03</pdfrwt>
<pdfrwt beam="2">  1       -2 0.29926593E-01 0.99956145E+03</pdfrwt>
<totfact> 0.20910822E+02</totfact>
</mgrwt>
</event>
<event>
 9    1  0.4342579E-036  0.9998973E+03  0.7818608E-02  0.8681136E-01
          2   -1    0    0  501    0  0.00000000000E+00  0.00000000000E+00  0.20065686056E+04  0.20065686056E+04  0.00000000000E+00 0. -1.
         -2   -1    0    0    0  501 -0.00000000000E+00 -0.00000000000E+00 -0.12456522282E+03  0.12456522282E+03  0.00000000000E+00 0. -1.
         36    2    1    2    0    0  0.28421709430E-13  0.00000000000E+00  0.18820033828E+04  0.21311338285E+04  0.99989732568E+03 0.  0.
         25    2    3    3    0    0  0.60034271798E+02 -0.45246463792E+02  0.60515667188E+03  0.62266269668E+03  0.12586850299E+03 0.  0.
         35    2    3    3    0    0 -0.60034271798E+02  0.45246463792E+02  0.12768467109E+04  0.15084711318E+04  0.79968511047E+03 0.  0.
         22    1    5    5    0    0  0.28470974606E+03  0.25214827153E+03  0.79218080719E+03  0.87874275054E+03  0.00000000000E+00 0. -1.
         22    1    5    5    0    0 -0.34474401786E+03 -0.20690180773E+03  0.48466590374E+03  0.62972838124E+03  0.00000000000E+00 0. -1.
          5    1    4    4  502    0  0.23453764235E+02 -0.76450363981E+02  0.21341678664E+03  0.22795515355E+03  0.47000000000E+01 0. -1.
         -5    1    4    4    0  502  0.36580507563E+02  0.31203900189E+02  0.39173988524E+03  0.39470754313E+03  0.47000000000E+01 0. -1.
<mgrwt>
<rscale>  0 0.99989733E+03</rscale>
<asrwt>0</asrwt>
<pdfrwt beam="1">  1        2 0.30870284E+00 0.99989733E+03</pdfrwt>
<pdfrwt beam="2">  1       -2 0.19163882E-01 0.99989733E+03</pdfrwt>
<totfact> 0.17890692E+02</totfact>
</mgrwt>
</event>
<event>
 9    1  0.4342579E-036  0.9999627E+03  0.7818608E-02  0.8681074E-01
         -3   -1    0    0    0  501 -0.00000000000E+00  0.00000000000E+00  0.37921683692E+03  0.37921683692E+03  0.00000000000E+00 0.  1.
          3   -1    0    0  501    0  0.00000000000E+00 -0.00000000000E+00 -0.65920419955E+03  0.65920419955E+03  0.00000000000E+00 0.  1.
         36    2    1    2    0    0  0.35527136788E-13  0.28421709430E-13 -0.27998736263E+03  0.10384210365E+04  0.99996266218E+03 0.  0.
         25    2    3    3    0    0 -0.41279392310E+02 -0.10400192037E+03  0.36520919669E+02  0.17133084365E+03  0.12449936843E+03 0.  0.
         35    2    3    3    0    0  0.41279392310E+02  0.10400192037E+03 -0.31650828230E+03  0.86709019283E+03  0.79946702375E+03 0.  0.
         22    1    5    5    0    0 -0.31560738602E+03 -0.14191269769E+03 -0.25386448771E+03  0.42917876695E+03  0.00000000000E+00 0. -1.
         22    1    5    5    0    0  0.35688677833E+03  0.24591461806E+03 -0.62643794586E+02  0.43791142589E+03  0.00000000000E+00 0. -1.
          5    1    4    4  502    0  0.42147029367E+02 -0.17496090656E+02  0.19549844070E+02  0.49867541305E+02  0.47000000000E+01 0. -1.
         -5    1    4    4    0  502 -0.83426421676E+02 -0.86505829715E+02  0.16971075598E+02  0.12146330234E+03  0.47000000000E+01 0. -1.
<mgrwt>
<rscale>  0 0.99996266E+03</rscale>
<asrwt>0</asrwt>
<pdfrwt beam="1">  1        3 0.10141603E+00 0.99996266E+03</pdfrwt>
<pdfrwt beam="2">  1       -3 0.58341052E-01 0.99996266E+03</pdfrwt>
<totfact> 0.10096321E+01</totfact>
</mgrwt>
</event>
<event>
 9    1  0.4342579E-036  0.9997679E+03  0.7818608E-02  0.8681259E-01
         -1   -1    0    0    0  501 -0.00000000000E+00  0.00000000000E+00  0.37632256031E+03  0.37632256031E+03  0.00000000000E+00 0.  1.
          1   -1    0    0  501    0  0.00000000000E+00 -0.00000000000E+00 -0.66401537244E+03  0.66401537244E+03  0.00000000000E+00 0.  1.
         36    2    1    2    0    0  0.14210854715E-13  0.24868995752E-13 -0.28769281214E+03  0.10403379328E+04  0.99976790315E+03 0.  0.
         25    2    3    3    0    0  0.32529469404E+02 -0.13046714451E+02 -0.19235292755E+03  0.23209485517E+03  0.12505994530E+03 0.  0.
         35    2    3    3    0    0 -0.32529469404E+02  0.13046714451E+02 -0.95339884583E+02  0.80824307758E+03  0.80183464363E+03 0.  0.
         22    1    5    5    0    0  0.22825390545E+03  0.30049099140E+03  0.74430708086E+02  0.38462268728E+03  0.00000000000E+00 0. -1.
         22    1    5    5    0    0 -0.26078337485E+03 -0.28744427695E+03 -0.16977059267E+03  0.42362039031E+03  0.00000000000E+00 0. -1.
          5    1    4    4  502    0  0.66436305190E+00  0.11212924776E+02  0.15870244483E+02  0.20003142759E+02  0.47000000000E+01 0. -1.
         -5    1    4    4    0  502  0.31865106353E+02 -0.24259639227E+02 -0.20822317204E+03  0.21209171241E+03  0.47000000000E+01 0. -1.
<mgrwt>
<rscale>  0 0.99976790E+03</rscale>
<asrwt>0</asrwt>
<pdfrwt beam="1">  1        1 0.10215621E+00 0.99976790E+03</pdfrwt>
<pdfrwt beam="2">  1       -1 0.57895779E-01 0.99976790E+03</pdfrwt>
<totfact> 0.10294826E+02</totfact>
</mgrwt>
</event>
<event>
 9    1  0.4342579E-036  0.1000536E+04  0.7818608E-02  0.8680528E-01
          1   -1    0    0  501    0  0.00000000000E+00  0.00000000000E+00  0.21904224173E+04  0.21904224173E+04  0.00000000000E+00 0.  1.
         -1   -1    0    0    0  501 -0.00000000000E+00 -0.00000000000E+00 -0.11425563623E+03  0.11425563623E+03  0.00000000000E+00 0.  1.
         36    2    1    2    0    0 -0.71054273576E-14  0.00000000000E+00  0.20761667810E+04  0.23046780535E+04  0.10005360701E+04 0.  0.
         25    2    3    3    0    0  0.87618614000E+01  0.92071758907E+02  0.63878930659E+03  0.65742460951E+03  0.12490540408E+03 0.  0.
         35    2    3    3    0    0 -0.87618614000E+01 -0.92071758907E+02  0.14373774744E+04  0.16472534440E+04  0.79927212241E+03 0.  0.
         22    1    5    5    0    0  0.21620557052E+03 -0.23143783927E+02  0.13904249119E+04  0.14073243830E+04  0.00000000000E+00 0.  1.
         22    1    5    5    0    0 -0.22496743192E+03 -0.68927974980E+02  0.46952562563E+02  0.23992906096E+03  0.00000000000E+00 0.  1.
          5    1    4    4  502    0 -0.38282630692E+02  0.49971373405E+02  0.51026588871E+03  0.51415568183E+03  0.47000000000E+01 0. -1.
         -5    1    4    4    0  502  0.47044492092E+02  0.42100385502E+02  0.12852341788E+03  0.14326892769E+03  0.47000000000E+01 0. -1.
<mgrwt>
<rscale>  0 0.10005361E+04</rscale>
<asrwt>0</asrwt>
<pdfrwt beam="1">  1        1 0.33698803E+00 0.10005361E+04</pdfrwt>
<pdfrwt beam="2">  1       -1 0.17577792E-01 0.10005361E+04</pdfrwt>
<totfact> 0.57900441E+01</totfact>
</mgrwt>
</event>
<event>
 9    1  0.4342579E-036  0.9999662E+03  0.7818608E-02  0.8681070E-01
         -2   -1    0    0    0  501 -0.00000000000E+00  0.00000000000E+00  0.55660423427E+03  0.55660423427E+03  0.00000000000E+00 0.  1.
          2   -1    0    0  501    0  0.00000000000E+00 -0.00000000000E+00 -0.44912177778E+03  0.44912177778E+03  0.00000000000E+00 0.  1.
         36    2    1    2    0    0 -0.28421709430E-13 -0.28421709430E-13  0.10748245648E+03  0.10057260120E+04  0.99996616586E+03 0.  0.
         25    2    3    3    0    0 -0.87505761383E+02 -0.10586742176E+03 -0.69731453919E+01  0.18582474234E+03  0.12496815931E+03 0.  0.
         35    2    3    3    0    0  0.87505761383E+02  0.10586742176E+03  0.11445560188E+03  0.81990126971E+03  0.80017050558E+03 0.  0.
         22    1    5    5    0    0 -0.26521186304E+03  0.29948490864E+03  0.11950595243E+03  0.41750474904E+03  0.00000000000E+00 0. -1.
         22    1    5    5    0    0  0.35271762442E+03 -0.19361748688E+03 -0.50503505546E+01  0.40239652067E+03  0.00000000000E+00 0. -1.
          5    1    4    4  502    0  0.30187173315E+02 -0.17065323855E+02  0.12228598819E+02  0.37069115718E+02  0.47000000000E+01 0.  1.
         -5    1    4    4    0  502 -0.11769293470E+03 -0.88802097908E+02 -0.19201744210E+02  0.14875562662E+03  0.47000000000E+01 0.  1.
<mgrwt>
<rscale>  0 0.99996617E+03</rscale>
<asrwt>0</asrwt>
<pdfrwt beam="1">  1        2 0.69095658E-01 0.99996617E+03</pdfrwt>
<pdfrwt beam="2">  1       -2 0.85631421E-01 0.99996617E+03</pdfrwt>
<totfact> 0.98990201E+01</totfact>
</mgrwt>
</event>
<event>
 9    1  0.4342579E-036  0.1000912E+04  0.7818608E-02  0.8680170E-01
          2   -1    0    0  501    0  0.00000000000E+00  0.00000000000E+00  0.66288248170E+03  0.66288248170E+03  0.00000000000E+00 0. -1.
         -2   -1    0    0    0  501 -0.00000000000E+00 -0.00000000000E+00 -0.37782899624E+03  0.37782899624E+03  0.00000000000E+00 0. -1.
         36    2    1    2    0    0  0.14210854715E-13 -0.14210854715E-13  0.28505348546E+03  0.10407114779E+04  0.10009120295E+04 0.  0.
         25    2    3    3    0    0 -0.97537142869E+02  0.87484694882E+02  0.34509395045E+02  0.18460254243E+03  0.12537995951E+03 0.  0.
         35    2    3    3    0    0  0.97537142869E+02 -0.87484694882E+02  0.25054409041E+03  0.85610893551E+03  0.80807369846E+03 0.  0.
         22    1    5    5    0    0 -0.28181999757E+03  0.13060389683E+03  0.27912158819E+03  0.41759879057E+03  0.00000000000E+00 0. -1.
         22    1    5    5    0    0  0.37935714044E+03 -0.21808859171E+03 -0.28577497779E+02  0.43851014494E+03  0.00000000000E+00 0. -1.
          5    1    4    4  502    0 -0.84781816064E+02  0.40862846474E+02  0.75739383057E+02  0.12089777791E+03  0.47000000000E+01 0. -1.
         -5    1    4    4    0  502 -0.12755326805E+02  0.46621848408E+02 -0.41229988012E+02  0.63704764518E+02  0.47000000000E+01 0. -1.
<mgrwt>
<rscale>  0 0.10009120E+04</rscale>
<asrwt>0</asrwt>
<pdfrwt beam="1">  1        2 0.10198192E+00 0.10009120E+04</pdfrwt>
<pdfrwt beam="2">  1       -2 0.58127538E-01 0.10009120E+04</pdfrwt>
<totfact> 0.14702635E+02</totfact>
</mgrwt>
</event>
<event>
 9    1  0.4342579E-036  0.1005236E+04  0.7818608E-02  0.8676068E-01
         -1   -1    0    0    0  501 -0.00000000000E+00  0.00000000000E+00  0.41899937241E+03  0.41899937241E+03  0.00000000000E+00 0. -1.
          1   -1    0    0  501    0  0.00000000000E+00 -0.00000000000E+00 -0.60292377949E+03  0.60292377949E+03  0.00000000000E+00 0. -1.
         36    2    1    2    0    0  0.35527136788E-14  0.00000000000E+00 -0.18392440708E+03  0.10219231519E+04  0.10052356644E+04 0.  0.
         25    2    3    3    0    0 -0.81613568456E+01  0.14527357487E+03 -0.25453105039E+02  0.19361435119E+03  0.12517043232E+03 0.  0.
         35    2    3    3    0    0  0.81613568456E+01 -0.14527357487E+03 -0.15847130204E+03  0.82830880072E+03  0.79988205161E+03 0.  0.
         22    1    5    5    0    0  0.23680216447E+03  0.20103407699E+03  0.11510387742E+03  0.33126857352E+03  0.00000000000E+00 0. -1.
         22    1    5    5    0    0 -0.22864080762E+03 -0.34630765186E+03 -0.27357517946E+03  0.49704022720E+03  0.00000000000E+00 0. -1.
          5    1    4    4  502    0  0.22630393617E+02 -0.15545207965E+02 -0.73606152140E+01  0.28810707424E+02  0.47000000000E+01 0. -1.
         -5    1    4    4    0  502 -0.30791750463E+02  0.16081878283E+03 -0.18092489825E+02  0.16480364376E+03  0.47000000000E+01 0. -1.
<mgrwt>
<rscale>  0 0.10052357E+04</rscale>
<asrwt>0</asrwt>
<pdfrwt beam="1">  1        1 0.92757505E-01 0.10052357E+04</pdfrwt>
<pdfrwt beam="2">  1       -1 0.64461442E-01 0.10052357E+04</pdfrwt>
<totfact> 0.96573719E+01</totfact>
</mgrwt>
</event>
<event>
 9    1  0.4342579E-036  0.1000036E+04  0.7818608E-02  0.8681004E-01
         -1   -1    0    0    0  501 -0.00000000000E+00  0.00000000000E+00  0.39557355596E+03  0.39557355596E+03  0.00000000000E+00 0.  1.
          1   -1    0    0  501    0  0.00000000000E+00 -0.00000000000E+00 -0.63203902465E+03  0.63203902465E+03  0.00000000000E+00 0.  1.
         36    2    1    2    0    0 -0.71054273576E-14 -0.14210854715E-13 -0.23646546869E+03  0.10276125806E+04  0.10000358483E+04 0.  0.
         25    2    3    3    0    0  0.23747805370E+02  0.68426024641E+02  0.78028906884E+02  0.16462652321E+03  0.12556792077E+03 0.  0.
         35    2    3    3    0    0 -0.23747805370E+02 -0.68426024641E+02 -0.31449437557E+03  0.86298605741E+03  0.80037000437E+03 0.  0.
         22    1    5    5    0    0 -0.24059021194E+03 -0.25651406325E+03  0.93711373626E+02  0.36395732754E+03  0.00000000000E+00 0.  1.
         22    1    5    5    0    0  0.21684240657E+03  0.18808803860E+03 -0.40820574920E+03  0.49902872987E+03  0.00000000000E+00 0.  1.
          5    1    4    4  502    0 -0.92485908648E+01  0.28571074601E+02 -0.31269282347E+02  0.43608494073E+02  0.47000000000E+01 0. -1.
         -5    1    4    4    0  502  0.32996396235E+02  0.39854950040E+02  0.10929818923E+03  0.12101802914E+03  0.47000000000E+01 0. -1.
<mgrwt>
<rscale>  0 0.10000358E+04</rscale>
<asrwt>0</asrwt>
<pdfrwt beam="1">  1        1 0.97236773E-01 0.10000358E+04</pdfrwt>
<pdfrwt beam="2">  1       -1 0.60857470E-01 0.10000358E+04</pdfrwt>
<totfact> 0.10074054E+02</totfact>
</mgrwt>
</event>
<event>
 9    1  0.4342579E-036  0.9994508E+03  0.7818608E-02  0.8681561E-01
          2   -1    0    0  501    0  0.00000000000E+00  0.00000000000E+00  0.15513502348E+04  0.15513502348E+04  0.00000000000E+00 0. -1.
         -2   -1    0    0    0  501 -0.00000000000E+00 -0.00000000000E+00 -0.16097297445E+03  0.16097297445E+03  0.00000000000E+00 0. -1.
         36    2    1    2    0    0 -0.14210854715E-13  0.42632564146E-13  0.13903772604E+04  0.17123232093E+04  0.99945077262E+03 0.  0.
         25    2    3    3    0    0 -0.33351861447E+02 -0.62285864085E+02  0.61688988162E+02  0.15989784434E+03  0.12949870206E+03 0.  0.
         35    2    3    3    0    0  0.33351861447E+02  0.62285864085E+02  0.13286882722E+04  0.15524253650E+04  0.79976253568E+03 0.  0.
         22    1    5    5    0    0  0.30009783599E+03 -0.20437555511E+03  0.35310601241E+03  0.50647007285E+03  0.00000000000E+00 0. -1.
         22    1    5    5    0    0 -0.26674597454E+03  0.26666141920E+03  0.97558225981E+03  0.10459552921E+04  0.00000000000E+00 0. -1.
          5    1    4    4  502    0 -0.33670892126E+01  0.14203014753E+02 -0.31828284096E+02  0.35329769124E+02  0.47000000000E+01 0.  1.
         -5    1    4    4    0  502 -0.29984772235E+02 -0.76488878838E+02  0.93517272258E+02  0.12456807521E+03  0.47000000000E+01 0.  1.
<mgrwt>
<rscale>  0 0.99945077E+03</rscale>
<asrwt>0</asrwt>
<pdfrwt beam="1">  1        2 0.23866926E+00 0.99945077E+03</pdfrwt>
<pdfrwt beam="2">  1       -2 0.24765074E-01 0.99945077E+03</pdfrwt>
<totfact> 0.20671228E+02</totfact>
</mgrwt>
</event>
<event>
 9    1  0.4342579E-036  0.1000024E+04  0.7818608E-02  0.8681015E-01
         -2   -1    0    0    0  501 -0.00000000000E+00  0.00000000000E+00  0.70295918108E+02  0.70295918108E+02  0.00000000000E+00 0. -1.
          2   -1    0    0  501    0  0.00000000000E+00 -0.00000000000E+00 -0.35565619526E+04  0.35565619526E+04  0.00000000000E+00 0. -1.
         36    2    1    2    0    0  0.00000000000E+00  0.28421709430E-13 -0.34862660345E+04  0.36268578707E+04  0.10000235753E+04 0.  0.
         25    2    3    3    0    0 -0.70476040606E+02  0.10567762569E+03 -0.44590999990E+03  0.48039793912E+03  0.12574505569E+03 0.  0.
         35    2    3    3    0    0  0.70476040606E+02 -0.10567762569E+03 -0.30403560346E+04  0.31464599316E+04  0.80019413340E+03 0.  0.
         22    1    5    5    0    0  0.21605828632E+03 -0.41154466948E+03 -0.19535478174E+04  0.20080834825E+04  0.00000000000E+00 0.  1.
         22    1    5    5    0    0 -0.14558224572E+03  0.30586704378E+03 -0.10868082172E+04  0.11383764490E+04  0.00000000000E+00 0.  1.
          5    1    4    4  502    0 -0.79318112026E+02  0.11490643382E+03 -0.27036713351E+03  0.30432766603E+03  0.47000000000E+01 0.  1.
         -5    1    4    4    0  502  0.88420714202E+01 -0.92288081268E+01 -0.17554286638E+03  0.17607027308E+03  0.47000000000E+01 0.  1.
<mgrwt>
<rscale>  0 0.10000236E+04</rscale>
<asrwt>0</asrwt>
<pdfrwt beam="1">  1        2 0.54716338E+00 0.10000236E+04</pdfrwt>
<pdfrwt beam="2">  1       -2 0.10814757E-01 0.10000236E+04</pdfrwt>
<totfact> 0.46000715E+01</totfact>
</mgrwt>
</event>
<event>
 9    1  0.4342579E-036  0.1000401E+04  0.7818608E-02  0.8680656E-01
         -2   -1    0    0    0  501 -0.00000000000E+00  0.00000000000E+00  0.12436772989E+03  0.12436772989E+03  0.00000000000E+00 0.  1.
          2   -1    0    0  501    0  0.00000000000E+00 -0.00000000000E+00 -0.20117802155E+04  0.20117802155E+04  0.00000000000E+00 0.  1.
         36    2    1    2    0    0 -0.28421709430E-13  0.28421709430E-13 -0.18874124857E+04  0.21361479454E+04  0.10004009965E+04 0.  0.
         25    2    3    3    0    0 -0.10968461484E+03  0.52158757144E+02 -0.20946793825E+03  0.27311855009E+03  0.12635535037E+03 0.  0.
         35    2    3    3    0    0  0.10968461484E+03 -0.52158757144E+02 -0.16779445474E+04  0.18630293954E+04  0.80039326153E+03 0.  0.
         22    1    5    5    0    0  0.39886528383E+03  0.18032907352E+03 -0.86744772112E+03  0.97163657727E+03  0.00000000000E+00 0.  1.
         22    1    5    5    0    0 -0.28918066899E+03 -0.23248783066E+03 -0.81049682629E+03  0.89139281809E+03  0.00000000000E+00 0.  1.
          5    1    4    4  502    0 -0.75832365176E+02 -0.10266576048E+02 -0.34196293282E+02  0.83948952740E+02  0.47000000000E+01 0. -1.
         -5    1    4    4    0  502 -0.33852249667E+02  0.62425333192E+02 -0.17527164496E+03  0.18916959735E+03  0.47000000000E+01 0. -1.
<mgrwt>
<rscale>  0 0.10004010E+04</rscale>
<asrwt>0</asrwt>
<pdfrwt beam="1">  1        2 0.30950463E+00 0.10004010E+04</pdfrwt>
<pdfrwt beam="2">  1       -2 0.19133498E-01 0.10004010E+04</pdfrwt>
<totfact> 0.17817203E+02</totfact>
</mgrwt>
</event>
<event>
 9    1  0.4342579E-036  0.9988024E+03  0.7818608E-02  0.8682179E-01
          2   -1    0    0  501    0  0.00000000000E+00  0.00000000000E+00  0.40714106774E+03  0.40714106774E+03  0.00000000000E+00 0.  1.
         -2   -1    0    0    0  501 -0.00000000000E+00 -0.00000000000E+00 -0.61256790336E+03  0.61256790336E+03  0.00000000000E+00 0.  1.
         36    2    1    2    0    0  0.42632564146E-13 -0.71054273576E-14 -0.20542683561E+03  0.10197089711E+04  0.99880238333E+03 0.  0.
         25    2    3    3    0    0  0.73643416511E+02  0.47059930363E+02  0.72131127489E+02  0.16871606727E+03  0.12499688781E+03 0.  0.
         35    2    3    3    0    0 -0.73643416511E+02 -0.47059930363E+02 -0.27755796310E+03  0.85099290382E+03  0.79969526048E+03 0.  0.
         22    1    5    5    0    0 -0.37402242591E+03  0.10128169241E+03 -0.33361761608E+03  0.51132325398E+03  0.00000000000E+00 0.  1.
         22    1    5    5    0    0  0.30037900940E+03 -0.14834162277E+03  0.56059652976E+02  0.33966964984E+03  0.00000000000E+00 0.  1.
          5    1    4    4  502    0  0.10040489786E+03  0.35670149237E+02  0.85177734000E+02  0.13649483298E+03  0.47000000000E+01 0. -1.
         -5    1    4    4    0  502 -0.26761481347E+02  0.11389781126E+02 -0.13046606511E+02  0.32221234294E+02  0.47000000000E+01 0. -1.
<mgrwt>
<rscale>  0 0.99880238E+03</rscale>
<asrwt>0</asrwt>
<pdfrwt beam="1">  1        2 0.62637087E-01 0.99880238E+03</pdfrwt>
<pdfrwt beam="2">  1       -2 0.94241216E-01 0.99880238E+03</pdfrwt>
<totfact> 0.88262936E+01</totfact>
</mgrwt>
</event>
<event>
 9    1  0.4342579E-036  0.1000475E+04  0.7818608E-02  0.8680585E-01
         -1   -1    0    0    0  501 -0.00000000000E+00  0.00000000000E+00  0.30795374129E+03  0.30795374129E+03  0.00000000000E+00 0. -1.
          1   -1    0    0  501    0  0.00000000000E+00 -0.00000000000E+00 -0.81258229664E+03  0.81258229664E+03  0.00000000000E+00 0. -1.
         36    2    1    2    0    0 -0.28421709430E-13 -0.21316282073E-13 -0.50462855535E+03  0.11205360379E+04  0.10004754037E+04 0.  0.
         25    2    3    3    0    0 -0.14032013801E+03 -0.96768721653E+01 -0.97775366021E+02  0.21261825155E+03  0.12594886147E+03 0.  0.
         35    2    3    3    0    0  0.14032013801E+03  0.96768721653E+01 -0.40685318933E+03  0.90791778637E+03  0.79937588539E+03 0.  0.
         22    1    5    5    0    0 -0.18411193590E+03  0.24912043203E+03  0.32627204958E+02  0.31148471728E+03  0.00000000000E+00 0. -1.
         22    1    5    5    0    0  0.32443207391E+03 -0.23944355986E+03 -0.43948039429E+03  0.59643306909E+03  0.00000000000E+00 0. -1.
          5    1    4    4  502    0  0.11553814404E+02  0.10719498323E+02 -0.49078084879E+02  0.51760474177E+02  0.47000000000E+01 0. -1.
         -5    1    4    4    0  502 -0.15187395242E+03 -0.20396370488E+02 -0.48697281142E+02  0.16085777738E+03  0.47000000000E+01 0. -1.
<mgrwt>
<rscale>  0 0.10004754E+04</rscale>
<asrwt>0</asrwt>
<pdfrwt beam="1">  1        1 0.12501266E+00 0.10004754E+04</pdfrwt>
<pdfrwt beam="2">  1       -1 0.47377499E-01 0.10004754E+04</pdfrwt>
<totfact> 0.10902898E+02</totfact>
</mgrwt>
</event>
<event>
 9    1  0.4342579E-036  0.1000247E+04  0.7818608E-02  0.8680803E-01
          4   -1    0    0  501    0  0.00000000000E+00  0.00000000000E+00  0.51078598406E+03  0.51078598406E+03  0.00000000000E+00 0. -1.
         -4   -1    0    0    0  501 -0.00000000000E+00 -0.00000000000E+00 -0.48968367583E+03  0.48968367583E+03  0.00000000000E+00 0. -1.
         36    2    1    2    0    0  0.14210854715E-13 -0.14210854715E-13  0.21102308233E+02  0.10004696599E+04  0.10002470859E+04 0.  0.
         25    2    3    3    0    0 -0.87265176100E+02  0.10049502093E+03  0.34545313787E+02  0.18532303857E+03  0.12424487808E+03 0.  0.
         35    2    3    3    0    0  0.87265176100E+02 -0.10049502093E+03 -0.13443005554E+02  0.81514662131E+03  0.80409504391E+03 0.  0.
         22    1    5    5    0    0  0.36548440372E+02 -0.45233268126E+03 -0.55521262587E+02  0.45719060973E+03  0.00000000000E+00 0. -1.
         22    1    5    5    0    0  0.50716735729E+02  0.35183766033E+03  0.42078257034E+02  0.35795601158E+03  0.00000000000E+00 0. -1.
          5    1    4    4  502    0  0.17986596728E+02  0.37752054694E+02  0.45783568382E+02  0.62184889075E+02  0.47000000000E+01 0.  1.
         -5    1    4    4    0  502 -0.10525177283E+03  0.62742966236E+02 -0.11238254595E+02  0.12313814950E+03  0.47000000000E+01 0.  1.
<mgrwt>
<rscale>  0 0.10002471E+04</rscale>
<asrwt>0</asrwt>
<pdfrwt beam="1">  1        4 0.78582459E-01 0.10002471E+04</pdfrwt>
<pdfrwt beam="2">  1       -4 0.75335950E-01 0.10002471E+04</pdfrwt>
<totfact> 0.53014325E+00</totfact>
</mgrwt>
</event>
<event>
 9    1  0.4342579E-036  0.9990082E+03  0.7818608E-02  0.8681983E-01
         -2   -1    0    0    0  501 -0.00000000000E+00  0.00000000000E+00  0.25521052322E+03  0.25521052322E+03  0.00000000000E+00 0. -1.
          2   -1    0    0  501    0  0.00000000000E+00 -0.00000000000E+00 -0.97764135926E+03  0.97764135926E+03  0.00000000000E+00 0. -1.
         36    2    1    2    0    0 -0.71054273576E-14 -0.14210854715E-13 -0.72243083603E+03  0.12328518825E+04  0.99900823384E+03 0.  0.
         25    2    3    3    0    0  0.13659865015E+02  0.93342843307E+02 -0.90850789008E+01  0.15704923580E+03  0.12522957119E+03 0.  0.
         35    2    3    3    0    0 -0.13659865015E+02 -0.93342843307E+02 -0.71334575713E+03  0.10758026467E+04  0.79974351330E+03 0.  0.
         22    1    5    5    0    0  0.76866599245E+02  0.16681082890E+03 -0.77252875167E+03  0.79406233941E+03  0.00000000000E+00 0.  1.
         22    1    5    5    0    0 -0.90526464260E+02 -0.26015367221E+03  0.59182994536E+02  0.28174030726E+03  0.00000000000E+00 0.  1.
          5    1    4    4  502    0 -0.35197755032E+02  0.56062658927E+00 -0.34001823188E+02  0.49167166296E+02  0.47000000000E+01 0.  1.
         -5    1    4    4    0  502  0.48857620047E+02  0.92782216717E+02  0.24916744287E+02  0.10788206951E+03  0.47000000000E+01 0.  1.
<mgrwt>
<rscale>  0 0.99900823E+03</rscale>
<asrwt>0</asrwt>
<pdfrwt beam="1">  1        2 0.15040636E+00 0.99900823E+03</pdfrwt>
<pdfrwt beam="2">  1       -2 0.39263157E-01 0.99900823E+03</pdfrwt>
<totfact> 0.19308483E+02</totfact>
</mgrwt>
</event>
<event>
 9    1  0.4342579E-036  0.1003783E+04  0.7818608E-02  0.8677443E-01
          2   -1    0    0  501    0  0.00000000000E+00  0.00000000000E+00  0.15982896721E+04  0.15982896721E+04  0.00000000000E+00 0. -1.
         -2   -1    0    0    0  501 -0.00000000000E+00 -0.00000000000E+00 -0.15760304447E+03  0.15760304447E+03  0.00000000000E+00 0. -1.
         36    2    1    2    0    0 -0.14210854715E-13  0.28421709430E-13  0.14406866276E+04  0.17558927165E+04  0.10037834791E+04 0.  0.
         25    2    3    3    0    0  0.57182004899E+02 -0.11592751765E+03  0.17385611987E+03  0.25137021066E+03  0.12748357290E+03 0.  0.
         35    2    3    3    0    0 -0.57182004899E+02  0.11592751765E+03  0.12668305077E+04  0.15045225059E+04  0.80126117110E+03 0.  0.
         22    1    5    5    0    0  0.16575260615E+03  0.40161000768E+03  0.54632719305E+03  0.69802430228E+03  0.00000000000E+00 0.  1.
         22    1    5    5    0    0 -0.22293461105E+03 -0.28568249003E+03  0.72050331467E+03  0.80649820358E+03  0.00000000000E+00 0.  1.
          5    1    4    4  502    0  0.66846923823E+02 -0.40421074026E+02  0.21767169483E+02  0.81229761278E+02  0.47000000000E+01 0. -1.
         -5    1    4    4    0  502 -0.96649189238E+01 -0.75506443624E+02  0.15208895039E+03  0.17014044938E+03  0.47000000000E+01 0. -1.
<mgrwt>
<rscale>  0 0.10037835E+04</rscale>
<asrwt>0</asrwt>
<pdfrwt beam="1">  1        2 0.24589071E+00 0.10037835E+04</pdfrwt>
<pdfrwt beam="2">  1       -2 0.24246623E-01 0.10037835E+04</pdfrwt>
<totfact> 0.20189856E+02</totfact>
</mgrwt>
</event>
<event>
 9    1  0.4342579E-036  0.9994223E+03  0.7818608E-02  0.8681588E-01
         -2   -1    0    0    0  501 -0.00000000000E+00  0.00000000000E+00  0.10023088229E+03  0.10023088229E+03  0.00000000000E+00 0.  1.
          2   -1    0    0  501    0  0.00000000000E+00 -0.00000000000E+00 -0.24913600084E+04  0.24913600084E+04  0.00000000000E+00 0.  1.
         36    2    1    2    0    0 -0.42632564146E-13  0.28421709430E-13 -0.23911291261E+04  0.25915908907E+04  0.99942225657E+03 0.  0.
         25    2    3    3    0    0 -0.57208607855E+02 -0.11829272998E+01 -0.12118914286E+03  0.18416504971E+03  0.12631600476E+03 0.  0.
         35    2    3    3    0    0  0.57208607855E+02  0.11829272998E+01 -0.22699399833E+04  0.24074258410E+04  0.79987338254E+03 0.  0.
         22    1    5    5    0    0  0.30459948701E+03 -0.28805112417E+03 -0.11028758638E+04  0.11798684116E+04  0.00000000000E+00 0.  1.
         22    1    5    5    0    0 -0.24739087915E+03  0.28923405147E+03 -0.11670641194E+04  0.12275574294E+04  0.00000000000E+00 0.  1.
          5    1    4    4  502    0 -0.81828490735E+02  0.39291756922E+02 -0.83822708430E+02  0.12364497768E+03  0.47000000000E+01 0. -1.
         -5    1    4    4    0  502  0.24619882880E+02 -0.40474684222E+02 -0.37366434427E+02  0.60520072023E+02  0.47000000000E+01 0. -1.
<mgrwt>
<rscale>  0 0.99942226E+03</rscale>
<asrwt>0</asrwt>
<pdfrwt beam="1">  1        2 0.38328610E+00 0.99942226E+03</pdfrwt>
<pdfrwt beam="2">  1       -2 0.15420138E-01 0.99942226E+03</pdfrwt>
<totfact> 0.13456505E+02</totfact>
</mgrwt>
</event>
<event>
 9    1  0.4342579E-036  0.1000676E+04  0.7818608E-02  0.8680395E-01
          2   -1    0    0  501    0  0.00000000000E+00  0.00000000000E+00  0.18115679511E+04  0.18115679511E+04  0.00000000000E+00 0. -1.
         -2   -1    0    0    0  501 -0.00000000000E+00 -0.00000000000E+00 -0.13818856393E+03  0.13818856393E+03  0.00000000000E+00 0. -1.
         36    2    1    2    0    0  0.00000000000E+00  0.00000000000E+00  0.16733793872E+04  0.19497565151E+04  0.10006757190E+04 0.  0.
         25    2    3    3    0    0 -0.95610940644E+02 -0.36798761443E+02  0.50561250022E+03  0.53090501668E+03  0.12538155981E+03 0.  0.
         35    2    3    3    0    0  0.95610940644E+02  0.36798761443E+02  0.11677668870E+04  0.14188514984E+04  0.79935253256E+03 0.  0.
         22    1    5    5    0    0 -0.14411635770E+03 -0.13330113182E+03 -0.18054639962E+02  0.19714128519E+03  0.00000000000E+00 0.  1.
         22    1    5    5    0    0  0.23972729834E+03  0.17009989326E+03  0.11858215270E+04  0.12217102132E+04  0.00000000000E+00 0.  1.
          5    1    4    4  502    0  0.16886999202E+02  0.10529259016E+02  0.21085532609E+03  0.21184450566E+03  0.47000000000E+01 0.  1.
         -5    1    4    4    0  502 -0.11249793985E+03 -0.47328020458E+02  0.29475717412E+03  0.31906051101E+03  0.47000000000E+01 0.  1.
<mgrwt>
<rscale>  0 0.10006757E+04</rscale>
<asrwt>0</asrwt>
<pdfrwt beam="1">  1        2 0.27870274E+00 0.10006757E+04</pdfrwt>
<pdfrwt beam="2">  1       -2 0.21259780E-01 0.10006757E+04</pdfrwt>
<totfact> 0.19279098E+02</totfact>
</mgrwt>
</event>
<event>
 9    1  0.4342579E-036  0.9990881E+03  0.7818608E-02  0.8681907E-01
         -2   -1    0    0    0  501 -0.00000000000E+00  0.00000000000E+00  0.19351762565E+03  0.19351762565E+03  0.00000000000E+00 0.  1.
          2   -1    0    0  501    0  0.00000000000E+00 -0.00000000000E+00 -0.12895168422E+04  0.12895168422E+04  0.00000000000E+00 0.  1.
         36    2    1    2    0    0  0.00000000000E+00  0.71054273576E-14 -0.10959992165E+04  0.14830344678E+04  0.99908805924E+03 0.  0.
         25    2    3    3    0    0 -0.51820821913E+02 -0.36925537770E+02 -0.38719198625E+03  0.41213485744E+03  0.12605004394E+03 0.  0.
         35    2    3    3    0    0  0.51820821913E+02  0.36925537770E+02 -0.70880723029E+03  0.10708996104E+04  0.80023083726E+03 0.  0.
         22    1    5    5    0    0 -0.26889115111E+03 -0.25193147427E+03 -0.37008356928E+03  0.52223918574E+03  0.00000000000E+00 0.  1.
         22    1    5    5    0    0  0.32071197303E+03  0.28885701204E+03 -0.33872366101E+03  0.54866042465E+03  0.00000000000E+00 0.  1.
          5    1    4    4  502    0 -0.76596689929E+02 -0.92414367450E+01 -0.35320442447E+03  0.36156315150E+03  0.47000000000E+01 0. -1.
         -5    1    4    4    0  502  0.24775868016E+02 -0.27684101025E+02 -0.33987561779E+02  0.50571705935E+02  0.47000000000E+01 0. -1.
<mgrwt>
<rscale>  0 0.99908806E+03</rscale>
<asrwt>0</asrwt>
<pdfrwt beam="1">  1        2 0.19838721E+00 0.99908806E+03</pdfrwt>
<pdfrwt beam="2">  1       -2 0.29771943E-01 0.99908806E+03</pdfrwt>
<totfact> 0.20955696E+02</totfact>
</mgrwt>
</event>
<event>
 9    1  0.4342579E-036  0.1007457E+04  0.7818608E-02  0.8673969E-01
          2   -1    0    0  501    0  0.00000000000E+00  0.00000000000E+00  0.86449506750E+03  0.86449506750E+03  0.00000000000E+00 0.  1.
         -2   -1    0    0    0  501 -0.00000000000E+00 -0.00000000000E+00 -0.29351509710E+03  0.29351509710E+03  0.00000000000E+00 0.  1.
         36    2    1    2    0    0  0.28421709430E-13  0.71054273576E-14  0.57097997040E+03  0.11580101646E+04  0.10074569047E+04 0.  0.
         25    2    3    3    0    0  0.14540541264E+02  0.26299341225E+02 -0.48231916552E+02  0.13708713607E+03  0.12475368697E+03 0.  0.
         35    2    3    3    0    0 -0.14540541264E+02 -0.26299341225E+02  0.61921188696E+03  0.10209230285E+04  0.81114572462E+03 0.  0.
         22    1    5    5    0    0 -0.37413683096E+03  0.11016936617E+02  0.52949053304E+03  0.64842884402E+03  0.00000000000E+00 0.  1.
         22    1    5    5    0    0  0.35959628970E+03 -0.37316277842E+02  0.89721353915E+02  0.37249418452E+03  0.00000000000E+00 0.  1.
          5    1    4    4  502    0 -0.42423391887E+02  0.44933515669E+02 -0.45542174975E+02  0.76908677736E+02  0.47000000000E+01 0. -1.
         -5    1    4    4    0  502  0.56963933151E+02 -0.18634174444E+02 -0.26897415766E+01  0.60178458330E+02  0.47000000000E+01 0. -1.
<mgrwt>
<rscale>  0 0.10074569E+04</rscale>
<asrwt>0</asrwt>
<pdfrwt beam="1">  1        2 0.13299924E+00 0.10074569E+04</pdfrwt>
<pdfrwt beam="2">  1       -2 0.45156169E-01 0.10074569E+04</pdfrwt>
<totfact> 0.17460730E+02</totfact>
</mgrwt>
</event>
<event>
 9    1  0.4342579E-036  0.9976735E+03  0.7818608E-02  0.8683257E-01
          2   -1    0    0  501    0  0.00000000000E+00  0.00000000000E+00  0.18772963854E+04  0.18772963854E+04  0.00000000000E+00 0.  1.
         -2   -1    0    0    0  501 -0.00000000000E+00 -0.00000000000E+00 -0.13255132244E+03  0.13255132244E+03  0.00000000000E+00 0.  1.
         36    2    1    2    0    0  0.00000000000E+00  0.00000000000E+00  0.17447450629E+04  0.20098477078E+04  0.99767353075E+03 0.  0.
         25    2    3    3    0    0  0.76265436954E+02  0.79982272525E+02  0.48717101885E+03  0.51547049609E+03  0.12712454499E+03 0.  0.
         35    2    3    3    0    0 -0.76265436954E+02 -0.79982272525E+02  0.12575740441E+04  0.14943772117E+04  0.79966067414E+03 0.  0.
         22    1    5    5    0    0  0.53181050275E+02 -0.21521065565E+03 -0.12727652301E+01  0.22168777672E+03  0.00000000000E+00 0. -1.
         22    1    5    5    0    0 -0.12944648723E+03  0.13522838313E+03  0.12588468093E+04  0.12726894350E+04  0.00000000000E+00 0. -1.
          5    1    4    4  502    0  0.10708261959E+03  0.34663533382E+02  0.30312999915E+03  0.32338542693E+03  0.47000000000E+01 0. -1.
         -5    1    4    4    0  502 -0.30817182631E+02  0.45318739143E+02  0.18404101970E+03  0.19208506916E+03  0.47000000000E+01 0. -1.
<mgrwt>
<rscale>  0 0.99767353E+03</rscale>
<asrwt>0</asrwt>
<pdfrwt beam="1">  1        2 0.28881481E+00 0.99767353E+03</pdfrwt>
<pdfrwt beam="2">  1       -2 0.20392512E-01 0.99767353E+03</pdfrwt>
<totfact> 0.19028048E+02</totfact>
</mgrwt>
</event>
<event>
 9    1  0.4342579E-036  0.1001395E+04  0.7818608E-02  0.8679710E-01
         -2   -1    0    0    0  501 -0.00000000000E+00  0.00000000000E+00  0.25677366383E+03  0.25677366383E+03  0.00000000000E+00 0. -1.
          2   -1    0    0  501    0  0.00000000000E+00 -0.00000000000E+00 -0.97633905361E+03  0.97633905361E+03  0.00000000000E+00 0. -1.
         36    2    1    2    0    0  0.35527136788E-14  0.00000000000E+00 -0.71956538978E+03  0.12331127174E+04  0.10013953384E+04 0.  0.
         25    2    3    3    0    0  0.68715869111E+01  0.49560129293E+01 -0.30864419896E+03  0.33327598107E+03  0.12545858772E+03 0.  0.
         35    2    3    3    0    0 -0.68715869111E+01 -0.49560129293E+01 -0.41092119082E+03  0.89983673637E+03  0.80048619369E+03 0.  0.
         22    1    5    5    0    0 -0.46863960102E+02  0.34482943119E+03  0.13671572918E+02  0.34826782694E+03  0.00000000000E+00 0.  1.
         22    1    5    5    0    0  0.39992373191E+02 -0.34978544412E+03 -0.42459276374E+03  0.55156890943E+03  0.00000000000E+00 0.  1.
          5    1    4    4  502    0 -0.15803381541E+02 -0.40504895816E+02 -0.38215489562E+02  0.58076734547E+02  0.47000000000E+01 0. -1.
         -5    1    4    4    0  502  0.22674968452E+02  0.45460908745E+02 -0.27042870940E+03  0.27519924652E+03  0.47000000000E+01 0. -1.
<mgrwt>
<rscale>  0 0.10013953E+04</rscale>
<asrwt>0</asrwt>
<pdfrwt beam="1">  1        2 0.15020601E+00 0.10013953E+04</pdfrwt>
<pdfrwt beam="2">  1       -2 0.39503640E-01 0.10013953E+04</pdfrwt>
<totfact> 0.19120650E+02</totfact>
</mgrwt>
</event>
<event>
 9    1  0.4342579E-036  0.9958603E+03  0.7818608E-02  0.8684990E-01
         -1   -1    0    0    0  501 -0.00000000000E+00  0.00000000000E+00  0.17862467376E+04  0.17862467376E+04  0.00000000000E+00 0. -1.
          1   -1    0    0  501    0  0.00000000000E+00 -0.00000000000E+00 -0.13880189184E+03  0.13880189184E+03  0.00000000000E+00 0. -1.
         36    2    1    2    0    0  0.00000000000E+00 -0.14210854715E-13  0.16474448457E+04  0.19250486294E+04  0.99586028432E+03 0.  0.
         25    2    3    3    0    0 -0.89689159501E+02 -0.10113625532E+03  0.30141318771E+03  0.35332617824E+03  0.12536662647E+03 0.  0.
         35    2    3    3    0    0  0.89689159501E+02  0.10113625532E+03  0.13460316580E+04  0.15717224512E+04  0.80014845602E+03 0.  0.
         22    1    5    5    0    0  0.40366672520E+03 -0.10030022111E+03  0.89114825233E+03  0.98343894931E+03  0.00000000000E+00 0.  1.
         22    1    5    5    0    0 -0.31397756570E+03  0.20143647642E+03  0.45488340570E+03  0.58828350187E+03  0.00000000000E+00 0.  1.
          5    1    4    4  502    0  0.57082033051E+01  0.12657949074E+02  0.11025014423E+03  0.11122046377E+03  0.47000000000E+01 0.  1.
         -5    1    4    4    0  502 -0.95397362807E+02 -0.11379420439E+03  0.19116304348E+03  0.24210571447E+03  0.47000000000E+01 0.  1.
<mgrwt>
<rscale>  0 0.99586028E+03</rscale>
<asrwt>0</asrwt>
<pdfrwt beam="1">  1        1 0.21354139E-01 0.99586028E+03</pdfrwt>
<pdfrwt beam="2">  1       -1 0.27480717E+00 0.99586028E+03</pdfrwt>
<totfact> 0.76368275E+00</totfact>
</mgrwt>
</event>
<event>
 9    1  0.4342579E-036  0.9971262E+03  0.7818608E-02  0.8683780E-01
         -2   -1    0    0    0  501 -0.00000000000E+00  0.00000000000E+00  0.10171953900E+03  0.10171953900E+03  0.00000000000E+00 0. -1.
          2   -1    0    0  501    0  0.00000000000E+00 -0.00000000000E+00 -0.24436322020E+04  0.24436322020E+04  0.00000000000E+00 0. -1.
         36    2    1    2    0    0  0.00000000000E+00 -0.71054273576E-14 -0.23419126630E+04  0.25453517410E+04  0.99712615263E+03 0.  0.
         25    2    3    3    0    0  0.11393991301E+03 -0.31847316782E+02 -0.27017069736E+03  0.32014412634E+03  0.12451305376E+03 0.  0.
         35    2    3    3    0    0 -0.11393991301E+03  0.31847316782E+02 -0.20717419657E+04  0.22252076147E+04  0.80339131235E+03 0.  0.
         22    1    5    5    0    0  0.24832756936E+03  0.17329773608E+03 -0.15218756971E+04  0.15517101290E+04  0.00000000000E+00 0.  1.
         22    1    5    5    0    0 -0.36226748236E+03 -0.14145041930E+03 -0.54986626856E+03  0.67349748566E+03  0.00000000000E+00 0.  1.
          5    1    4    4  502    0 -0.19657478547E+00 -0.42218352452E+02 -0.14164594747E+03  0.14787864065E+03  0.47000000000E+01 0.  1.
         -5    1    4    4    0  502  0.11413648779E+03  0.10371035670E+02 -0.12852474989E+03  0.17226548569E+03  0.47000000000E+01 0.  1.
<mgrwt>
<rscale>  0 0.99712615E+03</rscale>
<asrwt>0</asrwt>
<pdfrwt beam="1">  1        2 0.37594340E+00 0.99712615E+03</pdfrwt>
<pdfrwt beam="2">  1       -2 0.15649160E-01 0.99712615E+03</pdfrwt>
<totfact> 0.14029903E+02</totfact>
</mgrwt>
</event>
<event>
 9    1  0.4342579E-036  0.1000202E+04  0.7818608E-02  0.8680846E-01
         -2   -1    0    0    0  501 -0.00000000000E+00  0.00000000000E+00  0.20658709560E+03  0.20658709560E+03  0.00000000000E+00 0.  1.
          2   -1    0    0  501    0  0.00000000000E+00 -0.00000000000E+00 -0.12106312322E+04  0.12106312322E+04  0.00000000000E+00 0.  1.
         36    2    1    2    0    0  0.14210854715E-13 -0.71054273576E-14 -0.10040441366E+04  0.14172183278E+04  0.10002015599E+04 0.  0.
         25    2    3    3    0    0  0.81249664222E+02  0.25198618141E+02 -0.32252073343E+02  0.15555378876E+03  0.12617569762E+03 0.  0.
         35    2    3    3    0    0 -0.81249664222E+02 -0.25198618141E+02 -0.97179206329E+03  0.12616645391E+04  0.80011318987E+03 0.  0.
         22    1    5    5    0    0  0.22873137739E+01  0.26011975884E+03 -0.15908407340E+02  0.26061580567E+03  0.00000000000E+00 0. -1.
         22    1    5    5    0    0 -0.83536977996E+02 -0.28531837698E+03 -0.95588365595E+03  0.10010487334E+04  0.00000000000E+00 0. -1.
          5    1    4    4  502    0  0.91456844690E+02 -0.28377696961E+02 -0.31127630428E+02  0.10080013642E+03  0.47000000000E+01 0. -1.
         -5    1    4    4    0  502 -0.10207180468E+02  0.53576315102E+02 -0.11244429147E+01  0.54753652343E+02  0.47000000000E+01 0. -1.
<mgrwt>
<rscale>  0 0.10002016E+04</rscale>
<asrwt>0</asrwt>
<pdfrwt beam="1">  1        2 0.18625095E+00 0.10002016E+04</pdfrwt>
<pdfrwt beam="2">  1       -2 0.31782631E-01 0.10002016E+04</pdfrwt>
<totfact> 0.20679016E+02</totfact>
</mgrwt>
</event>
<event>
 9    1  0.4342579E-036  0.9995648E+03  0.7818608E-02  0.8681452E-01
          2   -1    0    0  501    0  0.00000000000E+00  0.00000000000E+00  0.29591870805E+04  0.29591870805E+04  0.00000000000E+00 0. -1.
         -2   -1    0    0    0  501 -0.00000000000E+00 -0.00000000000E+00 -0.84409148024E+02  0.84409148024E+02  0.00000000000E+00 0. -1.
         36    2    1    2    0    0  0.00000000000E+00  0.00000000000E+00  0.28747779324E+04  0.30435962285E+04  0.99956482592E+03 0.  0.
         25    2    3    3    0    0 -0.12532668310E+03 -0.44260460345E+02  0.39849289962E+03  0.43797444864E+03  0.12393248473E+03 0.  0.
         35    2    3    3    0    0  0.12532668310E+03  0.44260460345E+02  0.24762850328E+04  0.26056217799E+04  0.79975716938E+03 0.  0.
         22    1    5    5    0    0 -0.78194407408E+01  0.22313203021E+03  0.23260648103E+04  0.23367555602E+04  0.00000000000E+00 0.  1.
         22    1    5    5    0    0  0.13314612384E+03 -0.17887156986E+03  0.15022022255E+03  0.26886621964E+03  0.00000000000E+00 0.  1.
          5    1    4    4  502    0  0.10520920413E+02 -0.43817936703E+02  0.86219320826E+02  0.97398986786E+02  0.47000000000E+01 0.  1.
         -5    1    4    4    0  502 -0.13584760352E+03 -0.44252364200E+00  0.31227357879E+03  0.34057546186E+03  0.47000000000E+01 0.  1.
<mgrwt>
<rscale>  0 0.99956483E+03</rscale>
<asrwt>0</asrwt>
<pdfrwt beam="1">  1        2 0.45525947E+00 0.99956483E+03</pdfrwt>
<pdfrwt beam="2">  1       -2 0.12986025E-01 0.99956483E+03</pdfrwt>
<totfact> 0.90577465E+01</totfact>
</mgrwt>
</event>
<event>
 9    1  0.4342579E-036  0.9999484E+03  0.7818608E-02  0.8681087E-01
          1   -1    0    0  501    0  0.00000000000E+00  0.00000000000E+00  0.11872149014E+04  0.11872149014E+04  0.00000000000E+00 0. -1.
         -1   -1    0    0    0  501 -0.00000000000E+00 -0.00000000000E+00 -0.21055513560E+03  0.21055513560E+03  0.00000000000E+00 0. -1.
         36    2    1    2    0    0  0.88817841970E-14  0.14210854715E-13  0.97665976583E+03  0.13977700370E+04  0.99994838779E+03 0.  0.
         25    2    3    3    0    0  0.42779566428E+01 -0.84284171062E+02  0.28501300517E+02  0.15429230345E+03  0.12598280981E+03 0.  0.
         35    2    3    3    0    0 -0.42779566428E+01  0.84284171062E+02  0.94815846531E+03  0.12434777336E+04  0.80006891965E+03 0.  0.
         22    1    5    5    0    0 -0.22053555367E+03  0.16474220473E+03  0.97320073802E+03  0.10113830140E+04  0.00000000000E+00 0. -1.
         22    1    5    5    0    0  0.21625759703E+03 -0.80458033663E+02 -0.25042272713E+02  0.23209471962E+03  0.00000000000E+00 0. -1.
          5    1    4    4  502    0 -0.98798002905E+01 -0.29326806875E+02 -0.48984667775E+02  0.58131400571E+02  0.47000000000E+01 0.  1.
         -5    1    4    4    0  502  0.14157756933E+02 -0.54957364188E+02  0.77485968292E+02  0.96160902877E+02  0.47000000000E+01 0.  1.
<mgrwt>
<rscale>  0 0.99994839E+03</rscale>
<asrwt>0</asrwt>
<pdfrwt beam="1">  1        1 0.18264844E+00 0.99994839E+03</pdfrwt>
<pdfrwt beam="2">  1       -1 0.32393098E-01 0.99994839E+03</pdfrwt>
<totfact> 0.10734907E+02</totfact>
</mgrwt>
</event>
<event>
 9    1  0.4342579E-036  0.9986687E+03  0.7818608E-02  0.8682307E-01
          2   -1    0    0  501    0  0.00000000000E+00  0.00000000000E+00  0.12208941065E+04  0.12208941065E+04  0.00000000000E+00 0.  1.
         -2   -1    0    0    0  501 -0.00000000000E+00 -0.00000000000E+00 -0.20422312101E+03  0.20422312101E+03  0.00000000000E+00 0.  1.
         36    2    1    2    0    0 -0.14210854715E-13  0.00000000000E+00  0.10166709855E+04  0.14251172275E+04  0.99866872355E+03 0.  0.
         25    2    3    3    0    0  0.71302502260E+02  0.11556989186E+03  0.15959113338E+03  0.24528178001E+03  0.12748872506E+03 0.  0.
         35    2    3    3    0    0 -0.71302502260E+02 -0.11556989186E+03  0.85707985209E+03  0.11798354475E+04  0.79936560068E+03 0.  0.
         22    1    5    5    0    0  0.22859531262E+03 -0.12636090262E+03  0.83953844803E+03  0.87923131222E+03  0.00000000000E+00 0. -1.
         22    1    5    5    0    0 -0.29989781488E+03  0.10791010759E+02  0.17541404052E+02  0.30060413526E+03  0.00000000000E+00 0. -1.
          5    1    4    4  502    0  0.85919010809E+02  0.10656100329E+03  0.17466025607E+03  0.22195859725E+03  0.47000000000E+01 0. -1.
         -5    1    4    4    0  502 -0.14616508549E+02  0.90088885723E+01 -0.15069122691E+02  0.23323182762E+02  0.47000000000E+01 0. -1.
<mgrwt>
<rscale>  0 0.99866872E+03</rscale>
<asrwt>0</asrwt>
<pdfrwt beam="1">  1        2 0.18782986E+00 0.99866872E+03</pdfrwt>
<pdfrwt beam="2">  1       -2 0.31418942E-01 0.99866872E+03</pdfrwt>
<totfact> 0.20828830E+02</totfact>
</mgrwt>
</event>
<event>
 9    1  0.4342579E-036  0.9996438E+03  0.7818608E-02  0.8681377E-01
         -2   -1    0    0    0  501 -0.00000000000E+00  0.00000000000E+00  0.31354493945E+03  0.31354493945E+03  0.00000000000E+00 0. -1.
          2   -1    0    0  501    0  0.00000000000E+00 -0.00000000000E+00 -0.79676590060E+03  0.79676590060E+03  0.00000000000E+00 0. -1.
         36    2    1    2    0    0 -0.14210854715E-13  0.14210854715E-13 -0.48322096115E+03  0.11103108400E+04  0.99964376866E+03 0.  0.
         25    2    3    3    0    0  0.10820982737E+03  0.49575214987E+02 -0.96476733870E+01  0.17313842158E+03  0.12536652961E+03 0.  0.
         35    2    3    3    0    0 -0.10820982737E+03 -0.49575214987E+02 -0.47357328776E+03  0.93717241846E+03  0.79990837873E+03 0.  0.
         22    1    5    5    0    0  0.25900041385E+03 -0.15960357892E+03 -0.46260346574E+03  0.55367543136E+03  0.00000000000E+00 0.  1.
         22    1    5    5    0    0 -0.36721024121E+03  0.11002836393E+03 -0.10969822026E+02  0.38349698710E+03  0.00000000000E+00 0.  1.
          5    1    4    4  502    0  0.12453354934E+03  0.51342627823E+01 -0.71310166288E+00  0.12472996464E+03  0.47000000000E+01 0. -1.
         -5    1    4    4    0  502 -0.16323721971E+02  0.44440952205E+02 -0.89345717241E+01  0.48408456945E+02  0.47000000000E+01 0. -1.
<mgrwt>
<rscale>  0 0.99964377E+03</rscale>
<asrwt>0</asrwt>
<pdfrwt beam="1">  1        2 0.12257937E+00 0.99964377E+03</pdfrwt>
<pdfrwt beam="2">  1       -2 0.48237684E-01 0.99964377E+03</pdfrwt>
<totfact> 0.17064194E+02</totfact>
</mgrwt>
</event>
<event>
 9    1  0.4342579E-036  0.1000829E+04  0.7818608E-02  0.8680249E-01
          1   -1    0    0  501    0  0.00000000000E+00  0.00000000000E+00  0.84196182044E+03  0.84196182044E+03  0.00000000000E+00 0. -1.
         -1   -1    0    0    0  501 -0.00000000000E+00 -0.00000000000E+00 -0.29741794978E+03  0.29741794978E+03  0.00000000000E+00 0. -1.
         36    2    1    2    0    0  0.14210854715E-13  0.35527136788E-14  0.54454387066E+03  0.11393797702E+04  0.10008287734E+04 0.  0.
         25    2    3    3    0    0 -0.45280719366E+02  0.97408186909E+01  0.25379684810E+03  0.28696856807E+03  0.12566977307E+03 0.  0.
         35    2    3    3    0    0  0.45280719366E+02 -0.97408186909E+01  0.29074702256E+03  0.85241120215E+03  0.79995362323E+03 0.  0.
         22    1    5    5    0    0 -0.19728855053E+03  0.28420045304E+02 -0.21317494955E+03  0.29184590157E+03  0.00000000000E+00 0. -1.
         22    1    5    5    0    0  0.24256926990E+03 -0.38160863995E+02  0.50392197211E+03  0.56056530058E+03  0.00000000000E+00 0. -1.
          5    1    4    4  502    0 -0.83567157574E+02 -0.18823003813E+02  0.15625479992E+03  0.17825663465E+03  0.47000000000E+01 0.  1.
         -5    1    4    4    0  502  0.38286438208E+02  0.28563822504E+02  0.97542048174E+02  0.10871193342E+03  0.47000000000E+01 0.  1.
<mgrwt>
<rscale>  0 0.10008288E+04</rscale>
<asrwt>0</asrwt>
<pdfrwt beam="1">  1        1 0.12953259E+00 0.10008288E+04</pdfrwt>
<pdfrwt beam="2">  1       -1 0.45756608E-01 0.10008288E+04</pdfrwt>
<totfact> 0.10954973E+02</totfact>
</mgrwt>
</event>
<event>
 9    1  0.4342579E-036  0.9992022E+03  0.7818608E-02  0.8681798E-01
         -1   -1    0    0    0  501 -0.00000000000E+00  0.00000000000E+00  0.79814158823E+03  0.79814158823E+03  0.00000000000E+00 0.  1.
          1   -1    0    0  501    0  0.00000000000E+00 -0.00000000000E+00 -0.31272802178E+03  0.31272802178E+03  0.00000000000E+00 0.  1.
         36    2    1    2    0    0 -0.35527136788E-14  0.00000000000E+00  0.48541356644E+03  0.11108696100E+04  0.99920216171E+03 0.  0.
         25    2    3    3    0    0  0.25940639582E+02  0.13446513729E+03  0.56449946671E+02  0.19336172434E+03  0.12429147208E+03 0.  0.
         35    2    3    3    0    0 -0.25940639582E+02 -0.13446513729E+03  0.42896361977E+03  0.91750788567E+03  0.79941049734E+03 0.  0.
         22    1    5    5    0    0 -0.32057952562E+02 -0.11163912483E+03 -0.23024108124E+03  0.25787974331E+03  0.00000000000E+00 0.  1.
         22    1    5    5    0    0  0.61173129799E+01 -0.22826012458E+02  0.65920470101E+03  0.65962814237E+03  0.00000000000E+00 0.  1.
          5    1    4    4  502    0 -0.30903177733E+02  0.92896055854E+02 -0.72583963305E+01  0.98282541199E+02  0.47000000000E+01 0.  1.
         -5    1    4    4    0  502  0.56843817315E+02  0.41569081436E+02  0.63708343002E+02  0.95079183139E+02  0.47000000000E+01 0.  1.
<mgrwt>
<rscale>  0 0.99920216E+03</rscale>
<asrwt>0</asrwt>
<pdfrwt beam="1">  1        1 0.48112003E-01 0.99920216E+03</pdfrwt>
<pdfrwt beam="2">  1       -1 0.12279101E+00 0.99920216E+03</pdfrwt>
<totfact> 0.58351878E+01</totfact>
</mgrwt>
</event>
<event>
 9    1  0.4342579E-036  0.9996535E+03  0.7818608E-02  0.8681368E-01
         -2   -1    0    0    0  501 -0.00000000000E+00  0.00000000000E+00  0.11171898745E+03  0.11171898745E+03  0.00000000000E+00 0. -1.
          2   -1    0    0  501    0  0.00000000000E+00 -0.00000000000E+00 -0.22362067793E+04  0.22362067793E+04  0.00000000000E+00 0. -1.
         36    2    1    2    0    0  0.14210854715E-13 -0.14210854715E-13 -0.21244877918E+04  0.23479257667E+04  0.99965345418E+03 0.  0.
         25    2    3    3    0    0  0.10199522757E+03 -0.57737466139E+02 -0.56971254407E+03  0.59548009901E+03  0.12762258423E+03 0.  0.
         35    2    3    3    0    0 -0.10199522757E+03  0.57737466139E+02 -0.15547752478E+04  0.17524456677E+04  0.80000194114E+03 0.  0.
         22    1    5    5    0    0 -0.62482882919E+02  0.22632228248E+03 -0.52968316559E+02  0.24068969393E+03  0.00000000000E+00 0.  1.
         22    1    5    5    0    0 -0.39512344650E+02 -0.16858481634E+03 -0.15018069312E+04  0.15117559738E+04  0.00000000000E+00 0.  1.
          5    1    4    4  502    0  0.11543292845E+03 -0.13096264055E+02 -0.48428181141E+03  0.49804340771E+03  0.47000000000E+01 0. -1.
         -5    1    4    4    0  502 -0.13437700880E+02 -0.44641202084E+02 -0.85430732655E+02  0.97436691295E+02  0.47000000000E+01 0. -1.
<mgrwt>
<rscale>  0 0.99965345E+03</rscale>
<asrwt>0</asrwt>
<pdfrwt beam="1">  1        2 0.34403179E+00 0.99965345E+03</pdfrwt>
<pdfrwt beam="2">  1       -2 0.17187538E-01 0.99965345E+03</pdfrwt>
<totfact> 0.15891047E+02</totfact>
</mgrwt>
</event>
<event>
 9    1  0.4342579E-036  0.1000248E+04  0.7818608E-02  0.8680802E-01
          1   -1    0    0  501    0  0.00000000000E+00  0.00000000000E+00  0.50202736842E+03  0.50202736842E+03  0.00000000000E+00 0.  1.
         -1   -1    0    0    0  501 -0.00000000000E+00 -0.00000000000E+00 -0.49822749899E+03  0.49822749899E+03  0.00000000000E+00 0.  1.
         36    2    1    2    0    0 -0.28421709430E-13  0.14210854715E-13  0.37998694327E+01  0.10002548674E+04  0.10002476497E+04 0.  0.
         25    2    3    3    0    0 -0.12632068517E+03  0.42237120258E+02 -0.42104613967E+02  0.18830683205E+03  0.12627657997E+03 0.  0.
         35    2    3    3    0    0  0.12632068517E+03 -0.42237120258E+02  0.45904483399E+02  0.81194803537E+03  0.79963210335E+03 0.  0.
         22    1    5    5    0    0  0.40798016706E+03  0.13700353331E+03  0.15997914028E+03  0.45914171035E+03  0.00000000000E+00 0. -1.
         22    1    5    5    0    0 -0.28165948190E+03 -0.17924065357E+03 -0.11407465688E+03  0.35280632502E+03  0.00000000000E+00 0. -1.
          5    1    4    4  502    0 -0.84215271593E+02 -0.64827809113E+01  0.31616284419E+02  0.90310120465E+02  0.47000000000E+01 0.  1.
         -5    1    4    4    0  502 -0.42105413575E+02  0.48719901169E+02 -0.73720898386E+02  0.97996711583E+02  0.47000000000E+01 0.  1.
<mgrwt>
<rscale>  0 0.10002476E+04</rscale>
<asrwt>0</asrwt>
<pdfrwt beam="1">  1        1 0.77234980E-01 0.10002476E+04</pdfrwt>
<pdfrwt beam="2">  1       -1 0.76650384E-01 0.10002476E+04</pdfrwt>
<totfact> 0.88827677E+01</totfact>
</mgrwt>
</event>
<event>
 9    1  0.4342579E-036  0.9997193E+03  0.7818608E-02  0.8681305E-01
         -2   -1    0    0    0  501 -0.00000000000E+00  0.00000000000E+00  0.16643798707E+03  0.16643798707E+03  0.00000000000E+00 0. -1.
          2   -1    0    0  501    0  0.00000000000E+00 -0.00000000000E+00 -0.15012179377E+04  0.15012179377E+04  0.00000000000E+00 0. -1.
         36    2    1    2    0    0  0.00000000000E+00 -0.71054273576E-14 -0.13347799506E+04  0.16676559248E+04  0.99971934403E+03 0.  0.
         25    2    3    3    0    0  0.11918398665E+03  0.37267404647E+02 -0.35853994624E+03  0.39929587236E+03  0.12366332727E+03 0.  0.
         35    2    3    3    0    0 -0.11918398665E+03 -0.37267404647E+02 -0.97624000438E+03  0.12683600524E+04  0.80006186902E+03 0.  0.
         22    1    5    5    0    0 -0.45307064262E+03  0.10752098412E+01 -0.69747944863E+03  0.83171614421E+03  0.00000000000E+00 0.  1.
         22    1    5    5    0    0  0.33388665597E+03 -0.38342614489E+02 -0.27876055575E+03  0.43664390820E+03  0.00000000000E+00 0.  1.
          5    1    4    4  502    0 -0.25913325209E+02  0.26310572460E+01 -0.56672681283E+02  0.62548426755E+02  0.47000000000E+01 0.  1.
         -5    1    4    4    0  502  0.14509731186E+03  0.34636347401E+02 -0.30186726495E+03  0.33674744560E+03  0.47000000000E+01 0.  1.
<mgrwt>
<rscale>  0 0.99971934E+03</rscale>
<asrwt>0</asrwt>
<pdfrwt beam="1">  1        2 0.23095660E+00 0.99971934E+03</pdfrwt>
<pdfrwt beam="2">  1       -2 0.25605844E-01 0.99971934E+03</pdfrwt>
<totfact> 0.20795767E+02</totfact>
</mgrwt>
</event>
<event>
 9    1  0.4342579E-036  0.1000106E+04  0.7818608E-02  0.8680937E-01
         -1   -1    0    0    0  501 -0.00000000000E+00  0.00000000000E+00  0.40916075487E+03  0.40916075487E+03  0.00000000000E+00 0.  1.
          1   -1    0    0  501    0  0.00000000000E+00 -0.00000000000E+00 -0.61113590728E+03  0.61113590728E+03  0.00000000000E+00 0.  1.
         36    2    1    2    0    0 -0.71054273576E-14  0.14210854715E-13 -0.20197515241E+03  0.10202966622E+04  0.10001056527E+04 0.  0.
         25    2    3    3    0    0 -0.24767201524E+01  0.11212372609E+03 -0.11746549576E+03  0.20481718862E+03  0.12479612960E+03 0.  0.
         35    2    3    3    0    0  0.24767201524E+01 -0.11212372609E+03 -0.84509656650E+02  0.81547947354E+03  0.80329759467E+03 0.  0.
         22    1    5    5    0    0  0.37397302392E+03 -0.17902755959E+03 -0.13178873329E+03  0.43505742142E+03  0.00000000000E+00 0. -1.
         22    1    5    5    0    0 -0.37149630376E+03  0.66903833504E+02  0.47279076644E+02  0.38042205212E+03  0.00000000000E+00 0. -1.
          5    1    4    4  502    0  0.52862610618E+02  0.26668621743E+02 -0.71673841214E+02  0.93085447313E+02  0.47000000000E+01 0. -1.
         -5    1    4    4    0  502 -0.55339330771E+02  0.85455104347E+02 -0.45791654548E+02  0.11173174131E+03  0.47000000000E+01 0. -1.
<mgrwt>
<rscale>  0 0.10001057E+04</rscale>
<asrwt>0</asrwt>
<pdfrwt beam="1">  1        1 0.94020908E-01 0.10001057E+04</pdfrwt>
<pdfrwt beam="2">  1       -1 0.62947809E-01 0.10001057E+04</pdfrwt>
<totfact> 0.99190864E+01</totfact>
</mgrwt>
</event>
<event>
 9    1  0.4342579E-036  0.9995375E+03  0.7818608E-02  0.8681479E-01
         -2   -1    0    0    0  501 -0.00000000000E+00  0.00000000000E+00  0.12957703451E+03  0.12957703451E+03  0.00000000000E+00 0. -1.
          2   -1    0    0  501    0  0.00000000000E+00 -0.00000000000E+00 -0.19275698020E+04  0.19275698020E+04  0.00000000000E+00 0. -1.
         36    2    1    2    0    0  0.71054273576E-14 -0.56843418861E-13 -0.17979927675E+04  0.20571468365E+04  0.99953745055E+03 0.  0.
         25    2    3    3    0    0  0.43575816541E+01 -0.12367470796E+03 -0.47400051373E+03  0.50561383126E+03  0.12511769434E+03 0.  0.
         35    2    3    3    0    0 -0.43575816541E+01  0.12367470796E+03 -0.13239922538E+04  0.15515330053E+04  0.79936522096E+03 0.  0.
         22    1    5    5    0    0  0.71854372195E+02 -0.23326129180E+03 -0.82720379665E+02  0.25771407076E+03  0.00000000000E+00 0.  1.
         22    1    5    5    0    0 -0.76211953849E+02  0.35693599977E+03 -0.12412718741E+04  0.12938189345E+04  0.00000000000E+00 0.  1.
          5    1    4    4  502    0  0.65837053347E+01 -0.14127218408E+03 -0.31214087961E+03  0.34271736737E+03  0.47000000000E+01 0. -1.
         -5    1    4    4    0  502 -0.22261236807E+01  0.17597476113E+02 -0.16185963412E+03  0.16289646390E+03  0.47000000000E+01 0. -1.
<mgrwt>
<rscale>  0 0.99953745E+03</rscale>
<asrwt>0</asrwt>
<pdfrwt beam="1">  1        2 0.29654922E+00 0.99953745E+03</pdfrwt>
<pdfrwt beam="2">  1       -2 0.19934927E-01 0.99953745E+03</pdfrwt>
<totfact> 0.18533898E+02</totfact>
</mgrwt>
</event>
<event>
 9    1  0.4342579E-036  0.9957416E+03  0.7818608E-02  0.8685104E-01
          1   -1    0    0  501    0  0.00000000000E+00  0.00000000000E+00  0.31306757811E+04  0.31306757811E+04  0.00000000000E+00 0. -1.
         -1   -1    0    0    0  501 -0.00000000000E+00 -0.00000000000E+00 -0.79176308730E+02  0.79176308730E+02  0.00000000000E+00 0. -1.
         36    2    1    2    0    0  0.71054273576E-14  0.00000000000E+00  0.30514994724E+04  0.32098520899E+04  0.99574163754E+03 0.  0.
         25    2    3    3    0    0  0.36374387933E+02  0.13341532062E+03  0.59123143225E+03  0.61901197415E+03  0.12040960837E+03 0.  0.
         35    2    3    3    0    0 -0.36374387933E+02 -0.13341532062E+03  0.24602680402E+04  0.25908401157E+04  0.80025679124E+03 0.  0.
         22    1    5    5    0    0  0.20591177012E+03  0.21874909875E+03  0.49021019916E+03  0.57494074880E+03  0.00000000000E+00 0. -1.
         22    1    5    5    0    0 -0.24228615805E+03 -0.35216441936E+03  0.19700578410E+04  0.20158993669E+04  0.00000000000E+00 0. -1.
          5    1    4    4  502    0  0.18385968045E+02 -0.56707638499E+01  0.12294579167E+02  0.23311972471E+02  0.47000000000E+01 0.  1.
         -5    1    4    4    0  502  0.17988419889E+02  0.13908608447E+03  0.57893685309E+03  0.59570000168E+03  0.47000000000E+01 0.  1.
<mgrwt>
<rscale>  0 0.99574164E+03</rscale>
<asrwt>0</asrwt>
<pdfrwt beam="1">  1        1 0.48164233E+00 0.99574164E+03</pdfrwt>
<pdfrwt beam="2">  1       -1 0.12180973E-01 0.99574164E+03</pdfrwt>
<totfact> 0.22463183E+01</totfact>
</mgrwt>
</event>
<event>
 9    1  0.4342579E-036  0.1000060E+04  0.7818608E-02  0.8680981E-01
          1   -1    0    0  501    0  0.00000000000E+00  0.00000000000E+00  0.72481778337E+03  0.72481778337E+03  0.00000000000E+00 0. -1.
         -1   -1    0    0    0  501 -0.00000000000E+00 -0.00000000000E+00 -0.34495551288E+03  0.34495551288E+03  0.00000000000E+00 0. -1.
         36    2    1    2    0    0  0.00000000000E+00  0.14210854715E-13  0.37986227049E+03  0.10697732963E+04  0.10000597786E+04 0.  0.
         25    2    3    3    0    0  0.44685198781E+02  0.12441777545E+03  0.25592231924E+02  0.18450958947E+03  0.12614387197E+03 0.  0.
         35    2    3    3    0    0 -0.44685198781E+02 -0.12441777545E+03  0.35427003857E+03  0.88526370678E+03  0.80044239048E+03 0.  0.
         22    1    5    5    0    0  0.16121375444E+03 -0.32081988387E+03 -0.78307794401E+02  0.36748793609E+03  0.00000000000E+00 0. -1.
         22    1    5    5    0    0 -0.20589895322E+03  0.19640210843E+03  0.43257783297E+03  0.51777577069E+03  0.00000000000E+00 0. -1.
          5    1    4    4  502    0  0.99623581222E+01 -0.14496372076E+02 -0.26427963486E+02  0.32092376614E+02  0.47000000000E+01 0. -1.
         -5    1    4    4    0  502  0.34722840659E+02  0.13891414752E+03  0.52020195410E+02  0.15241721286E+03  0.47000000000E+01 0. -1.
<mgrwt>
<rscale>  0 0.10000598E+04</rscale>
<asrwt>0</asrwt>
<pdfrwt beam="1">  1        1 0.11151043E+00 0.10000598E+04</pdfrwt>
<pdfrwt beam="2">  1       -1 0.53070079E-01 0.10000598E+04</pdfrwt>
<totfact> 0.10609010E+02</totfact>
</mgrwt>
</event>
<event>
 9    1  0.4342579E-036  0.1000920E+04  0.7818608E-02  0.8680163E-01
         -3   -1    0    0    0  501 -0.00000000000E+00  0.00000000000E+00  0.39699622102E+03  0.39699622102E+03  0.00000000000E+00 0.  1.
          3   -1    0    0  501    0  0.00000000000E+00 -0.00000000000E+00 -0.63088755309E+03  0.63088755309E+03  0.00000000000E+00 0.  1.
         36    2    1    2    0    0  0.14210854715E-13  0.21316282073E-13 -0.23389133208E+03  0.10278837741E+04  0.10009195262E+04 0.  0.
         25    2    3    3    0    0  0.50994582448E+02 -0.54710035613E+02  0.89398325741E+02  0.17047494859E+03  0.12440262062E+03 0.  0.
         35    2    3    3    0    0 -0.50994582448E+02  0.54710035613E+02 -0.32328965782E+03  0.85740882552E+03  0.79059474814E+03 0.  0.
         22    1    5    5    0    0 -0.18278514987E+03 -0.23391573958E+03  0.11325989079E+03  0.31773383058E+03  0.00000000000E+00 0. -1.
         22    1    5    5    0    0  0.13179056742E+03  0.28862577519E+03 -0.43654954861E+03  0.53967499493E+03  0.00000000000E+00 0. -1.
          5    1    4    4  502    0  0.80609958330E+02 -0.27174877097E+02  0.16209027162E+02  0.86725209073E+02  0.47000000000E+01 0. -1.
         -5    1    4    4    0  502 -0.29615375882E+02 -0.27535158516E+02  0.73189298579E+02  0.83749739519E+02  0.47000000000E+01 0. -1.
<mgrwt>
<rscale>  0 0.10009195E+04</rscale>
<asrwt>0</asrwt>
<pdfrwt beam="1">  1        3 0.97059622E-01 0.10009195E+04</pdfrwt>
<pdfrwt beam="2">  1       -3 0.61076343E-01 0.10009195E+04</pdfrwt>
<totfact> 0.10099520E+01</totfact>
</mgrwt>
</event>
<event>
 9    1  0.4342579E-036  0.9991211E+03  0.7818608E-02  0.8681875E-01
         -2   -1    0    0    0  501 -0.00000000000E+00  0.00000000000E+00  0.92668620688E+02  0.92668620688E+02  0.00000000000E+00 0. -1.
          2   -1    0    0  501    0  0.00000000000E+00 -0.00000000000E+00 -0.26930447784E+04  0.26930447784E+04  0.00000000000E+00 0. -1.
         36    2    1    2    0    0  0.21316282073E-13  0.14210854715E-13 -0.26003761577E+04  0.27857133991E+04  0.99912110390E+03 0.  0.
         25    2    3    3    0    0 -0.32936164191E+02 -0.12401405911E+03 -0.33814260794E+03  0.38279619363E+03  0.12541221944E+03 0.  0.
         35    2    3    3    0    0  0.32936164191E+02  0.12401405911E+03 -0.22622335498E+04  0.24029172055E+04  0.79990385972E+03 0.  0.
         22    1    5    5    0    0  0.38253674284E+03 -0.78623898160E+02 -0.87858984825E+03  0.96147605193E+03  0.00000000000E+00 0. -1.
         22    1    5    5    0    0 -0.34960057865E+03  0.20263795727E+03 -0.13836437015E+04  0.14414411535E+04  0.00000000000E+00 0. -1.
          5    1    4    4  502    0  0.37190660625E+02 -0.14507212962E+02 -0.36542267895E+02  0.54323400194E+02  0.47000000000E+01 0.  1.
         -5    1    4    4    0  502 -0.70126824816E+02 -0.10950684615E+03 -0.30160034005E+03  0.32847279344E+03  0.47000000000E+01 0.  1.
<mgrwt>
<rscale>  0 0.99912110E+03</rscale>
<asrwt>0</asrwt>
<pdfrwt beam="1">  1        2 0.41431460E+00 0.99912110E+03</pdfrwt>
<pdfrwt beam="2">  1       -2 0.14256710E-01 0.99912110E+03</pdfrwt>
<totfact> 0.11515937E+02</totfact>
</mgrwt>
</event>
<event>
 9    1  0.4342579E-036  0.1000128E+04  0.7818608E-02  0.8680916E-01
          4   -1    0    0  501    0  0.00000000000E+00  0.00000000000E+00  0.19666714285E+04  0.19666714285E+04  0.00000000000E+00 0. -1.
         -4   -1    0    0    0  501 -0.00000000000E+00 -0.00000000000E+00 -0.12715077212E+03  0.12715077212E+03  0.00000000000E+00 0. -1.
         36    2    1    2    0    0  0.00000000000E+00  0.14210854715E-13  0.18395206564E+04  0.20938222006E+04  0.10001275732E+04 0.  0.
         25    2    3    3    0    0 -0.75470128727E+02 -0.62808895660E+02  0.13588982641E+03  0.20889720467E+03  0.12462463437E+03 0.  0.
         35    2    3    3    0    0  0.75470128727E+02  0.62808895660E+02  0.17036308300E+04  0.18849249960E+04  0.80058949398E+03 0.  0.
         22    1    5    5    0    0  0.38089309167E+01 -0.36750566327E+03  0.85798182029E+03  0.93338508904E+03  0.00000000000E+00 0.  1.
         22    1    5    5    0    0  0.71661197811E+02  0.43031455893E+03  0.84564900967E+03  0.95153990691E+03  0.00000000000E+00 0.  1.
          5    1    4    4  502    0 -0.89306458406E+02 -0.78356526407E+02  0.66357126607E+02  0.13616441163E+03  0.47000000000E+01 0. -1.
         -5    1    4    4    0  502  0.13836329678E+02  0.15547630747E+02  0.69532699808E+02  0.72732793040E+02  0.47000000000E+01 0. -1.
<mgrwt>
<rscale>  0 0.10001276E+04</rscale>
<asrwt>0</asrwt>
<pdfrwt beam="1">  1        4 0.30256481E+00 0.10001276E+04</pdfrwt>
<pdfrwt beam="2">  1       -4 0.19561659E-01 0.10001276E+04</pdfrwt>
<totfact> 0.11045290E+00</totfact>
</mgrwt>
</event>
<event>
 9    1  0.4342579E-036  0.1000241E+04  0.7818608E-02  0.8680809E-01
          1   -1    0    0  501    0  0.00000000000E+00  0.00000000000E+00  0.14714941389E+04  0.14714941389E+04  0.00000000000E+00 0. -1.
         -1   -1    0    0    0  501 -0.00000000000E+00 -0.00000000000E+00 -0.16997708775E+03  0.16997708775E+03  0.00000000000E+00 0. -1.
         36    2    1    2    0    0  0.17763568394E-13 -0.14210854715E-13  0.13015170512E+04  0.16414712267E+04  0.10002405478E+04 0.  0.
         25    2    3    3    0    0  0.17337711650E+01  0.80284106934E+02  0.52780161965E+02  0.15647371182E+03  0.12348981012E+03 0.  0.
         35    2    3    3    0    0 -0.17337711650E+01 -0.80284106934E+02  0.12487368892E+04  0.14849975149E+04  0.79964070487E+03 0.  0.
         22    1    5    5    0    0  0.27521547582E+03  0.24717548874E+03  0.49741975668E+03  0.61989167982E+03  0.00000000000E+00 0. -1.
         22    1    5    5    0    0 -0.27694924698E+03 -0.32745959568E+03  0.75131713252E+03  0.86510583504E+03  0.00000000000E+00 0. -1.
          5    1    4    4  502    0  0.16510817657E+02  0.92260287285E+02 -0.64714974665E+01  0.94066667790E+02  0.47000000000E+01 0.  1.
         -5    1    4    4    0  502 -0.14777046492E+02 -0.11976180351E+02  0.59251659432E+02  0.62407044027E+02  0.47000000000E+01 0.  1.
<mgrwt>
<rscale>  0 0.10002405E+04</rscale>
<asrwt>0</asrwt>
<pdfrwt beam="1">  1        1 0.22638371E+00 0.10002405E+04</pdfrwt>
<pdfrwt beam="2">  1       -1 0.26150322E-01 0.10002405E+04</pdfrwt>
<totfact> 0.96010177E+01</totfact>
</mgrwt>
</event>
<event>
 9    1  0.4342579E-036  0.9992731E+03  0.7818608E-02  0.8681730E-01
         -2   -1    0    0    0  501 -0.00000000000E+00  0.00000000000E+00  0.55205648130E+03  0.55205648130E+03  0.00000000000E+00 0. -1.
          2   -1    0    0  501    0  0.00000000000E+00 -0.00000000000E+00 -0.45219413990E+03  0.45219413990E+03  0.00000000000E+00 0. -1.
         36    2    1    2    0    0  0.14210854715E-13  0.00000000000E+00  0.99862341392E+02  0.10042506212E+04  0.99927314732E+03 0.  0.
         25    2    3    3    0    0  0.62851729628E+02 -0.89118133206E+02 -0.69810481001E+02  0.18059304734E+03  0.12588869651E+03 0.  0.
         35    2    3    3    0    0 -0.62851729628E+02  0.89118133206E+02  0.16967282239E+03  0.82365757386E+03  0.79858033455E+03 0.  0.
         22    1    5    5    0    0  0.92922386936E+02  0.37576675987E+03 -0.10066947926E+03  0.39996196304E+03  0.00000000000E+00 0.  1.
         22    1    5    5    0    0 -0.15577411656E+03 -0.28664862667E+03  0.27034230166E+03  0.42369561082E+03  0.00000000000E+00 0.  1.
          5    1    4    4  502    0  0.22999248156E+02 -0.11307612894E+03 -0.67572054670E+02  0.13380302285E+03  0.47000000000E+01 0. -1.
         -5    1    4    4    0  502  0.39852481472E+02  0.23957995738E+02 -0.22384263309E+01  0.46790024489E+02  0.47000000000E+01 0. -1.
<mgrwt>
<rscale>  0 0.99927315E+03</rscale>
<asrwt>0</asrwt>
<pdfrwt beam="1">  1        2 0.69568329E-01 0.99927315E+03</pdfrwt>
<pdfrwt beam="2">  1       -2 0.84931767E-01 0.99927315E+03</pdfrwt>
<totfact> 0.10013507E+02</totfact>
</mgrwt>
</event>
<event>
 9    1  0.4342579E-036  0.1000454E+04  0.7818608E-02  0.8680606E-01
         -2   -1    0    0    0  501 -0.00000000000E+00  0.00000000000E+00  0.27414967459E+03  0.27414967459E+03  0.00000000000E+00 0. -1.
          2   -1    0    0  501    0  0.00000000000E+00 -0.00000000000E+00 -0.91273832709E+03  0.91273832709E+03  0.00000000000E+00 0. -1.
         36    2    1    2    0    0 -0.17763568394E-14 -0.28421709430E-13 -0.63858865250E+03  0.11868880017E+04  0.10004537278E+04 0.  0.
         25    2    3    3    0    0  0.65399716777E+01 -0.12519275262E+03 -0.19621952558E+03  0.26405913188E+03  0.12453564297E+03 0.  0.
         35    2    3    3    0    0 -0.65399716777E+01  0.12519275262E+03 -0.44236912692E+03  0.92282886981E+03  0.80012916580E+03 0.  0.
         22    1    5    5    0    0 -0.16080842519E+03 -0.24472122275E+03 -0.43201137503E+03  0.52190195883E+03  0.00000000000E+00 0.  1.
         22    1    5    5    0    0  0.15426845351E+03  0.36991397537E+03 -0.10357751889E+02  0.40092691098E+03  0.00000000000E+00 0.  1.
          5    1    4    4  502    0  0.21582815289E+02 -0.14672151500E+03 -0.15199081261E+03  0.21240602156E+03  0.47000000000E+01 0.  1.
         -5    1    4    4    0  502 -0.15042843612E+02  0.21528762380E+02 -0.44228712975E+02  0.51653110312E+02  0.47000000000E+01 0.  1.
<mgrwt>
<rscale>  0 0.10004537E+04</rscale>
<asrwt>0</asrwt>
<pdfrwt beam="1">  1        2 0.14042128E+00 0.10004537E+04</pdfrwt>
<pdfrwt beam="2">  1       -2 0.42176873E-01 0.10004537E+04</pdfrwt>
<totfact> 0.18527974E+02</totfact>
</mgrwt>
</event>
<event>
 9    1  0.4342579E-036  0.1002673E+04  0.7818608E-02  0.8678497E-01
          1   -1    0    0  501    0  0.00000000000E+00  0.00000000000E+00  0.10853794042E+04  0.10853794042E+04  0.00000000000E+00 0. -1.
         -1   -1    0    0    0  501 -0.00000000000E+00 -0.00000000000E+00 -0.23156713986E+03  0.23156713986E+03  0.00000000000E+00 0. -1.
         36    2    1    2    0    0  0.00000000000E+00  0.00000000000E+00  0.85381226437E+03  0.13169465441E+04  0.10026728366E+04 0.  0.
         25    2    3    3    0    0  0.80208832659E+02  0.83997403607E+02  0.27180062533E+03  0.32097265645E+03  0.12513530920E+03 0.  0.
         35    2    3    3    0    0 -0.80208832659E+02 -0.83997403607E+02  0.58201163904E+03  0.99597388765E+03  0.79983586832E+03 0.  0.
         22    1    5    5    0    0 -0.42610004779E+02  0.35411751733E+03  0.34597122337E+03  0.49690131413E+03  0.00000000000E+00 0.  1.
         22    1    5    5    0    0 -0.37598827880E+02 -0.43811492094E+03  0.23604041567E+03  0.49907257351E+03  0.00000000000E+00 0.  1.
          5    1    4    4  502    0  0.64804193257E+02  0.53231459845E+02  0.52748546052E+02  0.99185033606E+02  0.47000000000E+01 0.  1.
         -5    1    4    4    0  502  0.15404639403E+02  0.30765943762E+02  0.21905207927E+03  0.22178762284E+03  0.47000000000E+01 0.  1.
<mgrwt>
<rscale>  0 0.10026728E+04</rscale>
<asrwt>0</asrwt>
<pdfrwt beam="1">  1        1 0.16698144E+00 0.10026728E+04</pdfrwt>
<pdfrwt beam="2">  1       -1 0.35625714E-01 0.10026728E+04</pdfrwt>
<totfact> 0.10870180E+02</totfact>
</mgrwt>
</event>
<event>
 9    1  0.4342579E-036  0.1000256E+04  0.7818608E-02  0.8680794E-01
         -1   -1    0    0    0  501 -0.00000000000E+00  0.00000000000E+00  0.10370739669E+03  0.10370739669E+03  0.00000000000E+00 0.  1.
          1   -1    0    0  501    0  0.00000000000E+00 -0.00000000000E+00 -0.24118637630E+04  0.24118637630E+04  0.00000000000E+00 0.  1.
         36    2    1    2    0    0 -0.28421709430E-13  0.00000000000E+00 -0.23081563663E+04  0.25155711596E+04  0.10002561912E+04 0.  0.
         25    2    3    3    0    0  0.12495429843E+03 -0.69185055079E+02 -0.43072461858E+03  0.46950908323E+03  0.12047793842E+03 0.  0.
         35    2    3    3    0    0 -0.12495429843E+03  0.69185055079E+02 -0.18774317477E+04  0.20460620764E+04  0.80076207749E+03 0.  0.
         22    1    5    5    0    0 -0.25664934298E+03  0.10724284915E+03 -0.15547460048E+03  0.31865697127E+03  0.00000000000E+00 0.  1.
         22    1    5    5    0    0  0.13169504455E+03 -0.38057794066E+02 -0.17219571472E+04  0.17274051051E+04  0.00000000000E+00 0.  1.
          5    1    4    4  502    0  0.94143370220E+02 -0.55143159033E+02 -0.41957247731E+03  0.43355149159E+03  0.47000000000E+01 0.  1.
         -5    1    4    4    0  502  0.30810928206E+02 -0.14041896046E+02 -0.11152141261E+02  0.35957591635E+02  0.47000000000E+01 0.  1.
<mgrwt>
<rscale>  0 0.10002562E+04</rscale>
<asrwt>0</asrwt>
<pdfrwt beam="1">  1        1 0.37105594E+00 0.10002562E+04</pdfrwt>
<pdfrwt beam="2">  1       -1 0.15954985E-01 0.10002562E+04</pdfrwt>
<totfact> 0.47380490E+01</totfact>
</mgrwt>
</event>
<event>
 9    1  0.4342579E-036  0.1011395E+04  0.7818608E-02  0.8670262E-01
         -2   -1    0    0    0  501 -0.00000000000E+00  0.00000000000E+00  0.14378464995E+03  0.14378464995E+03  0.00000000000E+00 0.  1.
          2   -1    0    0  501    0  0.00000000000E+00 -0.00000000000E+00 -0.17785608840E+04  0.17785608840E+04  0.00000000000E+00 0.  1.
         36    2    1    2    0    0  0.00000000000E+00  0.28421709430E-13 -0.16347762340E+04  0.19223455339E+04  0.10113945899E+04 0.  0.
         25    2    3    3    0    0  0.11807760085E+03 -0.92279683441E+02 -0.33198709709E+03  0.38495548174E+03  0.12456897884E+03 0.  0.
         35    2    3    3    0    0 -0.11807760085E+03  0.92279683441E+02 -0.13027891369E+04  0.15373900522E+04  0.80240312651E+03 0.  0.
         22    1    5    5    0    0 -0.56979877270E+02 -0.35640846778E+03 -0.51838850616E+03  0.63166474149E+03  0.00000000000E+00 0. -1.
         22    1    5    5    0    0 -0.61097723584E+02  0.44868815122E+03 -0.78440063076E+03  0.90572531069E+03  0.00000000000E+00 0. -1.
          5    1    4    4  502    0  0.65011130792E+02 -0.72587219307E+02 -0.30838715622E+03  0.32345027386E+03  0.47000000000E+01 0.  1.
         -5    1    4    4    0  502  0.53066470062E+02 -0.19692464135E+02 -0.23599940868E+02  0.61505207889E+02  0.47000000000E+01 0.  1.
<mgrwt>
<rscale>  0 0.10113946E+04</rscale>
<asrwt>0</asrwt>
<pdfrwt beam="1">  1        2 0.27362474E+00 0.10113946E+04</pdfrwt>
<pdfrwt beam="2">  1       -2 0.22120716E-01 0.10113946E+04</pdfrwt>
<totfact> 0.18776739E+02</totfact>
</mgrwt>
</event>
<event>
 9    1  0.4342579E-036  0.1000793E+04  0.7818608E-02  0.8680284E-01
          2   -1    0    0  501    0  0.00000000000E+00  0.00000000000E+00  0.14522717944E+04  0.14522717944E+04  0.00000000000E+00 0.  1.
         -2   -1    0    0    0  501 -0.00000000000E+00 -0.00000000000E+00 -0.17241708469E+03  0.17241708469E+03  0.00000000000E+00 0.  1.
         36    2    1    2    0    0 -0.28421709430E-13  0.56843418861E-13  0.12798547097E+04  0.16246888791E+04  0.10007926238E+04 0.  0.
         25    2    3    3    0    0 -0.47082423141E+02  0.68288123043E+02  0.54045447636E+02  0.15903735867E+03  0.12446665709E+03 0.  0.
         35    2    3    3    0    0  0.47082423141E+02 -0.68288123043E+02  0.12258092621E+04  0.14656515204E+04  0.79915330820E+03 0.  0.
         22    1    5    5    0    0  0.33150263456E+03 -0.29029038397E+03  0.72511364365E+03  0.84850002943E+03  0.00000000000E+00 0. -1.
         22    1    5    5    0    0 -0.28442021142E+03  0.22200226092E+03  0.50069561842E+03  0.61715149099E+03  0.00000000000E+00 0. -1.
          5    1    4    4  502    0  0.24494099440E+02 -0.18955850936E+02  0.30380363361E+02  0.43638763387E+02  0.47000000000E+01 0.  1.
         -5    1    4    4    0  502 -0.71576522581E+02  0.87243973978E+02  0.23665084276E+02  0.11539859529E+03  0.47000000000E+01 0.  1.
<mgrwt>
<rscale>  0 0.10007926E+04</rscale>
<asrwt>0</asrwt>
<pdfrwt beam="1">  1        2 0.22342642E+00 0.10007926E+04</pdfrwt>
<pdfrwt beam="2">  1       -2 0.26525706E-01 0.10007926E+04</pdfrwt>
<totfact> 0.20814928E+02</totfact>
</mgrwt>
</event>
<event>
 9    1  0.4342579E-036  0.1000959E+04  0.7818608E-02  0.8680125E-01
         -1   -1    0    0    0  501 -0.00000000000E+00  0.00000000000E+00  0.34128394009E+03  0.34128394009E+03  0.00000000000E+00 0.  1.
          1   -1    0    0  501    0  0.00000000000E+00 -0.00000000000E+00 -0.73393318668E+03  0.73393318668E+03  0.00000000000E+00 0.  1.
         36    2    1    2    0    0  0.21316282073E-13 -0.71054273576E-14 -0.39264924659E+03  0.10752171268E+04  0.10009587598E+04 0.  0.
         25    2    3    3    0    0 -0.32948846783E+02 -0.57919240720E+02  0.61430638987E+02  0.15528323200E+03  0.12609081562E+03 0.  0.
         35    2    3    3    0    0  0.32948846783E+02  0.57919240720E+02 -0.45407988558E+03  0.91993389477E+03  0.79727634062E+03 0.  0.
         22    1    5    5    0    0 -0.22392192074E+03  0.31577175283E+03 -0.39161104525E+03  0.55064692611E+03  0.00000000000E+00 0. -1.
         22    1    5    5    0    0  0.25687076752E+03 -0.25785251211E+03 -0.62468840327E+02  0.36928696866E+03  0.00000000000E+00 0. -1.
          5    1    4    4  502    0 -0.38645981767E+01  0.11132201826E+01  0.84999229109E+02  0.85224018489E+02  0.47000000000E+01 0.  1.
         -5    1    4    4    0  502 -0.29084248606E+02 -0.59032460902E+02 -0.23568590123E+02  0.70059213509E+02  0.47000000000E+01 0.  1.
<mgrwt>
<rscale>  0 0.10009588E+04</rscale>
<asrwt>0</asrwt>
<pdfrwt beam="1">  1        1 0.11291280E+00 0.10009588E+04</pdfrwt>
<pdfrwt beam="2">  1       -1 0.52505222E-01 0.10009588E+04</pdfrwt>
<totfact> 0.10613138E+02</totfact>
</mgrwt>
</event>
<event>
 9    1  0.4342579E-036  0.1000061E+04  0.7818608E-02  0.8680980E-01
         -3   -1    0    0    0  501 -0.00000000000E+00  0.00000000000E+00  0.64124006049E+03  0.64124006049E+03  0.00000000000E+00 0. -1.
          3   -1    0    0  501    0  0.00000000000E+00 -0.00000000000E+00 -0.38991690048E+03  0.38991690048E+03  0.00000000000E+00 0. -1.
         36    2    1    2    0    0  0.14210854715E-13 -0.71054273576E-14  0.25132316002E+03  0.10311569610E+04  0.10000606719E+04 0.  0.
         25    2    3    3    0    0 -0.89380778846E+00  0.41476393039E+02  0.18779082748E+03  0.22912632940E+03  0.12454874495E+03 0.  0.
         35    2    3    3    0    0  0.89380778846E+00 -0.41476393039E+02  0.63532332535E+02  0.80203063156E+03  0.79843326998E+03 0.  0.
         22    1    5    5    0    0  0.36103603460E+03  0.58698962949E+02 -0.12083990476E+03  0.38522054607E+03  0.00000000000E+00 0.  1.
         22    1    5    5    0    0 -0.36014222681E+03 -0.10017535599E+03  0.18437223730E+03  0.41681008549E+03  0.00000000000E+00 0.  1.
          5    1    4    4  502    0 -0.17579806133E+02  0.50772012850E+02  0.16063143809E+02  0.56275762647E+02  0.47000000000E+01 0.  1.
         -5    1    4    4    0  502  0.16685998345E+02 -0.92956198108E+01  0.17172768367E+03  0.17285056675E+03  0.47000000000E+01 0.  1.
<mgrwt>
<rscale>  0 0.10000607E+04</rscale>
<asrwt>0</asrwt>
<pdfrwt beam="1">  1        3 0.59987215E-01 0.10000607E+04</pdfrwt>
<pdfrwt beam="2">  1       -3 0.98652317E-01 0.10000607E+04</pdfrwt>
<totfact> 0.91135301E+00</totfact>
</mgrwt>
</event>
<event>
 9    1  0.4342579E-036  0.1000698E+04  0.7818608E-02  0.8680374E-01
         -2   -1    0    0    0  501 -0.00000000000E+00  0.00000000000E+00  0.11468405559E+03  0.11468405559E+03  0.00000000000E+00 0.  1.
          2   -1    0    0  501    0  0.00000000000E+00 -0.00000000000E+00 -0.21829444718E+04  0.21829444718E+04  0.00000000000E+00 0.  1.
         36    2    1    2    0    0 -0.14210854715E-13  0.00000000000E+00 -0.20682604162E+04  0.22976285274E+04  0.10006976070E+04 0.  0.
         25    2    3    3    0    0 -0.57843097000E+02  0.67246875326E+02 -0.64272923520E+03  0.66056905557E+03  0.12402677649E+03 0.  0.
         35    2    3    3    0    0  0.57843097000E+02 -0.67246875326E+02 -0.14255311810E+04  0.16370594718E+04  0.79997287459E+03 0.  0.
         22    1    5    5    0    0 -0.31353089722E+03 -0.40528840003E+02 -0.10931652849E+04  0.11379606981E+04  0.00000000000E+00 0.  1.
         22    1    5    5    0    0  0.37137399422E+03 -0.26718035323E+02 -0.33236589613E+03  0.49909877369E+03  0.00000000000E+00 0.  1.
          5    1    4    4  502    0  0.21537656488E+02  0.18409555659E+02 -0.39176451085E+03  0.39281586570E+03  0.47000000000E+01 0. -1.
         -5    1    4    4    0  502 -0.79380753487E+02  0.48837319667E+02 -0.25096472435E+03  0.26775318987E+03  0.47000000000E+01 0. -1.
<mgrwt>
<rscale>  0 0.10006976E+04</rscale>
<asrwt>0</asrwt>
<pdfrwt beam="1">  1        2 0.33583764E+00 0.10006976E+04</pdfrwt>
<pdfrwt beam="2">  1       -2 0.17643700E-01 0.10006976E+04</pdfrwt>
<totfact> 0.16321900E+02</totfact>
</mgrwt>
</event>
<event>
 9    1  0.4342579E-036  0.1000368E+04  0.7818608E-02  0.8680687E-01
         -2   -1    0    0    0  501 -0.00000000000E+00  0.00000000000E+00  0.16831456926E+03  0.16831456926E+03  0.00000000000E+00 0.  1.
          2   -1    0    0  501    0  0.00000000000E+00 -0.00000000000E+00 -0.14864088247E+04  0.14864088247E+04  0.00000000000E+00 0.  1.
         36    2    1    2    0    0  0.71054273576E-14  0.00000000000E+00 -0.13180942554E+04  0.16547233939E+04  0.10003684543E+04 0.  0.
         25    2    3    3    0    0 -0.58972192027E+02 -0.13146962008E+03 -0.21704722171E+03  0.28948031465E+03  0.12620370710E+03 0.  0.
         35    2    3    3    0    0  0.58972192027E+02  0.13146962008E+03 -0.11010470337E+04  0.13652430793E+04  0.79424310804E+03 0.  0.
         22    1    5    5    0    0  0.10427129453E+03  0.45235409615E+03 -0.49915064176E+03  0.68165100625E+03  0.00000000000E+00 0.  1.
         22    1    5    5    0    0 -0.45299102501E+02 -0.32088447607E+03 -0.60189639194E+03  0.68359207302E+03  0.00000000000E+00 0.  1.
          5    1    4    4  502    0  0.25232665931E+02 -0.34513636547E+02 -0.12281675604E+03  0.13013041191E+03  0.47000000000E+01 0. -1.
         -5    1    4    4    0  502 -0.84204857958E+02 -0.96955983534E+02 -0.94230465663E+02  0.15934990275E+03  0.47000000000E+01 0. -1.
<mgrwt>
<rscale>  0 0.10003685E+04</rscale>
<asrwt>0</asrwt>
<pdfrwt beam="1">  1        2 0.22867829E+00 0.10003685E+04</pdfrwt>
<pdfrwt beam="2">  1       -2 0.25894548E-01 0.10003685E+04</pdfrwt>
<totfact> 0.20781869E+02</totfact>
</mgrwt>
</event>
<event>
 9    1  0.4342579E-036  0.1000041E+04  0.7818608E-02  0.8680998E-01
          1   -1    0    0  501    0  0.00000000000E+00  0.00000000000E+00  0.33422135297E+03  0.33422135297E+03  0.00000000000E+00 0.  1.
         -1   -1    0    0    0  501 -0.00000000000E+00 -0.00000000000E+00 -0.74806930966E+03  0.74806930966E+03  0.00000000000E+00 0.  1.
         36    2    1    2    0    0 -0.14210854715E-13 -0.14210854715E-13 -0.41384795669E+03  0.10822906626E+04  0.10000414727E+04 0.  0.
         25    2    3    3    0    0  0.46382770397E+02 -0.64834380543E+02 -0.20045908019E+03  0.25012584977E+03  0.12658688558E+03 0.  0.
         35    2    3    3    0    0 -0.46382770397E+02  0.64834380543E+02 -0.21338887650E+03  0.83216481285E+03  0.80038028764E+03 0.  0.
         22    1    5    5    0    0 -0.42280598555E+03  0.29889829638E+02 -0.14506921496E+03  0.44799930855E+03  0.00000000000E+00 0.  1.
         22    1    5    5    0    0  0.37642321515E+03  0.34944550905E+02 -0.68319661538E+02  0.38416550430E+03  0.00000000000E+00 0.  1.
          5    1    4    4  502    0  0.83413502127E+02 -0.47589572321E+02 -0.18029190370E+03  0.20432777655E+03  0.47000000000E+01 0.  1.
         -5    1    4    4    0  502 -0.37030731730E+02 -0.17244808222E+02 -0.20167176497E+02  0.45798073223E+02  0.47000000000E+01 0.  1.
<mgrwt>
<rscale>  0 0.10000415E+04</rscale>
<asrwt>0</asrwt>
<pdfrwt beam="1">  1        1 0.51418670E-01 0.10000415E+04</pdfrwt>
<pdfrwt beam="2">  1       -1 0.11508759E+00 0.10000415E+04</pdfrwt>
<totfact> 0.62724737E+01</totfact>
</mgrwt>
</event>
<event>
 9    1  0.4342579E-036  0.1001277E+04  0.7818608E-02  0.8679823E-01
          2   -1    0    0  501    0  0.00000000000E+00  0.00000000000E+00  0.30380257924E+03  0.30380257924E+03  0.00000000000E+00 0.  1.
         -2   -1    0    0    0  501 -0.00000000000E+00 -0.00000000000E+00 -0.82500590806E+03  0.82500590806E+03  0.00000000000E+00 0.  1.
         36    2    1    2    0    0  0.00000000000E+00  0.71054273576E-14 -0.52120332882E+03  0.11288084873E+04  0.10012770301E+04 0.  0.
         25    2    3    3    0    0  0.12204011969E+03  0.53185368294E+02 -0.16399652983E+03  0.24535731784E+03  0.12483139592E+03 0.  0.
         35    2    3    3    0    0 -0.12204011969E+03 -0.53185368294E+02 -0.35720679900E+03  0.88345116947E+03  0.79697352363E+03 0.  0.
         22    1    5    5    0    0 -0.37708001295E+03  0.69687349475E+02 -0.44464658573E+03  0.58715947497E+03  0.00000000000E+00 0.  1.
         22    1    5    5    0    0  0.25503989325E+03 -0.12287271777E+03  0.87439786737E+02  0.29629169450E+03  0.00000000000E+00 0.  1.
          5    1    4    4  502    0  0.29413010558E+02 -0.20918993462E+02  0.71246115804E+01  0.37088806502E+02  0.47000000000E+01 0.  1.
         -5    1    4    4    0  502  0.92627109135E+02  0.74104361757E+02 -0.17112114141E+03  0.20826851134E+03  0.47000000000E+01 0.  1.
<mgrwt>
<rscale>  0 0.10012770E+04</rscale>
<asrwt>0</asrwt>
<pdfrwt beam="1">  1        2 0.46738859E-01 0.10012770E+04</pdfrwt>
<pdfrwt beam="2">  1       -2 0.12692398E+00 0.10012770E+04</pdfrwt>
<totfact> 0.57847892E+01</totfact>
</mgrwt>
</event>
<event>
 9    1  0.4342579E-036  0.9988806E+03  0.7818608E-02  0.8682105E-01
         -2   -1    0    0    0  501 -0.00000000000E+00  0.00000000000E+00  0.13375263613E+03  0.13375263613E+03  0.00000000000E+00 0. -1.
          2   -1    0    0  501    0  0.00000000000E+00 -0.00000000000E+00 -0.18649397547E+04  0.18649397547E+04  0.00000000000E+00 0. -1.
         36    2    1    2    0    0 -0.14210854715E-13  0.00000000000E+00 -0.17311871186E+04  0.19986923909E+04  0.99888059031E+03 0.  0.
         25    2    3    3    0    0  0.48038567877E+02  0.11758102821E+03 -0.21192133811E+03  0.27713317527E+03  0.12553541769E+03 0.  0.
         35    2    3    3    0    0 -0.48038567877E+02 -0.11758102821E+03 -0.15192657805E+04  0.17215592156E+04  0.79966531675E+03 0.  0.
         22    1    5    5    0    0 -0.34211524477E+03 -0.30708349087E+03 -0.87756767254E+03  0.99069073427E+03  0.00000000000E+00 0. -1.
         22    1    5    5    0    0  0.29407667689E+03  0.18950246267E+03 -0.64169810796E+03  0.73086848133E+03  0.00000000000E+00 0. -1.
          5    1    4    4  502    0  0.35106879592E+02  0.23378716086E+02  0.25142146505E+01  0.42514334475E+02  0.47000000000E+01 0. -1.
         -5    1    4    4    0  502  0.12931688285E+02  0.94202312123E+02 -0.21443555276E+03  0.23461884080E+03  0.47000000000E+01 0. -1.
<mgrwt>
<rscale>  0 0.99888059E+03</rscale>
<asrwt>0</asrwt>
<pdfrwt beam="1">  1        2 0.28691380E+00 0.99888059E+03</pdfrwt>
<pdfrwt beam="2">  1       -2 0.20577329E-01 0.99888059E+03</pdfrwt>
<totfact> 0.19036472E+02</totfact>
</mgrwt>
</event>
<event>
 9    1  0.4342579E-036  0.9999215E+03  0.7818608E-02  0.8681113E-01
          1   -1    0    0  501    0  0.00000000000E+00  0.00000000000E+00  0.13479668435E+04  0.13479668435E+04  0.00000000000E+00 0. -1.
         -1   -1    0    0    0  501 -0.00000000000E+00 -0.00000000000E+00 -0.18543538368E+03  0.18543538368E+03  0.00000000000E+00 0. -1.
         36    2    1    2    0    0  0.71054273576E-14  0.14210854715E-13  0.11625314598E+04  0.15334022272E+04  0.99992149456E+03 0.  0.
         25    2    3    3    0    0  0.25796529039E+02 -0.27440730768E+02  0.42270639918E+03  0.44330223389E+03  0.12813163563E+03 0.  0.
         35    2    3    3    0    0 -0.25796529039E+02  0.27440730768E+02  0.73982506067E+03  0.10900999933E+04  0.79972396515E+03 0.  0.
         22    1    5    5    0    0  0.31944708824E+03  0.23489270421E+03  0.39833125411E+03  0.56203986751E+03  0.00000000000E+00 0.  1.
         22    1    5    5    0    0 -0.34524361727E+03 -0.20745197344E+03  0.34149380656E+03  0.52806012581E+03  0.00000000000E+00 0.  1.
          5    1    4    4  502    0 -0.31660408631E+02  0.31827959566E+02  0.92838939753E+02  0.10323061183E+03  0.47000000000E+01 0. -1.
         -5    1    4    4    0  502  0.57456937670E+02 -0.59268690334E+02  0.32986745943E+03  0.34007162206E+03  0.47000000000E+01 0. -1.
<mgrwt>
<rscale>  0 0.99992149E+03</rscale>
<asrwt>0</asrwt>
<pdfrwt beam="1">  1        1 0.20737951E+00 0.99992149E+03</pdfrwt>
<pdfrwt beam="2">  1       -1 0.28528521E-01 0.99992149E+03</pdfrwt>
<totfact> 0.10164037E+02</totfact>
</mgrwt>
</event>
<event>
 9    1  0.4342579E-036  0.9986693E+03  0.7818608E-02  0.8682306E-01
          2   -1    0    0  501    0  0.00000000000E+00  0.00000000000E+00  0.12273499363E+04  0.12273499363E+04  0.00000000000E+00 0. -1.
         -2   -1    0    0    0  501 -0.00000000000E+00 -0.00000000000E+00 -0.20314913982E+03  0.20314913982E+03  0.00000000000E+00 0. -1.
         36    2    1    2    0    0  0.00000000000E+00  0.14210854715E-13  0.10242007965E+04  0.14304990761E+04  0.99866928223E+03 0.  0.
         25    2    3    3    0    0 -0.48895983446E+02 -0.12113202167E+03  0.12527055299E+03  0.21986188639E+03  0.12483090070E+03 0.  0.
         35    2    3    3    0    0  0.48895983446E+02  0.12113202167E+03  0.89893024349E+03  0.12106371897E+04  0.80031433739E+03 0.  0.
         22    1    5    5    0    0 -0.20439692323E+03  0.63327050977E+02  0.92509254221E+03  0.94951810371E+03  0.00000000000E+00 0. -1.
         22    1    5    5    0    0  0.25329290668E+03  0.57804970689E+02 -0.26162298722E+02  0.26111908602E+03  0.00000000000E+00 0. -1.
          5    1    4    4  502    0  0.13716768135E+02 -0.86535710942E+02  0.11906786213E+03  0.14790478285E+03  0.47000000000E+01 0.  1.
         -5    1    4    4    0  502 -0.62612751581E+02 -0.34596310724E+02  0.62026908543E+01  0.71957103542E+02  0.47000000000E+01 0.  1.
<mgrwt>
<rscale>  0 0.99866928E+03</rscale>
<asrwt>0</asrwt>
<pdfrwt beam="1">  1        2 0.18882306E+00 0.99866928E+03</pdfrwt>
<pdfrwt beam="2">  1       -2 0.31253715E-01 0.99866928E+03</pdfrwt>
<totfact> 0.20848224E+02</totfact>
</mgrwt>
</event>
<event>
 9    1  0.4342579E-036  0.9997857E+03  0.7818608E-02  0.8681242E-01
          1   -1    0    0  501    0  0.00000000000E+00  0.00000000000E+00  0.16995266086E+04  0.16995266086E+04  0.00000000000E+00 0. -1.
         -1   -1    0    0    0  501 -0.00000000000E+00 -0.00000000000E+00 -0.14703675250E+03  0.14703675250E+03  0.00000000000E+00 0. -1.
         36    2    1    2    0    0  0.00000000000E+00 -0.28421709430E-13  0.15524898561E+04  0.18465633611E+04  0.99978572369E+03 0.  0.
         25    2    3    3    0    0  0.16173231365E+02 -0.12098261565E+03  0.16400209232E+03  0.23969662362E+03  0.12513759782E+03 0.  0.
         35    2    3    3    0    0 -0.16173231365E+02  0.12098261565E+03  0.13884877638E+04  0.16068667375E+04  0.79951489990E+03 0.  0.
         22    1    5    5    0    0  0.32114588240E+03  0.21630177977E+03  0.10519138690E+04  0.11209120954E+04  0.00000000000E+00 0. -1.
         22    1    5    5    0    0 -0.33731911377E+03 -0.95319164125E+02  0.33657389480E+03  0.48595464214E+03  0.00000000000E+00 0. -1.
          5    1    4    4  502    0  0.38390968608E+02 -0.12415808259E+03  0.80133860425E+02  0.15275019322E+03  0.47000000000E+01 0.  1.
         -5    1    4    4    0  502 -0.22217737243E+02  0.31754669363E+01  0.83868231896E+02  0.86946430403E+02  0.47000000000E+01 0.  1.
<mgrwt>
<rscale>  0 0.99978572E+03</rscale>
<asrwt>0</asrwt>
<pdfrwt beam="1">  1        1 0.26146562E+00 0.99978572E+03</pdfrwt>
<pdfrwt beam="2">  1       -1 0.22621040E-01 0.99978572E+03</pdfrwt>
<totfact> 0.84385147E+01</totfact>
</mgrwt>
</event>
<event>
 9    1  0.4342579E-036  0.9992379E+03  0.7818608E-02  0.8681764E-01
          3   -1    0    0  501    0  0.00000000000E+00  0.00000000000E+00  0.63067511870E+03  0.63067511870E+03  0.00000000000E+00 0.  1.
         -3   -1    0    0    0  501 -0.00000000000E+00 -0.00000000000E+00 -0.39579661254E+03  0.39579661254E+03  0.00000000000E+00 0.  1.
         36    2    1    2    0    0  0.14210854715E-13  0.71054273576E-14  0.23487850616E+03  0.10264717312E+04  0.99923786077E+03 0.  0.
         25    2    3    3    0    0  0.10636291792E+03  0.22625094792E+02 -0.44347103550E+02  0.17165095674E+03  0.12518953683E+03 0.  0.
         35    2    3    3    0    0 -0.10636291792E+03 -0.22625094792E+02  0.27922560971E+03  0.85482077451E+03  0.80057894688E+03 0.  0.
         22    1    5    5    0    0 -0.12355438093E+03  0.20862849984E+03 -0.20526944163E+03  0.31769022594E+03  0.00000000000E+00 0.  1.
         22    1    5    5    0    0  0.17191463012E+02 -0.23125359463E+03  0.48449505134E+03  0.53713054856E+03  0.00000000000E+00 0.  1.
          5    1    4    4  502    0  0.26761712067E+02 -0.50191785509E+02 -0.75656543225E+01  0.57573723961E+02  0.47000000000E+01 0.  1.
         -5    1    4    4    0  502  0.79601205855E+02  0.72816880302E+02 -0.36781449228E+02  0.11407723278E+03  0.47000000000E+01 0.  1.
<mgrwt>
<rscale>  0 0.99923786E+03</rscale>
<asrwt>0</asrwt>
<pdfrwt beam="1">  1        3 0.97026941E-01 0.99923786E+03</pdfrwt>
<pdfrwt beam="2">  1       -3 0.60891787E-01 0.99923786E+03</pdfrwt>
<totfact> 0.10177186E+01</totfact>
</mgrwt>
</event>
<event>
 9    1  0.4342579E-036  0.1000318E+04  0.7818608E-02  0.8680736E-01
         -1   -1    0    0    0  501 -0.00000000000E+00  0.00000000000E+00  0.56868558011E+03  0.56868558011E+03  0.00000000000E+00 0. -1.
          1   -1    0    0  501    0  0.00000000000E+00 -0.00000000000E+00 -0.43988951312E+03  0.43988951312E+03  0.00000000000E+00 0. -1.
         36    2    1    2    0    0 -0.28421709430E-13  0.00000000000E+00  0.12879606699E+03  0.10085750932E+04  0.10003175955E+04 0.  0.
         25    2    3    3    0    0 -0.97522620192E+02 -0.80261409596E+02  0.86639601446E+02  0.19779430842E+03  0.12515435504E+03 0.  0.
         35    2    3    3    0    0  0.97522620192E+02  0.80261409596E+02  0.42156465549E+02  0.81078078481E+03  0.79977231642E+03 0.  0.
         22    1    5    5    0    0 -0.17412140204E+03  0.33897586568E+03  0.16609616903E+03  0.41570522913E+03  0.00000000000E+00 0.  1.
         22    1    5    5    0    0  0.27164402223E+03 -0.25871445608E+03 -0.12393970348E+03  0.39507555568E+03  0.00000000000E+00 0.  1.
          5    1    4    4  502    0  0.56154057766E+01  0.10604226120E+02  0.55235259474E+02  0.56718659036E+02  0.47000000000E+01 0.  1.
         -5    1    4    4    0  502 -0.10313802597E+03 -0.90865635715E+02  0.31404341972E+02  0.14107564938E+03  0.47000000000E+01 0.  1.
<mgrwt>
<rscale>  0 0.10003176E+04</rscale>
<asrwt>0</asrwt>
<pdfrwt beam="1">  1        1 0.67675310E-01 0.10003176E+04</pdfrwt>
<pdfrwt beam="2">  1       -1 0.87490089E-01 0.10003176E+04</pdfrwt>
<totfact> 0.80642970E+01</totfact>
</mgrwt>
</event>
<event>
 9    1  0.4342579E-036  0.1000399E+04  0.7818608E-02  0.8680658E-01
          2   -1    0    0  501    0  0.00000000000E+00  0.00000000000E+00  0.32338102777E+04  0.32338102777E+04  0.00000000000E+00 0. -1.
         -2   -1    0    0    0  501 -0.00000000000E+00 -0.00000000000E+00 -0.77369905980E+02  0.77369905980E+02  0.00000000000E+00 0. -1.
         36    2    1    2    0    0 -0.14210854715E-13  0.28421709430E-13  0.31564403717E+04  0.33111801837E+04  0.10003991146E+04 0.  0.
         25    2    3    3    0    0  0.75468277928E+02  0.10216305878E+03  0.81062781121E+03  0.82953729601E+03  0.12199149810E+03 0.  0.
         35    2    3    3    0    0 -0.75468277928E+02 -0.10216305878E+03  0.23458125605E+04  0.24816428877E+04  0.79973877068E+03 0.  0.
         22    1    5    5    0    0 -0.14778643128E+03  0.24239496070E+03  0.18607372761E+04  0.18822697354E+04  0.00000000000E+00 0. -1.
         22    1    5    5    0    0  0.72318153348E+02 -0.34455801948E+03  0.48507528446E+03  0.59937315229E+03  0.00000000000E+00 0. -1.
          5    1    4    4  502    0  0.10177258045E+03  0.62128573447E+02  0.67853901293E+03  0.68895203014E+03  0.47000000000E+01 0.  1.
         -5    1    4    4    0  502 -0.26304302525E+02  0.40034485335E+02  0.13208879828E+03  0.14058526586E+03  0.47000000000E+01 0.  1.
<mgrwt>
<rscale>  0 0.10003991E+04</rscale>
<asrwt>0</asrwt>
<pdfrwt beam="1">  1        2 0.49750917E+00 0.10003991E+04</pdfrwt>
<pdfrwt beam="2">  1       -2 0.11903065E-01 0.10003991E+04</pdfrwt>
<totfact> 0.67907791E+01</totfact>
</mgrwt>
</event>
<event>
 9    1  0.4342579E-036  0.1001473E+04  0.7818608E-02  0.8679636E-01
          1   -1    0    0  501    0  0.00000000000E+00  0.00000000000E+00  0.15917731377E+04  0.15917731377E+04  0.00000000000E+00 0.  1.
         -1   -1    0    0    0  501 -0.00000000000E+00 -0.00000000000E+00 -0.15752074458E+03  0.15752074458E+03  0.00000000000E+00 0.  1.
         36    2    1    2    0    0 -0.28421709430E-13  0.71054273576E-14  0.14342523931E+04  0.17492938823E+04  0.10014734941E+04 0.  0.
         25    2    3    3    0    0  0.10537904076E+03 -0.20019484922E+02  0.10078003742E+03  0.19271310119E+03  0.12440338186E+03 0.  0.
         35    2    3    3    0    0 -0.10537904076E+03  0.20019484922E+02  0.13334723557E+04  0.15565807811E+04  0.79579500041E+03 0.  0.
         22    1    5    5    0    0  0.30482500501E+03 -0.10123201756E+03  0.86244320882E+03  0.92031217176E+03  0.00000000000E+00 0. -1.
         22    1    5    5    0    0 -0.41020404577E+03  0.12125150248E+03  0.47102914686E+03  0.63626860932E+03  0.00000000000E+00 0. -1.
          5    1    4    4  502    0  0.18538451931E+02  0.35764828921E+02  0.76486842949E+02  0.86574386120E+02  0.47000000000E+01 0. -1.
         -5    1    4    4    0  502  0.86840588828E+02 -0.55784313843E+02  0.24293194476E+02  0.10613871507E+03  0.47000000000E+01 0. -1.
<mgrwt>
<rscale>  0 0.10014735E+04</rscale>
<asrwt>0</asrwt>
<pdfrwt beam="1">  1        1 0.24488816E+00 0.10014735E+04</pdfrwt>
<pdfrwt beam="2">  1       -1 0.24233962E-01 0.10014735E+04</pdfrwt>
<totfact> 0.89607026E+01</totfact>
</mgrwt>
</event>
<event>
 9    1  0.4342579E-036  0.9999068E+03  0.7818608E-02  0.8681127E-01
         -2   -1    0    0    0  501 -0.00000000000E+00  0.00000000000E+00  0.84787410466E+02  0.84787410466E+02  0.00000000000E+00 0. -1.
          2   -1    0    0  501    0  0.00000000000E+00 -0.00000000000E+00 -0.29480015081E+04  0.29480015081E+04  0.00000000000E+00 0. -1.
         36    2    1    2    0    0 -0.71054273576E-14  0.00000000000E+00 -0.28632140976E+04  0.30327889186E+04  0.99990682350E+03 0.  0.
         25    2    3    3    0    0  0.34405860890E+01  0.91469696214E+02 -0.85734174091E+03  0.87143307307E+03  0.12642071500E+03 0.  0.
         35    2    3    3    0    0 -0.34405860890E+01 -0.91469696214E+02 -0.20058723567E+04  0.21613558455E+04  0.79972284975E+03 0.  0.
         22    1    5    5    0    0 -0.22266186234E+03  0.73715807990E+02 -0.18075834422E+04  0.18227370150E+04  0.00000000000E+00 0. -1.
         22    1    5    5    0    0  0.21922127625E+03 -0.16518550420E+03 -0.19828891456E+03  0.33861883054E+03  0.00000000000E+00 0. -1.
          5    1    4    4  502    0  0.60453898164E+02  0.75050837650E+02 -0.51678989573E+03  0.52571968611E+03  0.47000000000E+01 0.  1.
         -5    1    4    4    0  502 -0.57013312075E+02  0.16418858564E+02 -0.34055184518E+03  0.34571338696E+03  0.47000000000E+01 0.  1.
<mgrwt>
<rscale>  0 0.99990682E+03</rscale>
<asrwt>0</asrwt>
<pdfrwt beam="1">  1        2 0.45353876E+00 0.99990682E+03</pdfrwt>
<pdfrwt beam="2">  1       -2 0.13044215E-01 0.99990682E+03</pdfrwt>
<totfact> 0.91452093E+01</totfact>
</mgrwt>
</event>
<event>
 9    1  0.4342579E-036  0.1000240E+04  0.7818608E-02  0.8680810E-01
         -2   -1    0    0    0  501 -0.00000000000E+00  0.00000000000E+00  0.38010216642E+03  0.38010216642E+03  0.00000000000E+00 0. -1.
          2   -1    0    0  501    0  0.00000000000E+00 -0.00000000000E+00 -0.65803299817E+03  0.65803299817E+03  0.00000000000E+00 0. -1.
         36    2    1    2    0    0  0.14210854715E-13  0.00000000000E+00 -0.27793083175E+03  0.10381351646E+04  0.10002395077E+04 0.  0.
         25    2    3    3    0    0 -0.97664127361E+02 -0.92259352745E+02 -0.25231949910E+01  0.18156804497E+03  0.12210863400E+03 0.  0.
         35    2    3    3    0    0  0.97664127361E+02  0.92259352745E+02 -0.27540763676E+03  0.85656711963E+03  0.79987986229E+03 0.  0.
         22    1    5    5    0    0  0.43531280100E+03  0.11855379491E+03 -0.59860350399E+02  0.45512141078E+03  0.00000000000E+00 0.  1.
         22    1    5    5    0    0 -0.33764867363E+03 -0.26294442160E+02 -0.21554728636E+03  0.40144570885E+03  0.00000000000E+00 0.  1.
          5    1    4    4  502    0 -0.79160476816E+02 -0.11103341858E+03  0.29733898304E+02  0.13964596607E+03  0.47000000000E+01 0.  1.
         -5    1    4    4    0  502 -0.18503650545E+02  0.18774065831E+02 -0.32257093295E+02  0.41922078898E+02  0.47000000000E+01 0.  1.
<mgrwt>
<rscale>  0 0.10002395E+04</rscale>
<asrwt>0</asrwt>
<pdfrwt beam="1">  1        2 0.10123585E+00 0.10002395E+04</pdfrwt>
<pdfrwt beam="2">  1       -2 0.58477257E-01 0.10002395E+04</pdfrwt>
<totfact> 0.14650935E+02</totfact>
</mgrwt>
</event>
<event>
 9    1  0.4342579E-036  0.9941633E+03  0.7818608E-02  0.8686616E-01
          1   -1    0    0  501    0  0.00000000000E+00  0.00000000000E+00  0.30703142300E+03  0.30703142300E+03  0.00000000000E+00 0. -1.
         -1   -1    0    0    0  501 -0.00000000000E+00 -0.00000000000E+00 -0.80477166346E+03  0.80477166346E+03  0.00000000000E+00 0. -1.
         36    2    1    2    0    0  0.00000000000E+00  0.00000000000E+00 -0.49774024046E+03  0.11118030865E+04  0.99416334476E+03 0.  0.
         25    2    3    3    0    0  0.77598612412E+02 -0.84768924012E+02 -0.16986756675E+03  0.24008681947E+03  0.12481736867E+03 0.  0.
         35    2    3    3    0    0 -0.77598612412E+02  0.84768924012E+02 -0.32787267371E+03  0.87171626698E+03  0.79948823933E+03 0.  0.
         22    1    5    5    0    0 -0.15743322014E+03  0.32409173335E+03 -0.46208166701E+03  0.58595233374E+03  0.00000000000E+00 0. -1.
         22    1    5    5    0    0  0.79834607731E+02 -0.23932280934E+03  0.13420899330E+03  0.28576393325E+03  0.00000000000E+00 0. -1.
          5    1    4    4  502    0  0.37589879635E+02  0.14750370179E+02 -0.18490350104E+01  0.40694980057E+02  0.47000000000E+01 0.  1.
         -5    1    4    4    0  502  0.40008732777E+02 -0.99519294191E+02 -0.16801853174E+03  0.19939183941E+03  0.47000000000E+01 0.  1.
<mgrwt>
<rscale>  0 0.99416334E+03</rscale>
<asrwt>0</asrwt>
<pdfrwt beam="1">  1        1 0.47235605E-01 0.99416334E+03</pdfrwt>
<pdfrwt beam="2">  1       -1 0.12381102E+00 0.99416334E+03</pdfrwt>
<totfact> 0.58574049E+01</totfact>
</mgrwt>
</event>
<event>
 9    1  0.4342579E-036  0.1000720E+04  0.7818608E-02  0.8680353E-01
          1   -1    0    0  501    0  0.00000000000E+00  0.00000000000E+00  0.63742460245E+03  0.63742460245E+03  0.00000000000E+00 0. -1.
         -1   -1    0    0    0  501 -0.00000000000E+00 -0.00000000000E+00 -0.39276804922E+03  0.39276804922E+03  0.00000000000E+00 0. -1.
         36    2    1    2    0    0 -0.15987211555E-13 -0.28421709430E-13  0.24465655324E+03  0.10301926517E+04  0.10007197762E+04 0.  0.
         25    2    3    3    0    0  0.13782452806E+02 -0.71217632502E+02 -0.75709172475E+02  0.16368032932E+03  0.12568796372E+03 0.  0.
         35    2    3    3    0    0 -0.13782452806E+02  0.71217632502E+02  0.32036572571E+03  0.86651232236E+03  0.80184007096E+03 0.  0.
         22    1    5    5    0    0 -0.28622445679E+03  0.27692342894E+03  0.34129377704E+03  0.52449258089E+03  0.00000000000E+00 0. -1.
         22    1    5    5    0    0  0.27244200399E+03 -0.20570579643E+03 -0.20928051325E+02  0.34201974147E+03  0.00000000000E+00 0. -1.
          5    1    4    4  502    0 -0.49331838692E+01 -0.32492338679E+02  0.32918783282E+02  0.46752803859E+02  0.47000000000E+01 0.  1.
         -5    1    4    4    0  502  0.18715636675E+02 -0.38725293823E+02 -0.10862795576E+03  0.11692752546E+03  0.47000000000E+01 0.  1.
<mgrwt>
<rscale>  0 0.10007198E+04</rscale>
<asrwt>0</asrwt>
<pdfrwt beam="1">  1        1 0.98065324E-01 0.10007198E+04</pdfrwt>
<pdfrwt beam="2">  1       -1 0.60425854E-01 0.10007198E+04</pdfrwt>
<totfact> 0.10084178E+02</totfact>
</mgrwt>
</event>
<event>
 9    1  0.4342579E-036  0.9964948E+03  0.7818608E-02  0.8684383E-01
         -2   -1    0    0    0  501 -0.00000000000E+00  0.00000000000E+00  0.18394416957E+03  0.18394416957E+03  0.00000000000E+00 0. -1.
          2   -1    0    0  501    0  0.00000000000E+00 -0.00000000000E+00 -0.13495969814E+04  0.13495969814E+04  0.00000000000E+00 0. -1.
         36    2    1    2    0    0 -0.88817841970E-14  0.00000000000E+00 -0.11656528118E+04  0.15335411510E+04  0.99649484895E+03 0.  0.
         25    2    3    3    0    0  0.63337768933E+01  0.13366792148E+03 -0.19847627348E+03  0.26998567928E+03  0.12486875476E+03 0.  0.
         35    2    3    3    0    0 -0.63337768933E+01 -0.13366792148E+03 -0.96717653833E+03  0.12635554717E+04  0.80201916670E+03 0.  0.
         22    1    5    5    0    0 -0.89450791019E+02 -0.11286553081E+03  0.11109506188E+03  0.18188508690E+03  0.00000000000E+00 0.  1.
         22    1    5    5    0    0  0.83117014126E+02 -0.20802390667E+02 -0.10782716002E+04  0.10816703848E+04  0.00000000000E+00 0.  1.
          5    1    4    4  502    0 -0.14007498600E+02  0.12278334313E+03 -0.21004885463E+03  0.24375104246E+03  0.47000000000E+01 0.  1.
         -5    1    4    4    0  502  0.20341275493E+02  0.10884578349E+02  0.11572581149E+02  0.26234636818E+02  0.47000000000E+01 0.  1.
<mgrwt>
<rscale>  0 0.99649485E+03</rscale>
<asrwt>0</asrwt>
<pdfrwt beam="1">  1        2 0.20763029E+00 0.99649485E+03</pdfrwt>
<pdfrwt beam="2">  1       -2 0.28299104E-01 0.99649485E+03</pdfrwt>
<totfact> 0.21209503E+02</totfact>
</mgrwt>
</event>
<event>
 9    1  0.4342579E-036  0.9999523E+03  0.7818608E-02  0.8681083E-01
          2   -1    0    0  501    0  0.00000000000E+00  0.00000000000E+00  0.14397131170E+04  0.14397131170E+04  0.00000000000E+00 0. -1.
         -2   -1    0    0    0  501 -0.00000000000E+00 -0.00000000000E+00 -0.17362914007E+03  0.17362914007E+03  0.00000000000E+00 0. -1.
         36    2    1    2    0    0  0.00000000000E+00  0.14210854715E-13  0.12660839769E+04  0.16133422570E+04  0.99995229975E+03 0.  0.
         25    2    3    3    0    0 -0.14347986301E+02  0.15196831109E+02  0.46286426950E+03  0.47938673181E+03  0.12301015517E+03 0.  0.
         35    2    3    3    0    0  0.14347986301E+02 -0.15196831109E+02  0.80321970740E+03  0.11339555252E+04  0.80016025048E+03 0.  0.
         22    1    5    5    0    0 -0.24866374823E+03 -0.16337457410E+03  0.24228695609E+02  0.29851623211E+03  0.00000000000E+00 0.  1.
         22    1    5    5    0    0  0.26301173453E+03  0.14817774299E+03  0.77899101180E+03  0.83543929311E+03  0.00000000000E+00 0.  1.
          5    1    4    4  502    0 -0.10263768012E+02 -0.16081752520E+02  0.43928544037E+03  0.43972463636E+03  0.47000000000E+01 0.  1.
         -5    1    4    4    0  502 -0.40842182890E+01  0.31278583629E+02  0.23578829125E+02  0.39662095454E+02  0.47000000000E+01 0.  1.
<mgrwt>
<rscale>  0 0.99995230E+03</rscale>
<asrwt>0</asrwt>
<pdfrwt beam="1">  1        2 0.22149432E+00 0.99995230E+03</pdfrwt>
<pdfrwt beam="2">  1       -2 0.26712176E-01 0.99995230E+03</pdfrwt>
<totfact> 0.20896624E+02</totfact>
</mgrwt>
</event>
<event>
 9    1  0.4342579E-036  0.9994746E+03  0.7818608E-02  0.8681538E-01
          2   -1    0    0  501    0  0.00000000000E+00  0.00000000000E+00  0.16285700712E+04  0.16285700712E+04  0.00000000000E+00 0. -1.
         -2   -1    0    0    0  501 -0.00000000000E+00 -0.00000000000E+00 -0.15334763457E+03  0.15334763457E+03  0.00000000000E+00 0. -1.
         36    2    1    2    0    0  0.56843418861E-13 -0.17763568394E-13  0.14752224366E+04  0.17819177057E+04  0.99947459827E+03 0.  0.
         25    2    3    3    0    0  0.13836458933E+03 -0.15491212479E+02  0.30269576975E+03  0.35572855795E+03  0.12463282341E+03 0.  0.
         35    2    3    3    0    0 -0.13836458933E+03  0.15491212479E+02  0.11725266668E+04  0.14261891478E+04  0.79988246859E+03 0.  0.
         22    1    5    5    0    0 -0.32139331574E+03  0.14040453365E+03  0.11513548115E+04  0.12035883842E+04  0.00000000000E+00 0. -1.
         22    1    5    5    0    0  0.18302872641E+03 -0.12491332117E+03  0.21171855291E+02  0.22260076360E+03  0.00000000000E+00 0. -1.
          5    1    4    4  502    0  0.25882748307E+02 -0.41785836105E+02  0.18207166739E+03  0.18864823038E+03  0.47000000000E+01 0. -1.
         -5    1    4    4    0  502  0.11248184102E+03  0.26294623625E+02  0.12062410236E+03  0.16708032757E+03  0.47000000000E+01 0. -1.
<mgrwt>
<rscale>  0 0.99947460E+03</rscale>
<asrwt>0</asrwt>
<pdfrwt beam="1">  1        2 0.25054923E+00 0.99947460E+03</pdfrwt>
<pdfrwt beam="2">  1       -2 0.23591945E-01 0.99947460E+03</pdfrwt>
<totfact> 0.20372987E+02</totfact>
</mgrwt>
</event>
<event>
 9    1  0.4342579E-036  0.9989322E+03  0.7818608E-02  0.8682055E-01
         -1   -1    0    0    0  501 -0.00000000000E+00  0.00000000000E+00  0.37196901813E+03  0.37196901813E+03  0.00000000000E+00 0.  1.
          1   -1    0    0  501    0  0.00000000000E+00 -0.00000000000E+00 -0.67066447527E+03  0.67066447527E+03  0.00000000000E+00 0.  1.
         36    2    1    2    0    0 -0.71054273576E-14  0.00000000000E+00 -0.29869545714E+03  0.10426334934E+04  0.99893224268E+03 0.  0.
         25    2    3    3    0    0 -0.43711523111E+02  0.13168491404E+03 -0.38254698889E+02  0.19061435650E+03  0.12497518584E+03 0.  0.
         35    2    3    3    0    0  0.43711523111E+02 -0.13168491404E+03 -0.26044075825E+03  0.85201913691E+03  0.79928443452E+03 0.  0.
         22    1    5    5    0    0 -0.11433567511E+03  0.22780696398E+03 -0.36541577735E+03  0.44553041398E+03  0.00000000000E+00 0. -1.
         22    1    5    5    0    0  0.15804719822E+03 -0.35949187803E+03  0.10497501911E+03  0.40648872293E+03  0.00000000000E+00 0. -1.
          5    1    4    4  502    0  0.19032387879E+02 -0.32418185668E+01 -0.36695562298E+02  0.41730030774E+02  0.47000000000E+01 0.  1.
         -5    1    4    4    0  502 -0.62743910990E+02  0.13492673261E+03 -0.15591365909E+01  0.14888432572E+03  0.47000000000E+01 0.  1.
<mgrwt>
<rscale>  0 0.99893224E+03</rscale>
<asrwt>0</asrwt>
<pdfrwt beam="1">  1        1 0.10317915E+00 0.99893224E+03</pdfrwt>
<pdfrwt beam="2">  1       -1 0.57226003E-01 0.99893224E+03</pdfrwt>
<totfact> 0.10369008E+02</totfact>
</mgrwt>
</event>
<event>
 9    1  0.4342579E-036  0.9997270E+03  0.7818608E-02  0.8681298E-01
         -2   -1    0    0    0  501 -0.00000000000E+00  0.00000000000E+00  0.13332729659E+03  0.13332729659E+03  0.00000000000E+00 0. -1.
          2   -1    0    0  501    0  0.00000000000E+00 -0.00000000000E+00 -0.18740611757E+04  0.18740611757E+04  0.00000000000E+00 0. -1.
         36    2    1    2    0    0 -0.28421709430E-13  0.00000000000E+00 -0.17407338791E+04  0.20073884723E+04  0.99972698314E+03 0.  0.
         25    2    3    3    0    0  0.98411578807E+02 -0.98549993337E+02 -0.29723165406E+03  0.35128018352E+03  0.12511663011E+03 0.  0.
         35    2    3    3    0    0 -0.98411578807E+02  0.98549993337E+02 -0.14435022251E+04  0.16561082888E+04  0.79974936723E+03 0.  0.
         22    1    5    5    0    0  0.22683673574E+03  0.16878747284E+03 -0.12269364762E+04  0.12590938140E+04  0.00000000000E+00 0. -1.
         22    1    5    5    0    0 -0.32524831454E+03 -0.70237479506E+02 -0.21656574883E+03  0.39701447481E+03  0.00000000000E+00 0. -1.
          5    1    4    4  502    0  0.12463231034E+03 -0.71890336077E+02 -0.19543494389E+03  0.24273100440E+03  0.47000000000E+01 0.  1.
         -5    1    4    4    0  502 -0.26220731535E+02 -0.26659657261E+02 -0.10179671016E+03  0.10854917912E+03  0.47000000000E+01 0.  1.
<mgrwt>
<rscale>  0 0.99972698E+03</rscale>
<asrwt>0</asrwt>
<pdfrwt beam="1">  1        2 0.28831709E+00 0.99972698E+03</pdfrwt>
<pdfrwt beam="2">  1       -2 0.20511893E-01 0.99972698E+03</pdfrwt>
<totfact> 0.18915895E+02</totfact>
</mgrwt>
</event>
<event>
 9    1  0.4342579E-036  0.1000014E+04  0.7818608E-02  0.8681025E-01
          2   -1    0    0  501    0  0.00000000000E+00  0.00000000000E+00  0.12552439061E+04  0.12552439061E+04  0.00000000000E+00 0.  1.
         -2   -1    0    0    0  501 -0.00000000000E+00 -0.00000000000E+00 -0.19916996378E+03  0.19916996378E+03  0.00000000000E+00 0.  1.
         36    2    1    2    0    0 -0.28421709430E-13  0.14210854715E-13  0.10560739424E+04  0.14544138699E+04  0.10000137666E+04 0.  0.
         25    2    3    3    0    0  0.57565926519E+02 -0.12185230451E+03  0.14505469457E+03  0.23462167433E+03  0.12587551644E+03 0.  0.
         35    2    3    3    0    0 -0.57565926519E+02  0.12185230451E+03  0.91101924779E+03  0.12197921956E+04  0.79985943175E+03 0.  0.
         22    1    5    5    0    0  0.31232311848E+03 -0.15500820735E+03  0.41158886742E+03  0.53942438809E+03  0.00000000000E+00 0.  1.
         22    1    5    5    0    0 -0.36988904500E+03  0.27686051186E+03  0.49943038037E+03  0.68036780749E+03  0.00000000000E+00 0.  1.
          5    1    4    4  502    0 -0.52317832713E+01 -0.85896381261E+02  0.17570812547E+02  0.87956712782E+02  0.47000000000E+01 0.  1.
         -5    1    4    4    0  502  0.62797709791E+02 -0.35955923251E+02  0.12748388202E+03  0.14666496155E+03  0.47000000000E+01 0.  1.
<mgrwt>
<rscale>  0 0.10000138E+04</rscale>
<asrwt>0</asrwt>
<pdfrwt beam="1">  1        2 0.19311444E+00 0.10000138E+04</pdfrwt>
<pdfrwt beam="2">  1       -2 0.30641534E-01 0.10000138E+04</pdfrwt>
<totfact> 0.20819026E+02</totfact>
</mgrwt>
</event>
<event>
 9    1  0.4342579E-036  0.1002419E+04  0.7818608E-02  0.8678737E-01
         -1   -1    0    0    0  501 -0.00000000000E+00  0.00000000000E+00  0.33181467273E+03  0.33181467273E+03  0.00000000000E+00 0.  1.
          1   -1    0    0  501    0  0.00000000000E+00 -0.00000000000E+00 -0.75708260626E+03  0.75708260626E+03  0.00000000000E+00 0.  1.
         36    2    1    2    0    0  0.00000000000E+00  0.28421709430E-13 -0.42526793353E+03  0.10888972790E+04  0.10024193079E+04 0.  0.
         25    2    3    3    0    0 -0.27155071793E+02  0.69980610809E+02 -0.21472682168E+03  0.25890481210E+03  0.12365035369E+03 0.  0.
         35    2    3    3    0    0  0.27155071793E+02 -0.69980610809E+02 -0.21054111185E+03  0.82999246688E+03  0.79932799994E+03 0.  0.
         22    1    5    5    0    0 -0.21946145983E+03 -0.26151796315E+03  0.13241076732E+03  0.36617972186E+03  0.00000000000E+00 0. -1.
         22    1    5    5    0    0  0.24661653162E+03  0.19153735234E+03 -0.34295187917E+03  0.46381274502E+03  0.00000000000E+00 0. -1.
          5    1    4    4  502    0 -0.42561169213E+02  0.56379539110E+02 -0.36906353677E+02  0.79839053706E+02  0.47000000000E+01 0. -1.
         -5    1    4    4    0  502  0.15406097420E+02  0.13601071700E+02 -0.17782046800E+03  0.17906575839E+03  0.47000000000E+01 0. -1.
<mgrwt>
<rscale>  0 0.10024193E+04</rscale>
<asrwt>0</asrwt>
<pdfrwt beam="1">  1        1 0.11647425E+00 0.10024193E+04</pdfrwt>
<pdfrwt beam="2">  1       -1 0.51048412E-01 0.10024193E+04</pdfrwt>
<totfact> 0.10648124E+02</totfact>
</mgrwt>
</event>
<event>
 9    1  0.4342579E-036  0.9983763E+03  0.7818608E-02  0.8682586E-01
          1   -1    0    0  501    0  0.00000000000E+00  0.00000000000E+00  0.55240688291E+03  0.55240688291E+03  0.00000000000E+00 0.  1.
         -1   -1    0    0    0  501 -0.00000000000E+00 -0.00000000000E+00 -0.45109651910E+03  0.45109651910E+03  0.00000000000E+00 0.  1.
         36    2    1    2    0    0 -0.15987211555E-13  0.14210854715E-13  0.10131036381E+03  0.10035034020E+04  0.99837632585E+03 0.  0.
         25    2    3    3    0    0 -0.14497173131E+02 -0.39515608677E+02 -0.11248246026E+03  0.17419427434E+03  0.12617325385E+03 0.  0.
         35    2    3    3    0    0  0.14497173131E+02  0.39515608677E+02  0.21379282407E+03  0.82930912767E+03  0.80017161050E+03 0.  0.
         22    1    5    5    0    0  0.20510925293E+03 -0.21939142672E+03  0.36611728925E+03  0.47354437304E+03  0.00000000000E+00 0.  1.
         22    1    5    5    0    0 -0.19061207980E+03  0.25890703540E+03 -0.15232446517E+03  0.35576475463E+03  0.00000000000E+00 0.  1.
          5    1    4    4  502    0 -0.18325831752E+02 -0.85019589045E+02 -0.73042583928E+02  0.11367266909E+03  0.47000000000E+01 0. -1.
         -5    1    4    4    0  502  0.38286586214E+01  0.45503980369E+02 -0.39439876336E+02  0.60521605247E+02  0.47000000000E+01 0. -1.
<mgrwt>
<rscale>  0 0.99837633E+03</rscale>
<asrwt>0</asrwt>
<pdfrwt beam="1">  1        1 0.84985674E-01 0.99837633E+03</pdfrwt>
<pdfrwt beam="2">  1       -1 0.69399464E-01 0.99837633E+03</pdfrwt>
<totfact> 0.94855175E+01</totfact>
</mgrwt>
</event>
<event>
 9    1  0.4342579E-036  0.1009986E+04  0.7818608E-02  0.8671586E-01
         -3   -1    0    0    0  501 -0.00000000000E+00  0.00000000000E+00  0.30749284895E+03  0.30749284895E+03  0.00000000000E+00 0. -1.
          3   -1    0    0  501    0  0.00000000000E+00 -0.00000000000E+00 -0.82934559923E+03  0.82934559923E+03  0.00000000000E+00 0. -1.
         36    2    1    2    0    0  0.71054273576E-14  0.71054273576E-14 -0.52185275028E+03  0.11368384482E+04  0.10099858238E+04 0.  0.
         25    2    3    3    0    0  0.59356754380E+02 -0.30998135825E+02 -0.25291848100E+03  0.28980205868E+03  0.12463292690E+03 0.  0.
         35    2    3    3    0    0 -0.59356754380E+02  0.30998135825E+02 -0.26893426928E+03  0.84703638950E+03  0.80041295293E+03 0.  0.
         22    1    5    5    0    0 -0.78746882176E+02  0.34224251537E+03  0.98856857636E+02  0.36483378281E+03  0.00000000000E+00 0. -1.
         22    1    5    5    0    0  0.19390127796E+02 -0.31124437955E+03 -0.36779112691E+03  0.48220260668E+03  0.00000000000E+00 0. -1.
          5    1    4    4  502    0 -0.30623830700E+02 -0.35910858042E+02 -0.12109355880E+03  0.13005056215E+03  0.47000000000E+01 0. -1.
         -5    1    4    4    0  502  0.89980585080E+02  0.49127222175E+01 -0.13182492220E+03  0.15975149653E+03  0.47000000000E+01 0. -1.
<mgrwt>
<rscale>  0 0.10099858E+04</rscale>
<asrwt>0</asrwt>
<pdfrwt beam="1">  1        3 0.12759163E+00 0.10099858E+04</pdfrwt>
<pdfrwt beam="2">  1       -3 0.47306593E-01 0.10099858E+04</pdfrwt>
<totfact> 0.90499942E+00</totfact>
</mgrwt>
</event>
<event>
 9    1  0.4342579E-036  0.9946673E+03  0.7818608E-02  0.8686133E-01
          2   -1    0    0  501    0  0.00000000000E+00  0.00000000000E+00  0.21531129254E+04  0.21531129254E+04  0.00000000000E+00 0. -1.
         -2   -1    0    0    0  501 -0.00000000000E+00 -0.00000000000E+00 -0.11487589047E+03  0.11487589047E+03  0.00000000000E+00 0. -1.
         36    2    1    2    0    0 -0.14210854715E-13  0.14210854715E-13  0.20382370349E+04  0.22679888159E+04  0.99466731040E+03 0.  0.
         25    2    3    3    0    0  0.56785125616E+02  0.97817428345E+02  0.21130126399E+03  0.27033788975E+03  0.12506618525E+03 0.  0.
         35    2    3    3    0    0 -0.56785125616E+02 -0.97817428345E+02  0.18269357709E+04  0.19976509261E+04  0.80007631619E+03 0.  0.
         22    1    5    5    0    0 -0.23869584191E+03  0.19826421210E+03  0.29976565926E+03  0.43144391665E+03  0.00000000000E+00 0. -1.
         22    1    5    5    0    0  0.18191071630E+03 -0.29608164044E+03  0.15271701117E+04  0.15662070095E+04  0.00000000000E+00 0. -1.
          5    1    4    4  502    0  0.59163876560E+02  0.12631262216E+03  0.17164820893E+03  0.22122486396E+03  0.47000000000E+01 0.  1.
         -5    1    4    4    0  502 -0.23787509437E+01 -0.28495193814E+02  0.39653055060E+02  0.49113025789E+02  0.47000000000E+01 0.  1.
<mgrwt>
<rscale>  0 0.99466731E+03</rscale>
<asrwt>0</asrwt>
<pdfrwt beam="1">  1        2 0.33124811E+00 0.99466731E+03</pdfrwt>
<pdfrwt beam="2">  1       -2 0.17673215E-01 0.99466731E+03</pdfrwt>
<totfact> 0.16937144E+02</totfact>
</mgrwt>
</event>
<event>
 9    1  0.4342579E-036  0.1001273E+04  0.7818608E-02  0.8679827E-01
         -2   -1    0    0    0  501 -0.00000000000E+00  0.00000000000E+00  0.12733076162E+03  0.12733076162E+03  0.00000000000E+00 0. -1.
          2   -1    0    0  501    0  0.00000000000E+00 -0.00000000000E+00 -0.19683925733E+04  0.19683925733E+04  0.00000000000E+00 0. -1.
         36    2    1    2    0    0  0.00000000000E+00  0.28421709430E-13 -0.18410618117E+04  0.20957233349E+04  0.10012730407E+04 0.  0.
         25    2    3    3    0    0  0.26390718425E+02  0.92810719949E+02 -0.56438481031E+03  0.58603741013E+03  0.12489728667E+03 0.  0.
         35    2    3    3    0    0 -0.26390718425E+02 -0.92810719949E+02 -0.12766770014E+04  0.15096859248E+04  0.79996070271E+03 0.  0.
         22    1    5    5    0    0  0.42639302523E+02 -0.26305595033E+03 -0.52261325307E+02  0.27156544192E+03  0.00000000000E+00 0. -1.
         22    1    5    5    0    0 -0.69030020948E+02  0.17024523038E+03 -0.12244156761E+04  0.12381204829E+04  0.00000000000E+00 0. -1.
          5    1    4    4  502    0  0.64211386683E+02  0.61562110691E+02 -0.20815715212E+03  0.22641661960E+03  0.47000000000E+01 0.  1.
         -5    1    4    4    0  502 -0.37820668257E+02  0.31248609258E+02 -0.35622765819E+03  0.35962079054E+03  0.47000000000E+01 0.  1.
<mgrwt>
<rscale>  0 0.10012730E+04</rscale>
<asrwt>0</asrwt>
<pdfrwt beam="1">  1        2 0.30282962E+00 0.10012730E+04</pdfrwt>
<pdfrwt beam="2">  1       -2 0.19589348E-01 0.10012730E+04</pdfrwt>
<totfact> 0.18109719E+02</totfact>
</mgrwt>
</event>
<event>
 9    1  0.4342579E-036  0.9997081E+03  0.7818608E-02  0.8681316E-01
         -2   -1    0    0    0  501 -0.00000000000E+00  0.00000000000E+00  0.68882824729E+02  0.68882824729E+02  0.00000000000E+00 0.  1.
          2   -1    0    0  501    0  0.00000000000E+00 -0.00000000000E+00 -0.36272332087E+04  0.36272332087E+04  0.00000000000E+00 0.  1.
         36    2    1    2    0    0 -0.35527136788E-14  0.14210854715E-13 -0.35583503840E+04  0.36961160335E+04  0.99970809613E+03 0.  0.
         25    2    3    3    0    0  0.30176576814E+02 -0.11227181339E+03 -0.38088370388E+03  0.41743429742E+03  0.12515354935E+03 0.  0.
         35    2    3    3    0    0 -0.30176576814E+02  0.11227181339E+03 -0.31774666801E+04  0.32786817360E+04  0.79996489739E+03 0.  0.
         22    1    5    5    0    0 -0.39705656659E+03 -0.56963262609E+02 -0.17290999832E+04  0.17750170372E+04  0.00000000000E+00 0. -1.
         22    1    5    5    0    0  0.36687998977E+03  0.16923507600E+03 -0.14483666969E+04  0.15036646988E+04  0.00000000000E+00 0. -1.
          5    1    4    4  502    0  0.19132771483E+02 -0.69837319613E+02 -0.61787659707E+02  0.95305398836E+02  0.47000000000E+01 0. -1.
         -5    1    4    4    0  502  0.11043805331E+02 -0.42434493779E+02 -0.31909604417E+03  0.32212889859E+03  0.47000000000E+01 0. -1.
<mgrwt>
<rscale>  0 0.99970810E+03</rscale>
<asrwt>0</asrwt>
<pdfrwt beam="1">  1        2 0.55803604E+00 0.99970810E+03</pdfrwt>
<pdfrwt beam="2">  1       -2 0.10597355E-01 0.99970810E+03</pdfrwt>
<totfact> 0.41913022E+01</totfact>
</mgrwt>
</event>
<event>
 9    1  0.4342579E-036  0.1000526E+04  0.7818608E-02  0.8680537E-01
         -1   -1    0    0    0  501 -0.00000000000E+00  0.00000000000E+00  0.98082382825E+03  0.98082382825E+03  0.00000000000E+00 0. -1.
          1   -1    0    0  501    0  0.00000000000E+00 -0.00000000000E+00 -0.25515588202E+03  0.25515588202E+03  0.00000000000E+00 0. -1.
         36    2    1    2    0    0  0.14210854715E-13  0.00000000000E+00  0.72566794624E+03  0.12359797103E+04  0.10005257998E+04 0.  0.
         25    2    3    3    0    0 -0.12188256784E+03  0.67420433014E+02  0.11690261817E+03  0.22026311945E+03  0.12429297856E+03 0.  0.
         35    2    3    3    0    0  0.12188256784E+03 -0.67420433014E+02  0.60876532806E+03  0.10157165908E+04  0.80105186667E+03 0.  0.
         22    1    5    5    0    0 -0.11481752062E+03 -0.14746224608E+03  0.71879655472E+03  0.74269553933E+03  0.00000000000E+00 0.  1.
         22    1    5    5    0    0  0.23670008847E+03  0.80041813063E+02 -0.11003122666E+03  0.27302105149E+03  0.00000000000E+00 0.  1.
          5    1    4    4  502    0 -0.13258600465E+03  0.39628466086E+02  0.12758095034E+03  0.18827759517E+03  0.47000000000E+01 0. -1.
         -5    1    4    4    0  502  0.10703436803E+02  0.27791966929E+02 -0.10678332172E+02  0.31985524275E+02  0.47000000000E+01 0. -1.
<mgrwt>
<rscale>  0 0.10005258E+04</rscale>
<asrwt>0</asrwt>
<pdfrwt beam="1">  1        1 0.39254752E-01 0.10005258E+04</pdfrwt>
<pdfrwt beam="2">  1       -1 0.15089597E+00 0.10005258E+04</pdfrwt>
<totfact> 0.43616406E+01</totfact>
</mgrwt>
</event>
<event>
 9    1  0.4342579E-036  0.1000039E+04  0.7818608E-02  0.8681001E-01
         -2   -1    0    0    0  501 -0.00000000000E+00  0.00000000000E+00  0.22765861336E+03  0.22765861336E+03  0.00000000000E+00 0. -1.
          2   -1    0    0  501    0  0.00000000000E+00 -0.00000000000E+00 -0.10982215207E+04  0.10982215207E+04  0.00000000000E+00 0. -1.
         36    2    1    2    0    0  0.28421709430E-13 -0.71054273576E-14 -0.87056290732E+03  0.13258801340E+04  0.10000391764E+04 0.  0.
         25    2    3    3    0    0  0.11524074231E+03 -0.13506816118E+01 -0.55847896996E+02  0.17863825141E+03  0.12454069310E+03 0.  0.
         35    2    3    3    0    0 -0.11524074231E+03  0.13506816118E+01 -0.81471501032E+03  0.11472418826E+04  0.79945052141E+03 0.  0.
         22    1    5    5    0    0 -0.45146024073E+03 -0.87070282389E+02 -0.44884796133E+03  0.64254344244E+03  0.00000000000E+00 0. -1.
         22    1    5    5    0    0  0.33621949841E+03  0.88420964001E+02 -0.36586704899E+03  0.50469844018E+03  0.00000000000E+00 0. -1.
          5    1    4    4  502    0  0.94048187997E+02 -0.38275413860E+02  0.77711281257E+01  0.10194385417E+03  0.47000000000E+01 0.  1.
         -5    1    4    4    0  502  0.21192554316E+02  0.36924732248E+02 -0.63619025122E+02  0.76694397237E+02  0.47000000000E+01 0.  1.
<mgrwt>
<rscale>  0 0.10000392E+04</rscale>
<asrwt>0</asrwt>
<pdfrwt beam="1">  1        2 0.16895715E+00 0.10000392E+04</pdfrwt>
<pdfrwt beam="2">  1       -2 0.35024403E-01 0.10000392E+04</pdfrwt>
<totfact> 0.20165539E+02</totfact>
</mgrwt>
</event>
<event>
 9    1  0.4342579E-036  0.1000129E+04  0.7818608E-02  0.8680915E-01
          2   -1    0    0  501    0  0.00000000000E+00  0.00000000000E+00  0.13932187103E+04  0.13932187103E+04  0.00000000000E+00 0.  1.
         -2   -1    0    0    0  501 -0.00000000000E+00 -0.00000000000E+00 -0.17948690131E+03  0.17948690131E+03  0.00000000000E+00 0.  1.
         36    2    1    2    0    0  0.00000000000E+00  0.35527136788E-13  0.12137318090E+04  0.15727056116E+04  0.10001290100E+04 0.  0.
         25    2    3    3    0    0 -0.13193668434E+03  0.66094245066E+01  0.28932322581E+03  0.34318023084E+03  0.12889440904E+03 0.  0.
         35    2    3    3    0    0  0.13193668434E+03 -0.66094245066E+01  0.92440858320E+03  0.12295253808E+04  0.79984402238E+03 0.  0.
         22    1    5    5    0    0  0.77790214681E+02  0.38891970394E+03  0.34366909813E+03  0.52480310844E+03  0.00000000000E+00 0.  1.
         22    1    5    5    0    0  0.54146469657E+02 -0.39552912845E+03  0.58073948507E+03  0.70472227235E+03  0.00000000000E+00 0.  1.
          5    1    4    4  502    0 -0.76533133278E+02  0.63514077853E+02  0.20098999899E+03  0.22429986239E+03  0.47000000000E+01 0.  1.
         -5    1    4    4    0  502 -0.55403551060E+02 -0.56904653346E+02  0.88333226822E+02  0.11888036845E+03  0.47000000000E+01 0.  1.
<mgrwt>
<rscale>  0 0.10001290E+04</rscale>
<asrwt>0</asrwt>
<pdfrwt beam="1">  1        2 0.21434133E+00 0.10001290E+04</pdfrwt>
<pdfrwt beam="2">  1       -2 0.27613370E-01 0.10001290E+04</pdfrwt>
<totfact> 0.20928219E+02</totfact>
</mgrwt>
</event>
<event>
 9    1  0.4342579E-036  0.9989267E+03  0.7818608E-02  0.8682061E-01
         -2   -1    0    0    0  501 -0.00000000000E+00  0.00000000000E+00  0.12236453570E+04  0.12236453570E+04  0.00000000000E+00 0.  1.
          2   -1    0    0  501    0  0.00000000000E+00 -0.00000000000E+00 -0.20386923293E+03  0.20386923293E+03  0.00000000000E+00 0.  1.
         36    2    1    2    0    0  0.00000000000E+00  0.56843418861E-13  0.10197761241E+04  0.14275145900E+04  0.99892670466E+03 0.  0.
         25    2    3    3    0    0 -0.10826137238E+03  0.82493260744E+02  0.22097913690E+03  0.28811022646E+03  0.12510020316E+03 0.  0.
         35    2    3    3    0    0  0.10826137238E+03 -0.82493260744E+02  0.79879698721E+03  0.11394043635E+04  0.80102435293E+03 0.  0.
         22    1    5    5    0    0 -0.18222578322E+03  0.28854778415E+03  0.33298515497E+03  0.47680727054E+03  0.00000000000E+00 0.  1.
         22    1    5    5    0    0  0.29048715560E+03 -0.37104104489E+03  0.46581183224E+03  0.66259709297E+03  0.00000000000E+00 0.  1.
          5    1    4    4  502    0 -0.41407275236E+02  0.68602372574E+02  0.20157584157E+03  0.21696948604E+03  0.47000000000E+01 0. -1.
         -5    1    4    4    0  502 -0.66854097143E+02  0.13890888169E+02  0.19403295323E+02  0.71140740425E+02  0.47000000000E+01 0. -1.
<mgrwt>
<rscale>  0 0.99892670E+03</rscale>
<asrwt>0</asrwt>
<pdfrwt beam="1">  1        2 0.31364498E-01 0.99892670E+03</pdfrwt>
<pdfrwt beam="2">  1       -2 0.18825313E+00 0.99892670E+03</pdfrwt>
<totfact> 0.29595124E+01</totfact>
</mgrwt>
</event>
<event>
 9    1  0.4342579E-036  0.1000141E+04  0.7818608E-02  0.8680904E-01
          2   -1    0    0  501    0  0.00000000000E+00  0.00000000000E+00  0.23413976318E+03  0.23413976318E+03  0.00000000000E+00 0. -1.
         -2   -1    0    0    0  501 -0.00000000000E+00 -0.00000000000E+00 -0.10680391392E+04  0.10680391392E+04  0.00000000000E+00 0. -1.
         36    2    1    2    0    0  0.00000000000E+00  0.14210854715E-13 -0.83389937601E+03  0.13021789024E+04  0.10001408523E+04 0.  0.
         25    2    3    3    0    0 -0.54047648456E+02  0.51017269300E+02  0.47960415327E+00  0.14377229854E+03  0.12307044217E+03 0.  0.
         35    2    3    3    0    0  0.54047648456E+02 -0.51017269300E+02 -0.83437898016E+03  0.11584066038E+04  0.80012103282E+03 0.  0.
         22    1    5    5    0    0 -0.69596586785E+02  0.23491357974E+03  0.23100985465E+02  0.24609293035E+03  0.00000000000E+00 0.  1.
         22    1    5    5    0    0  0.12364423524E+03 -0.28593084904E+03 -0.85747996562E+03  0.91231367346E+03  0.00000000000E+00 0.  1.
          5    1    4    4  502    0  0.39191207264E+02  0.14926077370E+02  0.95643858633E+01  0.43270151252E+02  0.47000000000E+01 0. -1.
         -5    1    4    4    0  502 -0.93238855720E+02  0.36091191930E+02 -0.90847817100E+01  0.10050214729E+03  0.47000000000E+01 0. -1.
<mgrwt>
<rscale>  0 0.10001409E+04</rscale>
<asrwt>0</asrwt>
<pdfrwt beam="1">  1        2 0.36021502E-01 0.10001409E+04</pdfrwt>
<pdfrwt beam="2">  1       -2 0.16431371E+00 0.10001409E+04</pdfrwt>
<totfact> 0.37923109E+01</totfact>
</mgrwt>
</event>
<event>
 9    1  0.4342579E-036  0.9998894E+03  0.7818608E-02  0.8681143E-01
          1   -1    0    0  501    0  0.00000000000E+00  0.00000000000E+00  0.19502472962E+04  0.19502472962E+04  0.00000000000E+00 0. -1.
         -1   -1    0    0    0  501 -0.00000000000E+00 -0.00000000000E+00 -0.12816052276E+03  0.12816052276E+03  0.00000000000E+00 0. -1.
         36    2    1    2    0    0 -0.14210854715E-13 -0.14210854715E-13  0.18220867734E+04  0.20784078189E+04  0.99988941988E+03 0.  0.
         25    2    3    3    0    0  0.12120573620E+03  0.21009830992E+02  0.47813893390E+03  0.50996699376E+03  0.12773899612E+03 0.  0.
         35    2    3    3    0    0 -0.12120573620E+03 -0.21009830992E+02  0.13439478395E+04  0.15684408252E+04  0.79917368780E+03 0.  0.
         22    1    5    5    0    0 -0.16934954828E+02 -0.39835432653E+03  0.84411994456E+03  0.93354777219E+03  0.00000000000E+00 0. -1.
         22    1    5    5    0    0 -0.10427078137E+03  0.37734449554E+03  0.49982789495E+03  0.63489305299E+03  0.00000000000E+00 0. -1.
          5    1    4    4  502    0 -0.18285819169E+01 -0.60927803986E+01  0.24328964916E+03  0.24341817737E+03  0.47000000000E+01 0. -1.
         -5    1    4    4    0  502  0.12303431811E+03  0.27102611391E+02  0.23484928474E+03  0.26654881639E+03  0.47000000000E+01 0. -1.
<mgrwt>
<rscale>  0 0.99988942E+03</rscale>
<asrwt>0</asrwt>
<pdfrwt beam="1">  1        1 0.30003802E+00 0.99988942E+03</pdfrwt>
<pdfrwt beam="2">  1       -1 0.19717005E-01 0.99988942E+03</pdfrwt>
<totfact> 0.70663581E+01</totfact>
</mgrwt>
</event>
<event>
 9    1  0.4342579E-036  0.9994907E+03  0.7818608E-02  0.8681523E-01
         -2   -1    0    0    0  501 -0.00000000000E+00  0.00000000000E+00  0.96665386524E+02  0.96665386524E+02  0.00000000000E+00 0. -1.
          2   -1    0    0  501    0  0.00000000000E+00 -0.00000000000E+00 -0.25836075734E+04  0.25836075734E+04  0.00000000000E+00 0. -1.
         36    2    1    2    0    0 -0.14210854715E-13  0.10658141036E-13 -0.24869421869E+04  0.26802729599E+04  0.99949071974E+03 0.  0.
         25    2    3    3    0    0 -0.99458425782E+02 -0.12082801622E+02 -0.72747463171E+03  0.74488745244E+03  0.12489997787E+03 0.  0.
         35    2    3    3    0    0  0.99458425782E+02  0.12082801622E+02 -0.17594675552E+04  0.19353855075E+04  0.79997063217E+03 0.  0.
         22    1    5    5    0    0 -0.14877026843E+03 -0.18016693490E+03 -0.15268698420E+04  0.15446437232E+04  0.00000000000E+00 0.  1.
         22    1    5    5    0    0  0.24822869421E+03  0.19224973652E+03 -0.23259771318E+03  0.39074178430E+03  0.00000000000E+00 0.  1.
          5    1    4    4  502    0 -0.48219649730E+01  0.25891410539E+02 -0.30895690755E+02  0.40868694537E+02  0.47000000000E+01 0.  1.
         -5    1    4    4    0  502 -0.94636460809E+02 -0.37974212161E+02 -0.69657894095E+03  0.70401875790E+03  0.47000000000E+01 0.  1.
<mgrwt>
<rscale>  0 0.99949072E+03</rscale>
<asrwt>0</asrwt>
<pdfrwt beam="1">  1        2 0.39747815E+00 0.99949072E+03</pdfrwt>
<pdfrwt beam="2">  1       -2 0.14871596E-01 0.99949072E+03</pdfrwt>
<totfact> 0.12555884E+02</totfact>
</mgrwt>
</event>
<event>
 9    1  0.4342579E-036  0.1001527E+04  0.7818608E-02  0.8679586E-01
         -2   -1    0    0    0  501 -0.00000000000E+00  0.00000000000E+00  0.11294726908E+03  0.11294726908E+03  0.00000000000E+00 0.  1.
          2   -1    0    0  501    0  0.00000000000E+00 -0.00000000000E+00 -0.22201851570E+04  0.22201851570E+04  0.00000000000E+00 0.  1.
         36    2    1    2    0    0 -0.14210854715E-13  0.28421709430E-13 -0.21072378879E+04  0.23331324261E+04  0.10015265355E+04 0.  0.
         25    2    3    3    0    0  0.10575151650E+03 -0.79799679571E+02 -0.28024375650E+03  0.33415346654E+03  0.12478222646E+03 0.  0.
         35    2    3    3    0    0 -0.10575151650E+03  0.79799679571E+02 -0.18269941314E+04  0.19989789595E+04  0.80028616905E+03 0.  0.
         22    1    5    5    0    0  0.29072004924E+03  0.24441867856E+03 -0.92922981755E+03  0.10038559116E+04  0.00000000000E+00 0.  1.
         22    1    5    5    0    0 -0.39647156574E+03 -0.16461899899E+03 -0.89776431386E+03  0.99512304793E+03  0.00000000000E+00 0.  1.
          5    1    4    4  502    0  0.11809599899E+03 -0.98164413330E+02 -0.26669606229E+03  0.30778530937E+03  0.47000000000E+01 0.  1.
         -5    1    4    4    0  502 -0.12344482488E+02  0.18364733760E+02 -0.13547694205E+02  0.26368157164E+02  0.47000000000E+01 0.  1.
<mgrwt>
<rscale>  0 0.10015265E+04</rscale>
<asrwt>0</asrwt>
<pdfrwt beam="1">  1        2 0.34156695E+00 0.10015265E+04</pdfrwt>
<pdfrwt beam="2">  1       -2 0.17376503E-01 0.10015265E+04</pdfrwt>
<totfact> 0.15937249E+02</totfact>
</mgrwt>
</event>
<event>
 9    1  0.4342579E-036  0.1000246E+04  0.7818608E-02  0.8680804E-01
          2   -1    0    0  501    0  0.00000000000E+00  0.00000000000E+00  0.58202914611E+03  0.58202914611E+03  0.00000000000E+00 0. -1.
         -2   -1    0    0    0  501 -0.00000000000E+00 -0.00000000000E+00 -0.42974290853E+03  0.42974290853E+03  0.00000000000E+00 0. -1.
         36    2    1    2    0    0 -0.71054273576E-14 -0.14210854715E-13  0.15228623758E+03  0.10117720546E+04  0.10002457660E+04 0.  0.
         25    2    3    3    0    0  0.46219673203E+02  0.85921172887E+02 -0.74911680782E+02  0.17499599556E+03  0.12447141199E+03 0.  0.
         35    2    3    3    0    0 -0.46219673203E+02 -0.85921172887E+02  0.22719791836E+03  0.83677605909E+03  0.79941014055E+03 0.  0.
         22    1    5    5    0    0 -0.37132744245E+03  0.61728522586E+02 -0.56614069104E+02  0.38065684394E+03  0.00000000000E+00 0.  1.
         22    1    5    5    0    0  0.32510776925E+03 -0.14764969547E+03  0.28381198747E+03  0.45611921515E+03  0.00000000000E+00 0.  1.
          5    1    4    4  502    0  0.53688223376E+02  0.17516340447E+01  0.10301731461E+02  0.54897260607E+02  0.47000000000E+01 0. -1.
         -5    1    4    4    0  502 -0.74685501726E+01  0.84169538842E+02 -0.85213412243E+02  0.12009873495E+03  0.47000000000E+01 0. -1.
<mgrwt>
<rscale>  0 0.10002458E+04</rscale>
<asrwt>0</asrwt>
<pdfrwt beam="1">  1        2 0.89542945E-01 0.10002458E+04</pdfrwt>
<pdfrwt beam="2">  1       -2 0.66114294E-01 0.10002458E+04</pdfrwt>
<totfact> 0.13100974E+02</totfact>
</mgrwt>
</event>
<event>
 9    1  0.4342579E-036  0.9988244E+03  0.7818608E-02  0.8682158E-01
          2   -1    0    0  501    0  0.00000000000E+00  0.00000000000E+00  0.96736416178E+02  0.96736416178E+02  0.00000000000E+00 0.  1.
         -2   -1    0    0    0  501 -0.00000000000E+00 -0.00000000000E+00 -0.25782695687E+04  0.25782695687E+04  0.00000000000E+00 0.  1.
         36    2    1    2    0    0  0.00000000000E+00  0.28421709430E-13 -0.24815331525E+04  0.26750059849E+04  0.99882442505E+03 0.  0.
         25    2    3    3    0    0  0.63786579243E+02 -0.10416841077E+03 -0.27935739914E+03  0.32887917586E+03  0.12329302641E+03 0.  0.
         35    2    3    3    0    0 -0.63786579243E+02  0.10416841077E+03 -0.22021757534E+04  0.23461268090E+04  0.79988322257E+03 0.  0.
         22    1    5    5    0    0 -0.12886558312E+03 -0.46740548785E+02  0.74697682833E+00  0.13708236717E+03  0.00000000000E+00 0.  1.
         22    1    5    5    0    0  0.65079003881E+02  0.15090895955E+03 -0.22029227302E+04  0.22090444418E+04  0.00000000000E+00 0.  1.
          5    1    4    4  502    0 -0.34267593791E+02 -0.34013651454E+02 -0.49673897570E+02  0.69431855579E+02  0.47000000000E+01 0. -1.
         -5    1    4    4    0  502  0.98054173034E+02 -0.70154759312E+02 -0.22968350157E+03  0.25944732028E+03  0.47000000000E+01 0. -1.
<mgrwt>
<rscale>  0 0.99882443E+03</rscale>
<asrwt>0</asrwt>
<pdfrwt beam="1">  1        2 0.14882527E-01 0.99882443E+03</pdfrwt>
<pdfrwt beam="2">  1       -2 0.39665683E+00 0.99882443E+03</pdfrwt>
<totfact> 0.46010183E+00</totfact>
</mgrwt>
</event>
<event>
 9    1  0.4342579E-036  0.1000617E+04  0.7818608E-02  0.8680451E-01
          2   -1    0    0  501    0  0.00000000000E+00  0.00000000000E+00  0.22572741299E+04  0.22572741299E+04  0.00000000000E+00 0.  1.
         -2   -1    0    0    0  501 -0.00000000000E+00 -0.00000000000E+00 -0.11088971217E+03  0.11088971217E+03  0.00000000000E+00 0.  1.
         36    2    1    2    0    0  0.14210854715E-13 -0.35527136788E-13  0.21463844177E+04  0.23681638421E+04  0.10006167669E+04 0.  0.
         25    2    3    3    0    0  0.63840993039E+02  0.15819801752E+02  0.71445200737E+03  0.72845031330E+03  0.12598511655E+03 0.  0.
         35    2    3    3    0    0 -0.63840993039E+02 -0.15819801752E+02  0.14319324104E+04  0.16397135288E+04  0.79618094052E+03 0.  0.
         22    1    5    5    0    0  0.11823954638E+03  0.34970146161E+03  0.86994774494E+03  0.94502951357E+03  0.00000000000E+00 0.  1.
         22    1    5    5    0    0 -0.18208053942E+03 -0.36552126337E+03  0.56198466542E+03  0.69468401520E+03  0.00000000000E+00 0.  1.
          5    1    4    4  502    0 -0.10859318546E+02  0.52069831278E+02  0.38396302254E+03  0.38765820617E+03  0.47000000000E+01 0.  1.
         -5    1    4    4    0  502  0.74700311585E+02 -0.36250029526E+02  0.33048898483E+03  0.34079210713E+03  0.47000000000E+01 0.  1.
<mgrwt>
<rscale>  0 0.10006168E+04</rscale>
<asrwt>0</asrwt>
<pdfrwt beam="1">  1        2 0.34727291E+00 0.10006168E+04</pdfrwt>
<pdfrwt beam="2">  1       -2 0.17059957E-01 0.10006168E+04</pdfrwt>
<totfact> 0.15642923E+02</totfact>
</mgrwt>
</event>
<event>
 9    1  0.4342579E-036  0.1000783E+04  0.7818608E-02  0.8680293E-01
          2   -1    0    0  501    0  0.00000000000E+00  0.00000000000E+00  0.16080585274E+04  0.16080585274E+04  0.00000000000E+00 0.  1.
         -2   -1    0    0    0  501 -0.00000000000E+00 -0.00000000000E+00 -0.15571046208E+03  0.15571046208E+03  0.00000000000E+00 0.  1.
         36    2    1    2    0    0  0.00000000000E+00  0.00000000000E+00  0.14523480653E+04  0.17637689895E+04  0.10007827664E+04 0.  0.
         25    2    3    3    0    0  0.11831794277E+03 -0.42203364412E+02  0.15935580103E+03  0.23816605449E+03  0.12469377948E+03 0.  0.
         35    2    3    3    0    0 -0.11831794277E+03  0.42203364412E+02  0.12929922643E+04  0.15256029350E+04  0.79990940750E+03 0.  0.
         22    1    5    5    0    0 -0.14235505747E+03  0.32158519465E+03  0.11657994923E+04  0.12176906241E+04  0.00000000000E+00 0.  1.
         22    1    5    5    0    0  0.24037114699E+02 -0.27938183023E+03  0.12719277199E+03  0.30791231089E+03  0.00000000000E+00 0.  1.
          5    1    4    4  502    0  0.59817485936E+02 -0.65923786599E+02  0.14956158334E+03  0.17411155755E+03  0.47000000000E+01 0. -1.
         -5    1    4    4    0  502  0.58500456830E+02  0.23720422187E+02  0.97942176953E+01  0.64054496941E+02  0.47000000000E+01 0. -1.
<mgrwt>
<rscale>  0 0.10007828E+04</rscale>
<asrwt>0</asrwt>
<pdfrwt beam="1">  1        2 0.24739361E+00 0.10007828E+04</pdfrwt>
<pdfrwt beam="2">  1       -2 0.23955457E-01 0.10007828E+04</pdfrwt>
<totfact> 0.20365752E+02</totfact>
</mgrwt>
</event>
<event>
 9    1  0.4342579E-036  0.9998955E+03  0.7818608E-02  0.8681137E-01
         -1   -1    0    0    0  501 -0.00000000000E+00  0.00000000000E+00  0.96583004892E+03  0.96583004892E+03  0.00000000000E+00 0.  1.
          1   -1    0    0  501    0  0.00000000000E+00 -0.00000000000E+00 -0.25879064057E+03  0.25879064057E+03  0.00000000000E+00 0.  1.
         36    2    1    2    0    0 -0.14210854715E-13  0.00000000000E+00  0.70703940836E+03  0.12246206895E+04  0.99989554862E+03 0.  0.
         25    2    3    3    0    0  0.11349773363E+03 -0.81786791270E+02  0.86076216479E+02  0.20187065298E+03  0.11735344361E+03 0.  0.
         35    2    3    3    0    0 -0.11349773363E+03  0.81786791270E+02  0.62096319188E+03  0.10227500365E+04  0.80053203355E+03 0.  0.
         22    1    5    5    0    0  0.34306212256E+03  0.91588096918E+02  0.24756232022E+03  0.43285921709E+03  0.00000000000E+00 0. -1.
         22    1    5    5    0    0 -0.45655985619E+03 -0.98013056475E+01  0.37340087166E+03  0.58989081942E+03  0.00000000000E+00 0. -1.
          5    1    4    4  502    0  0.17487723077E+02 -0.16658737599E+02 -0.29247486450E+02  0.38220929613E+02  0.47000000000E+01 0. -1.
         -5    1    4    4    0  502  0.96010010552E+02 -0.65128053672E+02  0.11532370293E+03  0.16364972337E+03  0.47000000000E+01 0. -1.
<mgrwt>
<rscale>  0 0.99989555E+03</rscale>
<asrwt>0</asrwt>
<pdfrwt beam="1">  1        1 0.39813945E-01 0.99989555E+03</pdfrwt>
<pdfrwt beam="2">  1       -1 0.14858924E+00 0.99989555E+03</pdfrwt>
<totfact> 0.44780221E+01</totfact>
</mgrwt>
</event>
<event>
 9    1  0.4342579E-036  0.9986104E+03  0.7818608E-02  0.8682362E-01
          2   -1    0    0  501    0  0.00000000000E+00  0.00000000000E+00  0.98164005474E+03  0.98164005474E+03  0.00000000000E+00 0. -1.
         -2   -1    0    0    0  501 -0.00000000000E+00 -0.00000000000E+00 -0.25396851425E+03  0.25396851425E+03  0.00000000000E+00 0. -1.
         36    2    1    2    0    0  0.00000000000E+00 -0.28421709430E-13  0.72767154048E+03  0.12356085690E+04  0.99861036693E+03 0.  0.
         25    2    3    3    0    0  0.49740011026E+02  0.70220422937E+02  0.25611428546E+03  0.29823102785E+03  0.12626259247E+03 0.  0.
         35    2    3    3    0    0 -0.49740011026E+02 -0.70220422937E+02  0.47155725502E+03  0.93737754114E+03  0.80554666741E+03 0.  0.
         22    1    5    5    0    0 -0.15728703863E+03  0.31474606794E+03  0.48202161701E+02  0.35514468628E+03  0.00000000000E+00 0.  1.
         22    1    5    5    0    0  0.10754702760E+03 -0.38496649087E+03  0.42335509332E+03  0.58223285486E+03  0.00000000000E+00 0.  1.
          5    1    4    4  502    0  0.92832036399E+01  0.97139883405E+02  0.20742594315E+03  0.22928137018E+03  0.47000000000E+01 0. -1.
         -5    1    4    4    0  502  0.40456807387E+02 -0.26919460468E+02  0.48688342311E+02  0.68949657669E+02  0.47000000000E+01 0. -1.
<mgrwt>
<rscale>  0 0.99861037E+03</rscale>
<asrwt>0</asrwt>
<pdfrwt beam="1">  1        2 0.15102155E+00 0.99861037E+03</pdfrwt>
<pdfrwt beam="2">  1       -2 0.39072079E-01 0.99861037E+03</pdfrwt>
<totfact> 0.19375607E+02</totfact>
</mgrwt>
</event>
<event>
 9    1  0.4342579E-036  0.9997123E+03  0.7818608E-02  0.8681312E-01
         -2   -1    0    0    0  501 -0.00000000000E+00  0.00000000000E+00  0.19418848522E+03  0.19418848522E+03  0.00000000000E+00 0.  1.
          2   -1    0    0  501    0  0.00000000000E+00 -0.00000000000E+00 -0.12866683426E+04  0.12866683426E+04  0.00000000000E+00 0.  1.
         36    2    1    2    0    0 -0.14210854715E-13 -0.14210854715E-13 -0.10924798574E+04  0.14808568278E+04  0.99971231146E+03 0.  0.
         25    2    3    3    0    0  0.11317124756E+03 -0.77053534143E+02 -0.24746592670E+03  0.30892268839E+03  0.12429345970E+03 0.  0.
         35    2    3    3    0    0 -0.11317124756E+03  0.77053534143E+02 -0.84501393066E+03  0.11719341394E+04  0.80039746733E+03 0.  0.
         22    1    5    5    0    0 -0.58166283824E+02  0.24202097251E+03  0.55298723985E+02  0.25498120830E+03  0.00000000000E+00 0.  1.
         22    1    5    5    0    0 -0.55004963732E+02 -0.16496743837E+03 -0.90031265465E+03  0.91695293111E+03  0.00000000000E+00 0.  1.
          5    1    4    4  502    0  0.32201714254E+02 -0.43016953105E+02 -0.20361733386E+03  0.21064073040E+03  0.47000000000E+01 0.  1.
         -5    1    4    4    0  502  0.80969533301E+02 -0.34036581038E+02 -0.43848592842E+02  0.98281957988E+02  0.47000000000E+01 0.  1.
<mgrwt>
<rscale>  0 0.99971231E+03</rscale>
<asrwt>0</asrwt>
<pdfrwt beam="1">  1        2 0.19794897E+00 0.99971231E+03</pdfrwt>
<pdfrwt beam="2">  1       -2 0.29875152E-01 0.99971231E+03</pdfrwt>
<totfact> 0.20903569E+02</totfact>
</mgrwt>
</event>
<event>
 9    1  0.4342579E-036  0.1000265E+04  0.7818608E-02  0.8680786E-01
         -2   -1    0    0    0  501 -0.00000000000E+00  0.00000000000E+00  0.16741507909E+03  0.16741507909E+03  0.00000000000E+00 0.  1.
          2   -1    0    0  501    0  0.00000000000E+00 -0.00000000000E+00 -0.14940854020E+04  0.14940854020E+04  0.00000000000E+00 0.  1.
         36    2    1    2    0    0 -0.42632564146E-13  0.00000000000E+00 -0.13266703230E+04  0.16615004811E+04  0.10002648164E+04 0.  0.
         25    2    3    3    0    0 -0.10091365815E+03  0.91107415087E+02 -0.20019069658E+03  0.27278498593E+03  0.12590157291E+03 0.  0.
         35    2    3    3    0    0  0.10091365815E+03 -0.91107415087E+02 -0.11264796264E+04  0.13887154952E+04  0.80068111664E+03 0.  0.
         22    1    5    5    0    0 -0.32737993146E+03 -0.17945465550E+03 -0.47700620441E+03  0.60573633864E+03  0.00000000000E+00 0.  1.
         22    1    5    5    0    0  0.42829358962E+03  0.88347240415E+02 -0.64947342196E+03  0.78297915657E+03  0.00000000000E+00 0.  1.
          5    1    4    4  502    0  0.16373329040E+02 -0.17748116157E+02 -0.34696423586E+02  0.42532497465E+02  0.47000000000E+01 0.  1.
         -5    1    4    4    0  502 -0.11728698719E+03  0.10885553124E+03 -0.16549427300E+03  0.23025248846E+03  0.47000000000E+01 0.  1.
<mgrwt>
<rscale>  0 0.10002648E+04</rscale>
<asrwt>0</asrwt>
<pdfrwt beam="1">  1        2 0.22985930E+00 0.10002648E+04</pdfrwt>
<pdfrwt beam="2">  1       -2 0.25756166E-01 0.10002648E+04</pdfrwt>
<totfact> 0.20772337E+02</totfact>
</mgrwt>
</event>
<event>
 9    1  0.4342579E-036  0.1000170E+04  0.7818608E-02  0.8680876E-01
         -2   -1    0    0    0  501 -0.00000000000E+00  0.00000000000E+00  0.12169569017E+04  0.12169569017E+04  0.00000000000E+00 0. -1.
          2   -1    0    0  501    0  0.00000000000E+00 -0.00000000000E+00 -0.20550045222E+03  0.20550045222E+03  0.00000000000E+00 0. -1.
         36    2    1    2    0    0  0.14210854715E-13  0.00000000000E+00  0.10114564495E+04  0.14224573540E+04  0.10001703728E+04 0.  0.
         25    2    3    3    0    0 -0.66861380015E+02  0.51355389935E+02  0.34798775668E+03  0.37910738949E+03  0.12457573502E+03 0.  0.
         35    2    3    3    0    0  0.66861380015E+02 -0.51355389935E+02  0.66346869283E+03  0.10433499645E+04  0.80079998862E+03 0.  0.
         22    1    5    5    0    0 -0.55664966967E+02  0.65851262863E+01 -0.18027571805E+03  0.18878900115E+03  0.00000000000E+00 0. -1.
         22    1    5    5    0    0  0.12252634698E+03 -0.57940516221E+02  0.84374441088E+03  0.85456096331E+03  0.00000000000E+00 0. -1.
          5    1    4    4  502    0  0.26709019915E+02 -0.24478343479E+01  0.15987437206E+03  0.16217665825E+03  0.47000000000E+01 0.  1.
         -5    1    4    4    0  502 -0.93570399930E+02  0.53803224283E+02  0.18811338462E+03  0.21693073125E+03  0.47000000000E+01 0.  1.
<mgrwt>
<rscale>  0 0.10001704E+04</rscale>
<asrwt>0</asrwt>
<pdfrwt beam="1">  1        2 0.31615455E-01 0.10001704E+04</pdfrwt>
<pdfrwt beam="2">  1       -2 0.18722413E+00 0.10001704E+04</pdfrwt>
<totfact> 0.29820082E+01</totfact>
</mgrwt>
</event>
<event>
 9    1  0.4342579E-036  0.1001888E+04  0.7818608E-02  0.8679242E-01
         -2   -1    0    0    0  501 -0.00000000000E+00  0.00000000000E+00  0.41758904868E+03  0.41758904868E+03  0.00000000000E+00 0. -1.
          2   -1    0    0  501    0  0.00000000000E+00 -0.00000000000E+00 -0.60093736364E+03  0.60093736364E+03  0.00000000000E+00 0. -1.
         36    2    1    2    0    0 -0.28421709430E-13  0.00000000000E+00 -0.18334831497E+03  0.10185264123E+04  0.10018879418E+04 0.  0.
         25    2    3    3    0    0  0.57078458990E+02 -0.88429534527E+02 -0.13167380751E+03  0.21011889386E+03  0.12543613879E+03 0.  0.
         35    2    3    3    0    0 -0.57078458990E+02  0.88429534527E+02 -0.51674507457E+02  0.80840751847E+03  0.79985919269E+03 0.  0.
         22    1    5    5    0    0  0.18031698034E+03  0.10413210125E+03 -0.36185691136E+03  0.41749027798E+03  0.00000000000E+00 0.  1.
         22    1    5    5    0    0 -0.23739543933E+03 -0.15702566719E+02  0.31018240390E+03  0.39091724048E+03  0.00000000000E+00 0.  1.
          5    1    4    4  502    0  0.20234040624E+02 -0.11561365830E+03 -0.89288032481E+02  0.14754788080E+03  0.47000000000E+01 0.  1.
         -5    1    4    4    0  502  0.36844418366E+02  0.27184123772E+02 -0.42385775028E+02  0.62571013055E+02  0.47000000000E+01 0.  1.
<mgrwt>
<rscale>  0 0.10018879E+04</rscale>
<asrwt>0</asrwt>
<pdfrwt beam="1">  1        2 0.92451902E-01 0.10018879E+04</pdfrwt>
<pdfrwt beam="2">  1       -2 0.64244469E-01 0.10018879E+04</pdfrwt>
<totfact> 0.13409431E+02</totfact>
</mgrwt>
</event>
<event>
 9    1  0.4342579E-036  0.9992134E+03  0.7818608E-02  0.8681787E-01
          2   -1    0    0  501    0  0.00000000000E+00  0.00000000000E+00  0.12643454354E+04  0.12643454354E+04  0.00000000000E+00 0. -1.
         -2   -1    0    0    0  501 -0.00000000000E+00 -0.00000000000E+00 -0.19741981834E+03  0.19741981834E+03  0.00000000000E+00 0. -1.
         36    2    1    2    0    0  0.14210854715E-13  0.00000000000E+00  0.10669256170E+04  0.14617652537E+04  0.99921338296E+03 0.  0.
         25    2    3    3    0    0 -0.10955230731E+03 -0.51806670452E+02  0.10620841724E+03  0.20547050764E+03  0.12748436169E+03 0.  0.
         35    2    3    3    0    0  0.10955230731E+03  0.51806670452E+02  0.96071719979E+03  0.12562947461E+04  0.80038322816E+03 0.  0.
         22    1    5    5    0    0 -0.32444231546E+03  0.14667059722E+03  0.33470767803E+03  0.48867607869E+03  0.00000000000E+00 0. -1.
         22    1    5    5    0    0  0.43399462277E+03 -0.94863926767E+02  0.62600952176E+03  0.76761866739E+03  0.00000000000E+00 0. -1.
          5    1    4    4  502    0 -0.11568332991E+03 -0.23570656409E+01  0.10355478742E+03  0.15535080487E+03  0.47000000000E+01 0. -1.
         -5    1    4    4    0  502  0.61310225948E+01 -0.49449604811E+02  0.26536298243E+01  0.50119702765E+02  0.47000000000E+01 0. -1.
<mgrwt>
<rscale>  0 0.99921338E+03</rscale>
<asrwt>0</asrwt>
<pdfrwt beam="1">  1        2 0.19451468E+00 0.99921338E+03</pdfrwt>
<pdfrwt beam="2">  1       -2 0.30372281E-01 0.99921338E+03</pdfrwt>
<totfact> 0.20900247E+02</totfact>
</mgrwt>
</event>
<event>
 9    1  0.4342579E-036  0.1000090E+04  0.7818608E-02  0.8680952E-01
         -2   -1    0    0    0  501 -0.00000000000E+00  0.00000000000E+00  0.34171985425E+03  0.34171985425E+03  0.00000000000E+00 0.  1.
          2   -1    0    0  501    0  0.00000000000E+00 -0.00000000000E+00 -0.73172504960E+03  0.73172504960E+03  0.00000000000E+00 0.  1.
         36    2    1    2    0    0  0.00000000000E+00 -0.88817841970E-15 -0.39000519535E+03  0.10734449039E+04  0.10000899506E+04 0.  0.
         25    2    3    3    0    0 -0.11014864622E+03  0.61694133946E+01 -0.16702582329E+03  0.23561836567E+03  0.12428838510E+03 0.  0.
         35    2    3    3    0    0  0.11014864622E+03 -0.61694133946E+01 -0.22297937206E+03  0.83782653819E+03  0.80003920016E+03 0.  0.
         22    1    5    5    0    0 -0.12948147380E+03 -0.35246535481E+01  0.26456328985E+03  0.29457021162E+03  0.00000000000E+00 0.  1.
         22    1    5    5    0    0  0.23963012002E+03 -0.26447598465E+01 -0.48754266191E+03  0.54325632656E+03  0.00000000000E+00 0.  1.
          5    1    4    4  502    0 -0.46622499609E+02 -0.55899922436E+02 -0.49161621497E+02  0.87962570599E+02  0.47000000000E+01 0. -1.
         -5    1    4    4    0  502 -0.63526146609E+02  0.62069335831E+02 -0.11786420180E+03  0.14765579507E+03  0.47000000000E+01 0. -1.
<mgrwt>
<rscale>  0 0.10000900E+04</rscale>
<asrwt>0</asrwt>
<pdfrwt beam="1">  1        2 0.11257308E+00 0.10000900E+04</pdfrwt>
<pdfrwt beam="2">  1       -2 0.52572286E-01 0.10000900E+04</pdfrwt>
<totfact> 0.15997934E+02</totfact>
</mgrwt>
</event>
<event>
 9    1  0.4342579E-036  0.1000510E+04  0.7818608E-02  0.8680552E-01
          1   -1    0    0  501    0  0.00000000000E+00  0.00000000000E+00  0.19466052496E+04  0.19466052496E+04  0.00000000000E+00 0.  1.
         -1   -1    0    0    0  501 -0.00000000000E+00 -0.00000000000E+00 -0.12855984256E+03  0.12855984256E+03  0.00000000000E+00 0.  1.
         36    2    1    2    0    0  0.17763568394E-13 -0.28421709430E-13  0.18180454070E+04  0.20751650921E+04  0.10005103986E+04 0.  0.
         25    2    3    3    0    0  0.76864559332E+01 -0.14019530331E+03  0.32687266667E+03  0.37714928210E+03  0.12522793658E+03 0.  0.
         35    2    3    3    0    0 -0.76864559332E+01  0.14019530331E+03  0.14911727404E+04  0.16980158100E+04  0.79996733989E+03 0.  0.
         22    1    5    5    0    0 -0.25075375695E+03  0.34500122029E+03  0.50035026353E+03  0.65746001768E+03  0.00000000000E+00 0.  1.
         22    1    5    5    0    0  0.24306730101E+03 -0.20480591698E+03  0.99082247683E+03  0.10405557924E+04  0.00000000000E+00 0.  1.
          5    1    4    4  502    0  0.98248079390E+01 -0.15753583068E+03  0.32164238745E+03  0.35831547581E+03  0.47000000000E+01 0. -1.
         -5    1    4    4    0  502 -0.21383520058E+01  0.17340527371E+02  0.52302792176E+01  0.18833806294E+02  0.47000000000E+01 0. -1.
<mgrwt>
<rscale>  0 0.10005104E+04</rscale>
<asrwt>0</asrwt>
<pdfrwt beam="1">  1        1 0.29947771E+00 0.10005104E+04</pdfrwt>
<pdfrwt beam="2">  1       -1 0.19778439E-01 0.10005104E+04</pdfrwt>
<totfact> 0.70713228E+01</totfact>
</mgrwt>
</event>
<event>
 9    1  0.4342579E-036  0.1000849E+04  0.7818608E-02  0.8680229E-01
          2   -1    0    0  501    0  0.00000000000E+00  0.00000000000E+00  0.14097841683E+04  0.14097841683E+04  0.00000000000E+00 0. -1.
         -2   -1    0    0    0  501 -0.00000000000E+00 -0.00000000000E+00 -0.17763348924E+03  0.17763348924E+03  0.00000000000E+00 0. -1.
         36    2    1    2    0    0  0.00000000000E+00 -0.14210854715E-13  0.12321506791E+04  0.15874176576E+04  0.10008494010E+04 0.  0.
         25    2    3    3    0    0 -0.13364192972E+03  0.42852893403E+02  0.21863646460E+03  0.28807775625E+03  0.12446025124E+03 0.  0.
         35    2    3    3    0    0  0.13364192972E+03 -0.42852893403E+02  0.10135142145E+04  0.12993399013E+04  0.80085990056E+03 0.  0.
         22    1    5    5    0    0 -0.15364245877E+02  0.24466548342E+03  0.10530915337E+02  0.24537350918E+03  0.00000000000E+00 0. -1.
         22    1    5    5    0    0  0.14900617560E+03 -0.28751837682E+03  0.10029832991E+04  0.10539663921E+04  0.00000000000E+00 0. -1.
          5    1    4    4  502    0 -0.41985014088E+02  0.83394993842E+01 -0.55191446520E+01  0.43414739613E+02  0.47000000000E+01 0. -1.
         -5    1    4    4    0  502 -0.91656915634E+02  0.34513394019E+02  0.22415560926E+03  0.24466301664E+03  0.47000000000E+01 0. -1.
<mgrwt>
<rscale>  0 0.10008494E+04</rscale>
<asrwt>0</asrwt>
<pdfrwt beam="1">  1        2 0.21688986E+00 0.10008494E+04</pdfrwt>
<pdfrwt beam="2">  1       -2 0.27328230E-01 0.10008494E+04</pdfrwt>
<totfact> 0.20862765E+02</totfact>
</mgrwt>
</event>
<event>
 9    1  0.4342579E-036  0.1000246E+04  0.7818608E-02  0.8680804E-01
         -1   -1    0    0    0  501 -0.00000000000E+00  0.00000000000E+00  0.10195638486E+04  0.10195638486E+04  0.00000000000E+00 0. -1.
          1   -1    0    0  501    0  0.00000000000E+00 -0.00000000000E+00 -0.24532351651E+03  0.24532351651E+03  0.00000000000E+00 0. -1.
         36    2    1    2    0    0  0.00000000000E+00  0.14210854715E-13  0.77424033206E+03  0.12648873651E+04  0.10002459470E+04 0.  0.
         25    2    3    3    0    0 -0.51105605228E+02 -0.55000756996E+02  0.28290499681E+03  0.32339739727E+03  0.13752735433E+03 0.  0.
         35    2    3    3    0    0  0.51105605228E+02  0.55000756996E+02  0.49133533525E+03  0.94148996781E+03  0.79959744976E+03 0.  0.
         22    1    5    5    0    0 -0.44881864732E+02 -0.14290456534E+03  0.65207747902E+03  0.66905988911E+03  0.00000000000E+00 0.  1.
         22    1    5    5    0    0  0.95987469959E+02  0.19790532234E+03 -0.16074214376E+03  0.27243007870E+03  0.00000000000E+00 0.  1.
          5    1    4    4  502    0  0.53219671438E+01 -0.18570356584E+02 -0.10418291181E+02  0.22445762831E+02  0.47000000000E+01 0. -1.
         -5    1    4    4    0  502 -0.56427572371E+02 -0.36430400412E+02  0.29332328799E+03  0.30095163444E+03  0.47000000000E+01 0. -1.
<mgrwt>
<rscale>  0 0.10002459E+04</rscale>
<asrwt>0</asrwt>
<pdfrwt beam="1">  1        1 0.37742080E-01 0.10002459E+04</pdfrwt>
<pdfrwt beam="2">  1       -1 0.15685597E+00 0.10002459E+04</pdfrwt>
<totfact> 0.40914556E+01</totfact>
</mgrwt>
</event>
<event>
 9    1  0.4342579E-036  0.1001849E+04  0.7818608E-02  0.8679279E-01
          2   -1    0    0  501    0  0.00000000000E+00  0.00000000000E+00  0.17476604073E+04  0.17476604073E+04  0.00000000000E+00 0. -1.
         -2   -1    0    0    0  501 -0.00000000000E+00 -0.00000000000E+00 -0.14357787002E+03  0.14357787002E+03  0.00000000000E+00 0. -1.
         36    2    1    2    0    0 -0.28421709430E-13  0.28421709430E-13  0.16040825373E+04  0.18912382773E+04  0.10018490082E+04 0.  0.
         25    2    3    3    0    0 -0.85852101500E+02  0.11186795259E+03  0.31712076888E+03  0.36937603471E+03  0.12644386428E+03 0.  0.
         35    2    3    3    0    0  0.85852101500E+02 -0.11186795259E+03  0.12869617684E+04  0.15218622426E+04  0.79994316675E+03 0.  0.
         22    1    5    5    0    0  0.40297500199E+03 -0.10023467326E+03  0.38715244603E+03  0.56773484870E+03  0.00000000000E+00 0.  1.
         22    1    5    5    0    0 -0.31712290049E+03 -0.11633279328E+02  0.89980932239E+03  0.95412739394E+03  0.00000000000E+00 0.  1.
          5    1    4    4  502    0 -0.53037328230E+02  0.11322342852E+03  0.31154899729E+03  0.33573407730E+03  0.47000000000E+01 0. -1.
         -5    1    4    4    0  502 -0.32814773270E+02 -0.13554759274E+01  0.55717715960E+01  0.33641957412E+02  0.47000000000E+01 0. -1.
<mgrwt>
<rscale>  0 0.10018490E+04</rscale>
<asrwt>0</asrwt>
<pdfrwt beam="1">  1        2 0.26887082E+00 0.10018490E+04</pdfrwt>
<pdfrwt beam="2">  1       -2 0.22088904E-01 0.10018490E+04</pdfrwt>
<totfact> 0.19594868E+02</totfact>
</mgrwt>
</event>
<event>
 9    1  0.4342579E-036  0.1000044E+04  0.7818608E-02  0.8680996E-01
         -2   -1    0    0    0  501 -0.00000000000E+00  0.00000000000E+00  0.14007025859E+03  0.14007025859E+03  0.00000000000E+00 0.  1.
          2   -1    0    0  501    0  0.00000000000E+00 -0.00000000000E+00 -0.17849760986E+04  0.17849760986E+04  0.00000000000E+00 0.  1.
         36    2    1    2    0    0 -0.71054273576E-14  0.00000000000E+00 -0.16449058400E+04  0.19250463572E+04  0.10000441264E+04 0.  0.
         25    2    3    3    0    0 -0.19878502654E+02  0.13057543003E+03 -0.21732025864E+03  0.28332619046E+03  0.12490211203E+03 0.  0.
         35    2    3    3    0    0  0.19878502654E+02 -0.13057543003E+03 -0.14275855814E+04  0.16417201667E+04  0.79987462510E+03 0.  0.
         22    1    5    5    0    0 -0.37834402631E+03  0.26205087854E+02 -0.74694119176E+03  0.83770642401E+03  0.00000000000E+00 0.  1.
         22    1    5    5    0    0  0.39822252896E+03 -0.15678051789E+03 -0.68064438959E+03  0.80401374270E+03  0.00000000000E+00 0.  1.
          5    1    4    4  502    0  0.91962316457E+01  0.90462157514E+02 -0.40526023783E+02  0.99661533313E+02  0.47000000000E+01 0. -1.
         -5    1    4    4    0  502 -0.29074734299E+02  0.40113272520E+02 -0.17679423486E+03  0.18366465715E+03  0.47000000000E+01 0. -1.
<mgrwt>
<rscale>  0 0.10000441E+04</rscale>
<asrwt>0</asrwt>
<pdfrwt beam="1">  1        2 0.27461171E+00 0.10000441E+04</pdfrwt>
<pdfrwt beam="2">  1       -2 0.21549271E-01 0.10000441E+04</pdfrwt>
<totfact> 0.19492081E+02</totfact>
</mgrwt>
</event>
<event>
 9    1  0.4342579E-036  0.9996161E+03  0.7818608E-02  0.8681404E-01
          1   -1    0    0  501    0  0.00000000000E+00  0.00000000000E+00  0.61025002491E+03  0.61025002491E+03  0.00000000000E+00 0. -1.
         -1   -1    0    0    0  501 -0.00000000000E+00 -0.00000000000E+00 -0.40935369630E+03  0.40935369630E+03  0.00000000000E+00 0. -1.
         36    2    1    2    0    0 -0.28421709430E-13 -0.14210854715E-13  0.20089632861E+03  0.10196037212E+04  0.99961613304E+03 0.  0.
         25    2    3    3    0    0 -0.76834802279E+02  0.11975244401E+03  0.50416501214E+02  0.19494161597E+03  0.12335386234E+03 0.  0.
         35    2    3    3    0    0  0.76834802279E+02 -0.11975244401E+03  0.15047982740E+03  0.82466210523E+03  0.79823503723E+03 0.  0.
         22    1    5    5    0    0  0.41903669986E+02 -0.45056663208E+03  0.18777611036E+03  0.48992456065E+03  0.00000000000E+00 0.  1.
         22    1    5    5    0    0  0.34931132293E+02  0.33081418807E+03 -0.37296282962E+02  0.33473754459E+03  0.00000000000E+00 0.  1.
          5    1    4    4  502    0 -0.59219628209E+02  0.75556498172E+02  0.90903849346E+02  0.13229266271E+03  0.47000000000E+01 0. -1.
         -5    1    4    4    0  502 -0.17615174071E+02  0.44195945837E+02 -0.40487348131E+02  0.62648953261E+02  0.47000000000E+01 0. -1.
<mgrwt>
<rscale>  0 0.99961613E+03</rscale>
<asrwt>0</asrwt>
<pdfrwt beam="1">  1        1 0.93884619E-01 0.99961613E+03</pdfrwt>
<pdfrwt beam="2">  1       -1 0.62977492E-01 0.99961613E+03</pdfrwt>
<totfact> 0.99315987E+01</totfact>
</mgrwt>
</event>
<event>
 9    1  0.4342579E-036  0.1000877E+04  0.7818608E-02  0.8680203E-01
          2   -1    0    0  501    0  0.00000000000E+00  0.00000000000E+00  0.10203057938E+04  0.10203057938E+04  0.00000000000E+00 0. -1.
         -2   -1    0    0    0  501 -0.00000000000E+00 -0.00000000000E+00 -0.24545448277E+03  0.24545448277E+03  0.00000000000E+00 0. -1.
         36    2    1    2    0    0 -0.28421709430E-13 -0.28421709430E-13  0.77485131102E+03  0.12657602766E+04  0.10008768773E+04 0.  0.
         25    2    3    3    0    0  0.89085086960E+02 -0.77154643469E+02  0.41098874058E+02  0.17500961933E+03  0.12267949169E+03 0.  0.
         35    2    3    3    0    0 -0.89085086960E+02  0.77154643469E+02  0.73375243696E+03  0.10907506572E+04  0.79840801960E+03 0.  0.
         22    1    5    5    0    0 -0.36905798522E+03 -0.14774301363E+03  0.57276283331E+03  0.69720087332E+03  0.00000000000E+00 0. -1.
         22    1    5    5    0    0  0.27997289826E+03  0.22489765710E+03  0.16098960365E+03  0.39354978391E+03  0.00000000000E+00 0. -1.
          5    1    4    4  502    0  0.35390120643E+02 -0.10240035960E+03  0.13101163693E+02  0.10923380785E+03  0.47000000000E+01 0.  1.
         -5    1    4    4    0  502  0.53694966316E+02  0.25245716136E+02  0.27997710365E+02  0.65775811486E+02  0.47000000000E+01 0.  1.
<mgrwt>
<rscale>  0 0.10008769E+04</rscale>
<asrwt>0</asrwt>
<pdfrwt beam="1">  1        2 0.15697012E+00 0.10008769E+04</pdfrwt>
<pdfrwt beam="2">  1       -2 0.37762229E-01 0.10008769E+04</pdfrwt>
<totfact> 0.19547393E+02</totfact>
</mgrwt>
</event>
<event>
 9    1  0.4342579E-036  0.1000298E+04  0.7818608E-02  0.8680754E-01
         -1   -1    0    0    0  501 -0.00000000000E+00  0.00000000000E+00  0.10466467960E+03  0.10466467960E+03  0.00000000000E+00 0. -1.
          1   -1    0    0  501    0  0.00000000000E+00 -0.00000000000E+00 -0.23900064608E+04  0.23900064608E+04  0.00000000000E+00 0. -1.
         36    2    1    2    0    0 -0.21316282073E-13  0.00000000000E+00 -0.22853417812E+04  0.24946711405E+04  0.10002984764E+04 0.  0.
         25    2    3    3    0    0 -0.22705069601E+01 -0.24128570590E+02 -0.84591672517E+02  0.15335961863E+03  0.12560286002E+03 0.  0.
         35    2    3    3    0    0  0.22705069601E+01  0.24128570590E+02 -0.22007501087E+04  0.23413115218E+04  0.79865590717E+03 0.  0.
         22    1    5    5    0    0  0.30072990231E+03  0.22649720291E+03 -0.15723982752E+04  0.16168413011E+04  0.00000000000E+00 0.  1.
         22    1    5    5    0    0 -0.29845939535E+03 -0.20236863232E+03 -0.62835183348E+03  0.72447022069E+03  0.00000000000E+00 0.  1.
          5    1    4    4  502    0 -0.36926098103E+02  0.22708913653E+02 -0.84294986994E+02  0.94905038395E+02  0.47000000000E+01 0.  1.
         -5    1    4    4    0  502  0.34655591143E+02 -0.46837484242E+02 -0.29668552294E+00  0.58454580230E+02  0.47000000000E+01 0.  1.
<mgrwt>
<rscale>  0 0.10002985E+04</rscale>
<asrwt>0</asrwt>
<pdfrwt beam="1">  1        1 0.36769332E+00 0.10002985E+04</pdfrwt>
<pdfrwt beam="2">  1       -1 0.16102258E-01 0.10002985E+04</pdfrwt>
<totfact> 0.48360000E+01</totfact>
</mgrwt>
</event>
<event>
 9    1  0.4342579E-036  0.1003345E+04  0.7818608E-02  0.8677859E-01
          2   -1    0    0  501    0  0.00000000000E+00  0.00000000000E+00  0.63118624039E+03  0.63118624039E+03  0.00000000000E+00 0.  1.
         -2   -1    0    0    0  501 -0.00000000000E+00 -0.00000000000E+00 -0.39873390226E+03  0.39873390226E+03  0.00000000000E+00 0.  1.
         36    2    1    2    0    0  0.00000000000E+00  0.28421709430E-13  0.23245233813E+03  0.10299201427E+04  0.10033451105E+04 0.  0.
         25    2    3    3    0    0  0.10604445166E+03 -0.93584049922E+02  0.66073216893E+02  0.20010339229E+03  0.12518904699E+03 0.  0.
         35    2    3    3    0    0 -0.10604445166E+03  0.93584049922E+02  0.16637912123E+03  0.82981675037E+03  0.80056881471E+03 0.  0.
         22    1    5    5    0    0 -0.25739794797E+03  0.31367280336E+03 -0.13450464985E+03  0.42747611865E+03  0.00000000000E+00 0.  1.
         22    1    5    5    0    0  0.15135349630E+03 -0.22008875344E+03  0.30088377108E+03  0.40234063172E+03  0.00000000000E+00 0.  1.
          5    1    4    4  502    0  0.93984650991E+02 -0.12114348324E+03  0.36549183285E+02  0.15769207637E+03  0.47000000000E+01 0. -1.
         -5    1    4    4    0  502  0.12059800673E+02  0.27559433315E+02  0.29524033608E+02  0.42411315912E+02  0.47000000000E+01 0. -1.
<mgrwt>
<rscale>  0 0.10033451E+04</rscale>
<asrwt>0</asrwt>
<pdfrwt beam="1">  1        2 0.97105575E-01 0.10033451E+04</pdfrwt>
<pdfrwt beam="2">  1       -2 0.61343677E-01 0.10033451E+04</pdfrwt>
<totfact> 0.13940737E+02</totfact>
</mgrwt>
</event>
<event>
 9    1  0.4342579E-036  0.9999408E+03  0.7818608E-02  0.8681094E-01
         -2   -1    0    0    0  501 -0.00000000000E+00  0.00000000000E+00  0.16368729491E+03  0.16368729491E+03  0.00000000000E+00 0.  1.
          2   -1    0    0  501    0  0.00000000000E+00 -0.00000000000E+00 -0.15271216156E+04  0.15271216156E+04  0.00000000000E+00 0.  1.
         36    2    1    2    0    0  0.00000000000E+00 -0.14210854715E-13 -0.13634343207E+04  0.16908089105E+04  0.99994081076E+03 0.  0.
         25    2    3    3    0    0 -0.55422135687E+02  0.60276494276E+02 -0.44963206558E+03  0.47368015881E+03  0.12449509855E+03 0.  0.
         35    2    3    3    0    0  0.55422135687E+02 -0.60276494276E+02 -0.91380225507E+03  0.12171287517E+04  0.79978932719E+03 0.  0.
         22    1    5    5    0    0 -0.13027904719E+03 -0.34378670750E+03 -0.18107521000E+03  0.40981723007E+03  0.00000000000E+00 0.  1.
         22    1    5    5    0    0  0.18570118288E+03  0.28351021322E+03 -0.73272704508E+03  0.80731152160E+03  0.00000000000E+00 0.  1.
          5    1    4    4  502    0 -0.21193410241E+02 -0.35473557037E+02 -0.19639551472E+03  0.20075064654E+03  0.47000000000E+01 0.  1.
         -5    1    4    4    0  502 -0.34228725446E+02  0.95750051312E+02 -0.25323655087E+03  0.27292951227E+03  0.47000000000E+01 0.  1.
<mgrwt>
<rscale>  0 0.99994081E+03</rscale>
<asrwt>0</asrwt>
<pdfrwt beam="1">  1        2 0.23494177E+00 0.99994081E+03</pdfrwt>
<pdfrwt beam="2">  1       -2 0.25182663E-01 0.99994081E+03</pdfrwt>
<totfact> 0.20710116E+02</totfact>
</mgrwt>
</event>
<event>
 9    1  0.4342579E-036  0.9995626E+03  0.7818608E-02  0.8681455E-01
         -2   -1    0    0    0  501 -0.00000000000E+00  0.00000000000E+00  0.94053814958E+02  0.94053814958E+02  0.00000000000E+00 0. -1.
          2   -1    0    0  501    0  0.00000000000E+00 -0.00000000000E+00 -0.26557281321E+04  0.26557281321E+04  0.00000000000E+00 0. -1.
         36    2    1    2    0    0  0.00000000000E+00 -0.28421709430E-13 -0.25616743172E+04  0.27497819471E+04  0.99956262899E+03 0.  0.
         25    2    3    3    0    0  0.76783258741E+02 -0.11354468810E+03 -0.57284086112E+03  0.60186808648E+03  0.12373550960E+03 0.  0.
         35    2    3    3    0    0 -0.76783258741E+02  0.11354468810E+03 -0.19888334560E+04  0.21479138606E+04  0.79955448324E+03 0.  0.
         22    1    5    5    0    0  0.22333694886E+03  0.31279397031E+03 -0.14476147245E+04  0.14977676226E+04  0.00000000000E+00 0. -1.
         22    1    5    5    0    0 -0.30012020760E+03 -0.19924928220E+03 -0.54121873152E+03  0.65014623802E+03  0.00000000000E+00 0. -1.
          5    1    4    4  502    0  0.83036016697E+02 -0.13085173200E+03 -0.41730963272E+03  0.44518150837E+03  0.47000000000E+01 0. -1.
         -5    1    4    4    0  502 -0.62527579565E+01  0.17307043902E+02 -0.15553122841E+03  0.15668657811E+03  0.47000000000E+01 0. -1.
<mgrwt>
<rscale>  0 0.99956263E+03</rscale>
<asrwt>0</asrwt>
<pdfrwt beam="1">  1        2 0.40857358E+00 0.99956263E+03</pdfrwt>
<pdfrwt beam="2">  1       -2 0.14469817E-01 0.99956263E+03</pdfrwt>
<totfact> 0.11855694E+02</totfact>
</mgrwt>
</event>
<event>
 9    1  0.4342579E-036  0.9995140E+03  0.7818608E-02  0.8681501E-01
          2   -1    0    0  501    0  0.00000000000E+00  0.00000000000E+00  0.34901704228E+03  0.34901704228E+03  0.00000000000E+00 0.  1.
         -2   -1    0    0    0  501 -0.00000000000E+00 -0.00000000000E+00 -0.71560136981E+03  0.71560136981E+03  0.00000000000E+00 0.  1.
         36    2    1    2    0    0  0.71054273576E-14  0.00000000000E+00 -0.36658432752E+03  0.10646184121E+04  0.99951402900E+03 0.  0.
         25    2    3    3    0    0  0.10419087572E+02 -0.13943000302E+03 -0.75631148632E+02  0.20179297387E+03  0.12430225473E+03 0.  0.
         35    2    3    3    0    0 -0.10419087572E+02  0.13943000302E+03 -0.29095317889E+03  0.86282543822E+03  0.80016542128E+03 0.  0.
         22    1    5    5    0    0 -0.38541190843E+03  0.16857900662E+02 -0.24098204178E+02  0.38653234201E+03  0.00000000000E+00 0.  1.
         22    1    5    5    0    0  0.37499282086E+03  0.12257210236E+03 -0.26685497471E+03  0.47629309621E+03  0.00000000000E+00 0.  1.
          5    1    4    4  502    0 -0.24650640397E+02 -0.14805864273E+03 -0.66560898502E+02  0.16426033900E+03  0.47000000000E+01 0. -1.
         -5    1    4    4    0  502  0.35069727969E+02  0.86286397037E+01 -0.90702501301E+01  0.37532634871E+02  0.47000000000E+01 0. -1.
<mgrwt>
<rscale>  0 0.99951403E+03</rscale>
<asrwt>0</asrwt>
<pdfrwt beam="1">  1        2 0.53694930E-01 0.99951403E+03</pdfrwt>
<pdfrwt beam="2">  1       -2 0.11009252E+00 0.99951403E+03</pdfrwt>
<totfact> 0.71627507E+01</totfact>
</mgrwt>
</event>
<event>
 9    1  0.4342579E-036  0.1000664E+04  0.7818608E-02  0.8680406E-01
         -2   -1    0    0    0  501 -0.00000000000E+00  0.00000000000E+00  0.26945723203E+03  0.26945723203E+03  0.00000000000E+00 0.  1.
          2   -1    0    0  501    0  0.00000000000E+00 -0.00000000000E+00 -0.92902421105E+03  0.92902421105E+03  0.00000000000E+00 0.  1.
         36    2    1    2    0    0  0.00000000000E+00  0.00000000000E+00 -0.65956697902E+03  0.11984814431E+04  0.10006643641E+04 0.  0.
         25    2    3    3    0    0  0.90297805337E+02  0.53505865358E+02 -0.23666158822E+03  0.28712272321E+03  0.12415385442E+03 0.  0.
         35    2    3    3    0    0 -0.90297805337E+02 -0.53505865358E+02 -0.42290539080E+03  0.91135871986E+03  0.80044311192E+03 0.  0.
         22    1    5    5    0    0  0.29159158992E+02  0.16054341557E+03 -0.59166796197E+03  0.61375518088E+03  0.00000000000E+00 0. -1.
         22    1    5    5    0    0 -0.11945696433E+03 -0.21404928092E+03  0.16876257116E+03  0.29760353899E+03  0.00000000000E+00 0. -1.
          5    1    4    4  502    0  0.94559858433E+02  0.56852460594E+02 -0.96144776263E+02  0.14642293914E+03  0.47000000000E+01 0.  1.
         -5    1    4    4    0  502 -0.42620530962E+01 -0.33465952359E+01 -0.14051681195E+03  0.14069978407E+03  0.47000000000E+01 0.  1.
<mgrwt>
<rscale>  0 0.10006644E+04</rscale>
<asrwt>0</asrwt>
<pdfrwt beam="1">  1        2 0.14292680E+00 0.10006644E+04</pdfrwt>
<pdfrwt beam="2">  1       -2 0.41454959E-01 0.10006644E+04</pdfrwt>
<totfact> 0.18693439E+02</totfact>
</mgrwt>
</event>
<event>
 9    1  0.4342579E-036  0.1001231E+04  0.7818608E-02  0.8679867E-01
          1   -1    0    0  501    0  0.00000000000E+00  0.00000000000E+00  0.82618805405E+03  0.82618805405E+03  0.00000000000E+00 0.  1.
         -1   -1    0    0    0  501 -0.00000000000E+00 -0.00000000000E+00 -0.30333969391E+03  0.30333969391E+03  0.00000000000E+00 0.  1.
         36    2    1    2    0    0  0.35527136788E-13 -0.14210854715E-13  0.52284836013E+03  0.11295277480E+04  0.10012305058E+04 0.  0.
         25    2    3    3    0    0 -0.41436538563E+02 -0.10565672888E+03  0.19284332676E+03  0.25657605325E+03  0.12554836255E+03 0.  0.
         35    2    3    3    0    0  0.41436538563E+02  0.10565672888E+03  0.33000503337E+03  0.87295169470E+03  0.80016311347E+03 0.  0.
         22    1    5    5    0    0  0.32910202128E+03  0.45635019513E+02  0.44674575444E+03  0.55675170815E+03  0.00000000000E+00 0.  1.
         22    1    5    5    0    0 -0.28766548272E+03  0.60021709367E+02 -0.11674072107E+03  0.31619998656E+03  0.00000000000E+00 0.  1.
          5    1    4    4  502    0  0.21729333060E+02 -0.47630700960E+02  0.85612354072E+01  0.53256289215E+02  0.47000000000E+01 0. -1.
         -5    1    4    4    0  502 -0.63165871623E+02 -0.58026027919E+02  0.18428209136E+03  0.20331976404E+03  0.47000000000E+01 0. -1.
<mgrwt>
<rscale>  0 0.10012305E+04</rscale>
<asrwt>0</asrwt>
<pdfrwt beam="1">  1        1 0.12710585E+00 0.10012305E+04</pdfrwt>
<pdfrwt beam="2">  1       -1 0.46667646E-01 0.10012305E+04</pdfrwt>
<totfact> 0.10905036E+02</totfact>
</mgrwt>
</event>
<event>
 9    1  0.4342579E-036  0.9996817E+03  0.7818608E-02  0.8681341E-01
          2   -1    0    0  501    0  0.00000000000E+00  0.00000000000E+00  0.64551607636E+03  0.64551607636E+03  0.00000000000E+00 0.  1.
         -2   -1    0    0    0  501 -0.00000000000E+00 -0.00000000000E+00 -0.38704048416E+03  0.38704048416E+03  0.00000000000E+00 0.  1.
         36    2    1    2    0    0 -0.14210854715E-13  0.28421709430E-13  0.25847559220E+03  0.10325565605E+04  0.99968165878E+03 0.  0.
         25    2    3    3    0    0  0.62691590316E+02 -0.10480524498E+03  0.11722299079E+03  0.21069894374E+03  0.12545294118E+03 0.  0.
         35    2    3    3    0    0 -0.62691590316E+02  0.10480524498E+03  0.14125260141E+03  0.82185761678E+03  0.80036446072E+03 0.  0.
         22    1    5    5    0    0  0.87795483436E+02 -0.27813256693E+03 -0.13994840678E+03  0.32349857536E+03  0.00000000000E+00 0. -1.
         22    1    5    5    0    0 -0.15048707375E+03  0.38293781191E+03  0.28120100819E+03  0.49835904142E+03  0.00000000000E+00 0. -1.
          5    1    4    4  502    0  0.77797976121E+02 -0.12373642048E+03  0.11478814659E+03  0.18590759919E+03  0.47000000000E+01 0.  1.
         -5    1    4    4    0  502 -0.15106385805E+02  0.18931175502E+02  0.24348442010E+01  0.24791344543E+02  0.47000000000E+01 0.  1.
<mgrwt>
<rscale>  0 0.99968166E+03</rscale>
<asrwt>0</asrwt>
<pdfrwt beam="1">  1        2 0.99310166E-01 0.99968166E+03</pdfrwt>
<pdfrwt beam="2">  1       -2 0.59544690E-01 0.99968166E+03</pdfrwt>
<totfact> 0.14441778E+02</totfact>
</mgrwt>
</event>
<event>
 9    1  0.4342579E-036  0.1002576E+04  0.7818608E-02  0.8678589E-01
         -2   -1    0    0    0  501 -0.00000000000E+00  0.00000000000E+00  0.27110716751E+03  0.27110716751E+03  0.00000000000E+00 0.  1.
          2   -1    0    0  501    0  0.00000000000E+00 -0.00000000000E+00 -0.92690148933E+03  0.92690148933E+03  0.00000000000E+00 0.  1.
         36    2    1    2    0    0 -0.28421709430E-13  0.00000000000E+00 -0.65579432182E+03  0.11980086568E+04  0.10025759569E+04 0.  0.
         25    2    3    3    0    0  0.11237196532E+03  0.32770001846E+02 -0.22066081143E+03  0.28011365992E+03  0.12677198887E+03 0.  0.
         35    2    3    3    0    0 -0.11237196532E+03 -0.32770001846E+02 -0.43513351039E+03  0.91789499692E+03  0.79968038734E+03 0.  0.
         22    1    5    5    0    0 -0.36594263152E+03  0.22218985342E+03 -0.13320348822E+03  0.44835868432E+03  0.00000000000E+00 0. -1.
         22    1    5    5    0    0  0.25357066620E+03 -0.25495985527E+03 -0.30193002217E+03  0.46953631260E+03  0.00000000000E+00 0. -1.
          5    1    4    4  502    0  0.64671546975E+02 -0.41612313457E+02 -0.63874853377E+02  0.10008037027E+03  0.47000000000E+01 0. -1.
         -5    1    4    4    0  502  0.47700418344E+02  0.74382315303E+02 -0.15678595805E+03  0.18003328965E+03  0.47000000000E+01 0. -1.
<mgrwt>
<rscale>  0 0.10025760E+04</rscale>
<asrwt>0</asrwt>
<pdfrwt beam="1">  1        2 0.14260023E+00 0.10025760E+04</pdfrwt>
<pdfrwt beam="2">  1       -2 0.41708795E-01 0.10025760E+04</pdfrwt>
<totfact> 0.18532962E+02</totfact>
</mgrwt>
</event>
<event>
 9    1  0.4342579E-036  0.1000171E+04  0.7818608E-02  0.8680875E-01
         -2   -1    0    0    0  501 -0.00000000000E+00  0.00000000000E+00  0.17216170555E+04  0.17216170555E+04  0.00000000000E+00 0. -1.
          2   -1    0    0  501    0  0.00000000000E+00 -0.00000000000E+00 -0.14526203924E+03  0.14526203924E+03  0.00000000000E+00 0. -1.
         36    2    1    2    0    0 -0.14210854715E-13  0.14210854715E-13  0.15763550163E+04  0.18668790948E+04  0.10001711939E+04 0.  0.
         25    2    3    3    0    0 -0.10039300262E+03  0.66893845118E+02  0.16047785513E+03  0.23645142097E+03  0.12491033184E+03 0.  0.
         35    2    3    3    0    0  0.10039300262E+03 -0.66893845118E+02  0.14158771611E+04  0.16304276738E+04  0.79939522298E+03 0.  0.
         22    1    5    5    0    0  0.32629561465E+02 -0.21015955065E+03  0.14523189906E+04  0.14678086304E+04  0.00000000000E+00 0. -1.
         22    1    5    5    0    0  0.67763441155E+02  0.14326570553E+03 -0.36441829462E+02  0.16261904339E+03  0.00000000000E+00 0. -1.
          5    1    4    4  502    0 -0.78391805529E+02  0.69773693897E+02  0.17874457722E+03  0.20732910413E+03  0.47000000000E+01 0.  1.
         -5    1    4    4    0  502 -0.22001197090E+02 -0.28798487792E+01 -0.18266722084E+02  0.29122316839E+02  0.47000000000E+01 0.  1.
<mgrwt>
<rscale>  0 0.10001712E+04</rscale>
<asrwt>0</asrwt>
<pdfrwt beam="1">  1        2 0.22348007E-01 0.10001712E+04</pdfrwt>
<pdfrwt beam="2">  1       -2 0.26486415E+00 0.10001712E+04</pdfrwt>
<totfact> 0.13945423E+01</totfact>
</mgrwt>
</event>
<event>
 9    1  0.4342579E-036  0.1000160E+04  0.7818608E-02  0.8680886E-01
          1   -1    0    0  501    0  0.00000000000E+00  0.00000000000E+00  0.15623336365E+04  0.15623336365E+04  0.00000000000E+00 0.  1.
         -1   -1    0    0    0  501 -0.00000000000E+00 -0.00000000000E+00 -0.16006813710E+03  0.16006813710E+03  0.00000000000E+00 0.  1.
         36    2    1    2    0    0  0.00000000000E+00  0.00000000000E+00  0.14022654994E+04  0.17224017736E+04  0.10001596567E+04 0.  0.
         25    2    3    3    0    0  0.86250150482E+02 -0.10741856829E+03  0.22378502073E+03  0.29125703498E+03  0.12559095369E+03 0.  0.
         35    2    3    3    0    0 -0.86250150482E+02  0.10741856829E+03  0.11784804786E+04  0.14311447386E+04  0.80023820639E+03 0.  0.
         22    1    5    5    0    0 -0.14612736816E+03  0.16853757905E+03 -0.25148508070E+02  0.22447844158E+03  0.00000000000E+00 0. -1.
         22    1    5    5    0    0  0.59877217674E+02 -0.61119010757E+02  0.12036289867E+04  0.12066662970E+04  0.00000000000E+00 0. -1.
          5    1    4    4  502    0  0.87318322606E+02 -0.12216575744E+03  0.22985373440E+03  0.27459750722E+03  0.47000000000E+01 0. -1.
         -5    1    4    4    0  502 -0.10681721235E+01  0.14747189146E+02 -0.60687136759E+01  0.16659527756E+02  0.47000000000E+01 0. -1.
<mgrwt>
<rscale>  0 0.10001597E+04</rscale>
<asrwt>0</asrwt>
<pdfrwt beam="1">  1        1 0.24035901E+00 0.10001597E+04</pdfrwt>
<pdfrwt beam="2">  1       -1 0.24625868E-01 0.10001597E+04</pdfrwt>
<totfact> 0.91531053E+01</totfact>
</mgrwt>
</event>
<event>
 9    1  0.4342579E-036  0.9995802E+03  0.7818608E-02  0.8681438E-01
         -2   -1    0    0    0  501 -0.00000000000E+00  0.00000000000E+00  0.14985605398E+03  0.14985605398E+03  0.00000000000E+00 0.  1.
          2   -1    0    0  501    0  0.00000000000E+00 -0.00000000000E+00 -0.16668673416E+04  0.16668673416E+04  0.00000000000E+00 0.  1.
         36    2    1    2    0    0  0.00000000000E+00 -0.71054273576E-14 -0.15170112876E+04  0.18167233956E+04  0.99958023656E+03 0.  0.
         25    2    3    3    0    0  0.11572522652E+03  0.53598451294E+02 -0.18164491230E+03  0.25472063011E+03  0.12499041245E+03 0.  0.
         35    2    3    3    0    0 -0.11572522652E+03 -0.53598451294E+02 -0.13353663754E+04  0.15620027655E+04  0.80024006460E+03 0.  0.
         22    1    5    5    0    0 -0.29054008794E+03  0.15319973187E+03 -0.17841667838E+03  0.37378631819E+03  0.00000000000E+00 0. -1.
         22    1    5    5    0    0  0.17481486142E+03 -0.20679818316E+03 -0.11569496970E+04  0.11882164473E+04  0.00000000000E+00 0. -1.
          5    1    4    4  502    0  0.11857641642E+03 -0.58634704809E+01 -0.11828062376E+03  0.16765184990E+03  0.47000000000E+01 0.  1.
         -5    1    4    4    0  502 -0.28511899010E+01  0.59461921775E+02 -0.63364288537E+02  0.87068780207E+02  0.47000000000E+01 0.  1.
<mgrwt>
<rscale>  0 0.99958024E+03</rscale>
<asrwt>0</asrwt>
<pdfrwt beam="1">  1        2 0.25644112E+00 0.99958024E+03</pdfrwt>
<pdfrwt beam="2">  1       -2 0.23054778E-01 0.99958024E+03</pdfrwt>
<totfact> 0.20186800E+02</totfact>
</mgrwt>
</event>
<event>
 9    1  0.4342579E-036  0.9998416E+03  0.7818608E-02  0.8681189E-01
         -2   -1    0    0    0  501 -0.00000000000E+00  0.00000000000E+00  0.21486164356E+03  0.21486164356E+03  0.00000000000E+00 0. -1.
          2   -1    0    0  501    0  0.00000000000E+00 -0.00000000000E+00 -0.11631708689E+04  0.11631708689E+04  0.00000000000E+00 0. -1.
         36    2    1    2    0    0 -0.42632564146E-13 -0.71054273576E-14 -0.94830922531E+03  0.13780325124E+04  0.99984159671E+03 0.  0.
         25    2    3    3    0    0  0.76599235186E+02  0.26127285772E+02 -0.33687733726E+03  0.36821811345E+03  0.12469226447E+03 0.  0.
         35    2    3    3    0    0 -0.76599235186E+02 -0.26127285772E+02 -0.61143188805E+03  0.10098143990E+04  0.79957869455E+03 0.  0.
         22    1    5    5    0    0  0.31449048255E+03  0.60187385291E+02 -0.56016937195E+02  0.32506104383E+03  0.00000000000E+00 0. -1.
         22    1    5    5    0    0 -0.39108971774E+03 -0.86314671063E+02 -0.55541495086E+03  0.68475335515E+03  0.00000000000E+00 0. -1.
          5    1    4    4  502    0  0.80391598582E+02  0.39657916248E+02 -0.34117831010E+03  0.35278929792E+03  0.47000000000E+01 0. -1.
         -5    1    4    4    0  502 -0.37923633958E+01 -0.13530630476E+02  0.43009728414E+01  0.15428815528E+02  0.47000000000E+01 0. -1.
<mgrwt>
<rscale>  0 0.99984160E+03</rscale>
<asrwt>0</asrwt>
<pdfrwt beam="1">  1        2 0.17894937E+00 0.99984160E+03</pdfrwt>
<pdfrwt beam="2">  1       -2 0.33055637E-01 0.99984160E+03</pdfrwt>
<totfact> 0.20522925E+02</totfact>
</mgrwt>
</event>
<event>
 9    1  0.4342579E-036  0.1000072E+04  0.7818608E-02  0.8680970E-01
         -2   -1    0    0    0  501 -0.00000000000E+00  0.00000000000E+00  0.10154747154E+03  0.10154747154E+03  0.00000000000E+00 0. -1.
          2   -1    0    0  501    0  0.00000000000E+00 -0.00000000000E+00 -0.24622558222E+04  0.24622558222E+04  0.00000000000E+00 0. -1.
         36    2    1    2    0    0  0.14210854715E-13  0.00000000000E+00 -0.23607083507E+04  0.25638032937E+04  0.10000717035E+04 0.  0.
         25    2    3    3    0    0  0.10526789805E+03  0.63463169204E+02 -0.62624968423E+03  0.64986476736E+03  0.12258321524E+03 0.  0.
         35    2    3    3    0    0 -0.10526789805E+03 -0.63463169204E+02 -0.17344586664E+04  0.19139385264E+04  0.79981554933E+03 0.  0.
         22    1    5    5    0    0 -0.21338431752E+03 -0.26638779306E+03 -0.28014658506E+03  0.44156248977E+03  0.00000000000E+00 0.  1.
         22    1    5    5    0    0  0.10811641947E+03  0.20292462385E+03 -0.14543120814E+04  0.14723760366E+04  0.00000000000E+00 0.  1.
          5    1    4    4  502    0  0.59295003184E+01  0.64377280794E+02 -0.15107525202E+03  0.16439408453E+03  0.47000000000E+01 0.  1.
         -5    1    4    4    0  502  0.99338397728E+02 -0.91411158978E+00 -0.47517443221E+03  0.48547068283E+03  0.47000000000E+01 0.  1.
<mgrwt>
<rscale>  0 0.10000717E+04</rscale>
<asrwt>0</asrwt>
<pdfrwt beam="1">  1        2 0.37880857E+00 0.10000717E+04</pdfrwt>
<pdfrwt beam="2">  1       -2 0.15622689E-01 0.10000717E+04</pdfrwt>
<totfact> 0.13709897E+02</totfact>
</mgrwt>
</event>
<event>
 9    1  0.4342579E-036  0.1000079E+04  0.7818608E-02  0.8680963E-01
         -2   -1    0    0    0  501 -0.00000000000E+00  0.00000000000E+00  0.27783567112E+03  0.27783567112E+03  0.00000000000E+00 0.  1.
          2   -1    0    0  501    0  0.00000000000E+00 -0.00000000000E+00 -0.89995400196E+03  0.89995400196E+03  0.00000000000E+00 0.  1.
         36    2    1    2    0    0  0.14210854715E-13  0.14210854715E-13 -0.62211833084E+03  0.11777896731E+04  0.10000786451E+04 0.  0.
         25    2    3    3    0    0  0.59637949529E+02  0.11689941544E+03 -0.67809425709E+02  0.19368805615E+03  0.12527883510E+03 0.  0.
         35    2    3    3    0    0 -0.59637949529E+02 -0.11689941544E+03 -0.55430890513E+03  0.98410161694E+03  0.80248082332E+03 0.  0.
         22    1    5    5    0    0 -0.15533686162E+03 -0.28007616081E+03  0.73345278584E+02  0.32856008024E+03  0.00000000000E+00 0. -1.
         22    1    5    5    0    0  0.95698912094E+02  0.16317674537E+03 -0.62765418371E+03  0.65554153670E+03  0.00000000000E+00 0. -1.
          5    1    4    4  502    0  0.27906832378E+02  0.13153169964E+03 -0.22713344551E+02  0.13644546648E+03  0.47000000000E+01 0. -1.
         -5    1    4    4    0  502  0.31731117151E+02 -0.14632284191E+02 -0.45096081159E+02  0.57242589670E+02  0.47000000000E+01 0. -1.
<mgrwt>
<rscale>  0 0.10000786E+04</rscale>
<asrwt>0</asrwt>
<pdfrwt beam="1">  1        2 0.13845446E+00 0.10000786E+04</pdfrwt>
<pdfrwt beam="2">  1       -2 0.42743949E-01 0.10000786E+04</pdfrwt>
<totfact> 0.18407449E+02</totfact>
</mgrwt>
</event>
<event>
 9    1  0.4342579E-036  0.1000008E+04  0.7818608E-02  0.8681031E-01
         -1   -1    0    0    0  501 -0.00000000000E+00  0.00000000000E+00  0.28145327894E+03  0.28145327894E+03  0.00000000000E+00 0.  1.
          1   -1    0    0  501    0  0.00000000000E+00 -0.00000000000E+00 -0.88826063175E+03  0.88826063175E+03  0.00000000000E+00 0.  1.
         36    2    1    2    0    0 -0.14210854715E-13 -0.35527136788E-13 -0.60680735281E+03  0.11697139107E+04  0.10000077347E+04 0.  0.
         25    2    3    3    0    0  0.11753984937E+03  0.23696791836E+02 -0.31027008488E+02  0.17580515979E+03  0.12477028822E+03 0.  0.
         35    2    3    3    0    0 -0.11753984937E+03 -0.23696791836E+02 -0.57578034432E+03  0.99390875089E+03  0.80122059763E+03 0.  0.
         22    1    5    5    0    0 -0.10305204882E+03  0.37985396590E+03 -0.19650883275E+03  0.43991417518E+03  0.00000000000E+00 0. -1.
         22    1    5    5    0    0 -0.14487800545E+02 -0.40355075773E+03 -0.37927151156E+03  0.55399457571E+03  0.00000000000E+00 0. -1.
          5    1    4    4  502    0  0.45756554518E+02  0.40203497264E+02  0.40283512489E+02  0.73176737096E+02  0.47000000000E+01 0. -1.
         -5    1    4    4    0  502  0.71783294847E+02 -0.16506705428E+02 -0.71310520978E+02  0.10262842270E+03  0.47000000000E+01 0. -1.
<mgrwt>
<rscale>  0 0.10000077E+04</rscale>
<asrwt>0</asrwt>
<pdfrwt beam="1">  1        1 0.13665548E+00 0.10000077E+04</pdfrwt>
<pdfrwt beam="2">  1       -1 0.43300504E-01 0.10000077E+04</pdfrwt>
<totfact> 0.11060168E+02</totfact>
</mgrwt>
</event>
<event>
 9    1  0.4342579E-036  0.9961594E+03  0.7818608E-02  0.8684704E-01
          1   -1    0    0  501    0  0.00000000000E+00  0.00000000000E+00  0.58520776749E+03  0.58520776749E+03  0.00000000000E+00 0. -1.
         -1   -1    0    0    0  501 -0.00000000000E+00 -0.00000000000E+00 -0.42392359443E+03  0.42392359443E+03  0.00000000000E+00 0. -1.
         36    2    1    2    0    0  0.00000000000E+00 -0.71054273576E-14  0.16128417307E+03  0.10091313619E+04  0.99615938540E+03 0.  0.
         25    2    3    3    0    0  0.13330214644E+03  0.17232068394E+02  0.14712917071E+02  0.18376339985E+03  0.12444320298E+03 0.  0.
         35    2    3    3    0    0 -0.13330214644E+03 -0.17232068394E+02  0.14657125600E+03  0.82536796207E+03  0.80105101791E+03 0.  0.
         22    1    5    5    0    0  0.48530277855E+02 -0.24690438253E+03 -0.23501274497E+03  0.34430793235E+03  0.00000000000E+00 0. -1.
         22    1    5    5    0    0 -0.18183242430E+03  0.22967231413E+03  0.38158400096E+03  0.48106002972E+03  0.00000000000E+00 0. -1.
          5    1    4    4  502    0  0.52949047368E+02  0.25643460144E+02 -0.52171690659E+02  0.78772863167E+02  0.47000000000E+01 0.  1.
         -5    1    4    4    0  502  0.80353099073E+02 -0.84113917506E+01  0.66884607730E+02  0.10499053668E+03  0.47000000000E+01 0.  1.
<mgrwt>
<rscale>  0 0.99615939E+03</rscale>
<asrwt>0</asrwt>
<pdfrwt beam="1">  1        1 0.90031965E-01 0.99615939E+03</pdfrwt>
<pdfrwt beam="2">  1       -1 0.65219014E-01 0.99615939E+03</pdfrwt>
<totfact> 0.98668983E+01</totfact>
</mgrwt>
</event>
<event>
 9    1  0.4342579E-036  0.9996946E+03  0.7818608E-02  0.8681329E-01
         -2   -1    0    0    0  501 -0.00000000000E+00  0.00000000000E+00  0.12696500791E+03  0.12696500791E+03  0.00000000000E+00 0. -1.
          2   -1    0    0  501    0  0.00000000000E+00 -0.00000000000E+00 -0.19678439735E+04  0.19678439735E+04  0.00000000000E+00 0. -1.
         36    2    1    2    0    0 -0.14210854715E-13  0.28421709430E-13 -0.18408789656E+04  0.20948089814E+04  0.99969460470E+03 0.  0.
         25    2    3    3    0    0 -0.10261867719E+03  0.93436065743E+02 -0.31602041711E+03  0.36722002678E+03  0.12538242601E+03 0.  0.
         35    2    3    3    0    0  0.10261867719E+03 -0.93436065743E+02 -0.15248585485E+04  0.17275889546E+04  0.80006819209E+03 0.  0.
         22    1    5    5    0    0  0.11316354609E+03  0.34826092622E+03 -0.77710490946E+03  0.85905977743E+03  0.00000000000E+00 0.  1.
         22    1    5    5    0    0 -0.10544868899E+02 -0.44169699196E+03 -0.74775363903E+03  0.86852917720E+03  0.00000000000E+00 0.  1.
          5    1    4    4  502    0 -0.23997296050E+02 -0.15391467081E+02 -0.62326082832E+01  0.29558465499E+02  0.47000000000E+01 0.  1.
         -5    1    4    4    0  502 -0.78621381142E+02  0.10882753282E+03 -0.30978780882E+03  0.33766156128E+03  0.47000000000E+01 0.  1.
<mgrwt>
<rscale>  0 0.99969460E+03</rscale>
<asrwt>0</asrwt>
<pdfrwt beam="1">  1        2 0.30274522E+00 0.99969460E+03</pdfrwt>
<pdfrwt beam="2">  1       -2 0.19533079E-01 0.99969460E+03</pdfrwt>
<totfact> 0.18213076E+02</totfact>
</mgrwt>
</event>
<event>
 9    1  0.4342579E-036  0.1000330E+04  0.7818608E-02  0.8680724E-01
         -2   -1    0    0    0  501 -0.00000000000E+00  0.00000000000E+00  0.15091454160E+04  0.15091454160E+04  0.00000000000E+00 0. -1.
          2   -1    0    0  501    0  0.00000000000E+00 -0.00000000000E+00 -0.16576599833E+03  0.16576599833E+03  0.00000000000E+00 0. -1.
         36    2    1    2    0    0  0.00000000000E+00 -0.71054273576E-14  0.13433794177E+04  0.16749114144E+04  0.10003299386E+04 0.  0.
         25    2    3    3    0    0  0.11283519678E+03  0.12130064810E+02  0.39231769559E+03  0.42709323659E+03  0.12496614886E+03 0.  0.
         35    2    3    3    0    0 -0.11283519678E+03 -0.12130064810E+02  0.95106172212E+03  0.12478181778E+04  0.79978302395E+03 0.  0.
         22    1    5    5    0    0 -0.88084679187E+02  0.38863114469E+03  0.38737208625E+03  0.55574293566E+03  0.00000000000E+00 0.  1.
         22    1    5    5    0    0 -0.24750517596E+02 -0.40076120950E+03  0.56368963587E+03  0.69207524212E+03  0.00000000000E+00 0.  1.
          5    1    4    4  502    0  0.81986471888E+02  0.54658338377E+02  0.33488875936E+03  0.34911586425E+03  0.47000000000E+01 0. -1.
         -5    1    4    4    0  502  0.30848724895E+02 -0.42528273567E+02  0.57428936235E+02  0.77977372342E+02  0.47000000000E+01 0. -1.
<mgrwt>
<rscale>  0 0.10003299E+04</rscale>
<asrwt>0</asrwt>
<pdfrwt beam="1">  1        2 0.25502462E-01 0.10003299E+04</pdfrwt>
<pdfrwt beam="2">  1       -2 0.23217621E+00 0.10003299E+04</pdfrwt>
<totfact> 0.19082414E+01</totfact>
</mgrwt>
</event>
<event>
 9    1  0.4342579E-036  0.9997727E+03  0.7818608E-02  0.8681254E-01
          2   -1    0    0  501    0  0.00000000000E+00  0.00000000000E+00  0.16233098505E+04  0.16233098505E+04  0.00000000000E+00 0.  1.
         -2   -1    0    0    0  501 -0.00000000000E+00 -0.00000000000E+00 -0.15393632816E+03  0.15393632816E+03  0.00000000000E+00 0.  1.
         36    2    1    2    0    0  0.42632564146E-13  0.00000000000E+00  0.14693735223E+04  0.17772461786E+04  0.99977268986E+03 0.  0.
         25    2    3    3    0    0 -0.93369482452E+02 -0.56585282734E+02  0.42449612458E+03  0.45751858871E+03  0.13117371976E+03 0.  0.
         35    2    3    3    0    0  0.93369482452E+02  0.56585282734E+02  0.10448773977E+04  0.13197275899E+04  0.79874425246E+03 0.  0.
         22    1    5    5    0    0  0.35278690600E+03  0.15133566220E+03  0.20412041090E+03  0.43477146392E+03  0.00000000000E+00 0.  1.
         22    1    5    5    0    0 -0.25941742354E+03 -0.94750379462E+02  0.84075698682E+03  0.88495612600E+03  0.00000000000E+00 0.  1.
          5    1    4    4  502    0  0.86680986438E+01 -0.66026422254E+02  0.14023155550E+03  0.15531131166E+03  0.47000000000E+01 0.  1.
         -5    1    4    4    0  502 -0.10203758110E+03  0.94411395204E+01  0.28426456908E+03  0.30220727706E+03  0.47000000000E+01 0.  1.
<mgrwt>
<rscale>  0 0.99977269E+03</rscale>
<asrwt>0</asrwt>
<pdfrwt beam="1">  1        2 0.24973997E+00 0.99977269E+03</pdfrwt>
<pdfrwt beam="2">  1       -2 0.23682513E-01 0.99977269E+03</pdfrwt>
<totfact> 0.20374480E+02</totfact>
</mgrwt>
</event>
<event>
 9    1  0.4342579E-036  0.1000607E+04  0.7818608E-02  0.8680460E-01
         -2   -1    0    0    0  501 -0.00000000000E+00  0.00000000000E+00  0.34935992503E+03  0.34935992503E+03  0.00000000000E+00 0.  1.
          2   -1    0    0  501    0  0.00000000000E+00 -0.00000000000E+00 -0.71646325464E+03  0.71646325464E+03  0.00000000000E+00 0.  1.
         36    2    1    2    0    0  0.00000000000E+00 -0.28421709430E-13 -0.36710332961E+03  0.10658231797E+04  0.10006069137E+04 0.  0.
         25    2    3    3    0    0 -0.73675325761E+02 -0.11154879089E+03 -0.20195809466E+02  0.18338350562E+03  0.12389694524E+03 0.  0.
         35    2    3    3    0    0  0.73675325761E+02  0.11154879089E+03 -0.34690752014E+03  0.88243967405E+03  0.80030229566E+03 0.  0.
         22    1    5    5    0    0 -0.30279193185E+03  0.25889567581E+03 -0.23675936114E+03  0.46342736220E+03  0.00000000000E+00 0.  1.
         22    1    5    5    0    0  0.37646725762E+03 -0.14734688492E+03 -0.11014815900E+03  0.41901231185E+03  0.00000000000E+00 0.  1.
          5    1    4    4  502    0 -0.90246093234E+02 -0.12134238828E+03 -0.38813419828E+02  0.15619508345E+03  0.47000000000E+01 0. -1.
         -5    1    4    4    0  502  0.16570767473E+02  0.97935973855E+01  0.18617610362E+02  0.27188422168E+02  0.47000000000E+01 0. -1.
<mgrwt>
<rscale>  0 0.10006069E+04</rscale>
<asrwt>0</asrwt>
<pdfrwt beam="1">  1        2 0.11022512E+00 0.10006069E+04</pdfrwt>
<pdfrwt beam="2">  1       -2 0.53747681E-01 0.10006069E+04</pdfrwt>
<totfact> 0.15701688E+02</totfact>
</mgrwt>
</event>
<event>
 9    1  0.4342579E-036  0.9994410E+03  0.7818608E-02  0.8681570E-01
          2   -1    0    0  501    0  0.00000000000E+00  0.00000000000E+00  0.52955714456E+03  0.52955714456E+03  0.00000000000E+00 0. -1.
         -2   -1    0    0    0  501 -0.00000000000E+00 -0.00000000000E+00 -0.47156490178E+03  0.47156490178E+03  0.00000000000E+00 0. -1.
         36    2    1    2    0    0  0.00000000000E+00  0.00000000000E+00  0.57992242778E+02  0.10011220463E+04  0.99944096947E+03 0.  0.
         25    2    3    3    0    0 -0.10472612367E+03  0.71374516986E+02 -0.44189767978E+02  0.18234057469E+03  0.12342393175E+03 0.  0.
         35    2    3    3    0    0  0.10472612367E+03 -0.71374516986E+02  0.10218201076E+03  0.81878147166E+03  0.80243383051E+03 0.  0.
         22    1    5    5    0    0  0.39038963112E+03 -0.94403459148E+02  0.27254064480E+03  0.48538075802E+03  0.00000000000E+00 0.  1.
         22    1    5    5    0    0 -0.28566350745E+03  0.23028942162E+02 -0.17035863404E+03  0.33340071364E+03  0.00000000000E+00 0.  1.
          5    1    4    4  502    0 -0.11247720029E+03  0.79116378068E+02 -0.10664922342E+01  0.13759996101E+03  0.47000000000E+01 0.  1.
         -5    1    4    4    0  502  0.77510766156E+01 -0.77418610817E+01 -0.43123275743E+02  0.44740613681E+02  0.47000000000E+01 0.  1.
<mgrwt>
<rscale>  0 0.99944097E+03</rscale>
<asrwt>0</asrwt>
<pdfrwt beam="1">  1        2 0.81470330E-01 0.99944097E+03</pdfrwt>
<pdfrwt beam="2">  1       -2 0.72548446E-01 0.99944097E+03</pdfrwt>
<totfact> 0.11962045E+02</totfact>
</mgrwt>
</event>
<event>
 9    1  0.4342579E-036  0.1000454E+04  0.7818608E-02  0.8680606E-01
         -2   -1    0    0    0  501 -0.00000000000E+00  0.00000000000E+00  0.82518580379E+02  0.82518580379E+02  0.00000000000E+00 0. -1.
          2   -1    0    0  501    0  0.00000000000E+00 -0.00000000000E+00 -0.30323729929E+04  0.30323729929E+04  0.00000000000E+00 0. -1.
         36    2    1    2    0    0  0.00000000000E+00  0.28421709430E-13 -0.29498544125E+04  0.31148915733E+04  0.10004541260E+04 0.  0.
         25    2    3    3    0    0 -0.25746008481E+02 -0.13261401293E+03 -0.52202742249E+03  0.55440064613E+03  0.12883366491E+03 0.  0.
         35    2    3    3    0    0  0.25746008481E+02  0.13261401293E+03 -0.24278269900E+04  0.25604909272E+04  0.80219733304E+03 0.  0.
         22    1    5    5    0    0  0.41670260747E+02  0.40281496548E+03 -0.20836203906E+04  0.21226092997E+04  0.00000000000E+00 0. -1.
         22    1    5    5    0    0 -0.15924252266E+02 -0.27020095255E+03 -0.34420659943E+03  0.43788162746E+03  0.00000000000E+00 0. -1.
          5    1    4    4  502    0 -0.46190345848E+02 -0.91112376976E+02 -0.48295561421E+03  0.49366307193E+03  0.47000000000E+01 0. -1.
         -5    1    4    4    0  502  0.20444337367E+02 -0.41501635957E+02 -0.39071808285E+02  0.60737574204E+02  0.47000000000E+01 0. -1.
<mgrwt>
<rscale>  0 0.10004541E+04</rscale>
<asrwt>0</asrwt>
<pdfrwt beam="1">  1        2 0.46651889E+00 0.10004541E+04</pdfrwt>
<pdfrwt beam="2">  1       -2 0.12695167E-01 0.10004541E+04</pdfrwt>
<totfact> 0.84032729E+01</totfact>
</mgrwt>
</event>
<event>
 9    1  0.4342579E-036  0.9963623E+03  0.7818608E-02  0.8684510E-01
         -1   -1    0    0    0  501 -0.00000000000E+00  0.00000000000E+00  0.59626193540E+03  0.59626193540E+03  0.00000000000E+00 0. -1.
          1   -1    0    0  501    0  0.00000000000E+00 -0.00000000000E+00 -0.41623391323E+03  0.41623391323E+03  0.00000000000E+00 0. -1.
         36    2    1    2    0    0  0.00000000000E+00  0.00000000000E+00  0.18002802218E+03  0.10124958486E+04  0.99636226079E+03 0.  0.
         25    2    3    3    0    0 -0.13145829127E+03 -0.29829687078E+02  0.11866151659E+02  0.18403565378E+03  0.12472860030E+03 0.  0.
         35    2    3    3    0    0  0.13145829127E+03  0.29829687078E+02  0.16816187052E+03  0.82846019485E+03  0.79993548938E+03 0.  0.
         22    1    5    5    0    0  0.30086696228E+03  0.99325104443E+02 -0.22912618308E+03  0.39100538761E+03  0.00000000000E+00 0. -1.
         22    1    5    5    0    0 -0.16940867100E+03 -0.69495417364E+02  0.39728805360E+03  0.43745480724E+03  0.00000000000E+00 0. -1.
          5    1    4    4  502    0 -0.11205458865E+03 -0.74117776269E+02  0.19048235648E+01  0.13444476171E+03  0.47000000000E+01 0. -1.
         -5    1    4    4    0  502 -0.19403702621E+02  0.44288089191E+02  0.99613280945E+01  0.49590892077E+02  0.47000000000E+01 0. -1.
<mgrwt>
<rscale>  0 0.99636226E+03</rscale>
<asrwt>0</asrwt>
<pdfrwt beam="1">  1        1 0.64035987E-01 0.99636226E+03</pdfrwt>
<pdfrwt beam="2">  1       -1 0.91732605E-01 0.99636226E+03</pdfrwt>
<totfact> 0.78531506E+01</totfact>
</mgrwt>
</event>
<event>
 9    1  0.4342579E-036  0.1000520E+04  0.7818608E-02  0.8680543E-01
         -1   -1    0    0    0  501 -0.00000000000E+00  0.00000000000E+00  0.67536030262E+02  0.67536030262E+02  0.00000000000E+00 0. -1.
          1   -1    0    0  501    0  0.00000000000E+00 -0.00000000000E+00 -0.37055789277E+04  0.37055789277E+04  0.00000000000E+00 0. -1.
         36    2    1    2    0    0  0.28421709430E-13  0.00000000000E+00 -0.36380428974E+04  0.37731149579E+04  0.10005200460E+04 0.  0.
         25    2    3    3    0    0 -0.13704982298E+03  0.18585846956E+02 -0.78420405073E+03  0.80602824088E+03  0.12480963199E+03 0.  0.
         35    2    3    3    0    0  0.13704982298E+03 -0.18585846956E+02 -0.28538388467E+04  0.29670867170E+04  0.80004958344E+03 0.  0.
         22    1    5    5    0    0 -0.26042311426E+03  0.22495305049E+03 -0.11197888339E+04  0.11714739032E+04  0.00000000000E+00 0.  1.
         22    1    5    5    0    0  0.39747293724E+03 -0.24353889744E+03 -0.17340500128E+04  0.17956128139E+04  0.00000000000E+00 0.  1.
          5    1    4    4  502    0 -0.80071939742E+02  0.33198181071E+02 -0.18988695387E+03  0.20878884072E+03  0.47000000000E+01 0.  1.
         -5    1    4    4    0  502 -0.56977883240E+02 -0.14612334115E+02 -0.59431709686E+03  0.59723940016E+03  0.47000000000E+01 0.  1.
<mgrwt>
<rscale>  0 0.10005200E+04</rscale>
<asrwt>0</asrwt>
<pdfrwt beam="1">  1        1 0.57008926E+00 0.10005200E+04</pdfrwt>
<pdfrwt beam="2">  1       -1 0.10390155E-01 0.10005200E+04</pdfrwt>
<totfact> 0.10903192E+01</totfact>
</mgrwt>
</event>
<event>
 9    1  0.4342579E-036  0.9996910E+03  0.7818608E-02  0.8681332E-01
         -2   -1    0    0    0  501 -0.00000000000E+00  0.00000000000E+00  0.15281848670E+03  0.15281848670E+03  0.00000000000E+00 0.  1.
          2   -1    0    0  501    0  0.00000000000E+00 -0.00000000000E+00 -0.16349169554E+04  0.16349169554E+04  0.00000000000E+00 0.  1.
         36    2    1    2    0    0 -0.28421709430E-13  0.24868995752E-13 -0.14820984687E+04  0.17877354421E+04  0.99969102226E+03 0.  0.
         25    2    3    3    0    0 -0.93268745793E+02 -0.18235659588E+02 -0.93751243375E+02  0.18257383530E+03  0.12454843026E+03 0.  0.
         35    2    3    3    0    0  0.93268745793E+02  0.18235659588E+02 -0.13883472253E+04  0.16051616068E+04  0.80000260475E+03 0.  0.
         22    1    5    5    0    0 -0.18977179902E+03  0.16182858611E+03 -0.12212964113E+04  0.12465018055E+04  0.00000000000E+00 0. -1.
         22    1    5    5    0    0  0.28304054481E+03 -0.14359292653E+03 -0.16705081402E+03  0.35865980123E+03  0.00000000000E+00 0. -1.
          5    1    4    4  502    0  0.80489319673E+01  0.21614477999E+02  0.15564689164E+02  0.28219151542E+02  0.47000000000E+01 0. -1.
         -5    1    4    4    0  502 -0.10131767776E+03 -0.39850137587E+02 -0.10931593254E+03  0.15435468376E+03  0.47000000000E+01 0. -1.
<mgrwt>
<rscale>  0 0.99969102E+03</rscale>
<asrwt>0</asrwt>
<pdfrwt beam="1">  1        2 0.25152571E+00 0.99969102E+03</pdfrwt>
<pdfrwt beam="2">  1       -2 0.23510534E-01 0.99969102E+03</pdfrwt>
<totfact> 0.20329273E+02</totfact>
</mgrwt>
</event>
<event>
 9    1  0.4342579E-036  0.1000444E+04  0.7818608E-02  0.8680615E-01
          2   -1    0    0  501    0  0.00000000000E+00  0.00000000000E+00  0.15643505761E+04  0.15643505761E+04  0.00000000000E+00 0. -1.
         -2   -1    0    0    0  501 -0.00000000000E+00 -0.00000000000E+00 -0.15995263918E+03  0.15995263918E+03  0.00000000000E+00 0. -1.
         36    2    1    2    0    0  0.00000000000E+00  0.00000000000E+00  0.14043979369E+04  0.17243032153E+04  0.10004439080E+04 0.  0.
         25    2    3    3    0    0  0.48111050745E+02  0.11269515219E+03  0.14588367132E+03  0.22782618136E+03  0.12493139248E+03 0.  0.
         35    2    3    3    0    0 -0.48111050745E+02 -0.11269515219E+03  0.12585142656E+04  0.14964770339E+04  0.80035647420E+03 0.  0.
         22    1    5    5    0    0 -0.20114622418E+03 -0.32029336048E+03  0.11604918597E+04  0.12205691282E+04  0.00000000000E+00 0. -1.
         22    1    5    5    0    0  0.15303517343E+03  0.20759820829E+03  0.98022405934E+02  0.27590790576E+03  0.00000000000E+00 0. -1.
          5    1    4    4  502    0  0.84303311486E+02  0.45272001113E+02  0.61654259116E+02  0.11392953998E+03  0.47000000000E+01 0.  1.
         -5    1    4    4    0  502 -0.36192260741E+02  0.67423151073E+02  0.84229412208E+02  0.11389664139E+03  0.47000000000E+01 0.  1.
<mgrwt>
<rscale>  0 0.10004439E+04</rscale>
<asrwt>0</asrwt>
<pdfrwt beam="1">  1        2 0.24066931E+00 0.10004439E+04</pdfrwt>
<pdfrwt beam="2">  1       -2 0.24608099E-01 0.10004439E+04</pdfrwt>
<totfact> 0.20554770E+02</totfact>
</mgrwt>
</event>
<event>
 9    1  0.4342579E-036  0.9987967E+03  0.7818608E-02  0.8682185E-01
         -1   -1    0    0    0  501 -0.00000000000E+00  0.00000000000E+00  0.22142870387E+04  0.22142870387E+04  0.00000000000E+00 0.  1.
          1   -1    0    0  501    0  0.00000000000E+00 -0.00000000000E+00 -0.11263161107E+03  0.11263161107E+03  0.00000000000E+00 0.  1.
         36    2    1    2    0    0 -0.14210854715E-13  0.14210854715E-13  0.21016554276E+04  0.23269186498E+04  0.99879670911E+03 0.  0.
         25    2    3    3    0    0  0.64763875296E+02  0.70747312002E+02  0.63284220511E+03  0.65182827058E+03  0.12325297588E+03 0.  0.
         35    2    3    3    0    0 -0.64763875296E+02 -0.70747312002E+02  0.14688132225E+04  0.16750903792E+04  0.79957235699E+03 0.  0.
         22    1    5    5    0    0 -0.17742974522E+03  0.20270532509E+03  0.13138802335E+04  0.13412128955E+04  0.00000000000E+00 0. -1.
         22    1    5    5    0    0  0.11266586992E+03 -0.27345263709E+03  0.15493298906E+03  0.33387748363E+03  0.00000000000E+00 0. -1.
          5    1    4    4  502    0  0.88261392446E+02  0.86442305991E+02  0.56151488871E+03  0.57496383008E+03  0.47000000000E+01 0. -1.
         -5    1    4    4    0  502 -0.23497517150E+02 -0.15694993989E+02  0.71327316401E+02  0.76864440501E+02  0.47000000000E+01 0. -1.
<mgrwt>
<rscale>  0 0.99879671E+03</rscale>
<asrwt>0</asrwt>
<pdfrwt beam="1">  1        1 0.17327942E-01 0.99879671E+03</pdfrwt>
<pdfrwt beam="2">  1       -1 0.34065951E+00 0.99879671E+03</pdfrwt>
<totfact> 0.77961800E-01</totfact>
</mgrwt>
</event>
<event>
 9    1  0.4342579E-036  0.9999907E+03  0.7818608E-02  0.8681047E-01
         -1   -1    0    0    0  501 -0.00000000000E+00  0.00000000000E+00  0.12168295458E+04  0.12168295458E+04  0.00000000000E+00 0. -1.
          1   -1    0    0  501    0  0.00000000000E+00 -0.00000000000E+00 -0.20544813976E+03  0.20544813976E+03  0.00000000000E+00 0. -1.
         36    2    1    2    0    0  0.00000000000E+00  0.42632564146E-13  0.10113814060E+04  0.14222776855E+04  0.99999073313E+03 0.  0.
         25    2    3    3    0    0 -0.41383958991E+02 -0.32372211312E+02  0.39035990881E+03  0.41310646641E+03  0.12456123819E+03 0.  0.
         35    2    3    3    0    0  0.41383958991E+02  0.32372211312E+02  0.62102149719E+03  0.10091712191E+04  0.79372429558E+03 0.  0.
         22    1    5    5    0    0 -0.15706196392E+03  0.31973775774E+03  0.54606946704E+03  0.65199122469E+03  0.00000000000E+00 0.  1.
         22    1    5    5    0    0  0.19844592292E+03 -0.28736554643E+03  0.74952030151E+02  0.35717999443E+03  0.00000000000E+00 0.  1.
          5    1    4    4  502    0 -0.76971856491E+02 -0.11668234205E+02  0.14863182463E+03  0.16785208868E+03  0.47000000000E+01 0. -1.
         -5    1    4    4    0  502  0.35587897500E+02 -0.20703977107E+02  0.24172808417E+03  0.24525437773E+03  0.47000000000E+01 0. -1.
<mgrwt>
<rscale>  0 0.99999073E+03</rscale>
<asrwt>0</asrwt>
<pdfrwt beam="1">  1        1 0.31607407E-01 0.99999073E+03</pdfrwt>
<pdfrwt beam="2">  1       -1 0.18720454E+00 0.99999073E+03</pdfrwt>
<totfact> 0.28693969E+01</totfact>
</mgrwt>
</event>
<event>
 9    1  0.4342579E-036  0.1000062E+04  0.7818608E-02  0.8680979E-01
          1   -1    0    0  501    0  0.00000000000E+00  0.00000000000E+00  0.49496737227E+03  0.49496737227E+03  0.00000000000E+00 0. -1.
         -1   -1    0    0    0  501 -0.00000000000E+00 -0.00000000000E+00 -0.50514655693E+03  0.50514655693E+03  0.00000000000E+00 0. -1.
         36    2    1    2    0    0  0.71054273576E-14  0.14210854715E-13 -0.10179184664E+02  0.10001139292E+04  0.10000621259E+04 0.  0.
         25    2    3    3    0    0 -0.55069580337E+02  0.93129231127E+02 -0.90346480701E+02  0.18865306512E+03  0.12538652255E+03 0.  0.
         35    2    3    3    0    0  0.55069580337E+02 -0.93129231127E+02  0.80167296038E+02  0.81146086408E+03  0.80021011379E+03 0.  0.
         22    1    5    5    0    0  0.65844868406E+01 -0.43594252653E+03  0.14449100269E+03  0.45931132335E+03  0.00000000000E+00 0. -1.
         22    1    5    5    0    0  0.48485093496E+02  0.34281329540E+03 -0.64323706654E+02  0.35214954072E+03  0.00000000000E+00 0. -1.
          5    1    4    4  502    0 -0.29368997498E+02  0.63484906712E+02  0.18791863238E+02  0.72581647255E+02  0.47000000000E+01 0.  1.
         -5    1    4    4    0  502 -0.25700582839E+02  0.29644324415E+02 -0.10913834394E+03  0.11607141787E+03  0.47000000000E+01 0.  1.
<mgrwt>
<rscale>  0 0.10000621E+04</rscale>
<asrwt>0</asrwt>
<pdfrwt beam="1">  1        1 0.76148827E-01 0.10000621E+04</pdfrwt>
<pdfrwt beam="2">  1       -1 0.77714855E-01 0.10000621E+04</pdfrwt>
<totfact> 0.88062481E+01</totfact>
</mgrwt>
</event>
<event>
 9    1  0.4342579E-036  0.9997668E+03  0.7818608E-02  0.8681260E-01
         -1   -1    0    0    0  501 -0.00000000000E+00  0.00000000000E+00  0.10778159524E+03  0.10778159524E+03  0.00000000000E+00 0.  1.
          1   -1    0    0  501    0  0.00000000000E+00 -0.00000000000E+00 -0.23184238203E+04  0.23184238203E+04  0.00000000000E+00 0.  1.
         36    2    1    2    0    0  0.00000000000E+00  0.00000000000E+00 -0.22106422251E+04  0.24262054156E+04  0.99976680842E+03 0.  0.
         25    2    3    3    0    0 -0.28230491010E+02 -0.11519786122E+03 -0.59419517642E+03  0.61855826224E+03  0.12441426068E+03 0.  0.
         35    2    3    3    0    0  0.28230491010E+02  0.11519786122E+03 -0.16164470487E+04  0.18076471533E+04  0.80038719500E+03 0.  0.
         22    1    5    5    0    0  0.43264460703E+02  0.26235416729E+03 -0.16368662145E+04  0.16583222023E+04  0.00000000000E+00 0. -1.
         22    1    5    5    0    0 -0.15033969693E+02 -0.14715630607E+03  0.20419165797E+02  0.14932495100E+03  0.00000000000E+00 0. -1.
          5    1    4    4  502    0 -0.48895509741E+02 -0.10632043661E+03 -0.57965168101E+03  0.59136534174E+03  0.47000000000E+01 0. -1.
         -5    1    4    4    0  502  0.20665018731E+02 -0.88774246150E+01 -0.14543495409E+02  0.27192920506E+02  0.47000000000E+01 0. -1.
<mgrwt>
<rscale>  0 0.99976681E+03</rscale>
<asrwt>0</asrwt>
<pdfrwt beam="1">  1        1 0.35668056E+00 0.99976681E+03</pdfrwt>
<pdfrwt beam="2">  1       -1 0.16581785E-01 0.99976681E+03</pdfrwt>
<totfact> 0.51772450E+01</totfact>
</mgrwt>
</event>
<event>
 9    1  0.4342579E-036  0.9995027E+03  0.7818608E-02  0.8681512E-01
         -1   -1    0    0    0  501 -0.00000000000E+00  0.00000000000E+00  0.46964827308E+03  0.46964827308E+03  0.00000000000E+00 0.  1.
          1   -1    0    0  501    0  0.00000000000E+00 -0.00000000000E+00 -0.53178391350E+03  0.53178391350E+03  0.00000000000E+00 0.  1.
         36    2    1    2    0    0  0.00000000000E+00  0.00000000000E+00 -0.62135640418E+02  0.10014321866E+04  0.99950266959E+03 0.  0.
         25    2    3    3    0    0  0.48199487874E+02 -0.90923720474E+02 -0.10526324043E+03  0.19337045824E+03  0.12538528924E+03 0.  0.
         35    2    3    3    0    0 -0.48199487874E+02  0.90923720474E+02  0.43127600010E+02  0.80806172834E+03  0.80032084401E+03 0.  0.
         22    1    5    5    0    0  0.18171352840E+01 -0.34034409387E+03 -0.93418941285E+02  0.35293696718E+03  0.00000000000E+00 0.  1.
         22    1    5    5    0    0 -0.50016623158E+02  0.43126781434E+03  0.13654654130E+03  0.45512476116E+03  0.00000000000E+00 0.  1.
          5    1    4    4  502    0 -0.27271320955E+02  0.11663150751E+02 -0.34053120767E+01  0.30223172937E+02  0.47000000000E+01 0. -1.
         -5    1    4    4    0  502  0.75470808829E+02 -0.10258687122E+03 -0.10185792835E+03  0.16314728530E+03  0.47000000000E+01 0. -1.
<mgrwt>
<rscale>  0 0.99950267E+03</rscale>
<asrwt>0</asrwt>
<pdfrwt beam="1">  1        1 0.81812910E-01 0.99950267E+03</pdfrwt>
<pdfrwt beam="2">  1       -1 0.72253581E-01 0.99950267E+03</pdfrwt>
<totfact> 0.92374392E+01</totfact>
</mgrwt>
</event>
<event>
 9    1  0.4342579E-036  0.9996656E+03  0.7818608E-02  0.8681356E-01
         -2   -1    0    0    0  501 -0.00000000000E+00  0.00000000000E+00  0.25432884498E+03  0.25432884498E+03  0.00000000000E+00 0. -1.
          2   -1    0    0  501    0  0.00000000000E+00 -0.00000000000E+00 -0.98232203120E+03  0.98232203120E+03  0.00000000000E+00 0. -1.
         36    2    1    2    0    0  0.00000000000E+00  0.71054273576E-14 -0.72799318622E+03  0.12366508762E+04  0.99966559927E+03 0.  0.
         25    2    3    3    0    0  0.13106008737E+03 -0.30505361179E+02 -0.18475620850E+03  0.26070344280E+03  0.12539579318E+03 0.  0.
         35    2    3    3    0    0 -0.13106008737E+03  0.30505361179E+02 -0.54323697772E+03  0.97594743337E+03  0.79953715060E+03 0.  0.
         22    1    5    5    0    0 -0.26950358488E+02  0.16664750093E+02 -0.74649057077E+03  0.74716277207E+03  0.00000000000E+00 0. -1.
         22    1    5    5    0    0 -0.10410972889E+03  0.13840611086E+02  0.20325359305E+03  0.22878466131E+03  0.00000000000E+00 0. -1.
          5    1    4    4  502    0  0.89946028977E+02  0.37297814066E+02 -0.13657917395E+03  0.16780159659E+03  0.47000000000E+01 0. -1.
         -5    1    4    4    0  502  0.41114058397E+02 -0.67803175246E+02 -0.48177034552E+02  0.92901846211E+02  0.47000000000E+01 0. -1.
<mgrwt>
<rscale>  0 0.99966560E+03</rscale>
<asrwt>0</asrwt>
<pdfrwt beam="1">  1        2 0.15112646E+00 0.99966560E+03</pdfrwt>
<pdfrwt beam="2">  1       -2 0.39127516E-01 0.99966560E+03</pdfrwt>
<totfact> 0.19303933E+02</totfact>
</mgrwt>
</event>
<event>
 9    1  0.4342579E-036  0.1000889E+04  0.7818608E-02  0.8680192E-01
         -4   -1    0    0    0  501 -0.00000000000E+00  0.00000000000E+00  0.22394767066E+03  0.22394767066E+03  0.00000000000E+00 0. -1.
          4   -1    0    0  501    0  0.00000000000E+00 -0.00000000000E+00 -0.11183185716E+04  0.11183185716E+04  0.00000000000E+00 0. -1.
         36    2    1    2    0    0  0.71054273576E-14  0.00000000000E+00 -0.89437090092E+03  0.13422662422E+04  0.10008892829E+04 0.  0.
         25    2    3    3    0    0 -0.14408854952E+02  0.82945129141E+02 -0.22780094399E+02  0.15343660387E+03  0.12623925363E+03 0.  0.
         35    2    3    3    0    0  0.14408854952E+02 -0.82945129141E+02 -0.87159080652E+03  0.11888296384E+04  0.80408821998E+03 0.  0.
         22    1    5    5    0    0 -0.18926378265E+03  0.15318105908E+03  0.19975956703E+02  0.24430361260E+03  0.00000000000E+00 0. -1.
         22    1    5    5    0    0  0.20367263760E+03 -0.23612618822E+03 -0.89156676322E+03  0.94452602577E+03  0.00000000000E+00 0. -1.
          5    1    4    4  502    0  0.41564497524E+02 -0.16815503862E+01  0.15855413549E+02  0.44765156148E+02  0.47000000000E+01 0. -1.
         -5    1    4    4    0  502 -0.55973352476E+02  0.84626679528E+02 -0.38635507948E+02  0.10867144772E+03  0.47000000000E+01 0. -1.
<mgrwt>
<rscale>  0 0.10008893E+04</rscale>
<asrwt>0</asrwt>
<pdfrwt beam="1">  1        4 0.17204901E+00 0.10008893E+04</pdfrwt>
<pdfrwt beam="2">  1       -4 0.34453488E-01 0.10008893E+04</pdfrwt>
<totfact> 0.31670999E+00</totfact>
</mgrwt>
</event>
<event>
 9    1  0.4342579E-036  0.1001883E+04  0.7818608E-02  0.8679247E-01
         -2   -1    0    0    0  501 -0.00000000000E+00  0.00000000000E+00  0.49219854030E+03  0.49219854030E+03  0.00000000000E+00 0.  1.
          2   -1    0    0  501    0  0.00000000000E+00 -0.00000000000E+00 -0.50983951890E+03  0.50983951890E+03  0.00000000000E+00 0.  1.
         36    2    1    2    0    0  0.14210854715E-13  0.00000000000E+00 -0.17640978603E+02  0.10020380592E+04  0.10018827616E+04 0.  0.
         25    2    3    3    0    0  0.10461943893E+03 -0.39782383038E+02 -0.94750603324E+02  0.19255755735E+03  0.12479131005E+03 0.  0.
         35    2    3    3    0    0 -0.10461943893E+03  0.39782383038E+02  0.77109624721E+02  0.80948050185E+03  0.79798804731E+03 0.  0.
         22    1    5    5    0    0  0.25358374145E+03  0.42239375704E+02  0.29414137969E+03  0.39065077760E+03  0.00000000000E+00 0. -1.
         22    1    5    5    0    0 -0.35820318038E+03 -0.24569926658E+01 -0.21703175497E+03  0.41882972425E+03  0.00000000000E+00 0. -1.
          5    1    4    4  502    0 -0.17755929074E+02  0.34328230327E+01  0.13856250114E+02  0.23262479629E+02  0.47000000000E+01 0.  1.
         -5    1    4    4    0  502  0.12237536800E+03 -0.43215206071E+02 -0.10860685344E+03  0.16929507773E+03  0.47000000000E+01 0.  1.
<mgrwt>
<rscale>  0 0.10018828E+04</rscale>
<asrwt>0</asrwt>
<pdfrwt beam="1">  1        2 0.78436849E-01 0.10018828E+04</pdfrwt>
<pdfrwt beam="2">  1       -2 0.75722853E-01 0.10018828E+04</pdfrwt>
<totfact> 0.11363785E+02</totfact>
</mgrwt>
</event>
<event>
 9    1  0.4342579E-036  0.9986596E+03  0.7818608E-02  0.8682315E-01
          2   -1    0    0  501    0  0.00000000000E+00  0.00000000000E+00  0.11011574314E+04  0.11011574314E+04  0.00000000000E+00 0.  1.
         -2   -1    0    0    0  501 -0.00000000000E+00 -0.00000000000E+00 -0.22642562492E+03  0.22642562492E+03  0.00000000000E+00 0.  1.
         36    2    1    2    0    0  0.14210854715E-13 -0.28421709430E-13  0.87473180645E+03  0.13275830563E+04  0.99865962076E+03 0.  0.
         25    2    3    3    0    0 -0.10809827745E+03  0.81747540204E+02  0.12483778512E+03  0.22282167289E+03  0.12528817742E+03 0.  0.
         35    2    3    3    0    0  0.10809827745E+03 -0.81747540204E+02  0.74989402133E+03  0.11047613834E+04  0.79986797230E+03 0.  0.
         22    1    5    5    0    0 -0.13771846092E+03 -0.17587851541E+03 -0.77548238615E+02  0.23646005154E+03  0.00000000000E+00 0.  1.
         22    1    5    5    0    0  0.24581673837E+03  0.94130975210E+02  0.82744225995E+03  0.86830133185E+03  0.00000000000E+00 0.  1.
          5    1    4    4  502    0 -0.67401809554E+02 -0.18432946561E+02  0.78174867823E+02  0.10495797925E+03  0.47000000000E+01 0. -1.
         -5    1    4    4    0  502 -0.40696467894E+02  0.10018048677E+03  0.46662917300E+02  0.11786369364E+03  0.47000000000E+01 0. -1.
<mgrwt>
<rscale>  0 0.99865962E+03</rscale>
<asrwt>0</asrwt>
<pdfrwt beam="1">  1        2 0.16940883E+00 0.99865962E+03</pdfrwt>
<pdfrwt beam="2">  1       -2 0.34834712E-01 0.99865962E+03</pdfrwt>
<totfact> 0.20287734E+02</totfact>
</mgrwt>
</event>
<event>
 9    1  0.4342579E-036  0.9995985E+03  0.7818608E-02  0.8681420E-01
          2   -1    0    0  501    0  0.00000000000E+00  0.00000000000E+00  0.72418220285E+03  0.72418220285E+03  0.00000000000E+00 0. -1.
         -2   -1    0    0    0  501 -0.00000000000E+00 -0.00000000000E+00 -0.34493981287E+03  0.34493981287E+03  0.00000000000E+00 0. -1.
         36    2    1    2    0    0  0.00000000000E+00  0.28421709430E-13  0.37924238998E+03  0.10691220157E+04  0.99959846645E+03 0.  0.
         25    2    3    3    0    0 -0.97442582010E+02  0.38207975644E+02 -0.27308998812E+02  0.16543541822E+03  0.12517264075E+03 0.  0.
         35    2    3    3    0    0  0.97442582010E+02 -0.38207975644E+02  0.40655138879E+03  0.90368659750E+03  0.80025653923E+03 0.  0.
         22    1    5    5    0    0  0.34551706038E+03  0.25021613777E+03  0.21915872970E+03  0.47960473665E+03  0.00000000000E+00 0.  1.
         22    1    5    5    0    0 -0.24807447837E+03 -0.28842411341E+03  0.18739265909E+03  0.42408186084E+03  0.00000000000E+00 0.  1.
          5    1    4    4  502    0 -0.75509034713E+02  0.81841908217E+02 -0.32511530932E+02  0.11609824248E+03  0.47000000000E+01 0.  1.
         -5    1    4    4    0  502 -0.21933547297E+02 -0.43633932573E+02  0.52025321205E+01  0.49337175733E+02  0.47000000000E+01 0.  1.
<mgrwt>
<rscale>  0 0.99959847E+03</rscale>
<asrwt>0</asrwt>
<pdfrwt beam="1">  1        2 0.11141265E+00 0.99959847E+03</pdfrwt>
<pdfrwt beam="2">  1       -2 0.53067664E-01 0.99959847E+03</pdfrwt>
<totfact> 0.15900790E+02</totfact>
</mgrwt>
</event>
<event>
 9    1  0.4342579E-036  0.9988632E+03  0.7818608E-02  0.8682121E-01
         -2   -1    0    0    0  501 -0.00000000000E+00  0.00000000000E+00  0.21109301476E+03  0.21109301476E+03  0.00000000000E+00 0.  1.
          2   -1    0    0  501    0  0.00000000000E+00 -0.00000000000E+00 -0.11816208398E+04  0.11816208398E+04  0.00000000000E+00 0.  1.
         36    2    1    2    0    0  0.14210854715E-13  0.28421709430E-13 -0.97052782505E+03  0.13927138546E+04  0.99886316456E+03 0.  0.
         25    2    3    3    0    0 -0.88172849834E+02 -0.85943428202E+02 -0.10188090867E+03  0.20536018514E+03  0.12896651422E+03 0.  0.
         35    2    3    3    0    0  0.88172849834E+02  0.85943428202E+02 -0.86864691637E+03  0.11873536694E+04  0.80006283920E+03 0.  0.
         22    1    5    5    0    0 -0.38238027660E+02  0.11161253680E+03  0.13279735362E+03  0.17763626392E+03  0.00000000000E+00 0.  1.
         22    1    5    5    0    0  0.12641087749E+03 -0.25669108599E+02 -0.10014442700E+04  0.10097174055E+04  0.00000000000E+00 0.  1.
          5    1    4    4  502    0 -0.78507369476E+02 -0.12797185265E+02 -0.10446225637E+03  0.13138351502E+03  0.47000000000E+01 0. -1.
         -5    1    4    4    0  502 -0.96654803585E+01 -0.73146242937E+02  0.25813477009E+01  0.73976670122E+02  0.47000000000E+01 0. -1.
<mgrwt>
<rscale>  0 0.99886316E+03</rscale>
<asrwt>0</asrwt>
<pdfrwt beam="1">  1        2 0.18178782E+00 0.99886316E+03</pdfrwt>
<pdfrwt beam="2">  1       -2 0.32475848E-01 0.99886316E+03</pdfrwt>
<totfact> 0.20675274E+02</totfact>
</mgrwt>
</event>
<event>
 9    1  0.4342579E-036  0.1005904E+04  0.7818608E-02  0.8675436E-01
          2   -1    0    0  501    0  0.00000000000E+00  0.00000000000E+00  0.16093812018E+04  0.16093812018E+04  0.00000000000E+00 0.  1.
         -2   -1    0    0    0  501 -0.00000000000E+00 -0.00000000000E+00 -0.15717879297E+03  0.15717879297E+03  0.00000000000E+00 0.  1.
         36    2    1    2    0    0 -0.28421709430E-13 -0.14210854715E-13  0.14522024088E+04  0.17665599947E+04  0.10059037622E+04 0.  0.
         25    2    3    3    0    0  0.11725774226E+03 -0.23790921633E+02  0.42803604360E+03  0.46186307362E+03  0.12564735604E+03 0.  0.
         35    2    3    3    0    0 -0.11725774226E+03  0.23790921633E+02  0.10241663652E+04  0.13046969211E+04  0.79937596055E+03 0.  0.
         22    1    5    5    0    0  0.28942572431E+03 -0.12454638698E+03  0.68762037432E+03  0.75637347361E+03  0.00000000000E+00 0. -1.
         22    1    5    5    0    0 -0.40668346657E+03  0.14833730861E+03  0.33654599086E+03  0.54832344750E+03  0.00000000000E+00 0. -1.
          5    1    4    4  502    0  0.67248976174E+02 -0.26364605371E+02  0.71316010237E+02  0.10161486372E+03  0.47000000000E+01 0.  1.
         -5    1    4    4    0  502  0.50008766091E+02  0.25736837375E+01  0.35672003336E+03  0.36024820990E+03  0.47000000000E+01 0.  1.
<mgrwt>
<rscale>  0 0.10059038E+04</rscale>
<asrwt>0</asrwt>
<pdfrwt beam="1">  1        2 0.24759710E+00 0.10059038E+04</pdfrwt>
<pdfrwt beam="2">  1       -2 0.24181354E-01 0.10059038E+04</pdfrwt>
<totfact> 0.19996432E+02</totfact>
</mgrwt>
</event>
<event>
 9    1  0.4342579E-036  0.1000098E+04  0.7818608E-02  0.8680945E-01
          2   -1    0    0  501    0  0.00000000000E+00  0.00000000000E+00  0.11865849345E+04  0.11865849345E+04  0.00000000000E+00 0. -1.
         -2   -1    0    0    0  501 -0.00000000000E+00 -0.00000000000E+00 -0.21072979595E+03  0.21072979595E+03  0.00000000000E+00 0. -1.
         36    2    1    2    0    0 -0.17763568394E-14  0.00000000000E+00  0.97585513850E+03  0.13973147304E+04  0.10000975975E+04 0.  0.
         25    2    3    3    0    0  0.15651791745E+02 -0.67860280195E+02  0.35484529535E+03  0.38250229538E+03  0.12467087122E+03 0.  0.
         35    2    3    3    0    0 -0.15651791745E+02  0.67860280195E+02  0.62100984316E+03  0.10148124350E+04  0.79958805441E+03 0.  0.
         22    1    5    5    0    0 -0.21120337693E+02  0.47834650180E+02  0.81652536945E+03  0.81819795978E+03  0.00000000000E+00 0. -1.
         22    1    5    5    0    0  0.54685459484E+01  0.20025630015E+02 -0.19551552630E+03  0.19661447524E+03  0.00000000000E+00 0. -1.
          5    1    4    4  502    0 -0.51886047351E+02 -0.98469409185E+01  0.15002021335E+03  0.15911404265E+03  0.47000000000E+01 0. -1.
         -5    1    4    4    0  502  0.67537839095E+02 -0.58013339276E+02  0.20482508200E+03  0.22338825273E+03  0.47000000000E+01 0. -1.
<mgrwt>
<rscale>  0 0.10000976E+04</rscale>
<asrwt>0</asrwt>
<pdfrwt beam="1">  1        2 0.18255152E+00 0.10000976E+04</pdfrwt>
<pdfrwt beam="2">  1       -2 0.32419969E-01 0.10000976E+04</pdfrwt>
<totfact> 0.20600680E+02</totfact>
</mgrwt>
</event>
<event>
 9    1  0.4342579E-036  0.1000793E+04  0.7818608E-02  0.8680283E-01
          2   -1    0    0  501    0  0.00000000000E+00  0.00000000000E+00  0.21187103666E+04  0.21187103666E+04  0.00000000000E+00 0. -1.
         -2   -1    0    0    0  501 -0.00000000000E+00 -0.00000000000E+00 -0.11818360433E+03  0.11818360433E+03  0.00000000000E+00 0. -1.
         36    2    1    2    0    0  0.28421709430E-13 -0.17763568394E-14  0.20005267623E+04  0.22368939709E+04  0.10007933406E+04 0.  0.
         25    2    3    3    0    0 -0.12273291208E+03 -0.58679563040E+01  0.53183874140E+03  0.55967900293E+03  0.12365410968E+03 0.  0.
         35    2    3    3    0    0  0.12273291208E+03  0.58679563040E+01  0.14686880209E+04  0.16772149680E+04  0.80056714001E+03 0.  0.
         22    1    5    5    0    0  0.38578421801E+03  0.27742055395E+02  0.33029228852E+03  0.50861781364E+03  0.00000000000E+00 0. -1.
         22    1    5    5    0    0 -0.26305130593E+03 -0.21874099091E+02  0.11383957323E+04  0.11685971544E+04  0.00000000000E+00 0. -1.
          5    1    4    4  502    0 -0.50333993591E+02 -0.95069827284E+01  0.43799256770E+03  0.44100280384E+03  0.47000000000E+01 0. -1.
         -5    1    4    4    0  502 -0.72398918489E+02  0.36390264245E+01  0.93846173699E+02  0.11867619909E+03  0.47000000000E+01 0. -1.
<mgrwt>
<rscale>  0 0.10007933E+04</rscale>
<asrwt>0</asrwt>
<pdfrwt beam="1">  1        2 0.32595541E+00 0.10007933E+04</pdfrwt>
<pdfrwt beam="2">  1       -2 0.18182095E-01 0.10007933E+04</pdfrwt>
<totfact> 0.16889222E+02</totfact>
</mgrwt>
</event>
<event>
 9    1  0.4342579E-036  0.9989310E+03  0.7818608E-02  0.8682057E-01
         -1   -1    0    0    0  501 -0.00000000000E+00  0.00000000000E+00  0.92552086977E+02  0.92552086977E+02  0.00000000000E+00 0.  1.
          1   -1    0    0  501    0  0.00000000000E+00 -0.00000000000E+00 -0.26954094562E+04  0.26954094562E+04  0.00000000000E+00 0.  1.
         36    2    1    2    0    0 -0.10658141036E-13  0.00000000000E+00 -0.26028573692E+04  0.27879615432E+04  0.99893096944E+03 0.  0.
         25    2    3    3    0    0  0.11809503450E+02 -0.36465032721E+02 -0.85669958758E+03  0.86649470481E+03  0.12413592191E+03 0.  0.
         35    2    3    3    0    0 -0.11809503450E+02  0.36465032721E+02 -0.17461577816E+04  0.19214668384E+04  0.80093610831E+03 0.  0.
         22    1    5    5    0    0 -0.91454537165E+02 -0.10533502347E+03  0.25968298957E+02  0.14189345330E+03  0.00000000000E+00 0.  1.
         22    1    5    5    0    0  0.79645033715E+02  0.14180005619E+03 -0.17721260806E+04  0.17795733851E+04  0.00000000000E+00 0.  1.
          5    1    4    4  502    0 -0.26310756807E+01 -0.81835467899E+02 -0.52806538374E+03  0.53439601970E+03  0.47000000000E+01 0. -1.
         -5    1    4    4    0  502  0.14440579130E+02  0.45370435178E+02 -0.32863420384E+03  0.33209868511E+03  0.47000000000E+01 0. -1.
<mgrwt>
<rscale>  0 0.99893097E+03</rscale>
<asrwt>0</asrwt>
<pdfrwt beam="1">  1        1 0.41467831E+00 0.99893097E+03</pdfrwt>
<pdfrwt beam="2">  1       -1 0.14238785E-01 0.99893097E+03</pdfrwt>
<totfact> 0.35990136E+01</totfact>
</mgrwt>
</event>
<event>
 9    1  0.4342579E-036  0.1000700E+04  0.7818608E-02  0.8680372E-01
          1   -1    0    0  501    0  0.00000000000E+00  0.00000000000E+00  0.49318363287E+03  0.49318363287E+03  0.00000000000E+00 0. -1.
         -1   -1    0    0    0  501 -0.00000000000E+00 -0.00000000000E+00 -0.50762035696E+03  0.50762035696E+03  0.00000000000E+00 0. -1.
         36    2    1    2    0    0  0.28421709430E-13 -0.71054273576E-14 -0.14436724086E+02  0.10008039898E+04  0.10006998586E+04 0.  0.
         25    2    3    3    0    0 -0.13271255486E+03  0.44159825279E+02 -0.22695568970E+02  0.18911222771E+03  0.12524229890E+03 0.  0.
         35    2    3    3    0    0  0.13271255486E+03 -0.44159825279E+02  0.82588448841E+01  0.81169176212E+03  0.79950772091E+03 0.  0.
         22    1    5    5    0    0  0.17441726624E+02  0.81660562107E+02  0.38720039813E+03  0.39610201911E+03  0.00000000000E+00 0.  1.
         22    1    5    5    0    0  0.11527082823E+03 -0.12582038739E+03 -0.37894155324E+03  0.41558974301E+03  0.00000000000E+00 0.  1.
          5    1    4    4  502    0 -0.10377033442E+03  0.33787348791E+02 -0.71992612179E+02  0.13082390245E+03  0.47000000000E+01 0. -1.
         -5    1    4    4    0  502 -0.28942220434E+02  0.10372476488E+02  0.49297043209E+02  0.58288325258E+02  0.47000000000E+01 0. -1.
<mgrwt>
<rscale>  0 0.10006999E+04</rscale>
<asrwt>0</asrwt>
<pdfrwt beam="1">  1        1 0.75874405E-01 0.10006999E+04</pdfrwt>
<pdfrwt beam="2">  1       -1 0.78095439E-01 0.10006999E+04</pdfrwt>
<totfact> 0.87611599E+01</totfact>
</mgrwt>
</event>
<event>
 9    1  0.4342579E-036  0.9983728E+03  0.7818608E-02  0.8682589E-01
          1   -1    0    0  501    0  0.00000000000E+00  0.00000000000E+00  0.27793534254E+03  0.27793534254E+03  0.00000000000E+00 0. -1.
         -1   -1    0    0    0  501 -0.00000000000E+00 -0.00000000000E+00 -0.89656484711E+03  0.89656484711E+03  0.00000000000E+00 0. -1.
         36    2    1    2    0    0  0.00000000000E+00 -0.14210854715E-13 -0.61862950457E+03  0.11745001896E+04  0.99837279187E+03 0.  0.
         25    2    3    3    0    0 -0.96086810972E+02  0.23387144304E+02 -0.11193175213E+01  0.15910490790E+03  0.12463340277E+03 0.  0.
         35    2    3    3    0    0  0.96086810972E+02 -0.23387144304E+02 -0.61751018705E+03  0.10153952817E+04  0.79995569459E+03 0.  0.
         22    1    5    5    0    0  0.14478581888E+03  0.30414746995E+03 -0.26437344846E+02  0.33788688940E+03  0.00000000000E+00 0.  1.
         22    1    5    5    0    0 -0.48699007906E+02 -0.32753461425E+03 -0.59107284220E+03  0.67750839234E+03  0.00000000000E+00 0.  1.
          5    1    4    4  502    0 -0.10612699417E+03  0.56124046522E+02 -0.16501782032E+02  0.12127343608E+03  0.47000000000E+01 0.  1.
         -5    1    4    4    0  502  0.10040183198E+02 -0.32736902218E+02  0.15382464510E+02  0.37831471818E+02  0.47000000000E+01 0.  1.
<mgrwt>
<rscale>  0 0.99837279E+03</rscale>
<asrwt>0</asrwt>
<pdfrwt beam="1">  1        1 0.42759283E-01 0.99837279E+03</pdfrwt>
<pdfrwt beam="2">  1       -1 0.13793306E+00 0.99837279E+03</pdfrwt>
<totfact> 0.50258800E+01</totfact>
</mgrwt>
</event>
<event>
 9    1  0.4342579E-036  0.9986580E+03  0.7818608E-02  0.8682317E-01
         -1   -1    0    0    0  501 -0.00000000000E+00  0.00000000000E+00  0.31502184710E+03  0.31502184710E+03  0.00000000000E+00 0.  1.
          1   -1    0    0  501    0  0.00000000000E+00 -0.00000000000E+00 -0.79146716343E+03  0.79146716343E+03  0.00000000000E+00 0.  1.
         36    2    1    2    0    0  0.00000000000E+00 -0.28421709430E-13 -0.47644531633E+03  0.11064890105E+04  0.99865799500E+03 0.  0.
         25    2    3    3    0    0 -0.20053150670E+02  0.10937645808E+03 -0.18049418407E+03  0.24631030641E+03  0.12540047099E+03 0.  0.
         35    2    3    3    0    0  0.20053150670E+02 -0.10937645808E+03 -0.29595113225E+03  0.86017870412E+03  0.79997186945E+03 0.  0.
         22    1    5    5    0    0  0.24171018709E+03  0.27260339584E+03 -0.10608353742E+03  0.37946033110E+03  0.00000000000E+00 0. -1.
         22    1    5    5    0    0 -0.22165703642E+03 -0.38197985392E+03 -0.18986759484E+03  0.48071837302E+03  0.00000000000E+00 0. -1.
          5    1    4    4  502    0 -0.25336049830E+01  0.59014448649E+02 -0.18336766091E+03  0.19270421213E+03  0.47000000000E+01 0. -1.
         -5    1    4    4    0  502 -0.17519545687E+02  0.50362009430E+02  0.28734768390E+01  0.53606094281E+02  0.47000000000E+01 0. -1.
<mgrwt>
<rscale>  0 0.99865799E+03</rscale>
<asrwt>0</asrwt>
<pdfrwt beam="1">  1        1 0.12176418E+00 0.99865799E+03</pdfrwt>
<pdfrwt beam="2">  1       -1 0.48464900E-01 0.99865799E+03</pdfrwt>
<totfact> 0.10918574E+02</totfact>
</mgrwt>
</event>
<event>
 9    1  0.4342579E-036  0.9985399E+03  0.7818608E-02  0.8682430E-01
         -1   -1    0    0    0  501 -0.00000000000E+00  0.00000000000E+00  0.26049727410E+03  0.26049727410E+03  0.00000000000E+00 0.  1.
          1   -1    0    0  501    0  0.00000000000E+00 -0.00000000000E+00 -0.95690244232E+03  0.95690244232E+03  0.00000000000E+00 0.  1.
         36    2    1    2    0    0  0.00000000000E+00 -0.71054273576E-14 -0.69640516822E+03  0.12173997164E+04  0.99853988965E+03 0.  0.
         25    2    3    3    0    0 -0.12833878623E+03  0.34102018885E+02 -0.18000502479E+03  0.25624837574E+03  0.12501051708E+03 0.  0.
         35    2    3    3    0    0  0.12833878623E+03 -0.34102018885E+02 -0.51640014344E+03  0.96115134068E+03  0.79969306600E+03 0.  0.
         22    1    5    5    0    0  0.62906014185E+02 -0.66276383281E+02 -0.72987220768E+03  0.73556995938E+03  0.00000000000E+00 0. -1.
         22    1    5    5    0    0  0.65432772045E+02  0.32174364396E+02  0.21347206424E+03  0.22558138130E+03  0.00000000000E+00 0. -1.
          5    1    4    4  502    0  0.22238791667E+02  0.18119593620E+02 -0.43539976675E+02  0.52351724868E+02  0.47000000000E+01 0.  1.
         -5    1    4    4    0  502 -0.15057757790E+03  0.15982425265E+02 -0.13646504811E+03  0.20389665088E+03  0.47000000000E+01 0.  1.
<mgrwt>
<rscale>  0 0.99853989E+03</rscale>
<asrwt>0</asrwt>
<pdfrwt beam="1">  1        1 0.14721576E+00 0.99853989E+03</pdfrwt>
<pdfrwt beam="2">  1       -1 0.40076504E-01 0.99853989E+03</pdfrwt>
<totfact> 0.11156402E+02</totfact>
</mgrwt>
</event>
<event>
 9    1  0.4342579E-036  0.1000285E+04  0.7818608E-02  0.8680767E-01
          2   -1    0    0  501    0  0.00000000000E+00  0.00000000000E+00  0.28503208915E+04  0.28503208915E+04  0.00000000000E+00 0. -1.
         -2   -1    0    0    0  501 -0.00000000000E+00 -0.00000000000E+00 -0.87759402089E+02  0.87759402089E+02  0.00000000000E+00 0. -1.
         36    2    1    2    0    0  0.21316282073E-13  0.00000000000E+00  0.27625614894E+04  0.29380802936E+04  0.10002848738E+04 0.  0.
         25    2    3    3    0    0  0.48363720362E+02 -0.13133814215E+03  0.55058563747E+03  0.58157014240E+03  0.12446095495E+03 0.  0.
         35    2    3    3    0    0 -0.48363720362E+02  0.13133814215E+03  0.22119758519E+04  0.23565101512E+04  0.80044622935E+03 0.  0.
         22    1    5    5    0    0  0.25186273254E+03 -0.22950064491E+03  0.84124518499E+03  0.90763365039E+03  0.00000000000E+00 0.  1.
         22    1    5    5    0    0 -0.30022645290E+03  0.36083878706E+03  0.13707306670E+04  0.14488765008E+04  0.00000000000E+00 0.  1.
          5    1    4    4  502    0  0.15327200043E+02 -0.10660672108E+03  0.51710005617E+03  0.52821820693E+03  0.47000000000E+01 0.  1.
         -5    1    4    4    0  502  0.33036520319E+02 -0.24731421070E+02  0.33485581301E+02  0.53351935466E+02  0.47000000000E+01 0.  1.
<mgrwt>
<rscale>  0 0.10002849E+04</rscale>
<asrwt>0</asrwt>
<pdfrwt beam="1">  1        2 0.43851084E+00 0.10002849E+04</pdfrwt>
<pdfrwt beam="2">  1       -2 0.13501449E-01 0.10002849E+04</pdfrwt>
<totfact> 0.10005789E+02</totfact>
</mgrwt>
</event>
<event>
 9    1  0.4342579E-036  0.9999587E+03  0.7818608E-02  0.8681077E-01
          1   -1    0    0  501    0  0.00000000000E+00  0.00000000000E+00  0.13550583353E+04  0.13550583353E+04  0.00000000000E+00 0. -1.
         -1   -1    0    0    0  501 -0.00000000000E+00 -0.00000000000E+00 -0.18447866131E+03  0.18447866131E+03  0.00000000000E+00 0. -1.
         36    2    1    2    0    0  0.00000000000E+00 -0.28421709430E-13  0.11705796740E+04  0.15395369966E+04  0.99995869454E+03 0.  0.
         25    2    3    3    0    0  0.12075295592E+03 -0.40242922116E+02  0.97043362173E+02  0.20278533759E+03  0.12451389423E+03 0.  0.
         35    2    3    3    0    0 -0.12075295592E+03  0.40242922116E+02  0.10735363118E+04  0.13367516590E+04  0.78627222764E+03 0.  0.
         22    1    5    5    0    0  0.29372438709E+02  0.36506455937E+03  0.26345854230E+03  0.45115992305E+03  0.00000000000E+00 0.  1.
         22    1    5    5    0    0 -0.15012539463E+03 -0.32482163725E+03  0.81007776952E+03  0.88559173597E+03  0.00000000000E+00 0.  1.
          5    1    4    4  502    0  0.38288964278E+01 -0.14484000585E+02  0.80276738617E+02  0.81797869678E+02  0.47000000000E+01 0. -1.
         -5    1    4    4    0  502  0.11692405949E+03 -0.25758921531E+02  0.16766623556E+02  0.12098746791E+03  0.47000000000E+01 0. -1.
<mgrwt>
<rscale>  0 0.99995869E+03</rscale>
<asrwt>0</asrwt>
<pdfrwt beam="1">  1        1 0.20847051E+00 0.99995869E+03</pdfrwt>
<pdfrwt beam="2">  1       -1 0.28381333E-01 0.99995869E+03</pdfrwt>
<totfact> 0.10133338E+02</totfact>
</mgrwt>
</event>
<event>
 9    1  0.4342579E-036  0.1000447E+04  0.7818608E-02  0.8680613E-01
         -1   -1    0    0    0  501 -0.00000000000E+00  0.00000000000E+00  0.90964255656E+02  0.90964255656E+02  0.00000000000E+00 0. -1.
          1   -1    0    0  501    0  0.00000000000E+00 -0.00000000000E+00 -0.27507884403E+04  0.27507884403E+04  0.00000000000E+00 0. -1.
         36    2    1    2    0    0  0.00000000000E+00  0.00000000000E+00 -0.26598241846E+04  0.28417526959E+04  0.10004467461E+04 0.  0.
         25    2    3    3    0    0 -0.12936622795E+03 -0.38585790709E+02 -0.58975161224E+03  0.61775624138E+03  0.12486522912E+03 0.  0.
         35    2    3    3    0    0  0.12936622795E+03  0.38585790709E+02 -0.20700725724E+04  0.22239964545E+04  0.80170773401E+03 0.  0.
         22    1    5    5    0    0  0.43462444676E+03  0.15962466909E+03 -0.14530174464E+04  0.15250043096E+04  0.00000000000E+00 0.  1.
         22    1    5    5    0    0 -0.30525821881E+03 -0.12103887838E+03 -0.61705512597E+03  0.69899214496E+03  0.00000000000E+00 0.  1.
          5    1    4    4  502    0 -0.67404523107E+02  0.22358406790E+01 -0.48274571864E+03  0.48745654943E+03  0.47000000000E+01 0.  1.
         -5    1    4    4    0  502 -0.61961704842E+02 -0.40821631388E+02 -0.10700589360E+03  0.13029969195E+03  0.47000000000E+01 0.  1.
<mgrwt>
<rscale>  0 0.10004467E+04</rscale>
<asrwt>0</asrwt>
<pdfrwt beam="1">  1        1 0.42319820E+00 0.10004467E+04</pdfrwt>
<pdfrwt beam="2">  1       -1 0.13994502E-01 0.10004467E+04</pdfrwt>
<totfact> 0.33808011E+01</totfact>
</mgrwt>
</event>
<event>
 9    1  0.4342579E-036  0.9993290E+03  0.7818608E-02  0.8681677E-01
         -2   -1    0    0    0  501 -0.00000000000E+00  0.00000000000E+00  0.53823456067E+03  0.53823456067E+03  0.00000000000E+00 0.  1.
          2   -1    0    0  501    0  0.00000000000E+00 -0.00000000000E+00 -0.46385838015E+03  0.46385838015E+03  0.00000000000E+00 0.  1.
         36    2    1    2    0    0 -0.14210854715E-13 -0.14210854715E-13  0.74376180520E+02  0.10020929408E+04  0.99932899778E+03 0.  0.
         25    2    3    3    0    0  0.10223764413E+03 -0.88650648331E+02  0.35974121890E+02  0.18884075570E+03  0.12670919556E+03 0.  0.
         35    2    3    3    0    0 -0.10223764413E+03  0.88650648331E+02  0.38402058630E+02  0.81325218511E+03  0.80099495951E+03 0.  0.
         22    1    5    5    0    0 -0.27824165753E+03  0.36066891523E+03  0.13510502482E+03  0.47513561656E+03  0.00000000000E+00 0.  1.
         22    1    5    5    0    0  0.17600401340E+03 -0.27201826689E+03 -0.96702966189E+02  0.33811656855E+03  0.00000000000E+00 0.  1.
          5    1    4    4  502    0  0.89552586078E+01  0.28632800396E+02 -0.10081370130E+02  0.31996217572E+02  0.47000000000E+01 0.  1.
         -5    1    4    4    0  502  0.93282385525E+02 -0.11728344873E+03  0.46055492020E+02  0.15684453812E+03  0.47000000000E+01 0.  1.
<mgrwt>
<rscale>  0 0.99932900E+03</rscale>
<asrwt>0</asrwt>
<pdfrwt beam="1">  1        2 0.71362828E-01 0.99932900E+03</pdfrwt>
<pdfrwt beam="2">  1       -2 0.82805317E-01 0.99932900E+03</pdfrwt>
<totfact> 0.10322540E+02</totfact>
</mgrwt>
</event>
<event>
 9    1  0.4342579E-036  0.1000606E+04  0.7818608E-02  0.8680462E-01
          2   -1    0    0  501    0  0.00000000000E+00  0.00000000000E+00  0.19934127656E+04  0.19934127656E+04  0.00000000000E+00 0.  1.
         -2   -1    0    0    0  501 -0.00000000000E+00 -0.00000000000E+00 -0.12556498864E+03  0.12556498864E+03  0.00000000000E+00 0.  1.
         36    2    1    2    0    0 -0.28421709430E-13  0.14210854715E-13  0.18678477769E+04  0.21189777542E+04  0.10006055192E+04 0.  0.
         25    2    3    3    0    0  0.79080366338E+02  0.41725008395E+02  0.12882453974E+03  0.20265328538E+03  0.12836631712E+03 0.  0.
         35    2    3    3    0    0 -0.79080366338E+02 -0.41725008395E+02  0.17390232372E+04  0.19163244688E+04  0.80006435345E+03 0.  0.
         22    1    5    5    0    0  0.33473333978E+03  0.54913889855E+02  0.10813771486E+04  0.11333307027E+04  0.00000000000E+00 0. -1.
         22    1    5    5    0    0 -0.41381370611E+03 -0.96638898250E+02  0.65764608856E+03  0.78299376615E+03  0.00000000000E+00 0. -1.
          5    1    4    4  502    0  0.79329259943E+02 -0.34984084319E+01  0.13507612894E+03  0.15675784176E+03  0.47000000000E+01 0. -1.
         -5    1    4    4    0  502 -0.24889360510E+00  0.45223416827E+02 -0.62515891985E+01  0.45895443619E+02  0.47000000000E+01 0. -1.
<mgrwt>
<rscale>  0 0.10006055E+04</rscale>
<asrwt>0</asrwt>
<pdfrwt beam="1">  1        2 0.30667886E+00 0.10006055E+04</pdfrwt>
<pdfrwt beam="2">  1       -2 0.19317692E-01 0.10006055E+04</pdfrwt>
<totfact> 0.17953181E+02</totfact>
</mgrwt>
</event>
<event>
 9    1  0.4342579E-036  0.9998158E+03  0.7818608E-02  0.8681213E-01
          1   -1    0    0  501    0  0.00000000000E+00  0.00000000000E+00  0.20978927988E+04  0.20978927988E+04  0.00000000000E+00 0.  1.
         -1   -1    0    0    0  501 -0.00000000000E+00 -0.00000000000E+00 -0.11912330130E+03  0.11912330130E+03  0.00000000000E+00 0.  1.
         36    2    1    2    0    0  0.00000000000E+00  0.35527136788E-14  0.19787694975E+04  0.22170161001E+04  0.99981581495E+03 0.  0.
         25    2    3    3    0    0 -0.13914936677E+03  0.46997278669E+01  0.42411364265E+03  0.46366592358E+03  0.12541560147E+03 0.  0.
         35    2    3    3    0    0  0.13914936677E+03 -0.46997278669E+01  0.15546558549E+04  0.17533501765E+04  0.79868478184E+03 0.  0.
         22    1    5    5    0    0  0.32946570633E+03  0.24836350102E+03  0.12404643920E+04  0.13072811434E+04  0.00000000000E+00 0.  1.
         22    1    5    5    0    0 -0.19031633956E+03 -0.25306322888E+03  0.31419146292E+03  0.44606903309E+03  0.00000000000E+00 0.  1.
          5    1    4    4  502    0 -0.12667412496E+02  0.28411856787E+02  0.15170291683E+02  0.34927420391E+02  0.47000000000E+01 0.  1.
         -5    1    4    4    0  502 -0.12648195428E+03 -0.23712128920E+02  0.40894335097E+03  0.42873850319E+03  0.47000000000E+01 0.  1.
<mgrwt>
<rscale>  0 0.99981581E+03</rscale>
<asrwt>0</asrwt>
<pdfrwt beam="1">  1        1 0.32275271E+00 0.99981581E+03</pdfrwt>
<pdfrwt beam="2">  1       -1 0.18326663E-01 0.99981581E+03</pdfrwt>
<totfact> 0.62802158E+01</totfact>
</mgrwt>
</event>
<event>
 9    1  0.4342579E-036  0.9991196E+03  0.7818608E-02  0.8681877E-01
         -2   -1    0    0    0  501 -0.00000000000E+00  0.00000000000E+00  0.74886542631E+03  0.74886542631E+03  0.00000000000E+00 0.  1.
          2   -1    0    0  501    0  0.00000000000E+00 -0.00000000000E+00 -0.33325077137E+03  0.33325077137E+03  0.00000000000E+00 0.  1.
         36    2    1    2    0    0  0.42632564146E-13  0.14210854715E-13  0.41561465494E+03  0.10821161977E+04  0.99911957436E+03 0.  0.
         25    2    3    3    0    0 -0.55026898963E+02  0.11914106656E+03  0.26534844567E+02  0.18306539351E+03  0.12484505186E+03 0.  0.
         35    2    3    3    0    0  0.55026898963E+02 -0.11914106656E+03  0.38907981037E+03  0.89905080417E+03  0.79980416121E+03 0.  0.
         22    1    5    5    0    0 -0.27798914285E+03 -0.16131144766E+03  0.45489715651E+03  0.55698363503E+03  0.00000000000E+00 0.  1.
         22    1    5    5    0    0  0.33301604182E+03  0.42170381103E+02 -0.65817346135E+02  0.34206716914E+03  0.00000000000E+00 0.  1.
          5    1    4    4  502    0 -0.50703757629E+02  0.35013974113E+02 -0.41704904101E+02  0.74553594460E+02  0.47000000000E+01 0.  1.
         -5    1    4    4    0  502 -0.43231413339E+01  0.84127092446E+02  0.68239748668E+02  0.10851179905E+03  0.47000000000E+01 0.  1.
<mgrwt>
<rscale>  0 0.99911957E+03</rscale>
<asrwt>0</asrwt>
<pdfrwt beam="1">  1        2 0.51269349E-01 0.99911957E+03</pdfrwt>
<pdfrwt beam="2">  1       -2 0.11521007E+00 0.99911957E+03</pdfrwt>
<totfact> 0.67183760E+01</totfact>
</mgrwt>
</event>
<event>
 9    1  0.4342579E-036  0.1002929E+04  0.7818608E-02  0.8678253E-01
          1   -1    0    0  501    0  0.00000000000E+00  0.00000000000E+00  0.77027023655E+03  0.77027023655E+03  0.00000000000E+00 0. -1.
         -1   -1    0    0    0  501 -0.00000000000E+00 -0.00000000000E+00 -0.32646560788E+03  0.32646560788E+03  0.00000000000E+00 0. -1.
         36    2    1    2    0    0  0.71054273576E-14 -0.17763568394E-13  0.44380462867E+03  0.10967358444E+04  0.10029291919E+04 0.  0.
         25    2    3    3    0    0 -0.60875213734E+02  0.58347080794E+01  0.22562096887E+03  0.26513301849E+03  0.12510339897E+03 0.  0.
         35    2    3    3    0    0  0.60875213734E+02 -0.58347080794E+01  0.21818365980E+03  0.83160282594E+03  0.80013706028E+03 0.  0.
         22    1    5    5    0    0  0.13365638942E+03 -0.32813614494E+03  0.32859077958E+03  0.48322795912E+03  0.00000000000E+00 0.  1.
         22    1    5    5    0    0 -0.72781175683E+02  0.32230143686E+03 -0.11040711978E+03  0.34837486682E+03  0.00000000000E+00 0.  1.
          5    1    4    4  502    0 -0.94683626891E+02 -0.18761377004E+02  0.14611978738E+03  0.17518578919E+03  0.47000000000E+01 0. -1.
         -5    1    4    4    0  502  0.33808413157E+02  0.24596085083E+02  0.79501181485E+02  0.89947229302E+02  0.47000000000E+01 0. -1.
<mgrwt>
<rscale>  0 0.10029292E+04</rscale>
<asrwt>0</asrwt>
<pdfrwt beam="1">  1        1 0.11850311E+00 0.10029292E+04</pdfrwt>
<pdfrwt beam="2">  1       -1 0.50225478E-01 0.10029292E+04</pdfrwt>
<totfact> 0.10675560E+02</totfact>
</mgrwt>
</event>
<event>
 9    1  0.4342579E-036  0.9996573E+03  0.7818608E-02  0.8681364E-01
         -2   -1    0    0    0  501 -0.00000000000E+00  0.00000000000E+00  0.26633692658E+03  0.26633692658E+03  0.00000000000E+00 0. -1.
          2   -1    0    0  501    0  0.00000000000E+00 -0.00000000000E+00 -0.93801745786E+03  0.93801745786E+03  0.00000000000E+00 0. -1.
         36    2    1    2    0    0  0.42632564146E-13 -0.14210854715E-13 -0.67168053128E+03  0.12043543844E+04  0.99965731489E+03 0.  0.
         25    2    3    3    0    0 -0.10097952113E+03 -0.67569413984E+02 -0.39349189111E+02  0.17783520004E+03  0.12375180926E+03 0.  0.
         35    2    3    3    0    0  0.10097952113E+03  0.67569413984E+02 -0.63233134217E+03  0.10265191844E+04  0.79945995538E+03 0.  0.
         22    1    5    5    0    0 -0.32928693856E+03  0.74920133885E+02 -0.44131704950E+03  0.55570104602E+03  0.00000000000E+00 0. -1.
         22    1    5    5    0    0  0.43026645969E+03 -0.73507199013E+01 -0.19101429266E+03  0.47081813837E+03  0.00000000000E+00 0. -1.
          5    1    4    4  502    0 -0.65409569448E+01  0.24466164995E+02  0.20524143554E+02  0.32934902702E+02  0.47000000000E+01 0.  1.
         -5    1    4    4    0  502 -0.94438564189E+02 -0.92035578979E+02 -0.59873332665E+02  0.14490029734E+03  0.47000000000E+01 0.  1.
<mgrwt>
<rscale>  0 0.99965731E+03</rscale>
<asrwt>0</asrwt>
<pdfrwt beam="1">  1        2 0.14431038E+00 0.99965731E+03</pdfrwt>
<pdfrwt beam="2">  1       -2 0.40974912E-01 0.99965731E+03</pdfrwt>
<totfact> 0.18862950E+02</totfact>
</mgrwt>
</event>
<event>
 9    1  0.4342579E-036  0.1001994E+04  0.7818608E-02  0.8679141E-01
          2   -1    0    0  501    0  0.00000000000E+00  0.00000000000E+00  0.59620814152E+03  0.59620814152E+03  0.00000000000E+00 0.  1.
         -2   -1    0    0    0  501 -0.00000000000E+00 -0.00000000000E+00 -0.42099071653E+03  0.42099071653E+03  0.00000000000E+00 0.  1.
         36    2    1    2    0    0  0.28421709430E-13  0.21316282073E-13  0.17521742499E+03  0.10171988581E+04  0.10019941970E+04 0.  0.
         25    2    3    3    0    0  0.13952811158E+03 -0.17107623244E+02  0.58523311663E+02  0.19751805439E+03  0.12580794532E+03 0.  0.
         35    2    3    3    0    0 -0.13952811158E+03  0.17107623244E+02  0.11669411333E+03  0.81968080367E+03  0.79906091077E+03 0.  0.
         22    1    5    5    0    0 -0.11700043171E+03 -0.32338934263E+03  0.27801938285E+03  0.44222680288E+03  0.00000000000E+00 0. -1.
         22    1    5    5    0    0 -0.22527679869E+02  0.34049696587E+03 -0.16132526951E+03  0.37745400079E+03  0.00000000000E+00 0. -1.
          5    1    4    4  502    0  0.11700552188E+03 -0.58921726218E+02  0.69749372395E+02  0.14848948421E+03  0.47000000000E+01 0.  1.
         -5    1    4    4    0  502  0.22522589705E+02  0.41814102975E+02 -0.11226060732E+02  0.49028570183E+02  0.47000000000E+01 0.  1.
<mgrwt>
<rscale>  0 0.10019942E+04</rscale>
<asrwt>0</asrwt>
<pdfrwt beam="1">  1        2 0.91724330E-01 0.10019942E+04</pdfrwt>
<pdfrwt beam="2">  1       -2 0.64767802E-01 0.10019942E+04</pdfrwt>
<totfact> 0.13304288E+02</totfact>
</mgrwt>
</event>
<event>
 9    1  0.4342579E-036  0.9945504E+03  0.7818608E-02  0.8686245E-01
          2   -1    0    0  501    0  0.00000000000E+00  0.00000000000E+00  0.41304149343E+03  0.41304149343E+03  0.00000000000E+00 0.  1.
         -2   -1    0    0    0  501 -0.00000000000E+00 -0.00000000000E+00 -0.59868709528E+03  0.59868709528E+03  0.00000000000E+00 0.  1.
         36    2    1    2    0    0 -0.14210854715E-13 -0.14210854715E-13 -0.18564560185E+03  0.10117285887E+04  0.99455037466E+03 0.  0.
         25    2    3    3    0    0  0.11840678824E+03  0.49180485382E+02 -0.70452461674E+02  0.19235219775E+03  0.12488767345E+03 0.  0.
         35    2    3    3    0    0 -0.11840678824E+03 -0.49180485382E+02 -0.11519314018E+03  0.81937639096E+03  0.80104264735E+03 0.  0.
         22    1    5    5    0    0 -0.39838254898E+03  0.18439487742E+03 -0.11867173660E+03  0.45474510137E+03  0.00000000000E+00 0.  1.
         22    1    5    5    0    0  0.27997576074E+03 -0.23357536280E+03  0.34785964179E+01  0.36463128959E+03  0.00000000000E+00 0.  1.
          5    1    4    4  502    0  0.77454647362E+02 -0.82324343878E+01  0.17047079752E+02  0.79872951004E+02  0.47000000000E+01 0. -1.
         -5    1    4    4    0  502  0.40952140880E+02  0.57412919770E+02 -0.87499541426E+02  0.11247924675E+03  0.47000000000E+01 0. -1.
<mgrwt>
<rscale>  0 0.99455037E+03</rscale>
<asrwt>0</asrwt>
<pdfrwt beam="1">  1        2 0.63544845E-01 0.99455037E+03</pdfrwt>
<pdfrwt beam="2">  1       -2 0.92105707E-01 0.99455037E+03</pdfrwt>
<totfact> 0.91717328E+01</totfact>
</mgrwt>
</event>
<event>
 9    1  0.4342579E-036  0.1001549E+04  0.7818608E-02  0.8679564E-01
          2   -1    0    0  501    0  0.00000000000E+00  0.00000000000E+00  0.82456755487E+03  0.82456755487E+03  0.00000000000E+00 0.  1.
         -2   -1    0    0    0  501 -0.00000000000E+00 -0.00000000000E+00 -0.30412910043E+03  0.30412910043E+03  0.00000000000E+00 0.  1.
         36    2    1    2    0    0 -0.28421709430E-13  0.00000000000E+00  0.52043845444E+03  0.11286966553E+04  0.10015487781E+04 0.  0.
         25    2    3    3    0    0 -0.79848706493E+02 -0.71365676793E+02  0.20282335270E+03  0.26171118455E+03  0.12604188178E+03 0.  0.
         35    2    3    3    0    0  0.79848706493E+02  0.71365676793E+02  0.31761510174E+03  0.86698547075E+03  0.79957212176E+03 0.  0.
         22    1    5    5    0    0 -0.30107281428E+03  0.15558486908E+03  0.33493614354E+03  0.47648054655E+03  0.00000000000E+00 0.  1.
         22    1    5    5    0    0  0.38092152077E+03 -0.84219192291E+02 -0.17321041803E+02  0.39050492420E+03  0.00000000000E+00 0.  1.
          5    1    4    4  502    0 -0.11455056805E+02 -0.87752457701E+02  0.14762852447E+03  0.17218589779E+03  0.47000000000E+01 0.  1.
         -5    1    4    4    0  502 -0.68393649688E+02  0.16386780908E+02  0.55194828231E+02  0.89525286760E+02  0.47000000000E+01 0.  1.
<mgrwt>
<rscale>  0 0.10015488E+04</rscale>
<asrwt>0</asrwt>
<pdfrwt beam="1">  1        2 0.12685655E+00 0.10015488E+04</pdfrwt>
<pdfrwt beam="2">  1       -2 0.46789093E-01 0.10015488E+04</pdfrwt>
<totfact> 0.17335445E+02</totfact>
</mgrwt>
</event>
<event>
 9    1  0.4342579E-036  0.1000243E+04  0.7818608E-02  0.8680806E-01
         -2   -1    0    0    0  501 -0.00000000000E+00  0.00000000000E+00  0.63826743307E+03  0.63826743307E+03  0.00000000000E+00 0.  1.
          2   -1    0    0  501    0  0.00000000000E+00 -0.00000000000E+00 -0.39187587577E+03  0.39187587577E+03  0.00000000000E+00 0.  1.
         36    2    1    2    0    0  0.00000000000E+00  0.14210854715E-13  0.24639155730E+03  0.10301433088E+04  0.10002431891E+04 0.  0.
         25    2    3    3    0    0 -0.13778712302E+03 -0.40132121750E+01  0.16031661279E+02  0.18651001082E+03  0.12460968192E+03 0.  0.
         35    2    3    3    0    0  0.13778712302E+03  0.40132121750E+01  0.23035989602E+03  0.84363329803E+03  0.79978125929E+03 0.  0.
         22    1    5    5    0    0 -0.74245031800E+02 -0.19574914540E+03 -0.22228219156E+03  0.30535131465E+03  0.00000000000E+00 0.  1.
         22    1    5    5    0    0  0.21203215482E+03  0.19976235758E+03  0.45264208758E+03  0.53828198338E+03  0.00000000000E+00 0.  1.
          5    1    4    4  502    0 -0.11855896775E+03 -0.26305397012E+02  0.58294366844E+02  0.13479067457E+03  0.47000000000E+01 0.  1.
         -5    1    4    4    0  502 -0.19228155271E+02  0.22292184837E+02 -0.42262705565E+02  0.51719336245E+02  0.47000000000E+01 0.  1.
<mgrwt>
<rscale>  0 0.10002432E+04</rscale>
<asrwt>0</asrwt>
<pdfrwt beam="1">  1        2 0.60288596E-01 0.10002432E+04</pdfrwt>
<pdfrwt beam="2">  1       -2 0.98194990E-01 0.10002432E+04</pdfrwt>
<totfact> 0.83479685E+01</totfact>
</mgrwt>
</event>
<event>
 9    1  0.4342579E-036  0.1000365E+04  0.7818608E-02  0.8680691E-01
          1   -1    0    0  501    0  0.00000000000E+00  0.00000000000E+00  0.16103394914E+04  0.16103394914E+04  0.00000000000E+00 0. -1.
         -1   -1    0    0    0  501 -0.00000000000E+00 -0.00000000000E+00 -0.15536000226E+03  0.15536000226E+03  0.00000000000E+00 0. -1.
         36    2    1    2    0    0 -0.28421709430E-13  0.14210854715E-13  0.14549794892E+04  0.17656994937E+04  0.10003646276E+04 0.  0.
         25    2    3    3    0    0  0.82865599833E+02 -0.82627885939E+02  0.39744560806E+03  0.43293472599E+03  0.12560012114E+03 0.  0.
         35    2    3    3    0    0 -0.82865599833E+02  0.82627885939E+02  0.10575338811E+04  0.13327647677E+04  0.80261444116E+03 0.  0.
         22    1    5    5    0    0  0.13994140801E+03  0.22225503521E+03  0.10361897692E+04  0.10689574996E+04  0.00000000000E+00 0.  1.
         22    1    5    5    0    0 -0.22280700784E+03 -0.13962714927E+03  0.21344111943E+02  0.26380726804E+03  0.00000000000E+00 0.  1.
          5    1    4    4  502    0 -0.32364983816E+01 -0.84269967007E+02  0.21950441737E+03  0.23519392319E+03  0.47000000000E+01 0. -1.
         -5    1    4    4    0  502  0.86102098214E+02  0.16420810679E+01  0.17794119068E+03  0.19774080279E+03  0.47000000000E+01 0. -1.
<mgrwt>
<rscale>  0 0.10003646E+04</rscale>
<asrwt>0</asrwt>
<pdfrwt beam="1">  1        1 0.24774453E+00 0.10003646E+04</pdfrwt>
<pdfrwt beam="2">  1       -1 0.23901540E-01 0.10003646E+04</pdfrwt>
<totfact> 0.88980274E+01</totfact>
</mgrwt>
</event>
<event>
 9    1  0.4342579E-036  0.9988965E+03  0.7818608E-02  0.8682090E-01
          2   -1    0    0  501    0  0.00000000000E+00  0.00000000000E+00  0.10315443229E+04  0.10315443229E+04  0.00000000000E+00 0. -1.
         -2   -1    0    0    0  501 -0.00000000000E+00 -0.00000000000E+00 -0.24182047777E+03  0.24182047777E+03  0.00000000000E+00 0. -1.
         36    2    1    2    0    0  0.00000000000E+00  0.00000000000E+00  0.78972384508E+03  0.12733648006E+04  0.99889647311E+03 0.  0.
         25    2    3    3    0    0 -0.11161372958E+03 -0.66645132268E+02  0.20898505510E+03  0.27595906139E+03  0.12481767513E+03 0.  0.
         35    2    3    3    0    0  0.11161372958E+03  0.66645132268E+02  0.58073878999E+03  0.99740573923E+03  0.80041331085E+03 0.  0.
         22    1    5    5    0    0 -0.33976515758E+03  0.53126599948E+01  0.15347254319E+03  0.37285708814E+03  0.00000000000E+00 0.  1.
         22    1    5    5    0    0  0.45137888716E+03  0.61332472273E+02  0.42726624680E+03  0.62454865109E+03  0.00000000000E+00 0.  1.
          5    1    4    4  502    0  0.17713552535E+02 -0.17241491009E+02 -0.86008361420E-01  0.25162200879E+02  0.47000000000E+01 0. -1.
         -5    1    4    4    0  502 -0.12932728211E+03 -0.49403641258E+02  0.20907106346E+03  0.25079686051E+03  0.47000000000E+01 0. -1.
<mgrwt>
<rscale>  0 0.99889647E+03</rscale>
<asrwt>0</asrwt>
<pdfrwt beam="1">  1        2 0.15869912E+00 0.99889647E+03</pdfrwt>
<pdfrwt beam="2">  1       -2 0.37203151E-01 0.99889647E+03</pdfrwt>
<totfact> 0.19785561E+02</totfact>
</mgrwt>
</event>
<event>
 9    1  0.4342579E-036  0.1000246E+04  0.7818608E-02  0.8680804E-01
         -2   -1    0    0    0  501 -0.00000000000E+00  0.00000000000E+00  0.11225324512E+03  0.11225324512E+03  0.00000000000E+00 0.  1.
          2   -1    0    0  501    0  0.00000000000E+00 -0.00000000000E+00 -0.22282031314E+04  0.22282031314E+04  0.00000000000E+00 0.  1.
         36    2    1    2    0    0 -0.71054273576E-14  0.00000000000E+00 -0.21159498862E+04  0.23404563765E+04  0.10002460343E+04 0.  0.
         25    2    3    3    0    0 -0.38172580126E+02 -0.96467763596E+02 -0.61792237570E+03  0.63890778516E+03  0.12494767012E+03 0.  0.
         35    2    3    3    0    0  0.38172580126E+02  0.96467763596E+02 -0.14980275105E+04  0.17015485913E+04  0.80026121420E+03 0.  0.
         22    1    5    5    0    0  0.25650897388E+03  0.35912114187E+03 -0.63413431744E+03  0.77258732890E+03  0.00000000000E+00 0. -1.
         22    1    5    5    0    0 -0.21833639376E+03 -0.26265337828E+03 -0.86389319310E+03  0.92896126241E+03  0.00000000000E+00 0. -1.
          5    1    4    4  502    0 -0.36193673424E+02  0.13600680083E+02 -0.70859559991E+02  0.80858689927E+02  0.47000000000E+01 0. -1.
         -5    1    4    4    0  502 -0.19789067023E+01 -0.11006844368E+03 -0.54706281571E+03  0.55804909524E+03  0.47000000000E+01 0. -1.
<mgrwt>
<rscale>  0 0.10002460E+04</rscale>
<asrwt>0</asrwt>
<pdfrwt beam="1">  1        2 0.34280049E+00 0.10002460E+04</pdfrwt>
<pdfrwt beam="2">  1       -2 0.17269729E-01 0.10002460E+04</pdfrwt>
<totfact> 0.15933061E+02</totfact>
</mgrwt>
</event>
<event>
 9    1  0.4342579E-036  0.1000223E+04  0.7818608E-02  0.8680826E-01
          2   -1    0    0  501    0  0.00000000000E+00  0.00000000000E+00  0.29400722088E+04  0.29400722088E+04  0.00000000000E+00 0.  1.
         -2   -1    0    0    0  501 -0.00000000000E+00 -0.00000000000E+00 -0.85069788496E+02  0.85069788496E+02  0.00000000000E+00 0.  1.
         36    2    1    2    0    0 -0.14210854715E-13  0.42632564146E-13  0.28550024203E+04  0.30251419973E+04  0.10002226171E+04 0.  0.
         25    2    3    3    0    0  0.61925086485E+02  0.94648635130E+02  0.79023216457E+03  0.80799166241E+03  0.12486221260E+03 0.  0.
         35    2    3    3    0    0 -0.61925086485E+02 -0.94648635130E+02  0.20647702557E+04  0.22171503349E+04  0.79980392475E+03 0.  0.
         22    1    5    5    0    0  0.10490649886E+03 -0.26622509047E+03  0.19118612279E+04  0.19331566224E+04  0.00000000000E+00 0. -1.
         22    1    5    5    0    0 -0.16683158535E+03  0.17157645534E+03  0.15290902785E+03  0.28399371242E+03  0.00000000000E+00 0. -1.
          5    1    4    4  502    0 -0.18178113253E+02  0.84309417659E+02  0.45586848383E+03  0.46397918731E+03  0.47000000000E+01 0. -1.
         -5    1    4    4    0  502  0.80103199738E+02  0.10339217470E+02  0.33436368075E+03  0.34401247511E+03  0.47000000000E+01 0. -1.
<mgrwt>
<rscale>  0 0.10002226E+04</rscale>
<asrwt>0</asrwt>
<pdfrwt beam="1">  1        2 0.45231872E+00 0.10002226E+04</pdfrwt>
<pdfrwt beam="2">  1       -2 0.13087662E-01 0.10002226E+04</pdfrwt>
<totfact> 0.92050975E+01</totfact>
</mgrwt>
</event>
<event>
 9    1  0.4342579E-036  0.9983900E+03  0.7818608E-02  0.8682573E-01
         -2   -1    0    0    0  501 -0.00000000000E+00  0.00000000000E+00  0.79566187955E+02  0.79566187955E+02  0.00000000000E+00 0. -1.
          2   -1    0    0  501    0  0.00000000000E+00 -0.00000000000E+00 -0.31319286785E+04  0.31319286785E+04  0.00000000000E+00 0. -1.
         36    2    1    2    0    0 -0.10658141036E-13  0.00000000000E+00 -0.30523624906E+04  0.32114948665E+04  0.99838995567E+03 0.  0.
         25    2    3    3    0    0  0.12744779717E+02 -0.60099195205E+02 -0.16909466760E+03  0.21904022474E+03  0.12494507100E+03 0.  0.
         35    2    3    3    0    0 -0.12744779717E+02  0.60099195205E+02 -0.28832678230E+04  0.29924546417E+04  0.79860947983E+03 0.  0.
         22    1    5    5    0    0 -0.64778083424E+02 -0.15083664343E+03 -0.83324024560E+02  0.18409450335E+03  0.00000000000E+00 0. -1.
         22    1    5    5    0    0  0.52033303707E+02  0.21093583863E+03 -0.27999437984E+04  0.28083601384E+04  0.00000000000E+00 0. -1.
          5    1    4    4  502    0  0.33364197348E+02 -0.91416607785E+02 -0.96124396607E+02  0.13686546484E+03  0.47000000000E+01 0. -1.
         -5    1    4    4    0  502 -0.20619417632E+02  0.31317412580E+02 -0.72970270998E+02  0.82174759894E+02  0.47000000000E+01 0. -1.
<mgrwt>
<rscale>  0 0.99838996E+03</rscale>
<asrwt>0</asrwt>
<pdfrwt beam="1">  1        2 0.48183516E+00 0.99838996E+03</pdfrwt>
<pdfrwt beam="2">  1       -2 0.12240952E-01 0.99838996E+03</pdfrwt>
<totfact> 0.76364682E+01</totfact>
</mgrwt>
</event>
<event>
 9    1  0.4342579E-036  0.9990866E+03  0.7818608E-02  0.8681908E-01
          2   -1    0    0  501    0  0.00000000000E+00  0.00000000000E+00  0.30218969647E+04  0.30218969647E+04  0.00000000000E+00 0. -1.
         -2   -1    0    0    0  501 -0.00000000000E+00 -0.00000000000E+00 -0.82578437245E+02  0.82578437245E+02  0.00000000000E+00 0. -1.
         36    2    1    2    0    0 -0.56843418861E-13  0.14210854715E-13  0.29393185275E+04  0.31044754020E+04  0.99908664061E+03 0.  0.
         25    2    3    3    0    0  0.47033950052E+02  0.11409461362E+03  0.76316124257E+03  0.78315260578E+03  0.12523237786E+03 0.  0.
         35    2    3    3    0    0 -0.47033950052E+02 -0.11409461362E+03  0.21761572849E+04  0.23213227962E+04  0.79852941218E+03 0.  0.
         22    1    5    5    0    0  0.34580096455E+03 -0.58089016452E+02  0.59043880326E+03  0.68670999797E+03  0.00000000000E+00 0.  1.
         22    1    5    5    0    0 -0.39283491461E+03 -0.56005597172E+02  0.15857184816E+04  0.16346127982E+04  0.00000000000E+00 0.  1.
          5    1    4    4  502    0  0.50895508539E+02  0.13883135107E+03  0.59741245081E+03  0.61545773471E+03  0.47000000000E+01 0. -1.
         -5    1    4    4    0  502 -0.38615584869E+01 -0.24736737451E+02  0.16574879176E+03  0.16769487107E+03  0.47000000000E+01 0. -1.
<mgrwt>
<rscale>  0 0.99908664E+03</rscale>
<asrwt>0</asrwt>
<pdfrwt beam="1">  1        2 0.46490714E+00 0.99908664E+03</pdfrwt>
<pdfrwt beam="2">  1       -2 0.12704377E-01 0.99908664E+03</pdfrwt>
<totfact> 0.85307980E+01</totfact>
</mgrwt>
</event>
<event>
 9    1  0.4342579E-036  0.9993091E+03  0.7818608E-02  0.8681696E-01
         -1   -1    0    0    0  501 -0.00000000000E+00  0.00000000000E+00  0.56660992284E+03  0.56660992284E+03  0.00000000000E+00 0. -1.
          1   -1    0    0  501    0  0.00000000000E+00 -0.00000000000E+00 -0.44061120499E+03  0.44061120499E+03  0.00000000000E+00 0. -1.
         36    2    1    2    0    0  0.00000000000E+00  0.00000000000E+00  0.12599871785E+03  0.10072211278E+04  0.99930912307E+03 0.  0.
         25    2    3    3    0    0  0.86702981350E+02 -0.70324104502E+02 -0.66124176010E+02  0.17958203454E+03  0.12415479784E+03 0.  0.
         35    2    3    3    0    0 -0.86702981350E+02  0.70324104502E+02  0.19212289386E+03  0.82763909329E+03  0.79725301866E+03 0.  0.
         22    1    5    5    0    0  0.28646699166E+03  0.10544812062E+03  0.30965893967E+03  0.43482330017E+03  0.00000000000E+00 0.  1.
         22    1    5    5    0    0 -0.37316997301E+03 -0.35124016116E+02 -0.11753604581E+03  0.39281579313E+03  0.00000000000E+00 0.  1.
          5    1    4    4  502    0  0.82310930360E+02  0.10916083218E+02 -0.18517400986E+02  0.85201140068E+02  0.47000000000E+01 0. -1.
         -5    1    4    4    0  502  0.43920509898E+01 -0.81240187720E+02 -0.47606775024E+02  0.94380894470E+02  0.47000000000E+01 0. -1.
<mgrwt>
<rscale>  0 0.99930912E+03</rscale>
<asrwt>0</asrwt>
<pdfrwt beam="1">  1        1 0.67786339E-01 0.99930912E+03</pdfrwt>
<pdfrwt beam="2">  1       -1 0.87170758E-01 0.99930912E+03</pdfrwt>
<totfact> 0.81102806E+01</totfact>
</mgrwt>
</event>
<event>
 9    1  0.4342579E-036  0.1009421E+04  0.7818608E-02  0.8672118E-01
          2   -1    0    0  501    0  0.00000000000E+00  0.00000000000E+00  0.64553344687E+03  0.64553344687E+03  0.00000000000E+00 0. -1.
         -2   -1    0    0    0  501 -0.00000000000E+00 -0.00000000000E+00 -0.39460789074E+03  0.39460789074E+03  0.00000000000E+00 0. -1.
         36    2    1    2    0    0  0.21316282073E-13  0.00000000000E+00  0.25092555613E+03  0.10401413376E+04  0.10094208079E+04 0.  0.
         25    2    3    3    0    0  0.41357905130E+02  0.14422970888E+03  0.60262631608E+02  0.20402322538E+03  0.12442349651E+03 0.  0.
         35    2    3    3    0    0 -0.41357905130E+02 -0.14422970888E+03  0.19066292452E+03  0.83611811223E+03  0.80014277575E+03 0.  0.
         22    1    5    5    0    0  0.22551999512E+03  0.83806164433E+02  0.37045279495E+03  0.44172164842E+03  0.00000000000E+00 0.  1.
         22    1    5    5    0    0 -0.26687790025E+03 -0.22803587332E+03 -0.17978987043E+03  0.39439646382E+03  0.00000000000E+00 0.  1.
          5    1    4    4  502    0  0.79571922537E+02  0.13177769645E+03  0.42046502914E+02  0.15964664276E+03  0.47000000000E+01 0.  1.
         -5    1    4    4    0  502 -0.38214017407E+02  0.12452012433E+02  0.18216128694E+02  0.44376582615E+02  0.47000000000E+01 0.  1.
<mgrwt>
<rscale>  0 0.10094208E+04</rscale>
<asrwt>0</asrwt>
<pdfrwt beam="1">  1        2 0.99312838E-01 0.10094208E+04</pdfrwt>
<pdfrwt beam="2">  1       -2 0.60708906E-01 0.10094208E+04</pdfrwt>
<totfact> 0.13865553E+02</totfact>
</mgrwt>
</event>
<event>
 9    1  0.4342579E-036  0.9999192E+03  0.7818608E-02  0.8681115E-01
          1   -1    0    0  501    0  0.00000000000E+00  0.00000000000E+00  0.10215043961E+04  0.10215043961E+04  0.00000000000E+00 0. -1.
         -1   -1    0    0    0  501 -0.00000000000E+00 -0.00000000000E+00 -0.24469754815E+03  0.24469754815E+03  0.00000000000E+00 0. -1.
         36    2    1    2    0    0 -0.21316282073E-13  0.14210854715E-13  0.77680684796E+03  0.12662019443E+04  0.99991923904E+03 0.  0.
         25    2    3    3    0    0 -0.32691685403E+02 -0.86760950870E+02  0.27786347740E+03  0.31907600956E+03  0.12651157620E+03 0.  0.
         35    2    3    3    0    0  0.32691685403E+02  0.86760950870E+02  0.49894337056E+03  0.94712593469E+03  0.79969171576E+03 0.  0.
         22    1    5    5    0    0 -0.23863703232E+03 -0.25447403565E+03  0.11829077200E+03  0.36837124583E+03  0.00000000000E+00 0.  1.
         22    1    5    5    0    0  0.27132871772E+03  0.34123498652E+03  0.38065259855E+03  0.57875468886E+03  0.00000000000E+00 0.  1.
          5    1    4    4  502    0 -0.99658046875E+01  0.28122529471E+01 -0.10959306650E+02  0.15793113434E+02  0.47000000000E+01 0. -1.
         -5    1    4    4    0  502 -0.22725880715E+02 -0.89573203818E+02  0.28882278405E+03  0.30328289613E+03  0.47000000000E+01 0. -1.
<mgrwt>
<rscale>  0 0.99991924E+03</rscale>
<asrwt>0</asrwt>
<pdfrwt beam="1">  1        1 0.15715452E+00 0.99991924E+03</pdfrwt>
<pdfrwt beam="2">  1       -1 0.37645777E-01 0.99991924E+03</pdfrwt>
<totfact> 0.11067989E+02</totfact>
</mgrwt>
</event>
<event>
 9    1  0.4342579E-036  0.1000287E+04  0.7818608E-02  0.8680765E-01
         -2   -1    0    0    0  501 -0.00000000000E+00  0.00000000000E+00  0.18357615388E+04  0.18357615388E+04  0.00000000000E+00 0.  1.
          2   -1    0    0  501    0  0.00000000000E+00 -0.00000000000E+00 -0.13626144550E+03  0.13626144550E+03  0.00000000000E+00 0.  1.
         36    2    1    2    0    0 -0.10658141036E-13 -0.14210854715E-13  0.16995000933E+04  0.19720229843E+04  0.10002870006E+04 0.  0.
         25    2    3    3    0    0 -0.14214208822E+02  0.11508796842E+03  0.17065360647E+03  0.24278038685E+03  0.12795459596E+03 0.  0.
         35    2    3    3    0    0  0.14214208822E+02 -0.11508796842E+03  0.15288464868E+04  0.17292425974E+04  0.79966311431E+03 0.  0.
         22    1    5    5    0    0  0.13573564887E+03  0.37886548399E+02 -0.41407697313E+02  0.14688142946E+03  0.00000000000E+00 0. -1.
         22    1    5    5    0    0 -0.12152144005E+03 -0.15297451682E+03  0.15702541841E+04  0.15823611680E+04  0.00000000000E+00 0. -1.
          5    1    4    4  502    0 -0.24334195571E+02  0.12405586232E+03  0.77126533209E+02  0.14816410555E+03  0.47000000000E+01 0. -1.
         -5    1    4    4    0  502  0.10119986749E+02 -0.89678938991E+01  0.93527073263E+02  0.94616281294E+02  0.47000000000E+01 0. -1.
<mgrwt>
<rscale>  0 0.10002870E+04</rscale>
<asrwt>0</asrwt>
<pdfrwt beam="1">  1        2 0.20963301E-01 0.10002870E+04</pdfrwt>
<pdfrwt beam="2">  1       -2 0.28242484E+00 0.10002870E+04</pdfrwt>
<totfact> 0.11816177E+01</totfact>
</mgrwt>
</event>
<event>
 9    1  0.4342579E-036  0.1000010E+04  0.7818608E-02  0.8681028E-01
         -1   -1    0    0    0  501 -0.00000000000E+00  0.00000000000E+00  0.12152200602E+03  0.12152200602E+03  0.00000000000E+00 0.  1.
          1   -1    0    0  501    0  0.00000000000E+00 -0.00000000000E+00 -0.20572836634E+04  0.20572836634E+04  0.00000000000E+00 0.  1.
         36    2    1    2    0    0  0.28421709430E-13 -0.14210854715E-13 -0.19357616574E+04  0.21788056694E+04  0.10000104754E+04 0.  0.
         25    2    3    3    0    0  0.10307625703E+03 -0.84671646252E+02 -0.26392009022E+03  0.32080400686E+03  0.12436797963E+03 0.  0.
         35    2    3    3    0    0 -0.10307625703E+03  0.84671646252E+02 -0.16718415672E+04  0.18580016625E+04  0.79957610638E+03 0.  0.
         22    1    5    5    0    0 -0.38501275219E+03  0.12848727851E+03 -0.46199328365E+03  0.61496470974E+03  0.00000000000E+00 0. -1.
         22    1    5    5    0    0  0.28193649516E+03 -0.43815632256E+02 -0.12098482835E+04  0.12430369528E+04  0.00000000000E+00 0. -1.
          5    1    4    4  502    0 -0.16774204334E+02 -0.38460202410E+02 -0.23857242585E+02  0.48495557778E+02  0.47000000000E+01 0. -1.
         -5    1    4    4    0  502  0.11985046136E+03 -0.46211443843E+02 -0.24006284763E+03  0.27230844909E+03  0.47000000000E+01 0. -1.
<mgrwt>
<rscale>  0 0.10000105E+04</rscale>
<asrwt>0</asrwt>
<pdfrwt beam="1">  1        1 0.31650518E+00 0.10000105E+04</pdfrwt>
<pdfrwt beam="2">  1       -1 0.18695693E-01 0.10000105E+04</pdfrwt>
<totfact> 0.64895944E+01</totfact>
</mgrwt>
</event>
<event>
 9    1  0.4342579E-036  0.9997151E+03  0.7818608E-02  0.8681309E-01
         -1   -1    0    0    0  501 -0.00000000000E+00  0.00000000000E+00  0.20752040152E+03  0.20752040152E+03  0.00000000000E+00 0.  1.
          1   -1    0    0  501    0  0.00000000000E+00 -0.00000000000E+00 -0.12040144809E+04  0.12040144809E+04  0.00000000000E+00 0.  1.
         36    2    1    2    0    0 -0.21316282073E-13  0.28421709430E-13 -0.99649407941E+03  0.14115348824E+04  0.99971509645E+03 0.  0.
         25    2    3    3    0    0  0.61107987900E+02 -0.12036713065E+03 -0.11714538977E+03  0.21517269607E+03  0.11980740572E+03 0.  0.
         35    2    3    3    0    0 -0.61107987900E+02  0.12036713065E+03 -0.87934868965E+03  0.11963621864E+04  0.79987869748E+03 0.  0.
         22    1    5    5    0    0 -0.29017798879E+03 -0.99592996020E+02 -0.53325115370E+02  0.31139299601E+03  0.00000000000E+00 0. -1.
         22    1    5    5    0    0  0.22907000089E+03  0.21996012667E+03 -0.82602357428E+03  0.88496919036E+03  0.00000000000E+00 0. -1.
          5    1    4    4  502    0  0.12828798225E+02  0.17375123058E+02  0.73301009328E+01  0.23287192722E+02  0.47000000000E+01 0. -1.
         -5    1    4    4    0  502  0.48279189675E+02 -0.13774225370E+03 -0.12447549070E+03  0.19188550335E+03  0.47000000000E+01 0. -1.
<mgrwt>
<rscale>  0 0.99971510E+03</rscale>
<asrwt>0</asrwt>
<pdfrwt beam="1">  1        1 0.18523300E+00 0.99971510E+03</pdfrwt>
<pdfrwt beam="2">  1       -1 0.31926216E-01 0.99971510E+03</pdfrwt>
<totfact> 0.10693499E+02</totfact>
</mgrwt>
</event>
<event>
 9    1  0.4342579E-036  0.9992801E+03  0.7818608E-02  0.8681724E-01
          2   -1    0    0  501    0  0.00000000000E+00  0.00000000000E+00  0.11050360073E+04  0.11050360073E+04  0.00000000000E+00 0.  1.
         -2   -1    0    0    0  501 -0.00000000000E+00 -0.00000000000E+00 -0.22591135532E+03  0.22591135532E+03  0.00000000000E+00 0.  1.
         36    2    1    2    0    0  0.00000000000E+00  0.28421709430E-13  0.87912465194E+03  0.13309473626E+04  0.99928010504E+03 0.  0.
         25    2    3    3    0    0  0.48733478970E+02 -0.61026622046E+02  0.32073404605E+03  0.35291327129E+03  0.12481285264E+03 0.  0.
         35    2    3    3    0    0 -0.48733478970E+02  0.61026622046E+02  0.55839060588E+03  0.97803409129E+03  0.79915668953E+03 0.  0.
         22    1    5    5    0    0 -0.40169551929E+03  0.13766072847E+03  0.40099613686E+03  0.58404423476E+03  0.00000000000E+00 0.  1.
         22    1    5    5    0    0  0.35296204032E+03 -0.76634106429E+02  0.15739446903E+03  0.39398985654E+03  0.00000000000E+00 0.  1.
          5    1    4    4  502    0 -0.20496497613E+02 -0.26346031764E+00  0.19938357883E+03  0.20048959407E+03  0.47000000000E+01 0.  1.
         -5    1    4    4    0  502  0.69229976582E+02 -0.60763161728E+02  0.12135046722E+03  0.15242367722E+03  0.47000000000E+01 0.  1.
<mgrwt>
<rscale>  0 0.99928011E+03</rscale>
<asrwt>0</asrwt>
<pdfrwt beam="1">  1        2 0.17000554E+00 0.99928011E+03</pdfrwt>
<pdfrwt beam="2">  1       -2 0.34755594E-01 0.99928011E+03</pdfrwt>
<totfact> 0.20263888E+02</totfact>
</mgrwt>
</event>
<event>
 9    1  0.4342579E-036  0.9996782E+03  0.7818608E-02  0.8681344E-01
          3   -1    0    0  501    0  0.00000000000E+00  0.00000000000E+00  0.37048037078E+03  0.37048037078E+03  0.00000000000E+00 0. -1.
         -3   -1    0    0    0  501 -0.00000000000E+00 -0.00000000000E+00 -0.67436536608E+03  0.67436536608E+03  0.00000000000E+00 0. -1.
         36    2    1    2    0    0  0.14210854715E-13  0.00000000000E+00 -0.30388499530E+03  0.10448457369E+04  0.99967820996E+03 0.  0.
         25    2    3    3    0    0 -0.58259648035E+02 -0.14538566263E+03 -0.57124448438E+02  0.20217556459E+03  0.11437035813E+03 0.  0.
         35    2    3    3    0    0  0.58259648035E+02  0.14538566263E+03 -0.24676054686E+03  0.84267017228E+03  0.79036135677E+03 0.  0.
         22    1    5    5    0    0 -0.15413617665E+03 -0.28197336035E+03 -0.15467055956E+03  0.35663695672E+03  0.00000000000E+00 0.  1.
         22    1    5    5    0    0  0.21239582469E+03  0.42735902298E+03 -0.92089987302E+02  0.48603321556E+03  0.00000000000E+00 0.  1.
          5    1    4    4  502    0 -0.59007098976E+02 -0.66231153540E+02  0.20549140733E+02  0.91174341860E+02  0.47000000000E+01 0.  1.
         -5    1    4    4    0  502  0.74745094057E+00 -0.79154509092E+02 -0.77673589171E+02  0.11100122273E+03  0.47000000000E+01 0.  1.
<mgrwt>
<rscale>  0 0.99967821E+03</rscale>
<asrwt>0</asrwt>
<pdfrwt beam="1">  1        3 0.56996980E-01 0.99967821E+03</pdfrwt>
<pdfrwt beam="2">  1       -3 0.10374852E+00 0.99967821E+03</pdfrwt>
<totfact> 0.88915618E+00</totfact>
</mgrwt>
</event>
<event>
 9    1  0.4342579E-036  0.1000104E+04  0.7818608E-02  0.8680939E-01
         -2   -1    0    0    0  501 -0.00000000000E+00  0.00000000000E+00  0.26321694402E+03  0.26321694402E+03  0.00000000000E+00 0.  1.
          2   -1    0    0  501    0  0.00000000000E+00 -0.00000000000E+00 -0.94998378120E+03  0.94998378120E+03  0.00000000000E+00 0.  1.
         36    2    1    2    0    0  0.00000000000E+00 -0.14210854715E-13 -0.68676683719E+03  0.12132007252E+04  0.10001036501E+04 0.  0.
         25    2    3    3    0    0  0.88425814444E+02  0.44729954847E+02 -0.93666591593E+01  0.16032181481E+03  0.12567997645E+03 0.  0.
         35    2    3    3    0    0 -0.88425814444E+02 -0.44729954847E+02 -0.67740017803E+03  0.10528789104E+04  0.79991443622E+03 0.  0.
         22    1    5    5    0    0 -0.19625437958E+03 -0.26002279374E+03  0.85607464038E+01  0.32588482805E+03  0.00000000000E+00 0.  1.
         22    1    5    5    0    0  0.10782856514E+03  0.21529283890E+03 -0.68596092443E+03  0.72699408236E+03  0.00000000000E+00 0.  1.
          5    1    4    4  502    0  0.78271643302E+00  0.65602921789E+02 -0.21706714245E+02  0.69264907677E+02  0.47000000000E+01 0.  1.
         -5    1    4    4    0  502  0.87643098011E+02 -0.20872966942E+02  0.12340055085E+02  0.91056907137E+02  0.47000000000E+01 0.  1.
<mgrwt>
<rscale>  0 0.10001037E+04</rscale>
<asrwt>0</asrwt>
<pdfrwt beam="1">  1        2 0.14615135E+00 0.10001037E+04</pdfrwt>
<pdfrwt beam="2">  1       -2 0.40494915E-01 0.10001037E+04</pdfrwt>
<totfact> 0.18955241E+02</totfact>
</mgrwt>
</event>
<event>
 9    1  0.4342579E-036  0.1001909E+04  0.7818608E-02  0.8679222E-01
         -2   -1    0    0    0  501 -0.00000000000E+00  0.00000000000E+00  0.36037468170E+03  0.36037468170E+03  0.00000000000E+00 0. -1.
          2   -1    0    0  501    0  0.00000000000E+00 -0.00000000000E+00 -0.69637422423E+03  0.69637422423E+03  0.00000000000E+00 0. -1.
         36    2    1    2    0    0  0.00000000000E+00  0.28421709430E-13 -0.33599954252E+03  0.10567489059E+04  0.10019094558E+04 0.  0.
         25    2    3    3    0    0 -0.71389781213E+02 -0.10245846623E+03  0.48960746229E+01  0.17763123687E+03  0.12623251008E+03 0.  0.
         35    2    3    3    0    0  0.71389781213E+02  0.10245846623E+03 -0.34089561715E+03  0.87911766906E+03  0.80065211928E+03 0.  0.
         22    1    5    5    0    0  0.30370560890E+03  0.10475195832E+03  0.13582708495E+03  0.34879659783E+03  0.00000000000E+00 0. -1.
         22    1    5    5    0    0 -0.23231582769E+03 -0.22934920934E+01 -0.47672270209E+03  0.53032107123E+03  0.00000000000E+00 0. -1.
          5    1    4    4  502    0 -0.53602407356E+02 -0.10609969089E+03 -0.42761650762E+02  0.12641602453E+03  0.47000000000E+01 0. -1.
         -5    1    4    4    0  502 -0.17787373857E+02  0.36412246661E+01  0.47657725385E+02  0.51215212336E+02  0.47000000000E+01 0. -1.
<mgrwt>
<rscale>  0 0.10019095E+04</rscale>
<asrwt>0</asrwt>
<pdfrwt beam="1">  1        2 0.10713450E+00 0.10019095E+04</pdfrwt>
<pdfrwt beam="2">  1       -2 0.55442259E-01 0.10019095E+04</pdfrwt>
<totfact> 0.15262495E+02</totfact>
</mgrwt>
</event>
<event>
 9    1  0.4342579E-036  0.9999226E+03  0.7818608E-02  0.8681112E-01
         -2   -1    0    0    0  501 -0.00000000000E+00  0.00000000000E+00  0.14145680264E+04  0.14145680264E+04  0.00000000000E+00 0. -1.
          2   -1    0    0  501    0  0.00000000000E+00 -0.00000000000E+00 -0.17670502605E+03  0.17670502605E+03  0.00000000000E+00 0. -1.
         36    2    1    2    0    0 -0.21316282073E-13  0.00000000000E+00  0.12378630003E+04  0.15912730524E+04  0.99992255692E+03 0.  0.
         25    2    3    3    0    0  0.26010948511E+02 -0.68716057049E+02  0.43125944936E+02  0.15178398810E+03  0.12561873260E+03 0.  0.
         35    2    3    3    0    0 -0.26010948511E+02  0.68716057049E+02  0.11947370554E+04  0.14394890643E+04  0.79958343459E+03 0.  0.
         22    1    5    5    0    0 -0.15997830560E+03 -0.30257121057E+03  0.27644869751E+03  0.43996167797E+03  0.00000000000E+00 0. -1.
         22    1    5    5    0    0  0.13396735709E+03  0.37128726762E+03  0.91828835790E+03  0.99952738637E+03  0.00000000000E+00 0. -1.
          5    1    4    4  502    0 -0.32980577184E+02 -0.78030442540E+02  0.32954982606E+02  0.91019719363E+02  0.47000000000E+01 0. -1.
         -5    1    4    4    0  502  0.58991525695E+02  0.93143854907E+01  0.10170962330E+02  0.60764268741E+02  0.47000000000E+01 0. -1.
<mgrwt>
<rscale>  0 0.99992256E+03</rscale>
<asrwt>0</asrwt>
<pdfrwt beam="1">  1        2 0.27185389E-01 0.99992256E+03</pdfrwt>
<pdfrwt beam="2">  1       -2 0.21762584E+00 0.99992256E+03</pdfrwt>
<totfact> 0.22010741E+01</totfact>
</mgrwt>
</event>
<event>
 9    1  0.4342579E-036  0.1000267E+04  0.7818608E-02  0.8680783E-01
          2   -1    0    0  501    0  0.00000000000E+00  0.00000000000E+00  0.12477222027E+04  0.12477222027E+04  0.00000000000E+00 0.  1.
         -2   -1    0    0    0  501 -0.00000000000E+00 -0.00000000000E+00 -0.20047224615E+03  0.20047224615E+03  0.00000000000E+00 0.  1.
         36    2    1    2    0    0  0.00000000000E+00  0.10658141036E-13  0.10472499566E+04  0.14481944489E+04  0.10002673094E+04 0.  0.
         25    2    3    3    0    0 -0.13580000286E+03  0.28979050057E+02  0.18114032988E+03  0.26159854491E+03  0.12783017434E+03 0.  0.
         35    2    3    3    0    0  0.13580000286E+03 -0.28979050057E+02  0.86610962668E+03  0.11865959039E+04  0.79911358874E+03 0.  0.
         22    1    5    5    0    0  0.96980868848E+02  0.13943043843E+03 -0.10536394748E+03  0.19986920101E+03  0.00000000000E+00 0.  1.
         22    1    5    5    0    0  0.38819134008E+02 -0.16840948849E+03  0.97147357416E+03  0.98672670293E+03  0.00000000000E+00 0.  1.
          5    1    4    4  502    0 -0.84184728936E+02  0.41556771064E+01  0.18566325072E+03  0.20395409020E+03  0.47000000000E+01 0.  1.
         -5    1    4    4    0  502 -0.51615273920E+02  0.24823372951E+02 -0.45229208434E+01  0.57644454715E+02  0.47000000000E+01 0.  1.
<mgrwt>
<rscale>  0 0.10002673E+04</rscale>
<asrwt>0</asrwt>
<pdfrwt beam="1">  1        2 0.19195726E+00 0.10002673E+04</pdfrwt>
<pdfrwt beam="2">  1       -2 0.30841885E-01 0.10002673E+04</pdfrwt>
<totfact> 0.20781596E+02</totfact>
</mgrwt>
</event>
<event>
 9    1  0.4342579E-036  0.1001475E+04  0.7818608E-02  0.8679635E-01
          1   -1    0    0  501    0  0.00000000000E+00  0.00000000000E+00  0.71509305962E+03  0.71509305962E+03  0.00000000000E+00 0. -1.
         -1   -1    0    0    0  501 -0.00000000000E+00 -0.00000000000E+00 -0.35063682897E+03  0.35063682897E+03  0.00000000000E+00 0. -1.
         36    2    1    2    0    0 -0.14210854715E-13 -0.71054273576E-14  0.36445623065E+03  0.10657298886E+04  0.10014748381E+04 0.  0.
         25    2    3    3    0    0  0.76122990103E+02 -0.61520442100E+02 -0.39180105242E+02  0.16435904633E+03  0.12609258917E+03 0.  0.
         35    2    3    3    0    0 -0.76122990103E+02  0.61520442100E+02  0.40363633589E+03  0.90137084227E+03  0.79997976801E+03 0.  0.
         22    1    5    5    0    0 -0.25699674119E+03  0.11833401275E+03 -0.14712090846E+03  0.31889626097E+03  0.00000000000E+00 0. -1.
         22    1    5    5    0    0  0.18087375109E+03 -0.56813570648E+02  0.55075724436E+03  0.58247458130E+03  0.00000000000E+00 0. -1.
          5    1    4    4  502    0  0.92616912255E+01 -0.48727036060E+02 -0.72858550679E+02  0.88264156794E+02  0.47000000000E+01 0. -1.
         -5    1    4    4    0  502  0.66861298877E+02 -0.12793406040E+02  0.33678445437E+02  0.76094889531E+02  0.47000000000E+01 0. -1.
<mgrwt>
<rscale>  0 0.10014748E+04</rscale>
<asrwt>0</asrwt>
<pdfrwt beam="1">  1        1 0.11001432E+00 0.10014748E+04</pdfrwt>
<pdfrwt beam="2">  1       -1 0.53944128E-01 0.10014748E+04</pdfrwt>
<totfact> 0.10506123E+02</totfact>
</mgrwt>
</event>
<event>
 9    1  0.4342579E-036  0.1001778E+04  0.7818608E-02  0.8679347E-01
          2   -1    0    0  501    0  0.00000000000E+00  0.00000000000E+00  0.13227781202E+04  0.13227781202E+04  0.00000000000E+00 0.  1.
         -2   -1    0    0    0  501 -0.00000000000E+00 -0.00000000000E+00 -0.18966877268E+03  0.18966877268E+03  0.00000000000E+00 0.  1.
         36    2    1    2    0    0 -0.17763568394E-14  0.00000000000E+00  0.11331093476E+04  0.15124468929E+04  0.10017778249E+04 0.  0.
         25    2    3    3    0    0  0.77866210639E+01 -0.13727774912E+03  0.26681181728E+03  0.32510525901E+03  0.12489624384E+03 0.  0.
         35    2    3    3    0    0 -0.77866210639E+01  0.13727774912E+03  0.86629753029E+03  0.11873416339E+04  0.80025179336E+03 0.  0.
         22    1    5    5    0    0  0.71668623716E+02  0.23303315665E+03 -0.61334642304E+02  0.25140163498E+03  0.00000000000E+00 0. -1.
         22    1    5    5    0    0 -0.79455244780E+02 -0.95755407525E+02  0.92763217259E+03  0.93593999894E+03  0.00000000000E+00 0. -1.
          5    1    4    4  502    0 -0.15855136184E+02 -0.97076102701E+02  0.65168670602E+02  0.11808556511E+03  0.47000000000E+01 0.  1.
         -5    1    4    4    0  502  0.23641757248E+02 -0.40201646420E+02  0.20164314668E+03  0.20701969390E+03  0.47000000000E+01 0. -1.
<mgrwt>
<rscale>  0 0.10017778E+04</rscale>
<asrwt>0</asrwt>
<pdfrwt beam="1">  1        2 0.20350432E+00 0.10017778E+04</pdfrwt>
<pdfrwt beam="2">  1       -2 0.29179812E-01 0.10017778E+04</pdfrwt>
<totfact> 0.20791301E+02</totfact>
</mgrwt>
</event>
<event>
 9    1  0.4342579E-036  0.1001354E+04  0.7818608E-02  0.8679749E-01
         -3   -1    0    0    0  501 -0.00000000000E+00  0.00000000000E+00  0.27196991824E+03  0.27196991824E+03  0.00000000000E+00 0. -1.
          3   -1    0    0  501    0  0.00000000000E+00 -0.00000000000E+00 -0.92171105522E+03  0.92171105522E+03  0.00000000000E+00 0. -1.
         36    2    1    2    0    0  0.00000000000E+00  0.14210854715E-13 -0.64974113698E+03  0.11936809735E+04  0.10013544434E+04 0.  0.
         25    2    3    3    0    0  0.89606088712E+02  0.10743651483E+03 -0.98628750349E+02  0.21237363332E+03  0.12571027754E+03 0.  0.
         35    2    3    3    0    0 -0.89606088712E+02 -0.10743651483E+03 -0.55111238663E+03  0.98130734015E+03  0.79979208378E+03 0.  0.
         22    1    5    5    0    0  0.82849616151E+01 -0.91589053841E+02 -0.75182778358E+03  0.75743132463E+03  0.00000000000E+00 0.  1.
         22    1    5    5    0    0 -0.97891050327E+02 -0.15847460992E+02  0.20071539694E+03  0.22387601552E+03  0.00000000000E+00 0.  1.
          5    1    4    4  502    0  0.44697732470E+01  0.10124011623E+03 -0.41822096298E+02  0.10973020434E+03  0.47000000000E+01 0.  1.
         -5    1    4    4    0  502  0.85136315465E+02  0.61963986059E+01 -0.56806654051E+02  0.10264342897E+03  0.47000000000E+01 0.  1.
<mgrwt>
<rscale>  0 0.10013544E+04</rscale>
<asrwt>0</asrwt>
<pdfrwt beam="1">  1        3 0.14180170E+00 0.10013544E+04</pdfrwt>
<pdfrwt beam="2">  1       -3 0.41841526E-01 0.10013544E+04</pdfrwt>
<totfact> 0.88742238E+00</totfact>
</mgrwt>
</event>
<event>
 9    1  0.4342579E-036  0.1000493E+04  0.7818608E-02  0.8680568E-01
         -1   -1    0    0    0  501 -0.00000000000E+00  0.00000000000E+00  0.41910095433E+03  0.41910095433E+03  0.00000000000E+00 0.  1.
          1   -1    0    0  501    0  0.00000000000E+00 -0.00000000000E+00 -0.59710384851E+03  0.59710384851E+03  0.00000000000E+00 0.  1.
         36    2    1    2    0    0 -0.71054273576E-14  0.00000000000E+00 -0.17800289418E+03  0.10162048028E+04  0.10004934637E+04 0.  0.
         25    2    3    3    0    0  0.21121309167E+02 -0.10399759783E+03  0.60811676635E+02  0.17466792793E+03  0.12469649145E+03 0.  0.
         35    2    3    3    0    0 -0.21121309167E+02  0.10399759783E+03 -0.23881457081E+03  0.84153687490E+03  0.79993143614E+03 0.  0.
         22    1    5    5    0    0  0.37585437988E+03  0.15260116281E+03 -0.95943180575E+02  0.41684376409E+03  0.00000000000E+00 0. -1.
         22    1    5    5    0    0 -0.39697568904E+03 -0.48603564980E+02 -0.14287139024E+03  0.42469311081E+03  0.00000000000E+00 0. -1.
          5    1    4    4  502    0  0.12972038737E+02  0.21223799363E+02  0.40063821669E+02  0.47391172755E+02  0.47000000000E+01 0.  1.
         -5    1    4    4    0  502  0.81492704297E+01 -0.12522139719E+03  0.20747854966E+02  0.12727675518E+03  0.47000000000E+01 0.  1.
<mgrwt>
<rscale>  0 0.10004935E+04</rscale>
<asrwt>0</asrwt>
<pdfrwt beam="1">  1        1 0.91862130E-01 0.10004935E+04</pdfrwt>
<pdfrwt beam="2">  1       -1 0.64477070E-01 0.10004935E+04</pdfrwt>
<totfact> 0.97946435E+01</totfact>
</mgrwt>
</event>
<event>
 9    1  0.4342579E-036  0.1000135E+04  0.7818608E-02  0.8680909E-01
         -1   -1    0    0    0  501 -0.00000000000E+00  0.00000000000E+00  0.15442521574E+03  0.15442521574E+03  0.00000000000E+00 0.  1.
          1   -1    0    0  501    0  0.00000000000E+00 -0.00000000000E+00 -0.16193441417E+04  0.16193441417E+04  0.00000000000E+00 0.  1.
         36    2    1    2    0    0 -0.28421709430E-13  0.00000000000E+00 -0.14649189260E+04  0.17737693575E+04  0.10001351277E+04 0.  0.
         25    2    3    3    0    0 -0.80332792687E+02 -0.10091756658E+03 -0.37590572573E+03  0.41637769931E+03  0.12420773333E+03 0.  0.
         35    2    3    3    0    0  0.80332792687E+02  0.10091756658E+03 -0.10890132003E+04  0.13573916582E+04  0.79995290515E+03 0.  0.
         22    1    5    5    0    0  0.37320067259E+03 -0.15733548747E+03 -0.42496949437E+03  0.58705388916E+03  0.00000000000E+00 0. -1.
         22    1    5    5    0    0 -0.29286787990E+03  0.25825305405E+03 -0.66404370589E+03  0.77033776899E+03  0.00000000000E+00 0. -1.
          5    1    4    4  502    0 -0.99790642167E+02 -0.11353300899E+03 -0.28734793099E+03  0.32471347345E+03  0.47000000000E+01 0. -1.
         -5    1    4    4    0  502  0.19457849479E+02  0.12615442410E+02 -0.88557794734E+02  0.91664225856E+02  0.47000000000E+01 0. -1.
<mgrwt>
<rscale>  0 0.10001351E+04</rscale>
<asrwt>0</asrwt>
<pdfrwt beam="1">  1        1 0.24912986E+00 0.10001351E+04</pdfrwt>
<pdfrwt beam="2">  1       -1 0.23757726E-01 0.10001351E+04</pdfrwt>
<totfact> 0.88577169E+01</totfact>
</mgrwt>
</event>
<event>
 9    1  0.4342579E-036  0.1000225E+04  0.7818608E-02  0.8680823E-01
         -1   -1    0    0    0  501 -0.00000000000E+00  0.00000000000E+00  0.10878362236E+03  0.10878362236E+03  0.00000000000E+00 0.  1.
          1   -1    0    0  501    0  0.00000000000E+00 -0.00000000000E+00 -0.22991754348E+04  0.22991754348E+04  0.00000000000E+00 0.  1.
         36    2    1    2    0    0  0.00000000000E+00 -0.10658141036E-13 -0.21903918124E+04  0.24079590571E+04  0.10002252391E+04 0.  0.
         25    2    3    3    0    0  0.13736058483E+03 -0.23931051000E+02 -0.48232246634E+03  0.51768724515E+03  0.12619230085E+03 0.  0.
         35    2    3    3    0    0 -0.13736058483E+03  0.23931051000E+02 -0.17080693461E+04  0.18902718120E+04  0.79761269216E+03 0.  0.
         22    1    5    5    0    0 -0.64908408211E+02  0.30999688621E+03 -0.25239460114E+03  0.40498667336E+03  0.00000000000E+00 0. -1.
         22    1    5    5    0    0 -0.72452176614E+02 -0.28606583521E+03 -0.14556747449E+04  0.14852851386E+04  0.00000000000E+00 0. -1.
          5    1    4    4  502    0  0.21402976989E+00  0.28132326329E+02 -0.17269103281E+03  0.17503072989E+03  0.47000000000E+01 0.  1.
         -5    1    4    4    0  502  0.13714655506E+03 -0.52063377329E+02 -0.30963143353E+03  0.34265651526E+03  0.47000000000E+01 0.  1.
<mgrwt>
<rscale>  0 0.10002252E+04</rscale>
<asrwt>0</asrwt>
<pdfrwt beam="1">  1        1 0.35371926E+00 0.10002252E+04</pdfrwt>
<pdfrwt beam="2">  1       -1 0.16735944E-01 0.10002252E+04</pdfrwt>
<totfact> 0.52610365E+01</totfact>
</mgrwt>
</event>
<event>
 9    1  0.4342579E-036  0.9998762E+03  0.7818608E-02  0.8681156E-01
         -1   -1    0    0    0  501 -0.00000000000E+00  0.00000000000E+00  0.37571506973E+03  0.37571506973E+03  0.00000000000E+00 0. -1.
          1   -1    0    0  501    0  0.00000000000E+00 -0.00000000000E+00 -0.66523306004E+03  0.66523306004E+03  0.00000000000E+00 0. -1.
         36    2    1    2    0    0 -0.14210854715E-13  0.21316282073E-13 -0.28951799031E+03  0.10409481298E+04  0.99987616341E+03 0.  0.
         25    2    3    3    0    0 -0.11893946364E+03  0.97478004812E+01 -0.12669188947E+03  0.21443091603E+03  0.12525241421E+03 0.  0.
         35    2    3    3    0    0  0.11893946364E+03 -0.97478004812E+01 -0.16282610085E+03  0.82651721375E+03  0.80148409209E+03 0.  0.
         22    1    5    5    0    0  0.43158853623E+03  0.13789052292E+03 -0.16076043123E+03  0.48075604745E+03  0.00000000000E+00 0.  1.
         22    1    5    5    0    0 -0.31264907259E+03 -0.14763832340E+03 -0.20656696191E+01  0.34576116629E+03  0.00000000000E+00 0.  1.
          5    1    4    4  502    0 -0.85480556975E+02  0.61725734440E+02 -0.52910379674E+02  0.11806180665E+03  0.47000000000E+01 0.  1.
         -5    1    4    4    0  502 -0.33458906668E+02 -0.51977933959E+02 -0.73781509794E+02  0.96369109374E+02  0.47000000000E+01 0.  1.
<mgrwt>
<rscale>  0 0.99987616E+03</rscale>
<asrwt>0</asrwt>
<pdfrwt beam="1">  1        1 0.10234355E+00 0.99987616E+03</pdfrwt>
<pdfrwt beam="2">  1       -1 0.57802318E-01 0.99987616E+03</pdfrwt>
<totfact> 0.10297963E+02</totfact>
</mgrwt>
</event>
<event>
 9    1  0.4342579E-036  0.1010091E+04  0.7818608E-02  0.8671487E-01
         -2   -1    0    0    0  501 -0.00000000000E+00  0.00000000000E+00  0.18632873522E+03  0.18632873522E+03  0.00000000000E+00 0.  1.
          2   -1    0    0  501    0  0.00000000000E+00 -0.00000000000E+00 -0.13689303876E+04  0.13689303876E+04  0.00000000000E+00 0.  1.
         36    2    1    2    0    0  0.00000000000E+00  0.00000000000E+00 -0.11826016524E+04  0.15552591228E+04  0.10100912191E+04 0.  0.
         25    2    3    3    0    0 -0.12129024612E+03  0.94691743875E+02 -0.21134017665E+03  0.28987512345E+03  0.12524003661E+03 0.  0.
         35    2    3    3    0    0  0.12129024612E+03 -0.94691743875E+02 -0.97126147573E+03  0.12653839994E+04  0.79634788972E+03 0.  0.
         22    1    5    5    0    0  0.61206378910E+02 -0.77160160492E+02  0.12958248338E+03  0.16276219212E+03  0.00000000000E+00 0. -1.
         22    1    5    5    0    0  0.60083867205E+02 -0.17531583383E+02 -0.11008439591E+04  0.11026218073E+04  0.00000000000E+00 0. -1.
          5    1    4    4  502    0 -0.82631587998E+02  0.78658040458E+02 -0.52728482418E+02  0.12576744222E+03  0.47000000000E+01 0.  1.
         -5    1    4    4    0  502 -0.38658658117E+02  0.16033703416E+02 -0.15861169424E+03  0.16410768124E+03  0.47000000000E+01 0.  1.
<mgrwt>
<rscale>  0 0.10100912E+04</rscale>
<asrwt>0</asrwt>
<pdfrwt beam="1">  1        2 0.21060467E+00 0.10100912E+04</pdfrwt>
<pdfrwt beam="2">  1       -2 0.28665960E-01 0.10100912E+04</pdfrwt>
<totfact> 0.20197146E+02</totfact>
</mgrwt>
</event>
<event>
 9    1  0.4342579E-036  0.9993717E+03  0.7818608E-02  0.8681636E-01
         -2   -1    0    0    0  501 -0.00000000000E+00  0.00000000000E+00  0.35666398803E+03  0.35666398803E+03  0.00000000000E+00 0.  1.
          2   -1    0    0  501    0  0.00000000000E+00 -0.00000000000E+00 -0.70005936600E+03  0.70005936600E+03  0.00000000000E+00 0.  1.
         36    2    1    2    0    0  0.00000000000E+00 -0.28421709430E-13 -0.34339537797E+03  0.10567233540E+04  0.99937173331E+03 0.  0.
         25    2    3    3    0    0 -0.78097877865E+01 -0.44339286330E+02  0.75569368791E+02  0.15282923551E+03  0.12497632028E+03 0.  0.
         35    2    3    3    0    0  0.78097877865E+01  0.44339286330E+02 -0.41896474676E+03  0.90389411851E+03  0.79966627624E+03 0.  0.
         22    1    5    5    0    0  0.39191416854E+02  0.25339376196E+03  0.14990788758E+03  0.29701303088E+03  0.00000000000E+00 0. -1.
         22    1    5    5    0    0 -0.31381629067E+02 -0.20905447563E+03 -0.56887263434E+03  0.60688108763E+03  0.00000000000E+00 0. -1.
          5    1    4    4  502    0  0.43216356755E+02 -0.12894862798E+02 -0.11725037831E+02  0.46834789311E+02  0.47000000000E+01 0. -1.
         -5    1    4    4    0  502 -0.51026144541E+02 -0.31444423532E+02  0.87294406622E+02  0.10599444620E+03  0.47000000000E+01 0. -1.
<mgrwt>
<rscale>  0 0.99937173E+03</rscale>
<asrwt>0</asrwt>
<pdfrwt beam="1">  1        2 0.10770144E+00 0.99937173E+03</pdfrwt>
<pdfrwt beam="2">  1       -2 0.54871383E-01 0.99937173E+03</pdfrwt>
<totfact> 0.15489690E+02</totfact>
</mgrwt>
</event>
<event>
 9    1  0.4342579E-036  0.1000044E+04  0.7818608E-02  0.8680996E-01
         -1   -1    0    0    0  501 -0.00000000000E+00  0.00000000000E+00  0.74725957024E+03  0.74725957024E+03  0.00000000000E+00 0.  1.
          1   -1    0    0  501    0  0.00000000000E+00 -0.00000000000E+00 -0.33458496098E+03  0.33458496098E+03  0.00000000000E+00 0.  1.
         36    2    1    2    0    0  0.00000000000E+00  0.14210854715E-13  0.41267460926E+03  0.10818445312E+04  0.10000436274E+04 0.  0.
         25    2    3    3    0    0 -0.13646436559E+03 -0.18334223804E+02  0.11188459661E+03  0.21665504110E+03  0.12434861091E+03 0.  0.
         35    2    3    3    0    0  0.13646436559E+03  0.18334223804E+02  0.30079001265E+03  0.86518949013E+03  0.79944953266E+03 0.  0.
         22    1    5    5    0    0 -0.16308537825E+03 -0.21151209473E+03  0.39427165708E+03  0.47621880096E+03  0.00000000000E+00 0. -1.
         22    1    5    5    0    0  0.29954974385E+03  0.22984631854E+03 -0.93481644428E+02  0.38897068916E+03  0.00000000000E+00 0. -1.
          5    1    4    4  502    0 -0.72444379327E+02 -0.63885109395E+02  0.25959007401E+02  0.10012719592E+03  0.47000000000E+01 0.  1.
         -5    1    4    4    0  502 -0.64019986266E+02  0.45550885591E+02  0.85925589213E+02  0.11652784518E+03  0.47000000000E+01 0.  1.
<mgrwt>
<rscale>  0 0.10000436E+04</rscale>
<asrwt>0</asrwt>
<pdfrwt beam="1">  1        1 0.51474609E-01 0.10000436E+04</pdfrwt>
<pdfrwt beam="2">  1       -1 0.11496301E+00 0.10000436E+04</pdfrwt>
<totfact> 0.62798953E+01</totfact>
</mgrwt>
</event>
<event>
 9    1  0.4342579E-036  0.1000068E+04  0.7818608E-02  0.8680973E-01
          1   -1    0    0  501    0  0.00000000000E+00  0.00000000000E+00  0.53497551053E+03  0.53497551053E+03  0.00000000000E+00 0.  1.
         -1   -1    0    0    0  501 -0.00000000000E+00 -0.00000000000E+00 -0.46737465579E+03  0.46737465579E+03  0.00000000000E+00 0.  1.
         36    2    1    2    0    0  0.71054273576E-14  0.28421709430E-13  0.67600854741E+02  0.10023501663E+04  0.10000679879E+04 0.  0.
         25    2    3    3    0    0 -0.11789324963E+02  0.14166570916E+03  0.23470451838E+02  0.18868239336E+03  0.12182783803E+03 0.  0.
         35    2    3    3    0    0  0.11789324963E+02 -0.14166570916E+03  0.44130402904E+02  0.81366777296E+03  0.79993724189E+03 0.  0.
         22    1    5    5    0    0 -0.16997410392E+03 -0.24222086275E+03  0.34090529161E+03  0.45141838709E+03  0.00000000000E+00 0.  1.
         22    1    5    5    0    0  0.18176342888E+03  0.10055515359E+03 -0.29677488871E+03  0.36224938587E+03  0.00000000000E+00 0.  1.
          5    1    4    4  502    0  0.53316172488E+02  0.77256416681E+02  0.23908430335E+02  0.96978715233E+02  0.47000000000E+01 0. -1.
         -5    1    4    4    0  502 -0.65105497451E+02  0.64409292480E+02 -0.43797849761E+00  0.91703678123E+02  0.47000000000E+01 0. -1.
<mgrwt>
<rscale>  0 0.10000680E+04</rscale>
<asrwt>0</asrwt>
<pdfrwt beam="1">  1        1 0.82303925E-01 0.10000680E+04</pdfrwt>
<pdfrwt beam="2">  1       -1 0.71903793E-01 0.10000680E+04</pdfrwt>
<totfact> 0.92487865E+01</totfact>
</mgrwt>
</event>
<event>
 9    1  0.4342579E-036  0.1000729E+04  0.7818608E-02  0.8680344E-01
         -2   -1    0    0    0  501 -0.00000000000E+00  0.00000000000E+00  0.14169679851E+03  0.14169679851E+03  0.00000000000E+00 0. -1.
          2   -1    0    0  501    0  0.00000000000E+00 -0.00000000000E+00 -0.17669047429E+04  0.17669047429E+04  0.00000000000E+00 0. -1.
         36    2    1    2    0    0  0.00000000000E+00  0.00000000000E+00 -0.16252079444E+04  0.19086015414E+04  0.10007292248E+04 0.  0.
         25    2    3    3    0    0  0.12244426090E+03  0.68580809004E+02 -0.31392400767E+03  0.36600875186E+03  0.12537224357E+03 0.  0.
         35    2    3    3    0    0 -0.12244426090E+03 -0.68580809004E+02 -0.13112839368E+04  0.15425927896E+04  0.80026934672E+03 0.  0.
         22    1    5    5    0    0 -0.22432175994E+03 -0.15630192178E+03 -0.13691843026E+04  0.13962149538E+04  0.00000000000E+00 0.  1.
         22    1    5    5    0    0  0.10187749905E+03  0.87721112777E+02  0.57900365855E+02  0.14637783577E+03  0.00000000000E+00 0.  1.
          5    1    4    4  502    0  0.14161070832E+03  0.30134732612E+02 -0.23634012668E+03  0.27720108278E+03  0.47000000000E+01 0.  1.
         -5    1    4    4    0  502 -0.19166447422E+02  0.38446076392E+02 -0.77583880991E+02  0.88807669074E+02  0.47000000000E+01 0.  1.
<mgrwt>
<rscale>  0 0.10007292E+04</rscale>
<asrwt>0</asrwt>
<pdfrwt beam="1">  1        2 0.27183150E+00 0.10007292E+04</pdfrwt>
<pdfrwt beam="2">  1       -2 0.21799507E-01 0.10007292E+04</pdfrwt>
<totfact> 0.19557003E+02</totfact>
</mgrwt>
</event>
<event>
 9    1  0.4342579E-036  0.1001775E+04  0.7818608E-02  0.8679349E-01
         -2   -1    0    0    0  501 -0.00000000000E+00  0.00000000000E+00  0.10204876823E+03  0.10204876823E+03  0.00000000000E+00 0. -1.
          2   -1    0    0  501    0  0.00000000000E+00 -0.00000000000E+00 -0.24585145407E+04  0.24585145407E+04  0.00000000000E+00 0. -1.
         36    2    1    2    0    0  0.35527136788E-14 -0.28421709430E-13 -0.23564657724E+04  0.25605633089E+04  0.10017751854E+04 0.  0.
         25    2    3    3    0    0 -0.20910147535E+02 -0.14136031819E+03 -0.44495683131E+03  0.48346998215E+03  0.12384130202E+03 0.  0.
         35    2    3    3    0    0  0.20910147535E+02  0.14136031819E+03 -0.19115089411E+04  0.20770933267E+04  0.80001892610E+03 0.  0.
         22    1    5    5    0    0  0.12660495021E+03  0.44822876675E+03 -0.87902012330E+03  0.99479355543E+03  0.00000000000E+00 0. -1.
         22    1    5    5    0    0 -0.10569480267E+03 -0.30686844855E+03 -0.10324888178E+04  0.10822997713E+04  0.00000000000E+00 0. -1.
          5    1    4    4  502    0 -0.23760359419E+02 -0.77743077090E+02 -0.39242448456E+03  0.40078374068E+03  0.47000000000E+01 0.  1.
         -5    1    4    4    0  502  0.28502118842E+01 -0.63617241104E+02 -0.52532346749E+02  0.82686241470E+02  0.47000000000E+01 0.  1.
<mgrwt>
<rscale>  0 0.10017752E+04</rscale>
<asrwt>0</asrwt>
<pdfrwt beam="1">  1        2 0.37823301E+00 0.10017752E+04</pdfrwt>
<pdfrwt beam="2">  1       -2 0.15699810E-01 0.10017752E+04</pdfrwt>
<totfact> 0.13667219E+02</totfact>
</mgrwt>
</event>
<event>
 9    1  0.4342579E-036  0.9972287E+03  0.7818608E-02  0.8683682E-01
         -2   -1    0    0    0  501 -0.00000000000E+00  0.00000000000E+00  0.23967735962E+03  0.23967735962E+03  0.00000000000E+00 0. -1.
          2   -1    0    0  501    0  0.00000000000E+00 -0.00000000000E+00 -0.10372955399E+04  0.10372955399E+04  0.00000000000E+00 0. -1.
         36    2    1    2    0    0  0.28421709430E-13 -0.28421709430E-13 -0.79761818025E+03  0.12769728995E+04  0.99722867215E+03 0.  0.
         25    2    3    3    0    0 -0.11003256855E+03  0.81725909918E+02 -0.12893513132E+03  0.22571732181E+03  0.12465051457E+03 0.  0.
         35    2    3    3    0    0  0.11003256855E+03 -0.81725909918E+02 -0.66868304893E+03  0.10512555777E+04  0.79950921144E+03 0.  0.
         22    1    5    5    0    0  0.17076927058E+03 -0.36637233482E+03 -0.64243339765E+03  0.75902009322E+03  0.00000000000E+00 0.  1.
         22    1    5    5    0    0 -0.60736702030E+02  0.28464642490E+03 -0.26249651284E+02  0.29223548446E+03  0.00000000000E+00 0.  1.
          5    1    4    4  502    0 -0.46518574100E+02  0.12523929598E+02 -0.12218970666E+03  0.13142770242E+03  0.47000000000E+01 0.  1.
         -5    1    4    4    0  502 -0.63513994447E+02  0.69201980320E+02 -0.67454246561E+01  0.94289619390E+02  0.47000000000E+01 0.  1.
<mgrwt>
<rscale>  0 0.99722867E+03</rscale>
<asrwt>0</asrwt>
<pdfrwt beam="1">  1        2 0.15958393E+00 0.99722867E+03</pdfrwt>
<pdfrwt beam="2">  1       -2 0.36873440E-01 0.99722867E+03</pdfrwt>
<totfact> 0.19956180E+02</totfact>
</mgrwt>
</event>
<event>
 9    1  0.4342579E-036  0.1002120E+04  0.7818608E-02  0.8679022E-01
          1   -1    0    0  501    0  0.00000000000E+00  0.00000000000E+00  0.17586627093E+04  0.17586627093E+04  0.00000000000E+00 0.  1.
         -1   -1    0    0    0  501 -0.00000000000E+00 -0.00000000000E+00 -0.14275682130E+03  0.14275682130E+03  0.00000000000E+00 0.  1.
         36    2    1    2    0    0  0.00000000000E+00  0.00000000000E+00  0.16159058880E+04  0.19014195306E+04  0.10021199491E+04 0.  0.
         25    2    3    3    0    0 -0.14013920396E+03 -0.38120523070E+02  0.31968996267E+03  0.37253877139E+03  0.12446402369E+03 0.  0.
         35    2    3    3    0    0  0.14013920396E+03  0.38120523070E+02  0.12962159253E+04  0.15288807592E+04  0.79762677990E+03 0.  0.
         22    1    5    5    0    0 -0.28534727664E+03 -0.89519563476E+02  0.84208379709E+03  0.89361173999E+03  0.00000000000E+00 0. -1.
         22    1    5    5    0    0  0.42548648061E+03  0.12764008655E+03  0.45413212825E+03  0.63526901922E+03  0.00000000000E+00 0. -1.
          5    1    4    4  502    0  0.24588196444E+01  0.30786994483E+02  0.72281286248E+02  0.78743629362E+02  0.47000000000E+01 0. -1.
         -5    1    4    4    0  502 -0.14259802361E+03 -0.68907517553E+02  0.24740867642E+03  0.29379514203E+03  0.47000000000E+01 0. -1.
<mgrwt>
<rscale>  0 0.10021199E+04</rscale>
<asrwt>0</asrwt>
<pdfrwt beam="1">  1        1 0.27056348E+00 0.10021199E+04</pdfrwt>
<pdfrwt beam="2">  1       -1 0.21962589E-01 0.10021199E+04</pdfrwt>
<totfact> 0.80529040E+01</totfact>
</mgrwt>
</event>
<event>
 9    1  0.4342579E-036  0.9994054E+03  0.7818608E-02  0.8681604E-01
         -1   -1    0    0    0  501 -0.00000000000E+00  0.00000000000E+00  0.49173584930E+03  0.49173584930E+03  0.00000000000E+00 0. -1.
          1   -1    0    0  501    0  0.00000000000E+00 -0.00000000000E+00 -0.50779858728E+03  0.50779858728E+03  0.00000000000E+00 0. -1.
         36    2    1    2    0    0 -0.28421709430E-13  0.00000000000E+00 -0.16062737977E+02  0.99953443659E+03  0.99940536239E+03 0.  0.
         25    2    3    3    0    0 -0.10628129095E+03  0.76455520700E+02  0.44730343994E+02  0.18620563854E+03  0.12462173446E+03 0.  0.
         35    2    3    3    0    0  0.10628129095E+03 -0.76455520700E+02 -0.60793081971E+02  0.81332879804E+03  0.80041662617E+03 0.  0.
         22    1    5    5    0    0 -0.14699438788E+03  0.29781509706E+03  0.76899534829E+02  0.34090280222E+03  0.00000000000E+00 0. -1.
         22    1    5    5    0    0  0.25327567883E+03 -0.37427061776E+03 -0.13769261680E+03  0.47242599582E+03  0.00000000000E+00 0. -1.
          5    1    4    4  502    0 -0.10988156916E+03  0.88324799885E+02  0.15842313529E+01  0.14106675478E+03  0.47000000000E+01 0. -1.
         -5    1    4    4    0  502  0.36002782079E+01 -0.11869279185E+02  0.43146112641E+02  0.45138883765E+02  0.47000000000E+01 0. -1.
<mgrwt>
<rscale>  0 0.99940536E+03</rscale>
<asrwt>0</asrwt>
<pdfrwt beam="1">  1        1 0.78122859E-01 0.99940536E+03</pdfrwt>
<pdfrwt beam="2">  1       -1 0.75651669E-01 0.99940536E+03</pdfrwt>
<totfact> 0.89807026E+01</totfact>
</mgrwt>
</event>
<event>
 9    1  0.4342579E-036  0.9999405E+03  0.7818608E-02  0.8681095E-01
         -2   -1    0    0    0  501 -0.00000000000E+00  0.00000000000E+00  0.27726215201E+03  0.27726215201E+03  0.00000000000E+00 0.  1.
          2   -1    0    0  501    0  0.00000000000E+00 -0.00000000000E+00 -0.90156652050E+03  0.90156652050E+03  0.00000000000E+00 0.  1.
         36    2    1    2    0    0  0.21316282073E-13  0.00000000000E+00 -0.62430436849E+03  0.11788286725E+04  0.99994054554E+03 0.  0.
         25    2    3    3    0    0 -0.11102354303E+02 -0.21438021829E+02 -0.27918150946E+03  0.30698109010E+03  0.12534840807E+03 0.  0.
         35    2    3    3    0    0  0.11102354303E+02  0.21438021829E+02 -0.34512285903E+03  0.87184758240E+03  0.80026593584E+03 0.  0.
         22    1    5    5    0    0  0.16242277973E+03  0.37818796384E+03 -0.15087596467E+03  0.43837296003E+03  0.00000000000E+00 0.  1.
         22    1    5    5    0    0 -0.15132042542E+03 -0.35674994201E+03 -0.19424689436E+03  0.43347462238E+03  0.00000000000E+00 0.  1.
          5    1    4    4  502    0  0.35897179744E+02  0.12978782882E+02 -0.24318490928E+02  0.45503135273E+02  0.47000000000E+01 0. -1.
         -5    1    4    4    0  502 -0.46999534046E+02 -0.34416804711E+02 -0.25486301853E+03  0.26147795483E+03  0.47000000000E+01 0. -1.
<mgrwt>
<rscale>  0 0.99994055E+03</rscale>
<asrwt>0</asrwt>
<pdfrwt beam="1">  1        2 0.13870254E+00 0.99994055E+03</pdfrwt>
<pdfrwt beam="2">  1       -2 0.42655716E-01 0.99994055E+03</pdfrwt>
<totfact> 0.18436222E+02</totfact>
</mgrwt>
</event>
<event>
 9    1  0.4342579E-036  0.1000035E+04  0.7818608E-02  0.8681005E-01
         -1   -1    0    0    0  501 -0.00000000000E+00  0.00000000000E+00  0.91112558710E+02  0.91112558710E+02  0.00000000000E+00 0.  1.
          1   -1    0    0  501    0  0.00000000000E+00 -0.00000000000E+00 -0.27440485228E+04  0.27440485228E+04  0.00000000000E+00 0.  1.
         36    2    1    2    0    0 -0.10658141036E-13  0.00000000000E+00 -0.26529359641E+04  0.28351610815E+04  0.10000345637E+04 0.  0.
         25    2    3    3    0    0  0.22525749879E+02  0.12369888446E+03 -0.32787548830E+03  0.37310740067E+03  0.12608716502E+03 0.  0.
         35    2    3    3    0    0 -0.22525749879E+02 -0.12369888446E+03 -0.23250604758E+04  0.24620536808E+04  0.79999580488E+03 0.  0.
         22    1    5    5    0    0  0.30064881073E+03 -0.31381454400E+03 -0.12159853965E+04  0.12913131920E+04  0.00000000000E+00 0. -1.
         22    1    5    5    0    0 -0.32317456061E+03  0.19011565954E+03 -0.11090750793E+04  0.11707404888E+04  0.00000000000E+00 0. -1.
          5    1    4    4  502    0  0.21990875167E+00  0.71163938570E+01 -0.19376120852E+03  0.19394892975E+03  0.47000000000E+01 0.  1.
         -5    1    4    4    0  502  0.22305841127E+02  0.11658249060E+03 -0.13411427977E+03  0.17915847092E+03  0.47000000000E+01 0.  1.
<mgrwt>
<rscale>  0 0.10000346E+04</rscale>
<asrwt>0</asrwt>
<pdfrwt beam="1">  1        1 0.42216136E+00 0.10000346E+04</pdfrwt>
<pdfrwt beam="2">  1       -1 0.14017315E-01 0.10000346E+04</pdfrwt>
<totfact> 0.34093720E+01</totfact>
</mgrwt>
</event>
<event>
 9    1  0.4342579E-036  0.1000164E+04  0.7818608E-02  0.8680882E-01
         -2   -1    0    0    0  501 -0.00000000000E+00  0.00000000000E+00  0.37111517950E+03  0.37111517950E+03  0.00000000000E+00 0. -1.
          2   -1    0    0  501    0  0.00000000000E+00 -0.00000000000E+00 -0.67386567222E+03  0.67386567222E+03  0.00000000000E+00 0. -1.
         36    2    1    2    0    0 -0.14210854715E-13 -0.28421709430E-13 -0.30275049271E+03  0.10449808517E+04  0.10001635464E+04 0.  0.
         25    2    3    3    0    0  0.77315700927E+02  0.11634368173E+03 -0.52560300439E+02  0.19470735125E+03  0.12503918410E+03 0.  0.
         35    2    3    3    0    0 -0.77315700927E+02 -0.11634368173E+03 -0.25019019227E+03  0.85027350047E+03  0.80053502322E+03 0.  0.
         22    1    5    5    0    0  0.28306524009E+03  0.15662054603E+03 -0.23149030940E+03  0.39779855320E+03  0.00000000000E+00 0.  1.
         22    1    5    5    0    0 -0.36038094102E+03 -0.27296422776E+03 -0.18699882877E+02  0.45247494726E+03  0.00000000000E+00 0.  1.
          5    1    4    4  502    0  0.98101353611E+02  0.67854461906E+02  0.10038091909E+01  0.11937839509E+03  0.47000000000E+01 0.  1.
         -5    1    4    4    0  502 -0.20785652684E+02  0.48489219822E+02 -0.53564109629E+02  0.75328956164E+02  0.47000000000E+01 0.  1.
<mgrwt>
<rscale>  0 0.10001635E+04</rscale>
<asrwt>0</asrwt>
<pdfrwt beam="1">  1        2 0.10367164E+00 0.10001635E+04</pdfrwt>
<pdfrwt beam="2">  1       -2 0.57094643E-01 0.10001635E+04</pdfrwt>
<totfact> 0.14956978E+02</totfact>
</mgrwt>
</event>
<event>
 9    1  0.4342579E-036  0.9993896E+03  0.7818608E-02  0.8681619E-01
         -1   -1    0    0    0  501 -0.00000000000E+00  0.00000000000E+00  0.64205462424E+03  0.64205462424E+03  0.00000000000E+00 0. -1.
          1   -1    0    0  501    0  0.00000000000E+00 -0.00000000000E+00 -0.38889974865E+03  0.38889974865E+03  0.00000000000E+00 0. -1.
         36    2    1    2    0    0  0.28421709430E-13  0.00000000000E+00  0.25315487559E+03  0.10309543729E+04  0.99938957767E+03 0.  0.
         25    2    3    3    0    0 -0.95915954636E+01 -0.12158029494E+03  0.11851001915E+03  0.21137266356E+03  0.12553888417E+03 0.  0.
         35    2    3    3    0    0  0.95915954636E+01  0.12158029494E+03  0.13464485644E+03  0.81958170934E+03  0.79919407786E+03 0.  0.
         22    1    5    5    0    0  0.31890348334E+03  0.15246052198E+03  0.30344553454E+03  0.46585709706E+03  0.00000000000E+00 0. -1.
         22    1    5    5    0    0 -0.30931188788E+03 -0.30880227039E+02 -0.16880067810E+03  0.35372461228E+03  0.00000000000E+00 0. -1.
          5    1    4    4  502    0 -0.43289516165E+02 -0.76570523341E+02  0.12674898050E+03  0.15435161584E+03  0.47000000000E+01 0. -1.
         -5    1    4    4    0  502  0.33697920701E+02 -0.45009771603E+02 -0.82389613452E+01  0.57021047723E+02  0.47000000000E+01 0. -1.
<mgrwt>
<rscale>  0 0.99938958E+03</rscale>
<asrwt>0</asrwt>
<pdfrwt beam="1">  1        1 0.59830730E-01 0.99938958E+03</pdfrwt>
<pdfrwt beam="2">  1       -1 0.98777635E-01 0.99938958E+03</pdfrwt>
<totfact> 0.73115095E+01</totfact>
</mgrwt>
</event>
<event>
 9    1  0.4342579E-036  0.1004525E+04  0.7818608E-02  0.8676741E-01
          2   -1    0    0  501    0  0.00000000000E+00  0.00000000000E+00  0.21865487067E+04  0.21865487067E+04  0.00000000000E+00 0. -1.
         -2   -1    0    0    0  501 -0.00000000000E+00 -0.00000000000E+00 -0.11537246511E+03  0.11537246511E+03  0.00000000000E+00 0. -1.
         36    2    1    2    0    0  0.00000000000E+00 -0.71054273576E-14  0.20711762416E+04  0.23019211718E+04  0.10045247919E+04 0.  0.
         25    2    3    3    0    0 -0.10556189920E+03 -0.53710561387E+02  0.19925540040E+03  0.26323520858E+03  0.12474743075E+03 0.  0.
         35    2    3    3    0    0  0.10556189920E+03  0.53710561387E+02  0.18719208412E+04  0.20386859633E+04  0.79882706640E+03 0.  0.
         22    1    5    5    0    0 -0.48307188931E+02  0.24458450595E+02 -0.71095858466E+02  0.89366780176E+02  0.00000000000E+00 0.  1.
         22    1    5    5    0    0  0.15386908813E+03  0.29252110792E+02  0.19430166997E+04  0.19493191831E+04  0.00000000000E+00 0.  1.
          5    1    4    4  502    0 -0.13347194393E+03 -0.36523516444E+02  0.15299397811E+03  0.20634431033E+03  0.47000000000E+01 0. -1.
         -5    1    4    4    0  502  0.27910044728E+02 -0.17187044943E+02  0.46261422299E+02  0.56890898250E+02  0.47000000000E+01 0. -1.
<mgrwt>
<rscale>  0 0.10045248E+04</rscale>
<asrwt>0</asrwt>
<pdfrwt beam="1">  1        2 0.33639208E+00 0.10045248E+04</pdfrwt>
<pdfrwt beam="2">  1       -2 0.17749612E-01 0.10045248E+04</pdfrwt>
<totfact> 0.16077807E+02</totfact>
</mgrwt>
</event>
<event>
 9    1  0.4342579E-036  0.1000588E+04  0.7818608E-02  0.8680478E-01
         -1   -1    0    0    0  501 -0.00000000000E+00  0.00000000000E+00  0.13195666070E+03  0.13195666070E+03  0.00000000000E+00 0.  1.
          1   -1    0    0  501    0  0.00000000000E+00 -0.00000000000E+00 -0.18967900767E+04  0.18967900767E+04  0.00000000000E+00 0.  1.
         36    2    1    2    0    0  0.28421709430E-13  0.00000000000E+00 -0.17648334160E+04  0.20287467374E+04  0.10005879963E+04 0.  0.
         25    2    3    3    0    0  0.92344741578E+02  0.45993961086E+02 -0.52835150132E+03  0.55244003231E+03  0.12406322824E+03 0.  0.
         35    2    3    3    0    0 -0.92344741578E+02 -0.45993961086E+02 -0.12364819147E+04  0.14763067051E+04  0.79996935341E+03 0.  0.
         22    1    5    5    0    0  0.28801226089E+03 -0.18757381712E+02 -0.15088338312E+03  0.32568189555E+03  0.00000000000E+00 0. -1.
         22    1    5    5    0    0 -0.38035700246E+03 -0.27236579374E+02 -0.10855985316E+04  0.11506248096E+04  0.00000000000E+00 0. -1.
          5    1    4    4  502    0 -0.85522541274E+01  0.55837521578E+02 -0.24472715353E+03  0.25120597035E+03  0.47000000000E+01 0. -1.
         -5    1    4    4    0  502  0.10089699571E+03 -0.98435604917E+01 -0.28362434780E+03  0.30123406197E+03  0.47000000000E+01 0. -1.
<mgrwt>
<rscale>  0 0.10005880E+04</rscale>
<asrwt>0</asrwt>
<pdfrwt beam="1">  1        1 0.29181385E+00 0.10005880E+04</pdfrwt>
<pdfrwt beam="2">  1       -1 0.20301025E-01 0.10005880E+04</pdfrwt>
<totfact> 0.73402485E+01</totfact>
</mgrwt>
</event>
<event>
 9    1  0.4342579E-036  0.9998811E+03  0.7818608E-02  0.8681151E-01
          2   -1    0    0  501    0  0.00000000000E+00  0.00000000000E+00  0.52201511558E+03  0.52201511558E+03  0.00000000000E+00 0.  1.
         -2   -1    0    0    0  501 -0.00000000000E+00 -0.00000000000E+00 -0.47879950257E+03  0.47879950257E+03  0.00000000000E+00 0.  1.
         36    2    1    2    0    0 -0.71054273576E-14 -0.28421709430E-13  0.43215613012E+02  0.10008146182E+04  0.99988114829E+03 0.  0.
         25    2    3    3    0    0 -0.19957544097E+02  0.12725468198E+03  0.64482072362E+02  0.19044924734E+03  0.12458298642E+03 0.  0.
         35    2    3    3    0    0  0.19957544097E+02 -0.12725468198E+03 -0.21266459350E+02  0.81036537081E+03  0.79977979111E+03 0.  0.
         22    1    5    5    0    0  0.13609680741E+03  0.31829199359E+03 -0.46301119702E+02  0.34925052306E+03  0.00000000000E+00 0.  1.
         22    1    5    5    0    0 -0.11613926331E+03 -0.44554667558E+03  0.25034660351E+02  0.46111484775E+03  0.00000000000E+00 0.  1.
          5    1    4    4  502    0  0.42816045550E+01  0.61581622919E+02  0.95440801605E+02  0.11376143912E+03  0.47000000000E+01 0. -1.
         -5    1    4    4    0  502 -0.24239148652E+02  0.65673059065E+02 -0.30958729243E+02  0.76687808227E+02  0.47000000000E+01 0. -1.
<mgrwt>
<rscale>  0 0.99988115E+03</rscale>
<asrwt>0</asrwt>
<pdfrwt beam="1">  1        2 0.80310018E-01 0.99988115E+03</pdfrwt>
<pdfrwt beam="2">  1       -2 0.73661461E-01 0.99988115E+03</pdfrwt>
<totfact> 0.11760128E+02</totfact>
</mgrwt>
</event>
<event>
 9    1  0.4342579E-036  0.9999646E+03  0.7818608E-02  0.8681072E-01
         -1   -1    0    0    0  501 -0.00000000000E+00  0.00000000000E+00  0.47689364988E+03  0.47689364988E+03  0.00000000000E+00 0. -1.
          1   -1    0    0  501    0  0.00000000000E+00 -0.00000000000E+00 -0.52418879782E+03  0.52418879782E+03  0.00000000000E+00 0. -1.
         36    2    1    2    0    0 -0.28421709430E-13  0.14210854715E-13 -0.47295147938E+02  0.10010824477E+04  0.99996461741E+03 0.  0.
         25    2    3    3    0    0  0.96135770548E+02 -0.35953783758E+02  0.86681310891E+02  0.18350924765E+03  0.12500893316E+03 0.  0.
         35    2    3    3    0    0 -0.96135770548E+02  0.35953783758E+02 -0.13397645883E+03  0.81757320005E+03  0.79996342727E+03 0.  0.
         22    1    5    5    0    0  0.17412366370E+03 -0.31688441588E+03 -0.45802055063E+02  0.36446208519E+03  0.00000000000E+00 0. -1.
         22    1    5    5    0    0 -0.27025943425E+03  0.35283819964E+03 -0.88174403766E+02  0.45311111486E+03  0.00000000000E+00 0. -1.
          5    1    4    4  502    0 -0.18584754453E+02  0.22351079314E+02  0.32349624674E+02  0.43744166024E+02  0.47000000000E+01 0. -1.
         -5    1    4    4    0  502  0.11472052500E+03 -0.58304863072E+02  0.54331686217E+02  0.13976508162E+03  0.47000000000E+01 0. -1.
<mgrwt>
<rscale>  0 0.99996462E+03</rscale>
<asrwt>0</asrwt>
<pdfrwt beam="1">  1        1 0.80644430E-01 0.99996462E+03</pdfrwt>
<pdfrwt beam="2">  1       -1 0.73368254E-01 0.99996462E+03</pdfrwt>
<totfact> 0.91402423E+01</totfact>
</mgrwt>
</event>
<event>
 9    1  0.4342579E-036  0.9998719E+03  0.7818608E-02  0.8681160E-01
         -2   -1    0    0    0  501 -0.00000000000E+00  0.00000000000E+00  0.23934451323E+03  0.23934451323E+03  0.00000000000E+00 0. -1.
          2   -1    0    0  501    0  0.00000000000E+00 -0.00000000000E+00 -0.10442518881E+04  0.10442518881E+04  0.00000000000E+00 0. -1.
         36    2    1    2    0    0  0.71054273576E-14  0.00000000000E+00 -0.80490737487E+03  0.12835964013E+04  0.99987191149E+03 0.  0.
         25    2    3    3    0    0 -0.26748045564E+02  0.81859107590E+02 -0.89829951704E+01  0.15195921388E+03  0.12487808873E+03 0.  0.
         35    2    3    3    0    0  0.26748045564E+02 -0.81859107590E+02 -0.79592437970E+03  0.11316371874E+04  0.79980668563E+03 0.  0.
         22    1    5    5    0    0 -0.86550350842E+02  0.49264838891E+01 -0.93106305322E+03  0.93509017883E+03  0.00000000000E+00 0. -1.
         22    1    5    5    0    0  0.11329839641E+03 -0.86785591479E+02  0.13513867352E+03  0.19654700862E+03  0.00000000000E+00 0. -1.
          5    1    4    4  502    0 -0.25356705601E+02  0.53647450523E+02  0.55512805135E+02  0.81392708522E+02  0.47000000000E+01 0.  1.
         -5    1    4    4    0  502 -0.13913399632E+01  0.28211657067E+02 -0.64495800305E+02  0.70566505358E+02  0.47000000000E+01 0.  1.
<mgrwt>
<rscale>  0 0.99987191E+03</rscale>
<asrwt>0</asrwt>
<pdfrwt beam="1">  1        2 0.16065414E+00 0.99987191E+03</pdfrwt>
<pdfrwt beam="2">  1       -2 0.36822233E-01 0.99987191E+03</pdfrwt>
<totfact> 0.19810726E+02</totfact>
</mgrwt>
</event>
<event>
 9    1  0.4342579E-036  0.9997136E+03  0.7818608E-02  0.8681311E-01
          2   -1    0    0  501    0  0.00000000000E+00  0.00000000000E+00  0.72743750195E+03  0.72743750195E+03  0.00000000000E+00 0. -1.
         -2   -1    0    0    0  501 -0.00000000000E+00 -0.00000000000E+00 -0.34347529634E+03  0.34347529634E+03  0.00000000000E+00 0. -1.
         36    2    1    2    0    0  0.00000000000E+00  0.28421709430E-13  0.38396220561E+03  0.10709127983E+04  0.99971358208E+03 0.  0.
         25    2    3    3    0    0 -0.54045528844E+02  0.12175497489E+03  0.23246260096E+02  0.18416104821E+03  0.12501883846E+03 0.  0.
         35    2    3    3    0    0  0.54045528844E+02 -0.12175497489E+03  0.36071594551E+03  0.88675175008E+03  0.79904160081E+03 0.  0.
         22    1    5    5    0    0  0.37988204293E+03 -0.25112221404E+03  0.24779973190E+03  0.51843749869E+03  0.00000000000E+00 0.  1.
         22    1    5    5    0    0 -0.32583651408E+03  0.12936723915E+03  0.11291621362E+03  0.36831425138E+03  0.00000000000E+00 0.  1.
          5    1    4    4  502    0 -0.28532364699E+02  0.30389598465E+02 -0.49238049749E+02  0.64684612338E+02  0.47000000000E+01 0. -1.
         -5    1    4    4    0  502 -0.25513164144E+02  0.91365376429E+02  0.72484309845E+02  0.11947643587E+03  0.47000000000E+01 0. -1.
<mgrwt>
<rscale>  0 0.99971358E+03</rscale>
<asrwt>0</asrwt>
<pdfrwt beam="1">  1        2 0.11191346E+00 0.99971358E+03</pdfrwt>
<pdfrwt beam="2">  1       -2 0.52842353E-01 0.99971358E+03</pdfrwt>
<totfact> 0.15949288E+02</totfact>
</mgrwt>
</event>
<event>
 9    1  0.4342579E-036  0.1000600E+04  0.7818608E-02  0.8680466E-01
          1   -1    0    0  501    0  0.00000000000E+00  0.00000000000E+00  0.41227531501E+03  0.41227531501E+03  0.00000000000E+00 0. -1.
         -1   -1    0    0    0  501 -0.00000000000E+00 -0.00000000000E+00 -0.60711927475E+03  0.60711927475E+03  0.00000000000E+00 0. -1.
         36    2    1    2    0    0  0.00000000000E+00  0.28421709430E-13 -0.19484395974E+03  0.10193945898E+04  0.10006004003E+04 0.  0.
         25    2    3    3    0    0  0.11924686705E+03 -0.38732386597E+02  0.28458619448E+02  0.17885663833E+03  0.12433740781E+03 0.  0.
         35    2    3    3    0    0 -0.11924686705E+03  0.38732386597E+02 -0.22330257919E+03  0.84053795144E+03  0.80057478905E+03 0.  0.
         22    1    5    5    0    0  0.17755050503E+03 -0.14566148551E+03  0.19090178614E+03  0.29863848069E+03  0.00000000000E+00 0. -1.
         22    1    5    5    0    0 -0.29679737208E+03  0.18439387210E+03 -0.41420436533E+03  0.54189947075E+03  0.00000000000E+00 0. -1.
          5    1    4    4  502    0  0.10132262203E+03 -0.85570178637E+01 -0.33779224920E+02  0.10725027891E+03  0.47000000000E+01 0.  1.
         -5    1    4    4    0  502  0.17924245017E+02 -0.30175368733E+02  0.62237844368E+02  0.71606359419E+02  0.47000000000E+01 0.  1.
<mgrwt>
<rscale>  0 0.10006004E+04</rscale>
<asrwt>0</asrwt>
<pdfrwt beam="1">  1        1 0.63426972E-01 0.10006004E+04</pdfrwt>
<pdfrwt beam="2">  1       -1 0.93402965E-01 0.10006004E+04</pdfrwt>
<totfact> 0.76462887E+01</totfact>
</mgrwt>
</event>
<event>
 9    1  0.4342579E-036  0.9998229E+03  0.7818608E-02  0.8681207E-01
         -2   -1    0    0    0  501 -0.00000000000E+00  0.00000000000E+00  0.10931009335E+03  0.10931009335E+03  0.00000000000E+00 0. -1.
          2   -1    0    0  501    0  0.00000000000E+00 -0.00000000000E+00 -0.22862615551E+04  0.22862615551E+04  0.00000000000E+00 0. -1.
         36    2    1    2    0    0  0.00000000000E+00  0.71054273576E-14 -0.21769514617E+04  0.23955716484E+04  0.99982291234E+03 0.  0.
         25    2    3    3    0    0  0.13596895792E+03 -0.26246947434E+02 -0.36179450887E+03  0.40710870695E+03  0.12516298519E+03 0.  0.
         35    2    3    3    0    0 -0.13596895792E+03  0.26246947434E+02 -0.18151569529E+04  0.19884629415E+04  0.80000852892E+03 0.  0.
         22    1    5    5    0    0 -0.71712742244E+02  0.22066118519E+03 -0.86344402300E+02  0.24756702498E+03  0.00000000000E+00 0. -1.
         22    1    5    5    0    0 -0.64256215679E+02 -0.19441423776E+03 -0.17288125506E+04  0.17408959165E+04  0.00000000000E+00 0. -1.
          5    1    4    4  502    0  0.12567650498E+03 -0.66958561266E+02 -0.25240864818E+03  0.28984521474E+03  0.47000000000E+01 0.  1.
         -5    1    4    4    0  502  0.10292452947E+02  0.40711613832E+02 -0.10938586069E+03  0.11726349222E+03  0.47000000000E+01 0.  1.
<mgrwt>
<rscale>  0 0.99982291E+03</rscale>
<asrwt>0</asrwt>
<pdfrwt beam="1">  1        2 0.35173255E+00 0.99982291E+03</pdfrwt>
<pdfrwt beam="2">  1       -2 0.16816937E-01 0.99982291E+03</pdfrwt>
<totfact> 0.15412629E+02</totfact>
</mgrwt>
</event>
<event>
 9    1  0.4342579E-036  0.1000908E+04  0.7818608E-02  0.8680174E-01
          1   -1    0    0  501    0  0.00000000000E+00  0.00000000000E+00  0.90066457142E+03  0.90066457142E+03  0.00000000000E+00 0. -1.
         -1   -1    0    0    0  501 -0.00000000000E+00 -0.00000000000E+00 -0.27807723815E+03  0.27807723815E+03  0.00000000000E+00 0. -1.
         36    2    1    2    0    0  0.49737991503E-13  0.00000000000E+00  0.62258733327E+03  0.11787418096E+04  0.10009082206E+04 0.  0.
         25    2    3    3    0    0  0.32852563454E+02  0.12420426999E+03  0.53588830313E+02  0.18622045555E+03  0.12369439648E+03 0.  0.
         35    2    3    3    0    0 -0.32852563454E+02 -0.12420426999E+03  0.56899850296E+03  0.99252135403E+03  0.80301516189E+03 0.  0.
         22    1    5    5    0    0  0.25789808315E+03  0.23560722530E+03  0.27280693485E+03  0.44322207707E+03  0.00000000000E+00 0. -1.
         22    1    5    5    0    0 -0.29075064660E+03 -0.35981149529E+03  0.29619156811E+03  0.54929927696E+03  0.00000000000E+00 0. -1.
          5    1    4    4  502    0  0.77349040364E+02  0.63110425022E+02  0.14453170345E+02  0.10097912618E+03  0.47000000000E+01 0.  1.
         -5    1    4    4    0  502 -0.44496476910E+02  0.61093844967E+02  0.39135659968E+02  0.85241329362E+02  0.47000000000E+01 0.  1.
<mgrwt>
<rscale>  0 0.10009082E+04</rscale>
<asrwt>0</asrwt>
<pdfrwt beam="1">  1        1 0.13856378E+00 0.10009082E+04</pdfrwt>
<pdfrwt beam="2">  1       -1 0.42781114E-01 0.10009082E+04</pdfrwt>
<totfact> 0.11036170E+02</totfact>
</mgrwt>
</event>
<event>
 9    1  0.4342579E-036  0.9988939E+03  0.7818608E-02  0.8682092E-01
          1   -1    0    0  501    0  0.00000000000E+00  0.00000000000E+00  0.31586920074E+04  0.31586920074E+04  0.00000000000E+00 0. -1.
         -1   -1    0    0    0  501 -0.00000000000E+00 -0.00000000000E+00 -0.78971686049E+02  0.78971686049E+02  0.00000000000E+00 0. -1.
         36    2    1    2    0    0 -0.21316282073E-13  0.00000000000E+00  0.30797203213E+04  0.32376636934E+04  0.99889385529E+03 0.  0.
         25    2    3    3    0    0 -0.20068506327E+02  0.12988913555E+03  0.69327701940E+03  0.71736145779E+03  0.12923042607E+03 0.  0.
         35    2    3    3    0    0  0.20068506327E+02 -0.12988913555E+03  0.23864433019E+04  0.25203022356E+04  0.79971106853E+03 0.  0.
         22    1    5    5    0    0  0.29916890621E+03 -0.23448942708E+03  0.19807241841E+04  0.20168677744E+04  0.00000000000E+00 0. -1.
         22    1    5    5    0    0 -0.27910039988E+03  0.10460029153E+03  0.40571911783E+03  0.50343446125E+03  0.00000000000E+00 0. -1.
          5    1    4    4  502    0 -0.47374203139E+02  0.12799602462E+03  0.39791614943E+03  0.42069781247E+03  0.47000000000E+01 0.  1.
         -5    1    4    4    0  502  0.27305696812E+02  0.18931109311E+01  0.29536086997E+03  0.29666364532E+03  0.47000000000E+01 0.  1.
<mgrwt>
<rscale>  0 0.99889386E+03</rscale>
<asrwt>0</asrwt>
<pdfrwt beam="1">  1        1 0.48595252E+00 0.99889386E+03</pdfrwt>
<pdfrwt beam="2">  1       -1 0.12149493E-01 0.99889386E+03</pdfrwt>
<totfact> 0.21508375E+01</totfact>
</mgrwt>
</event>
<event>
 9    1  0.4342579E-036  0.9992250E+03  0.7818608E-02  0.8681776E-01
          2   -1    0    0  501    0  0.00000000000E+00  0.00000000000E+00  0.89235662975E+03  0.89235662975E+03  0.00000000000E+00 0. -1.
         -2   -1    0    0    0  501 -0.00000000000E+00 -0.00000000000E+00 -0.27972299512E+03  0.27972299512E+03  0.00000000000E+00 0. -1.
         36    2    1    2    0    0  0.35527136788E-14  0.28421709430E-13  0.61263363464E+03  0.11720796249E+04  0.99922503809E+03 0.  0.
         25    2    3    3    0    0  0.30543145008E+02 -0.67469963748E+02 -0.24020342723E+02  0.14729675831E+03  0.12503710821E+03 0.  0.
         35    2    3    3    0    0 -0.30543145008E+02  0.67469963748E+02  0.63665397736E+03  0.10247828666E+04  0.79960400011E+03 0.  0.
         22    1    5    5    0    0 -0.17881932617E+02 -0.34096835982E+03  0.11109857528E+03  0.35905720901E+03  0.00000000000E+00 0.  1.
         22    1    5    5    0    0 -0.12661212391E+02  0.40843832357E+03  0.52555540208E+03  0.66572565755E+03  0.00000000000E+00 0.  1.
          5    1    4    4  502    0  0.25840633661E+02 -0.41238033389E+02 -0.75029660016E+02  0.89553635481E+02  0.47000000000E+01 0. -1.
         -5    1    4    4    0  502  0.47025113472E+01 -0.26231930359E+02  0.51009317293E+02  0.57743122829E+02  0.47000000000E+01 0. -1.
<mgrwt>
<rscale>  0 0.99922504E+03</rscale>
<asrwt>0</asrwt>
<pdfrwt beam="1">  1        2 0.13728563E+00 0.99922504E+03</pdfrwt>
<pdfrwt beam="2">  1       -2 0.43034307E-01 0.99922504E+03</pdfrwt>
<totfact> 0.18378521E+02</totfact>
</mgrwt>
</event>
<event>
 9    1  0.4342579E-036  0.9996937E+03  0.7818608E-02  0.8681330E-01
          2   -1    0    0  501    0  0.00000000000E+00  0.00000000000E+00  0.10950539181E+04  0.10950539181E+04  0.00000000000E+00 0. -1.
         -2   -1    0    0    0  501 -0.00000000000E+00 -0.00000000000E+00 -0.22815943063E+03  0.22815943063E+03  0.00000000000E+00 0. -1.
         36    2    1    2    0    0  0.21316282073E-13  0.88817841970E-15  0.86689448745E+03  0.13232133487E+04  0.99969371002E+03 0.  0.
         25    2    3    3    0    0  0.59072215151E+02 -0.76724234245E+00 -0.13063320983E+02  0.13839316543E+03  0.12446647187E+03 0.  0.
         35    2    3    3    0    0 -0.59072215151E+02  0.76724234245E+00  0.87995780844E+03  0.11848201833E+04  0.79119087889E+03 0.  0.
         22    1    5    5    0    0 -0.22059023632E+03  0.18560308245E+03  0.18282774323E+02  0.28886470261E+03  0.00000000000E+00 0.  1.
         22    1    5    5    0    0  0.16151802117E+03 -0.18483584011E+03  0.86167503411E+03  0.89595548068E+03  0.00000000000E+00 0.  1.
          5    1    4    4  502    0  0.84976896843E+02 -0.71518732931E+01 -0.44981684543E+02  0.96528048944E+02  0.47000000000E+01 0.  1.
         -5    1    4    4    0  502 -0.25904681692E+02  0.63846309506E+01  0.31918363560E+02  0.41865116485E+02  0.47000000000E+01 0.  1.
<mgrwt>
<rscale>  0 0.99969371E+03</rscale>
<asrwt>0</asrwt>
<pdfrwt beam="1">  1        2 0.16846983E+00 0.99969371E+03</pdfrwt>
<pdfrwt beam="2">  1       -2 0.35101451E-01 0.99969371E+03</pdfrwt>
<totfact> 0.20172167E+02</totfact>
</mgrwt>
</event>
<event>
 9    1  0.4342579E-036  0.9995583E+03  0.7818608E-02  0.8681459E-01
          2   -1    0    0  501    0  0.00000000000E+00  0.00000000000E+00  0.11584547587E+04  0.11584547587E+04  0.00000000000E+00 0. -1.
         -2   -1    0    0    0  501 -0.00000000000E+00 -0.00000000000E+00 -0.21561410739E+03  0.21561410739E+03  0.00000000000E+00 0. -1.
         36    2    1    2    0    0  0.71054273576E-14  0.14210854715E-13  0.94284065131E+03  0.13740688661E+04  0.99955827993E+03 0.  0.
         25    2    3    3    0    0  0.55209378748E+02  0.81153621624E+02  0.30726577401E+03  0.34774602185E+03  0.12992711045E+03 0.  0.
         35    2    3    3    0    0 -0.55209378748E+02 -0.81153621624E+02  0.63557487731E+03  0.10263228442E+04  0.79984321597E+03 0.  0.
         22    1    5    5    0    0  0.11596540749E+03  0.21345451250E+03  0.64106970596E+03  0.68555172857E+03  0.00000000000E+00 0.  1.
         22    1    5    5    0    0 -0.17117478624E+03 -0.29460813413E+03 -0.54948286525E+01  0.34077111567E+03  0.00000000000E+00 0.  1.
          5    1    4    4  502    0  0.34176777142E+01  0.49453720192E+02  0.27372382330E+03  0.27821605346E+03  0.47000000000E+01 0. -1.
         -5    1    4    4    0  502  0.51791701033E+02  0.31699901433E+02  0.33541950710E+02  0.69529968389E+02  0.47000000000E+01 0. -1.
<mgrwt>
<rscale>  0 0.99955828E+03</rscale>
<asrwt>0</asrwt>
<pdfrwt beam="1">  1        2 0.17822381E+00 0.99955828E+03</pdfrwt>
<pdfrwt beam="2">  1       -2 0.33171402E-01 0.99955828E+03</pdfrwt>
<totfact> 0.20523243E+02</totfact>
</mgrwt>
</event>
<event>
 9    1  0.4342579E-036  0.9998959E+03  0.7818608E-02  0.8681137E-01
          2   -1    0    0  501    0  0.00000000000E+00  0.00000000000E+00  0.30196158807E+04  0.30196158807E+04  0.00000000000E+00 0.  1.
         -2   -1    0    0    0  501 -0.00000000000E+00 -0.00000000000E+00 -0.82774749212E+02  0.82774749212E+02  0.00000000000E+00 0.  1.
         36    2    1    2    0    0 -0.14210854715E-13  0.28421709430E-13  0.29368411315E+04  0.31023906299E+04  0.99989588907E+03 0.  0.
         25    2    3    3    0    0 -0.61346352294E+02  0.10780490209E+03  0.35294129150E+03  0.39444302596E+03  0.12502989094E+03 0.  0.
         35    2    3    3    0    0  0.61346352294E+02 -0.10780490209E+03  0.25838998400E+04  0.27079476040E+04  0.80066008444E+03 0.  0.
         22    1    5    5    0    0  0.35446521506E+02 -0.41111453827E+03  0.81998672900E+03  0.91795961524E+03  0.00000000000E+00 0. -1.
         22    1    5    5    0    0  0.25899830788E+02  0.30330963618E+03  0.17639131110E+04  0.17899879888E+04  0.00000000000E+00 0. -1.
          5    1    4    4  502    0 -0.77127262122E+02  0.58272998456E+02  0.11249636165E+03  0.14839770314E+03  0.47000000000E+01 0.  1.
         -5    1    4    4    0  502  0.15780909829E+02  0.49531903637E+02  0.24044492985E+03  0.24604532282E+03  0.47000000000E+01 0.  1.
<mgrwt>
<rscale>  0 0.99989589E+03</rscale>
<asrwt>0</asrwt>
<pdfrwt beam="1">  1        2 0.46455621E+00 0.99989589E+03</pdfrwt>
<pdfrwt beam="2">  1       -2 0.12734579E-01 0.99989589E+03</pdfrwt>
<totfact> 0.85270695E+01</totfact>
</mgrwt>
</event>
<event>
 9    1  0.4342579E-036  0.9995876E+03  0.7818608E-02  0.8681431E-01
         -1   -1    0    0    0  501 -0.00000000000E+00  0.00000000000E+00  0.18423939420E+03  0.18423939420E+03  0.00000000000E+00 0.  1.
          1   -1    0    0  501    0  0.00000000000E+00 -0.00000000000E+00 -0.13558112168E+04  0.13558112168E+04  0.00000000000E+00 0.  1.
         36    2    1    2    0    0  0.14210854715E-13  0.42632564146E-13 -0.11715718226E+04  0.15400506110E+04  0.99958758943E+03 0.  0.
         25    2    3    3    0    0 -0.80809135080E+02  0.82640656758E+02 -0.33295337649E+03  0.37417152360E+03  0.12564546827E+03 0.  0.
         35    2    3    3    0    0  0.80809135080E+02 -0.82640656758E+02 -0.83861844610E+03  0.11658790874E+04  0.80164428135E+03 0.  0.
         22    1    5    5    0    0 -0.19800659684E+03 -0.36042308092E+03 -0.36291768909E+03  0.54847120134E+03  0.00000000000E+00 0. -1.
         22    1    5    5    0    0  0.27881573192E+03  0.27778242416E+03 -0.47570075701E+03  0.61740788605E+03  0.00000000000E+00 0. -1.
          5    1    4    4  502    0 -0.51337021479E+02  0.11540744245E+03 -0.24538504164E+03  0.27602586149E+03  0.47000000000E+01 0. -1.
         -5    1    4    4    0  502 -0.29472113601E+02 -0.32766785689E+02 -0.87568334843E+02  0.98145662114E+02  0.47000000000E+01 0. -1.
<mgrwt>
<rscale>  0 0.99958759E+03</rscale>
<asrwt>0</asrwt>
<pdfrwt beam="1">  1        1 0.20858633E+00 0.99958759E+03</pdfrwt>
<pdfrwt beam="2">  1       -1 0.28344523E-01 0.99958759E+03</pdfrwt>
<totfact> 0.10143327E+02</totfact>
</mgrwt>
</event>
<event>
 9    1  0.4342579E-036  0.1004330E+04  0.7818608E-02  0.8676925E-01
         -2   -1    0    0    0  501 -0.00000000000E+00  0.00000000000E+00  0.32341854868E+03  0.32341854868E+03  0.00000000000E+00 0.  1.
          2   -1    0    0  501    0  0.00000000000E+00 -0.00000000000E+00 -0.77970062247E+03  0.77970062247E+03  0.00000000000E+00 0.  1.
         36    2    1    2    0    0  0.00000000000E+00  0.14210854715E-13 -0.45628207378E+03  0.11031191711E+04  0.10043299134E+04 0.  0.
         25    2    3    3    0    0 -0.65587146458E+02 -0.11750383982E+03 -0.24597153708E+02  0.18531522942E+03  0.12501155199E+03 0.  0.
         35    2    3    3    0    0  0.65587146458E+02  0.11750383982E+03 -0.43168492008E+03  0.91780394173E+03  0.79868853696E+03 0.  0.
         22    1    5    5    0    0  0.40179112424E+03  0.92114078777E+02 -0.40772280275E+03  0.57979219976E+03  0.00000000000E+00 0.  1.
         22    1    5    5    0    0 -0.33620397778E+03  0.25389761042E+02 -0.23962117329E+02  0.33801174197E+03  0.00000000000E+00 0.  1.
          5    1    4    4  502    0 -0.24616027711E+02 -0.13205903984E+03 -0.37805296265E+02  0.13963119010E+03  0.47000000000E+01 0. -1.
         -5    1    4    4    0  502 -0.40971118748E+02  0.14555200017E+02  0.13208142556E+02  0.45684039322E+02  0.47000000000E+01 0. -1.
<mgrwt>
<rscale>  0 0.10043299E+04</rscale>
<asrwt>0</asrwt>
<pdfrwt beam="1">  1        2 0.11995394E+00 0.10043299E+04</pdfrwt>
<pdfrwt beam="2">  1       -2 0.49756700E-01 0.10043299E+04</pdfrwt>
<totfact> 0.16492359E+02</totfact>
</mgrwt>
</event>
<event>
 9    1  0.4342579E-036  0.1001145E+04  0.7818608E-02  0.8679948E-01
          1   -1    0    0  501    0  0.00000000000E+00  0.00000000000E+00  0.74705364843E+03  0.74705364843E+03  0.00000000000E+00 0. -1.
         -1   -1    0    0    0  501 -0.00000000000E+00 -0.00000000000E+00 -0.33541474085E+03  0.33541474085E+03  0.00000000000E+00 0. -1.
         36    2    1    2    0    0  0.28421709430E-13 -0.35527136788E-14  0.41163890757E+03  0.10824683893E+04  0.10011449563E+04 0.  0.
         25    2    3    3    0    0  0.29512119112E+02 -0.31854552552E+02 -0.67206243619E+02  0.14901342756E+03  0.12570857059E+03 0.  0.
         35    2    3    3    0    0 -0.29512119112E+02  0.31854552552E+02  0.47884515119E+03  0.93345496172E+03  0.80009987442E+03 0.  0.
         22    1    5    5    0    0 -0.31027884059E+03  0.28178804532E+02  0.56029385302E+03  0.64108985772E+03  0.00000000000E+00 0.  1.
         22    1    5    5    0    0  0.28076672147E+03  0.36757480200E+01 -0.81448701824E+02  0.29236510400E+03  0.00000000000E+00 0.  1.
          5    1    4    4  502    0  0.78614252888E+02 -0.21602923235E+02 -0.50104277229E+02  0.95809267016E+02  0.47000000000E+01 0.  1.
         -5    1    4    4    0  502 -0.49102133775E+02 -0.10251629317E+02 -0.17101966390E+02  0.53204160545E+02  0.47000000000E+01 0.  1.
<mgrwt>
<rscale>  0 0.10011450E+04</rscale>
<asrwt>0</asrwt>
<pdfrwt beam="1">  1        1 0.11493133E+00 0.10011450E+04</pdfrwt>
<pdfrwt beam="2">  1       -1 0.51602268E-01 0.10011450E+04</pdfrwt>
<totfact> 0.10660497E+02</totfact>
</mgrwt>
</event>
<event>
 9    1  0.4342579E-036  0.1000497E+04  0.7818608E-02  0.8680565E-01
          2   -1    0    0  501    0  0.00000000000E+00  0.00000000000E+00  0.59454175576E+03  0.59454175576E+03  0.00000000000E+00 0.  1.
         -2   -1    0    0    0  501 -0.00000000000E+00 -0.00000000000E+00 -0.42090992497E+03  0.42090992497E+03  0.00000000000E+00 0.  1.
         36    2    1    2    0    0 -0.28421709430E-13  0.00000000000E+00  0.17363183080E+03  0.10154516807E+04  0.10004969281E+04 0.  0.
         25    2    3    3    0    0 -0.12804808040E+02  0.26971155345E+02 -0.10723086717E+03  0.16689735968E+03  0.12435780420E+03 0.  0.
         35    2    3    3    0    0  0.12804808040E+02 -0.26971155345E+02  0.28086269796E+03  0.84855432105E+03  0.80016821628E+03 0.  0.
         22    1    5    5    0    0  0.33262032501E+03 -0.16725439120E+02  0.38779861265E+03  0.51117881891E+03  0.00000000000E+00 0. -1.
         22    1    5    5    0    0 -0.31981551697E+03 -0.10245716224E+02 -0.10693591469E+03  0.33737550215E+03  0.00000000000E+00 0. -1.
          5    1    4    4  502    0  0.53836997857E+02  0.24527262420E+02 -0.64018112779E+02  0.87295003888E+02  0.47000000000E+01 0.  1.
         -5    1    4    4    0  502 -0.66641805897E+02  0.24438929253E+01 -0.43212754388E+02  0.79602355792E+02  0.47000000000E+01 0.  1.
<mgrwt>
<rscale>  0 0.10004969E+04</rscale>
<asrwt>0</asrwt>
<pdfrwt beam="1">  1        2 0.91467962E-01 0.10004969E+04</pdfrwt>
<pdfrwt beam="2">  1       -2 0.64755373E-01 0.10004969E+04</pdfrwt>
<totfact> 0.13354382E+02</totfact>
</mgrwt>
</event>
<event>
 9    1  0.4342579E-036  0.9991394E+03  0.7818608E-02  0.8681858E-01
          2   -1    0    0  501    0  0.00000000000E+00  0.00000000000E+00  0.13872135758E+04  0.13872135758E+04  0.00000000000E+00 0.  1.
         -2   -1    0    0    0  501 -0.00000000000E+00 -0.00000000000E+00 -0.17990731302E+03  0.17990731302E+03  0.00000000000E+00 0.  1.
         36    2    1    2    0    0  0.14210854715E-13  0.00000000000E+00  0.12073062628E+04  0.15671208888E+04  0.99913936367E+03 0.  0.
         25    2    3    3    0    0 -0.29478344534E+02 -0.11854949995E+03  0.32865399589E+03  0.37253644734E+03  0.12588486345E+03 0.  0.
         35    2    3    3    0    0  0.29478344534E+02  0.11854949995E+03  0.87865226691E+03  0.11945844415E+04  0.80004951409E+03 0.  0.
         22    1    5    5    0    0 -0.20828531110E+03  0.38501396956E+03  0.37046783354E+03  0.57346747359E+03  0.00000000000E+00 0. -1.
         22    1    5    5    0    0  0.23776365563E+03 -0.26646446961E+03  0.50818443337E+03  0.62111696791E+03  0.00000000000E+00 0. -1.
          5    1    4    4  502    0 -0.74953254907E+02 -0.81187497259E+02  0.16572245840E+03  0.19923710334E+03  0.47000000000E+01 0.  1.
         -5    1    4    4    0  502  0.45474910372E+02 -0.37362002691E+02  0.16293153750E+03  0.17329934400E+03  0.47000000000E+01 0.  1.
<mgrwt>
<rscale>  0 0.99913936E+03</rscale>
<asrwt>0</asrwt>
<pdfrwt beam="1">  1        2 0.21341747E+00 0.99913936E+03</pdfrwt>
<pdfrwt beam="2">  1       -2 0.27678049E-01 0.99913936E+03</pdfrwt>
<totfact> 0.21005872E+02</totfact>
</mgrwt>
</event>
<event>
 9    1  0.4342579E-036  0.9997560E+03  0.7818608E-02  0.8681270E-01
         -2   -1    0    0    0  501 -0.00000000000E+00  0.00000000000E+00  0.33726972670E+03  0.33726972670E+03  0.00000000000E+00 0. -1.
          2   -1    0    0  501    0  0.00000000000E+00 -0.00000000000E+00 -0.74088473160E+03  0.74088473160E+03  0.00000000000E+00 0. -1.
         36    2    1    2    0    0 -0.28421709430E-13  0.00000000000E+00 -0.40361500489E+03  0.10781544583E+04  0.99975595211E+03 0.  0.
         25    2    3    3    0    0 -0.84172722453E+02 -0.98619181252E+02 -0.20561656469E+02  0.18146053718E+03  0.12527711171E+03 0.  0.
         35    2    3    3    0    0  0.84172722453E+02  0.98619181252E+02 -0.38305334842E+03  0.89669392112E+03  0.80032451564E+03 0.  0.
         22    1    5    5    0    0 -0.26551356697E+03  0.28180106245E+03 -0.30826601227E+03  0.49491133283E+03  0.00000000000E+00 0.  1.
         22    1    5    5    0    0  0.34968628942E+03 -0.18318188120E+03 -0.74787336152E+02  0.40178258829E+03  0.00000000000E+00 0.  1.
          5    1    4    4  502    0 -0.92116508204E+02 -0.12078348548E+03 -0.35148877578E+01  0.15201495283E+03  0.47000000000E+01 0.  1.
         -5    1    4    4    0  502  0.79437857507E+01  0.22164304227E+02 -0.17046768711E+02  0.29445584345E+02  0.47000000000E+01 0.  1.
<mgrwt>
<rscale>  0 0.99975595E+03</rscale>
<asrwt>0</asrwt>
<pdfrwt beam="1">  1        2 0.11398227E+00 0.99975595E+03</pdfrwt>
<pdfrwt beam="2">  1       -2 0.51887650E-01 0.99975595E+03</pdfrwt>
<totfact> 0.16174064E+02</totfact>
</mgrwt>
</event>
<event>
 9    1  0.4342579E-036  0.1008689E+04  0.7818608E-02  0.8672807E-01
         -2   -1    0    0    0  501 -0.00000000000E+00  0.00000000000E+00  0.79209228043E+02  0.79209228043E+02  0.00000000000E+00 0.  1.
          2   -1    0    0  501    0  0.00000000000E+00 -0.00000000000E+00 -0.32112842051E+04  0.32112842051E+04  0.00000000000E+00 0.  1.
         36    2    1    2    0    0 -0.56843418861E-13  0.00000000000E+00 -0.31320749771E+04  0.32904934331E+04  0.10086889370E+04 0.  0.
         25    2    3    3    0    0 -0.14352923031E+03 -0.13748285395E+02 -0.73823840370E+03  0.76249868033E+03  0.12497456339E+03 0.  0.
         35    2    3    3    0    0  0.14352923031E+03  0.13748285395E+02 -0.23938365733E+04  0.25279947528E+04  0.79969636427E+03 0.  0.
         22    1    5    5    0    0  0.26790572917E+03 -0.19702749214E+03 -0.40447085061E+03  0.52363153207E+03  0.00000000000E+00 0. -1.
         22    1    5    5    0    0 -0.12437649886E+03  0.21077577753E+03 -0.19893657227E+04  0.20043632207E+04  0.00000000000E+00 0. -1.
          5    1    4    4  502    0 -0.41632842906E+02  0.40222854455E+02 -0.11688803793E+03  0.13052231625E+03  0.47000000000E+01 0.  1.
         -5    1    4    4    0  502 -0.10189638740E+03 -0.53971139849E+02 -0.62135036577E+03  0.63197636408E+03  0.47000000000E+01 0.  1.
<mgrwt>
<rscale>  0 0.10086889E+04</rscale>
<asrwt>0</asrwt>
<pdfrwt beam="1">  1        2 0.49404376E+00 0.10086889E+04</pdfrwt>
<pdfrwt beam="2">  1       -2 0.12186034E-01 0.10086889E+04</pdfrwt>
<totfact> 0.67732974E+01</totfact>
</mgrwt>
</event>
<event>
 9    1  0.4342579E-036  0.1000183E+04  0.7818608E-02  0.8680863E-01
          1   -1    0    0  501    0  0.00000000000E+00  0.00000000000E+00  0.43148856119E+04  0.43148856119E+04  0.00000000000E+00 0.  1.
         -1   -1    0    0    0  501 -0.00000000000E+00 -0.00000000000E+00 -0.57960199751E+02  0.57960199751E+02  0.00000000000E+00 0.  1.
         36    2    1    2    0    0  0.14210854715E-13  0.14210854715E-13  0.42569254122E+04  0.43728458117E+04  0.10001832472E+04 0.  0.
         25    2    3    3    0    0  0.44489347533E+02 -0.68564388373E+02  0.29692195662E+03  0.33223706956E+03  0.12465329788E+03 0.  0.
         35    2    3    3    0    0 -0.44489347533E+02  0.68564388373E+02  0.39600034556E+04  0.40406087421E+04  0.79888125617E+03 0.  0.
         22    1    5    5    0    0 -0.40821378102E+03 -0.69203895507E+02  0.20688416341E+04  0.21098657249E+04  0.00000000000E+00 0.  1.
         22    1    5    5    0    0  0.36372443348E+03  0.13776828388E+03  0.18911618215E+04  0.19307430172E+04  0.00000000000E+00 0.  1.
          5    1    4    4  502    0  0.90700645857E+01 -0.88659379080E+02  0.26690132868E+03  0.28142700798E+03  0.47000000000E+01 0.  1.
         -5    1    4    4    0  502  0.35419282948E+02  0.20094990707E+02  0.30020627944E+02  0.50810061584E+02  0.47000000000E+01 0.  1.
<mgrwt>
<rscale>  0 0.10001832E+04</rscale>
<asrwt>0</asrwt>
<pdfrwt beam="1">  1        1 0.66382830E+00 0.10001832E+04</pdfrwt>
<pdfrwt beam="2">  1       -1 0.89169572E-02 0.10001832E+04</pdfrwt>
<totfact> 0.47233697E+00</totfact>
</mgrwt>
</event>
<event>
 9    1  0.4342579E-036  0.9984588E+03  0.7818608E-02  0.8682507E-01
          2   -1    0    0  501    0  0.00000000000E+00  0.00000000000E+00  0.34197199860E+03  0.34197199860E+03  0.00000000000E+00 0.  1.
         -2   -1    0    0    0  501 -0.00000000000E+00 -0.00000000000E+00 -0.72880238963E+03  0.72880238963E+03  0.00000000000E+00 0.  1.
         36    2    1    2    0    0  0.28421709430E-13  0.00000000000E+00 -0.38683039103E+03  0.10707743882E+04  0.99845883193E+03 0.  0.
         25    2    3    3    0    0 -0.13781781347E+03 -0.20497076347E+02 -0.71251983034E+02  0.20016211420E+03  0.12479642233E+03 0.  0.
         35    2    3    3    0    0  0.13781781347E+03  0.20497076347E+02 -0.31557840800E+03  0.87061227403E+03  0.79935106195E+03 0.  0.
         22    1    5    5    0    0  0.47332127208E+03  0.35292724316E+02 -0.20537777623E+03  0.51716403003E+03  0.00000000000E+00 0.  1.
         22    1    5    5    0    0 -0.33550345861E+03 -0.14795647970E+02 -0.11020063177E+03  0.35344824399E+03  0.00000000000E+00 0.  1.
          5    1    4    4  502    0 -0.13714434833E+03  0.10141929493E+02 -0.18313476696E+02  0.13881247942E+03  0.47000000000E+01 0.  1.
         -5    1    4    4    0  502 -0.67346513400E+00 -0.30639005840E+02 -0.52938506338E+02  0.61349634778E+02  0.47000000000E+01 0.  1.
<mgrwt>
<rscale>  0 0.99845883E+03</rscale>
<asrwt>0</asrwt>
<pdfrwt beam="1">  1        2 0.52611077E-01 0.99845883E+03</pdfrwt>
<pdfrwt beam="2">  1       -2 0.11212344E+00 0.99845883E+03</pdfrwt>
<totfact> 0.69967935E+01</totfact>
</mgrwt>
</event>
<event>
 9    1  0.4342579E-036  0.9998723E+03  0.7818608E-02  0.8681160E-01
         -3   -1    0    0    0  501 -0.00000000000E+00  0.00000000000E+00  0.44210564917E+03  0.44210564917E+03  0.00000000000E+00 0. -1.
          3   -1    0    0  501    0  0.00000000000E+00 -0.00000000000E+00 -0.56533131813E+03  0.56533131813E+03  0.00000000000E+00 0. -1.
         36    2    1    2    0    0  0.00000000000E+00  0.71054273576E-14 -0.12322566896E+03  0.10074369673E+04  0.99987233065E+03 0.  0.
         25    2    3    3    0    0 -0.12672098483E+03  0.57546243340E+02 -0.24754815127E+02  0.19010643499E+03  0.12711364063E+03 0.  0.
         35    2    3    3    0    0  0.12672098483E+03 -0.57546243340E+02 -0.98470853835E+02  0.81733053231E+03  0.79935155713E+03 0.  0.
         22    1    5    5    0    0  0.17791416154E+03  0.34136223985E+03 -0.14737009982E+03  0.41218876014E+03  0.00000000000E+00 0. -1.
         22    1    5    5    0    0 -0.51193176710E+02 -0.39890848319E+03  0.48899245981E+02  0.40514177217E+03  0.00000000000E+00 0. -1.
          5    1    4    4  502    0 -0.12493364028E+03  0.52942853987E+01  0.12470166900E+02  0.12575388262E+03  0.47000000000E+01 0. -1.
         -5    1    4    4    0  502 -0.17873445492E+01  0.52251957941E+02 -0.37224982028E+02  0.64352552367E+02  0.47000000000E+01 0. -1.
<mgrwt>
<rscale>  0 0.99987233E+03</rscale>
<asrwt>0</asrwt>
<pdfrwt beam="1">  1        3 0.86974048E-01 0.99987233E+03</pdfrwt>
<pdfrwt beam="2">  1       -3 0.68016254E-01 0.99987233E+03</pdfrwt>
<totfact> 0.10161405E+01</totfact>
</mgrwt>
</event>
<event>
 9    1  0.4342579E-036  0.1000475E+04  0.7818608E-02  0.8680586E-01
          2   -1    0    0  501    0  0.00000000000E+00  0.00000000000E+00  0.21050169818E+04  0.21050169818E+04  0.00000000000E+00 0.  1.
         -2   -1    0    0    0  501 -0.00000000000E+00 -0.00000000000E+00 -0.11887677962E+03  0.11887677962E+03  0.00000000000E+00 0.  1.
         36    2    1    2    0    0  0.00000000000E+00 -0.10658141036E-13  0.19861402022E+04  0.22238937614E+04  0.10004751668E+04 0.  0.
         25    2    3    3    0    0  0.81403260667E+02 -0.33694990067E+01  0.11898073813E+03  0.19078465347E+03  0.12491806748E+03 0.  0.
         35    2    3    3    0    0 -0.81403260667E+02  0.33694990067E+01  0.18671594640E+04  0.20331091080E+04  0.80038136927E+03 0.  0.
         22    1    5    5    0    0  0.11669753539E+03 -0.11894863521E+03  0.16038934495E+02  0.16740471918E+03  0.00000000000E+00 0. -1.
         22    1    5    5    0    0 -0.19810079605E+03  0.12231813422E+03  0.18511205296E+04  0.18657043888E+04  0.00000000000E+00 0. -1.
          5    1    4    4  502    0  0.10435081636E+03 -0.23943277862E+02  0.11826995430E+03  0.15960026792E+03  0.47000000000E+01 0.  1.
         -5    1    4    4    0  502 -0.22947555691E+02  0.20573778855E+02  0.71078383403E+00  0.31184385552E+02  0.47000000000E+01 0.  1.
<mgrwt>
<rscale>  0 0.10004752E+04</rscale>
<asrwt>0</asrwt>
<pdfrwt beam="1">  1        2 0.32384874E+00 0.10004752E+04</pdfrwt>
<pdfrwt beam="2">  1       -2 0.18288737E-01 0.10004752E+04</pdfrwt>
<totfact> 0.17027233E+02</totfact>
</mgrwt>
</event>
<event>
 9    1  0.4342579E-036  0.1000215E+04  0.7818608E-02  0.8680833E-01
          1   -1    0    0  501    0  0.00000000000E+00  0.00000000000E+00  0.11599738788E+04  0.11599738788E+04  0.00000000000E+00 0. -1.
         -1   -1    0    0    0  501 -0.00000000000E+00 -0.00000000000E+00 -0.21561466385E+03  0.21561466385E+03  0.00000000000E+00 0. -1.
         36    2    1    2    0    0  0.00000000000E+00 -0.14210854715E-13  0.94435921498E+03  0.13755885427E+04  0.10002147329E+04 0.  0.
         25    2    3    3    0    0 -0.12164188713E+03  0.58005639421E+02  0.12346237968E+03  0.22167743646E+03  0.12544530175E+03 0.  0.
         35    2    3    3    0    0  0.12164188713E+03 -0.58005639421E+02  0.82089683530E+03  0.11539111062E+04  0.79967357338E+03 0.  0.
         22    1    5    5    0    0  0.15406811664E+03 -0.39580039129E+03  0.64340004948E+03  0.77094653381E+03  0.00000000000E+00 0. -1.
         22    1    5    5    0    0 -0.32426229516E+02  0.33779475187E+03  0.17749678582E+03  0.38296457242E+03  0.00000000000E+00 0. -1.
          5    1    4    4  502    0 -0.87873372316E+02 -0.26904609539E+02  0.70804639682E+02  0.11610759914E+03  0.47000000000E+01 0.  1.
         -5    1    4    4    0  502 -0.33768514812E+02  0.84910248960E+02  0.52657739994E+02  0.10556983732E+03  0.47000000000E+01 0.  1.
<mgrwt>
<rscale>  0 0.10002147E+04</rscale>
<asrwt>0</asrwt>
<pdfrwt beam="1">  1        1 0.17845752E+00 0.10002147E+04</pdfrwt>
<pdfrwt beam="2">  1       -1 0.33171487E-01 0.10002147E+04</pdfrwt>
<totfact> 0.10800409E+02</totfact>
</mgrwt>
</event>
<event>
 9    1  0.4342579E-036  0.9996961E+03  0.7818608E-02  0.8681327E-01
          1   -1    0    0  501    0  0.00000000000E+00  0.00000000000E+00  0.20030571999E+03  0.20030571999E+03  0.00000000000E+00 0. -1.
         -1   -1    0    0    0  501 -0.00000000000E+00 -0.00000000000E+00 -0.12473336719E+04  0.12473336719E+04  0.00000000000E+00 0. -1.
         36    2    1    2    0    0 -0.28421709430E-13 -0.14210854715E-13 -0.10470279519E+04  0.14476393919E+04  0.99969609225E+03 0.  0.
         25    2    3    3    0    0 -0.84480184621E+02  0.10943941405E+03 -0.14603000535E+03  0.23665481266E+03  0.12476718700E+03 0.  0.
         35    2    3    3    0    0  0.84480184621E+02 -0.10943941405E+03 -0.90099794652E+03  0.12109845792E+04  0.79722798777E+03 0.  0.
         22    1    5    5    0    0 -0.14316326557E+03  0.13346892449E+03 -0.85236107113E+03  0.87454506459E+03  0.00000000000E+00 0.  1.
         22    1    5    5    0    0  0.22764345019E+03 -0.24290833853E+03 -0.48636875385E+02  0.33643951461E+03  0.00000000000E+00 0.  1.
          5    1    4    4  502    0 -0.45245131992E+01 -0.53540107717E+01  0.18682544917E+02  0.20500344768E+02  0.47000000000E+01 0.  1.
         -5    1    4    4    0  502 -0.79955671422E+02  0.11479342482E+03 -0.16471255026E+03  0.21615446789E+03  0.47000000000E+01 0.  1.
<mgrwt>
<rscale>  0 0.99969609E+03</rscale>
<asrwt>0</asrwt>
<pdfrwt beam="1">  1        1 0.30816265E-01 0.99969609E+03</pdfrwt>
<pdfrwt beam="2">  1       -1 0.19189749E+00 0.99969609E+03</pdfrwt>
<totfact> 0.27075158E+01</totfact>
</mgrwt>
</event>
<event>
 9    1  0.4342579E-036  0.1000655E+04  0.7818608E-02  0.8680414E-01
         -1   -1    0    0    0  501 -0.00000000000E+00  0.00000000000E+00  0.28245029943E+03  0.28245029943E+03  0.00000000000E+00 0. -1.
          1   -1    0    0  501    0  0.00000000000E+00 -0.00000000000E+00 -0.88627132089E+03  0.88627132089E+03  0.00000000000E+00 0. -1.
         36    2    1    2    0    0  0.00000000000E+00 -0.28421709430E-13 -0.60382102146E+03  0.11687216203E+04  0.10006549854E+04 0.  0.
         25    2    3    3    0    0  0.42312808068E+02  0.12689700968E+03 -0.49457788245E+02  0.18701870773E+03  0.12098222775E+03 0.  0.
         35    2    3    3    0    0 -0.42312808068E+02 -0.12689700968E+03 -0.55436323321E+03  0.98170291258E+03  0.79907996436E+03 0.  0.
         22    1    5    5    0    0  0.18661864300E+03  0.41657153073E+02  0.13630051160E+03  0.23481836764E+03  0.00000000000E+00 0.  1.
         22    1    5    5    0    0 -0.22893145107E+03 -0.16855416275E+03 -0.69066374482E+03  0.74688454494E+03  0.00000000000E+00 0.  1.
          5    1    4    4  502    0  0.58851758618E+02  0.13838370153E+03 -0.62120553787E+02  0.16277171604E+03  0.47000000000E+01 0. -1.
         -5    1    4    4    0  502 -0.16538950550E+02 -0.11486691845E+02  0.12662765541E+02  0.24246991690E+02  0.47000000000E+01 0. -1.
<mgrwt>
<rscale>  0 0.10006550E+04</rscale>
<asrwt>0</asrwt>
<pdfrwt beam="1">  1        1 0.13634943E+00 0.10006550E+04</pdfrwt>
<pdfrwt beam="2">  1       -1 0.43453893E-01 0.10006550E+04</pdfrwt>
<totfact> 0.11031455E+02</totfact>
</mgrwt>
</event>
<event>
 9    1  0.4342579E-036  0.9989494E+03  0.7818608E-02  0.8682039E-01
          2   -1    0    0  501    0  0.00000000000E+00  0.00000000000E+00  0.12045295935E+04  0.12045295935E+04  0.00000000000E+00 0.  1.
         -2   -1    0    0    0  501 -0.00000000000E+00 -0.00000000000E+00 -0.20711402667E+03  0.20711402667E+03  0.00000000000E+00 0.  1.
         36    2    1    2    0    0 -0.14210854715E-13 -0.28421709430E-13  0.99741556686E+03  0.14116436202E+04  0.99894939683E+03 0.  0.
         25    2    3    3    0    0  0.78472296924E+02  0.82701250566E+02  0.30357759554E+03  0.34672330319E+03  0.12272039043E+03 0.  0.
         35    2    3    3    0    0 -0.78472296924E+02 -0.82701250566E+02  0.69383797131E+03  0.10649203170E+04  0.79977919009E+03 0.  0.
         22    1    5    5    0    0  0.33027367828E+03 -0.13073706374E+03  0.15669480931E+03  0.38823465284E+03  0.00000000000E+00 0. -1.
         22    1    5    5    0    0 -0.40874597521E+03  0.48035813178E+02  0.53714316200E+03  0.67668566416E+03  0.00000000000E+00 0. -1.
          5    1    4    4  502    0  0.76062665500E+02  0.72363154796E+02  0.10761169447E+03  0.15041383594E+03  0.47000000000E+01 0. -1.
         -5    1    4    4    0  502  0.24096314248E+01  0.10338095770E+02  0.19596590108E+03  0.19630946725E+03  0.47000000000E+01 0. -1.
<mgrwt>
<rscale>  0 0.99894940E+03</rscale>
<asrwt>0</asrwt>
<pdfrwt beam="1">  1        2 0.18531224E+00 0.99894940E+03</pdfrwt>
<pdfrwt beam="2">  1       -2 0.31863697E-01 0.99894940E+03</pdfrwt>
<totfact> 0.20753900E+02</totfact>
</mgrwt>
</event>
<event>
 9    1  0.4342579E-036  0.9999827E+03  0.7818608E-02  0.8681054E-01
          1   -1    0    0  501    0  0.00000000000E+00  0.00000000000E+00  0.37822300618E+03  0.37822300618E+03  0.00000000000E+00 0. -1.
         -1   -1    0    0    0  501 -0.00000000000E+00 -0.00000000000E+00 -0.66096287602E+03  0.66096287602E+03  0.00000000000E+00 0. -1.
         36    2    1    2    0    0  0.00000000000E+00  0.00000000000E+00 -0.28273986984E+03  0.10391858822E+04  0.99998273173E+03 0.  0.
         25    2    3    3    0    0  0.68705800815E+02  0.10324027969E+03  0.12145748192E+02  0.17639176595E+03  0.12484988378E+03 0.  0.
         35    2    3    3    0    0 -0.68705800815E+02 -0.10324027969E+03 -0.29488561804E+03  0.86279411625E+03  0.80129714644E+03 0.  0.
         22    1    5    5    0    0 -0.24673229419E+03 -0.25393098364E+03 -0.45747124313E+03  0.57847878763E+03  0.00000000000E+00 0.  1.
         22    1    5    5    0    0  0.17802649337E+03  0.15069070395E+03  0.16258562510E+03  0.28431532862E+03  0.00000000000E+00 0.  1.
          5    1    4    4  502    0 -0.24200060863E+02  0.13515590640E+02 -0.29356489258E+02  0.40647356589E+02  0.47000000000E+01 0.  1.
         -5    1    4    4    0  502  0.92905861678E+02  0.89724689054E+02  0.41502237450E+02  0.13574440936E+03  0.47000000000E+01 0.  1.
<mgrwt>
<rscale>  0 0.99998273E+03</rscale>
<asrwt>0</asrwt>
<pdfrwt beam="1">  1        1 0.58188155E-01 0.99998273E+03</pdfrwt>
<pdfrwt beam="2">  1       -1 0.10168660E+00 0.99998273E+03</pdfrwt>
<totfact> 0.71080074E+01</totfact>
</mgrwt>
</event>
<event>
 9    1  0.4342579E-036  0.9997338E+03  0.7818608E-02  0.8681292E-01
          2   -1    0    0  501    0  0.00000000000E+00  0.00000000000E+00  0.12889374018E+04  0.12889374018E+04  0.00000000000E+00 0. -1.
         -2   -1    0    0    0  501 -0.00000000000E+00 -0.00000000000E+00 -0.19385495412E+03  0.19385495412E+03  0.00000000000E+00 0. -1.
         36    2    1    2    0    0 -0.21316282073E-13  0.00000000000E+00  0.10950824477E+04  0.14827923559E+04  0.99973376632E+03 0.  0.
         25    2    3    3    0    0 -0.44526131306E+02 -0.13075938496E+03  0.23429129306E+03  0.29950439805E+03  0.12541882364E+03 0.  0.
         35    2    3    3    0    0  0.44526131306E+02  0.13075938496E+03  0.86079115460E+03  0.11832879578E+04  0.80008023736E+03 0.  0.
         22    1    5    5    0    0 -0.24860615362E+03 -0.88197502267E+02  0.75896876940E+03  0.80350321215E+03  0.00000000000E+00 0. -1.
         22    1    5    5    0    0  0.29313228493E+03  0.21895688722E+03  0.10182238520E+03  0.37978474569E+03  0.00000000000E+00 0. -1.
          5    1    4    4  502    0 -0.73540216537E+02 -0.71358266292E+02  0.75289136232E+02  0.12724271944E+03  0.47000000000E+01 0.  1.
         -5    1    4    4    0  502  0.29014085231E+02 -0.59401118664E+02  0.15900215683E+03  0.17226167861E+03  0.47000000000E+01 0.  1.
<mgrwt>
<rscale>  0 0.99973377E+03</rscale>
<asrwt>0</asrwt>
<pdfrwt beam="1">  1        2 0.19829806E+00 0.99973377E+03</pdfrwt>
<pdfrwt beam="2">  1       -2 0.29823840E-01 0.99973377E+03</pdfrwt>
<totfact> 0.20905524E+02</totfact>
</mgrwt>
</event>
<event>
 9    1  0.4342579E-036  0.9994062E+03  0.7818608E-02  0.8681604E-01
          3   -1    0    0  501    0  0.00000000000E+00  0.00000000000E+00  0.36292706305E+03  0.36292706305E+03  0.00000000000E+00 0. -1.
         -3   -1    0    0    0  501 -0.00000000000E+00 -0.00000000000E+00 -0.68802579879E+03  0.68802579879E+03  0.00000000000E+00 0. -1.
         36    2    1    2    0    0  0.71054273576E-14 -0.28421709430E-13 -0.32509873574E+03  0.10509528618E+04  0.99940618860E+03 0.  0.
         25    2    3    3    0    0  0.26151929650E+02 -0.13862376395E+03 -0.12799045056E+02  0.18279069432E+03  0.11553419848E+03 0.  0.
         35    2    3    3    0    0 -0.26151929650E+02  0.13862376395E+03 -0.31229969068E+03  0.86816216752E+03  0.79766783873E+03 0.  0.
         22    1    5    5    0    0  0.90402513149E+02 -0.13141168508E+02 -0.55309655480E+03  0.56058996034E+03  0.00000000000E+00 0.  1.
         22    1    5    5    0    0 -0.11655444280E+03  0.15176493246E+03  0.24079686412E+03  0.30757220718E+03  0.00000000000E+00 0.  1.
          5    1    4    4  502    0  0.53633740651E+02 -0.85440215270E+02 -0.49444950509E+02  0.11244332640E+03  0.47000000000E+01 0. -1.
         -5    1    4    4    0  502 -0.27481811001E+02 -0.53183548681E+02  0.36645905453E+02  0.70347367916E+02  0.47000000000E+01 0. -1.
<mgrwt>
<rscale>  0 0.99940619E+03</rscale>
<asrwt>0</asrwt>
<pdfrwt beam="1">  1        3 0.55834933E-01 0.99940619E+03</pdfrwt>
<pdfrwt beam="2">  1       -3 0.10585012E+00 0.99940619E+03</pdfrwt>
<totfact> 0.88041011E+00</totfact>
</mgrwt>
</event>
<event>
 9    1  0.4342579E-036  0.1002075E+04  0.7818608E-02  0.8679065E-01
          1   -1    0    0  501    0  0.00000000000E+00  0.00000000000E+00  0.28698989032E+03  0.28698989032E+03  0.00000000000E+00 0.  1.
         -1   -1    0    0    0  501 -0.00000000000E+00 -0.00000000000E+00 -0.87472918531E+03  0.87472918531E+03  0.00000000000E+00 0.  1.
         36    2    1    2    0    0  0.14210854715E-13 -0.14210854715E-13 -0.58773929499E+03  0.11617190756E+04  0.10020747137E+04 0.  0.
         25    2    3    3    0    0 -0.94852558206E+02  0.46264569369E+02 -0.10623682500E+01  0.16466356264E+03  0.12639439093E+03 0.  0.
         35    2    3    3    0    0  0.94852558206E+02 -0.46264569369E+02 -0.58667692674E+03  0.99705551300E+03  0.79924493207E+03 0.  0.
         22    1    5    5    0    0 -0.42942514568E+01  0.33300823710E+03 -0.56667446886E+02  0.33782262522E+03  0.00000000000E+00 0. -1.
         22    1    5    5    0    0  0.99146809663E+02 -0.37927280647E+03 -0.53000947986E+03  0.65923288778E+03  0.00000000000E+00 0. -1.
          5    1    4    4  502    0 -0.31792741470E+02  0.43253159794E+02  0.57230512227E+02  0.78606843036E+02  0.47000000000E+01 0.  1.
         -5    1    4    4    0  502 -0.63059816737E+02  0.30114095745E+01 -0.58292880477E+02  0.86056719603E+02  0.47000000000E+01 0.  1.
<mgrwt>
<rscale>  0 0.10020747E+04</rscale>
<asrwt>0</asrwt>
<pdfrwt beam="1">  1        1 0.44152291E-01 0.10020747E+04</pdfrwt>
<pdfrwt beam="2">  1       -1 0.13457372E+00 0.10020747E+04</pdfrwt>
<totfact> 0.51490948E+01</totfact>
</mgrwt>
</event>
<event>
 9    1  0.4342579E-036  0.1000618E+04  0.7818608E-02  0.8680450E-01
          2   -1    0    0  501    0  0.00000000000E+00  0.00000000000E+00  0.67281948967E+03  0.67281948967E+03  0.00000000000E+00 0. -1.
         -2   -1    0    0    0  501 -0.00000000000E+00 -0.00000000000E+00 -0.37202997250E+03  0.37202997250E+03  0.00000000000E+00 0. -1.
         36    2    1    2    0    0 -0.14210854715E-13  0.71054273576E-14  0.30078951717E+03  0.10448494622E+04  0.10006178416E+04 0.  0.
         25    2    3    3    0    0  0.94963504582E+02  0.85619047823E+01  0.16606399216E+03  0.22867138340E+03  0.12498791412E+03 0.  0.
         35    2    3    3    0    0 -0.94963504582E+02 -0.85619047823E+01  0.13472552502E+03  0.81617807878E+03  0.79931490401E+03 0.  0.
         22    1    5    5    0    0 -0.40061756956E+03  0.14193963933E+03  0.19927938053E+03  0.46941833129E+03  0.00000000000E+00 0. -1.
         22    1    5    5    0    0  0.30565406498E+03 -0.15050154411E+03 -0.64553855510E+02  0.34675974749E+03  0.00000000000E+00 0. -1.
          5    1    4    4  502    0 -0.30357433442E+01  0.48984929738E+02  0.69402852476E+02  0.85132749344E+02  0.47000000000E+01 0.  1.
         -5    1    4    4    0  502  0.97999247926E+02 -0.40423024955E+02  0.96661139682E+02  0.14353863405E+03  0.47000000000E+01 0.  1.
<mgrwt>
<rscale>  0 0.10006178E+04</rscale>
<asrwt>0</asrwt>
<pdfrwt beam="1">  1        2 0.10351069E+00 0.10006178E+04</pdfrwt>
<pdfrwt beam="2">  1       -2 0.57235381E-01 0.10006178E+04</pdfrwt>
<totfact> 0.14909075E+02</totfact>
</mgrwt>
</event>
<event>
 9    1  0.4342579E-036  0.9996381E+03  0.7818608E-02  0.8681383E-01
         -2   -1    0    0    0  501 -0.00000000000E+00  0.00000000000E+00  0.57673512792E+03  0.57673512792E+03  0.00000000000E+00 0. -1.
          2   -1    0    0  501    0  0.00000000000E+00 -0.00000000000E+00 -0.43316082101E+03  0.43316082101E+03  0.00000000000E+00 0. -1.
         36    2    1    2    0    0  0.71054273576E-14  0.14210854715E-13  0.14357430691E+03  0.10098959489E+04  0.99963805753E+03 0.  0.
         25    2    3    3    0    0  0.38201146790E+02  0.12557623219E+03  0.55349120918E+02  0.19386540733E+03  0.13149735080E+03 0.  0.
         35    2    3    3    0    0 -0.38201146790E+02 -0.12557623219E+03  0.88225185991E+02  0.81603054160E+03  0.80055820755E+03 0.  0.
         22    1    5    5    0    0  0.22060214211E+01 -0.12966189299E+03  0.44164208788E+03  0.46028774349E+03  0.00000000000E+00 0. -1.
         22    1    5    5    0    0 -0.40407168211E+02  0.40856608067E+01 -0.35341690189E+03  0.35574279811E+03  0.00000000000E+00 0. -1.
          5    1    4    4  502    0  0.39379355495E+02 -0.14300979788E+02  0.29709630402E+02  0.51575224679E+02  0.47000000000E+01 0. -1.
         -5    1    4    4    0  502 -0.11782087053E+01  0.13987721197E+03  0.25639490515E+02  0.14229018265E+03  0.47000000000E+01 0. -1.
<mgrwt>
<rscale>  0 0.99963806E+03</rscale>
<asrwt>0</asrwt>
<pdfrwt beam="1">  1        2 0.66640126E-01 0.99963806E+03</pdfrwt>
<pdfrwt beam="2">  1       -2 0.88728481E-01 0.99963806E+03</pdfrwt>
<totfact> 0.94892001E+01</totfact>
</mgrwt>
</event>
<event>
 9    1  0.4342579E-036  0.1000284E+04  0.7818608E-02  0.8680768E-01
         -1   -1    0    0    0  501 -0.00000000000E+00  0.00000000000E+00  0.63533512070E+03  0.63533512070E+03  0.00000000000E+00 0.  1.
          1   -1    0    0  501    0  0.00000000000E+00 -0.00000000000E+00 -0.39371659543E+03  0.39371659543E+03  0.00000000000E+00 0.  1.
         36    2    1    2    0    0  0.28421709430E-13  0.15987211555E-13  0.24161852528E+03  0.10290517161E+04  0.10002839211E+04 0.  0.
         25    2    3    3    0    0 -0.81703045043E+02 -0.10743400094E+01 -0.72055645898E+02  0.16558752706E+03  0.12470233052E+03 0.  0.
         35    2    3    3    0    0  0.81703045043E+02  0.10743400094E+01  0.31367417118E+03  0.86346418907E+03  0.80031392489E+03 0.  0.
         22    1    5    5    0    0 -0.20014393683E+03 -0.29661661663E+03  0.27578187240E+03  0.45176836305E+03  0.00000000000E+00 0. -1.
         22    1    5    5    0    0  0.28184698187E+03  0.29769095664E+03  0.37892298780E+02  0.41169582602E+03  0.00000000000E+00 0. -1.
          5    1    4    4  502    0 -0.70822103892E+02 -0.54794821968E+01  0.18981674017E+02  0.73676244973E+02  0.47000000000E+01 0. -1.
         -5    1    4    4    0  502 -0.10880941151E+02  0.44051421875E+01 -0.91037319915E+02  0.91911282090E+02  0.47000000000E+01 0. -1.
<mgrwt>
<rscale>  0 0.10002839E+04</rscale>
<asrwt>0</asrwt>
<pdfrwt beam="1">  1        1 0.60571784E-01 0.10002839E+04</pdfrwt>
<pdfrwt beam="2">  1       -1 0.97743865E-01 0.10002839E+04</pdfrwt>
<totfact> 0.73618446E+01</totfact>
</mgrwt>
</event>
<event>
 9    1  0.4342579E-036  0.9989706E+03  0.7818608E-02  0.8682019E-01
         -2   -1    0    0    0  501 -0.00000000000E+00  0.00000000000E+00  0.35631919573E+03  0.35631919573E+03  0.00000000000E+00 0. -1.
          2   -1    0    0  501    0  0.00000000000E+00 -0.00000000000E+00 -0.70017441411E+03  0.70017441411E+03  0.00000000000E+00 0. -1.
         36    2    1    2    0    0  0.00000000000E+00 -0.14210854715E-13 -0.34385521839E+03  0.10564936098E+04  0.99897063841E+03 0.  0.
         25    2    3    3    0    0 -0.10898579402E+03  0.84707586925E+02 -0.92898787723E+02  0.20807548228E+03  0.12494776102E+03 0.  0.
         35    2    3    3    0    0  0.10898579402E+03 -0.84707586925E+02 -0.25095643066E+03  0.84841812756E+03  0.79861186473E+03 0.  0.
         22    1    5    5    0    0 -0.20280627430E+03  0.19015430174E+03 -0.32343676682E+03  0.42649781418E+03  0.00000000000E+00 0.  1.
         22    1    5    5    0    0  0.31179206833E+03 -0.27486188866E+03  0.72480336161E+02  0.42192031338E+03  0.00000000000E+00 0.  1.
          5    1    4    4  502    0  0.13470836908E+02 -0.13274071430E+02 -0.36442879553E+02  0.41325995323E+02  0.47000000000E+01 0.  1.
         -5    1    4    4    0  502 -0.12245663093E+03  0.97981658355E+02 -0.56455908170E+02  0.16674948696E+03  0.47000000000E+01 0.  1.
<mgrwt>
<rscale>  0 0.99897064E+03</rscale>
<asrwt>0</asrwt>
<pdfrwt beam="1">  1        2 0.10771914E+00 0.99897064E+03</pdfrwt>
<pdfrwt beam="2">  1       -2 0.54818338E-01 0.99897064E+03</pdfrwt>
<totfact> 0.15517383E+02</totfact>
</mgrwt>
</event>
<event>
 9    1  0.4342579E-036  0.9999387E+03  0.7818608E-02  0.8681096E-01
         -1   -1    0    0    0  501 -0.00000000000E+00  0.00000000000E+00  0.28219107799E+03  0.28219107799E+03  0.00000000000E+00 0. -1.
          1   -1    0    0  501    0  0.00000000000E+00 -0.00000000000E+00 -0.88581589469E+03  0.88581589469E+03  0.00000000000E+00 0. -1.
         36    2    1    2    0    0  0.00000000000E+00  0.00000000000E+00 -0.60362481670E+03  0.11680069727E+04  0.99993868257E+03 0.  0.
         25    2    3    3    0    0 -0.11238600309E+03 -0.38114105616E+02 -0.20043377365E+03  0.26417052274E+03  0.12461568412E+03 0.  0.
         35    2    3    3    0    0  0.11238600309E+03  0.38114105616E+02 -0.40319104305E+03  0.90383644994E+03  0.80017123937E+03 0.  0.
         22    1    5    5    0    0 -0.13197578620E+02 -0.48859680583E+02  0.23870616676E+03  0.24401245566E+03  0.00000000000E+00 0.  1.
         22    1    5    5    0    0  0.12558358171E+03  0.86973786199E+02 -0.64189720980E+03  0.65982399428E+03  0.00000000000E+00 0.  1.
          5    1    4    4  502    0 -0.59408160975E+01  0.39526469374E+02 -0.47184752370E+02  0.62017142254E+02  0.47000000000E+01 0.  1.
         -5    1    4    4    0  502 -0.10644518700E+03 -0.77640574990E+02 -0.15324902128E+03  0.20215338049E+03  0.47000000000E+01 0.  1.
<mgrwt>
<rscale>  0 0.99993868E+03</rscale>
<asrwt>0</asrwt>
<pdfrwt beam="1">  1        1 0.13627937E+00 0.99993868E+03</pdfrwt>
<pdfrwt beam="2">  1       -1 0.43414012E-01 0.99993868E+03</pdfrwt>
<totfact> 0.11060155E+02</totfact>
</mgrwt>
</event>
<event>
 9    1  0.4342579E-036  0.9998720E+03  0.7818608E-02  0.8681160E-01
         -2   -1    0    0    0  501 -0.00000000000E+00  0.00000000000E+00  0.10027170857E+03  0.10027170857E+03  0.00000000000E+00 0. -1.
          2   -1    0    0  501    0  0.00000000000E+00 -0.00000000000E+00 -0.24925874142E+04  0.24925874142E+04  0.00000000000E+00 0. -1.
         36    2    1    2    0    0  0.21316282073E-13 -0.28421709430E-13 -0.23923157056E+04  0.25928591227E+04  0.99987198937E+03 0.  0.
         25    2    3    3    0    0  0.25776231100E+02 -0.13763406309E+03 -0.45526977784E+03  0.49236796043E+03  0.12469197420E+03 0.  0.
         35    2    3    3    0    0 -0.25776231100E+02  0.13763406309E+03 -0.19370459278E+04  0.21004911623E+04  0.80019288131E+03 0.  0.
         22    1    5    5    0    0 -0.21249584792E+03 -0.21461673446E+02 -0.81182521388E+02  0.22848564635E+03  0.00000000000E+00 0. -1.
         22    1    5    5    0    0  0.18671961682E+03  0.15909573653E+03 -0.18558634064E+04  0.18720055160E+04  0.00000000000E+00 0. -1.
          5    1    4    4  502    0 -0.29475447587E+02  0.62590241915E+01 -0.47865330596E+02  0.56755239999E+02  0.47000000000E+01 0. -1.
         -5    1    4    4    0  502  0.55251678688E+02 -0.14389308728E+03 -0.40740444724E+03  0.43561272043E+03  0.47000000000E+01 0. -1.
<mgrwt>
<rscale>  0 0.99987199E+03</rscale>
<asrwt>0</asrwt>
<pdfrwt beam="1">  1        2 0.38347497E+00 0.99987199E+03</pdfrwt>
<pdfrwt beam="2">  1       -2 0.15426418E-01 0.99987199E+03</pdfrwt>
<totfact> 0.13424093E+02</totfact>
</mgrwt>
</event>
<event>
 9    1  0.4342579E-036  0.1000010E+04  0.7818608E-02  0.8681029E-01
          1   -1    0    0  501    0  0.00000000000E+00  0.00000000000E+00  0.26339998598E+03  0.26339998598E+03  0.00000000000E+00 0. -1.
         -1   -1    0    0    0  501 -0.00000000000E+00 -0.00000000000E+00 -0.94914505432E+03  0.94914505432E+03  0.00000000000E+00 0. -1.
         36    2    1    2    0    0 -0.14210854715E-13  0.28421709430E-13 -0.68574506834E+03  0.12125450403E+04  0.10000095880E+04 0.  0.
         25    2    3    3    0    0  0.10970141996E+03 -0.72584383891E+02 -0.18711148438E+03  0.26071590583E+03  0.12513665187E+03 0.  0.
         35    2    3    3    0    0 -0.10970141996E+03  0.72584383891E+02 -0.49863358396E+03  0.95182913447E+03  0.80002522201E+03 0.  0.
         22    1    5    5    0    0 -0.88677939728E+02 -0.36342495323E+03 -0.23965691511E+03  0.44427121287E+03  0.00000000000E+00 0.  1.
         22    1    5    5    0    0 -0.21023480229E+02  0.43600933712E+03 -0.25897666885E+03  0.50755792160E+03  0.00000000000E+00 0.  1.
          5    1    4    4  502    0  0.56505047606E+01 -0.60135996771E+02 -0.12474450618E+03  0.13867785740E+03  0.47000000000E+01 0. -1.
         -5    1    4    4    0  502  0.10405091520E+03 -0.12448387120E+02 -0.62366978201E+02  0.12203804843E+03  0.47000000000E+01 0. -1.
<mgrwt>
<rscale>  0 0.10000096E+04</rscale>
<asrwt>0</asrwt>
<pdfrwt beam="1">  1        1 0.40523075E-01 0.10000096E+04</pdfrwt>
<pdfrwt beam="2">  1       -1 0.14602232E+00 0.10000096E+04</pdfrwt>
<totfact> 0.45998383E+01</totfact>
</mgrwt>
</event>
<event>
 9    1  0.4342579E-036  0.9997127E+03  0.7818608E-02  0.8681312E-01
          2   -1    0    0  501    0  0.00000000000E+00  0.00000000000E+00  0.16307514269E+04  0.16307514269E+04  0.00000000000E+00 0. -1.
         -2   -1    0    0    0  501 -0.00000000000E+00 -0.00000000000E+00 -0.15321549248E+03  0.15321549248E+03  0.00000000000E+00 0. -1.
         36    2    1    2    0    0  0.00000000000E+00 -0.14210854715E-13  0.14775359344E+04  0.17839669194E+04  0.99971272470E+03 0.  0.
         25    2    3    3    0    0 -0.88355434104E+02  0.10810777906E+03  0.26570898169E+03  0.32508422690E+03  0.12483796296E+03 0.  0.
         35    2    3    3    0    0  0.88355434104E+02 -0.10810777906E+03  0.12118269527E+04  0.14588826925E+04  0.80020008275E+03 0.  0.
         22    1    5    5    0    0  0.88185924703E+02 -0.18231237157E+03 -0.38675610665E+02  0.20618040888E+03  0.00000000000E+00 0. -1.
         22    1    5    5    0    0  0.16950940068E+00  0.74204592512E+02  0.12505025634E+04  0.12527022836E+04  0.00000000000E+00 0. -1.
          5    1    4    4  502    0 -0.32698342637E+02  0.24586606038E+02  0.20190347190E+03  0.20606014844E+03  0.47000000000E+01 0. -1.
         -5    1    4    4    0  502 -0.55657091467E+02  0.83521173025E+02  0.63805509791E+02  0.11902407846E+03  0.47000000000E+01 0. -1.
<mgrwt>
<rscale>  0 0.99971272E+03</rscale>
<asrwt>0</asrwt>
<pdfrwt beam="1">  1        2 0.25088482E+00 0.99971272E+03</pdfrwt>
<pdfrwt beam="2">  1       -2 0.23571615E-01 0.99971272E+03</pdfrwt>
<totfact> 0.20346274E+02</totfact>
</mgrwt>
</event>
<event>
 9    1  0.4342579E-036  0.9929813E+03  0.7818608E-02  0.8687751E-01
         -2   -1    0    0    0  501 -0.00000000000E+00  0.00000000000E+00  0.43718702742E+03  0.43718702742E+03  0.00000000000E+00 0. -1.
          2   -1    0    0  501    0  0.00000000000E+00 -0.00000000000E+00 -0.56383865897E+03  0.56383865897E+03  0.00000000000E+00 0. -1.
         36    2    1    2    0    0  0.35527136788E-13  0.14210854715E-13 -0.12665163155E+03  0.10010256864E+04  0.99298126318E+03 0.  0.
         25    2    3    3    0    0 -0.11241899740E+02 -0.12246799157E+03 -0.16135266969E+02  0.17600599784E+03  0.12487183495E+03 0.  0.
         35    2    3    3    0    0  0.11241899740E+02  0.12246799157E+03 -0.11051636458E+03  0.82501968855E+03  0.80828140544E+03 0.  0.
         22    1    5    5    0    0 -0.36198832335E+03  0.13739897216E+03  0.95019544125E+02  0.39867623149E+03  0.00000000000E+00 0.  1.
         22    1    5    5    0    0  0.37323022309E+03 -0.14930980584E+02 -0.20553590871E+03  0.42634345706E+03  0.00000000000E+00 0.  1.
          5    1    4    4  502    0 -0.56926114446E+02 -0.11022668670E+03  0.44121556565E+01  0.12422585111E+03  0.47000000000E+01 0.  1.
         -5    1    4    4    0  502  0.45684214706E+02 -0.12241304871E+02 -0.20547422625E+02  0.51780146724E+02  0.47000000000E+01 0.  1.
<mgrwt>
<rscale>  0 0.99298126E+03</rscale>
<asrwt>0</asrwt>
<pdfrwt beam="1">  1        2 0.86744409E-01 0.99298126E+03</pdfrwt>
<pdfrwt beam="2">  1       -2 0.67259542E-01 0.99298126E+03</pdfrwt>
<totfact> 0.13109910E+02</totfact>
</mgrwt>
</event>
<event>
 9    1  0.4342579E-036  0.1003296E+04  0.7818608E-02  0.8677905E-01
         -2   -1    0    0    0  501 -0.00000000000E+00  0.00000000000E+00  0.15600474725E+04  0.15600474725E+04  0.00000000000E+00 0. -1.
          2   -1    0    0  501    0  0.00000000000E+00 -0.00000000000E+00 -0.16130966276E+03  0.16130966276E+03  0.00000000000E+00 0. -1.
         36    2    1    2    0    0  0.42632564146E-13  0.00000000000E+00  0.13987378097E+04  0.17213571352E+04  0.10032960314E+04 0.  0.
         25    2    3    3    0    0  0.75772811683E+02  0.43418895547E+02  0.71981688137E+02  0.16789773783E+03  0.12402244741E+03 0.  0.
         35    2    3    3    0    0 -0.75772811683E+02 -0.43418895547E+02  0.13267561216E+04  0.15534593974E+04  0.80332283282E+03 0.  0.
         22    1    5    5    0    0  0.16828335174E+03 -0.10219515870E+03  0.12837602104E+04  0.12987699622E+04  0.00000000000E+00 0. -1.
         22    1    5    5    0    0 -0.24405616343E+03  0.58776263152E+02  0.42995911176E+02  0.25468943518E+03  0.00000000000E+00 0. -1.
          5    1    4    4  502    0 -0.27041918963E+02  0.19325118762E+02  0.49532630811E+02  0.59835583991E+02  0.47000000000E+01 0.  1.
         -5    1    4    4    0  502  0.10281473065E+03  0.24093776785E+02  0.22449057326E+02  0.10806215384E+03  0.47000000000E+01 0.  1.
<mgrwt>
<rscale>  0 0.10032960E+04</rscale>
<asrwt>0</asrwt>
<pdfrwt beam="1">  1        2 0.24816872E-01 0.10032960E+04</pdfrwt>
<pdfrwt beam="2">  1       -2 0.24000729E+00 0.10032960E+04</pdfrwt>
<totfact> 0.17563481E+01</totfact>
</mgrwt>
</event>
<event>
 9    1  0.4342579E-036  0.1000195E+04  0.7818608E-02  0.8680852E-01
         -2   -1    0    0    0  501 -0.00000000000E+00  0.00000000000E+00  0.36707713241E+03  0.36707713241E+03  0.00000000000E+00 0. -1.
          2   -1    0    0  501    0  0.00000000000E+00 -0.00000000000E+00 -0.68132123057E+03  0.68132123057E+03  0.00000000000E+00 0. -1.
         36    2    1    2    0    0  0.00000000000E+00 -0.21316282073E-13 -0.31424409816E+03  0.10483983630E+04  0.10001948682E+04 0.  0.
         25    2    3    3    0    0 -0.13435791129E+03 -0.61523997020E+01 -0.47646326504E+02  0.18951466946E+03  0.12472264094E+03 0.  0.
         35    2    3    3    0    0  0.13435791129E+03  0.61523997020E+01 -0.26659777166E+03  0.85888369353E+03  0.80530548664E+03 0.  0.
         22    1    5    5    0    0 -0.17020001271E+03  0.31428430854E+03 -0.22795862215E+03  0.42391957295E+03  0.00000000000E+00 0. -1.
         22    1    5    5    0    0  0.30455792400E+03 -0.30813190884E+03 -0.38639149506E+02  0.43496412057E+03  0.00000000000E+00 0. -1.
          5    1    4    4  502    0 -0.61611499048E+02 -0.61875887010E+02 -0.43492809689E+02  0.97664306186E+02  0.47000000000E+01 0. -1.
         -5    1    4    4    0  502 -0.72746412239E+02  0.55723487308E+02 -0.41535168151E+01  0.91850363272E+02  0.47000000000E+01 0. -1.
<mgrwt>
<rscale>  0 0.10001949E+04</rscale>
<asrwt>0</asrwt>
<pdfrwt beam="1">  1        2 0.10481865E+00 0.10001949E+04</pdfrwt>
<pdfrwt beam="2">  1       -2 0.56473405E-01 0.10001949E+04</pdfrwt>
<totfact> 0.15094483E+02</totfact>
</mgrwt>
</event>
<event>
 9    1  0.4342579E-036  0.1000196E+04  0.7818608E-02  0.8680852E-01
         -1   -1    0    0    0  501 -0.00000000000E+00  0.00000000000E+00  0.33102330641E+03  0.33102330641E+03  0.00000000000E+00 0.  1.
          1   -1    0    0  501    0  0.00000000000E+00 -0.00000000000E+00 -0.75552950712E+03  0.75552950712E+03  0.00000000000E+00 0.  1.
         36    2    1    2    0    0  0.35527136788E-14  0.00000000000E+00 -0.42450620071E+03  0.10865528135E+04  0.10001957319E+04 0.  0.
         25    2    3    3    0    0 -0.87998556842E+01 -0.13884952312E+03 -0.65150719950E+02  0.19840453273E+03  0.12555124359E+03 0.  0.
         35    2    3    3    0    0  0.87998556842E+01  0.13884952312E+03 -0.35935548076E+03  0.88814828080E+03  0.80019646313E+03 0.  0.
         22    1    5    5    0    0 -0.86671932324E+01 -0.14155000029E+03  0.20991364307E+03  0.25332836471E+03  0.00000000000E+00 0. -1.
         22    1    5    5    0    0  0.17467048917E+02  0.28039952340E+03 -0.56926912383E+03  0.63481991609E+03  0.00000000000E+00 0. -1.
          5    1    4    4  502    0  0.25717857241E+02 -0.12703933054E+03 -0.73723972308E+01  0.12991089995E+03  0.47000000000E+01 0. -1.
         -5    1    4    4    0  502 -0.34517712926E+02 -0.11810192576E+02 -0.57778322719E+02  0.68493632774E+02  0.47000000000E+01 0. -1.
<mgrwt>
<rscale>  0 0.10001957E+04</rscale>
<asrwt>0</asrwt>
<pdfrwt beam="1">  1        1 0.11623531E+00 0.10001957E+04</pdfrwt>
<pdfrwt beam="2">  1       -1 0.50926663E-01 0.10001957E+04</pdfrwt>
<totfact> 0.10732432E+02</totfact>
</mgrwt>
</event>
<event>
 9    1  0.4342579E-036  0.9991776E+03  0.7818608E-02  0.8681822E-01
          2   -1    0    0  501    0  0.00000000000E+00  0.00000000000E+00  0.31176938167E+04  0.31176938167E+04  0.00000000000E+00 0. -1.
         -2   -1    0    0    0  501 -0.00000000000E+00 -0.00000000000E+00 -0.80055637223E+02  0.80055637223E+02  0.00000000000E+00 0. -1.
         36    2    1    2    0    0 -0.14210854715E-13  0.00000000000E+00  0.30376381795E+04  0.31977494539E+04  0.99917759215E+03 0.  0.
         25    2    3    3    0    0 -0.80279890175E+02 -0.50960488189E+02  0.24208983141E+03  0.28851229225E+03  0.12486001835E+03 0.  0.
         35    2    3    3    0    0  0.80279890175E+02  0.50960488189E+02  0.27955483481E+04  0.29092371617E+04  0.79970523593E+03 0.  0.
         22    1    5    5    0    0  0.13808892606E+03  0.22164799678E+03  0.26853187966E+04  0.26979869209E+04  0.00000000000E+00 0. -1.
         22    1    5    5    0    0 -0.57809035888E+02 -0.17068750859E+03  0.11022955151E+03  0.21125024081E+03  0.00000000000E+00 0. -1.
          5    1    4    4  502    0 -0.10250303899E+03 -0.85377577937E+01  0.12517899356E+03  0.16208527613E+03  0.47000000000E+01 0.  1.
         -5    1    4    4    0  502  0.22223148811E+02 -0.42422730395E+02  0.11691083785E+03  0.12642701611E+03  0.47000000000E+01 0.  1.
<mgrwt>
<rscale>  0 0.99917759E+03</rscale>
<asrwt>0</asrwt>
<pdfrwt beam="1">  1        2 0.47964511E+00 0.99917759E+03</pdfrwt>
<pdfrwt beam="2">  1       -2 0.12316254E-01 0.99917759E+03</pdfrwt>
<totfact> 0.77315191E+01</totfact>
</mgrwt>
</event>
<event>
 9    1  0.4342579E-036  0.1000207E+04  0.7818608E-02  0.8680841E-01
          2   -1    0    0  501    0  0.00000000000E+00  0.00000000000E+00  0.12567225792E+03  0.12567225792E+03  0.00000000000E+00 0. -1.
         -2   -1    0    0    0  501 -0.00000000000E+00 -0.00000000000E+00 -0.19901240490E+04  0.19901240490E+04  0.00000000000E+00 0. -1.
         36    2    1    2    0    0  0.14210854715E-13  0.00000000000E+00 -0.18644517911E+04  0.21157963069E+04  0.10002067442E+04 0.  0.
         25    2    3    3    0    0  0.92053949726E+02 -0.50896751471E+02 -0.15080252256E+03  0.22189101358E+03  0.12421679486E+03 0.  0.
         35    2    3    3    0    0 -0.92053949726E+02  0.50896751471E+02 -0.17136492685E+04  0.18939052934E+04  0.79951174829E+03 0.  0.
         22    1    5    5    0    0 -0.23429549557E+03  0.37842296587E+03 -0.85344682501E+03  0.96253301422E+03  0.00000000000E+00 0.  1.
         22    1    5    5    0    0  0.14224154584E+03 -0.32752621440E+03 -0.86020244354E+03  0.93137227914E+03  0.00000000000E+00 0.  1.
          5    1    4    4  502    0  0.67844389974E+02 -0.86713182737E+02 -0.13791616755E+03  0.17653610560E+03  0.47000000000E+01 0.  1.
         -5    1    4    4    0  502  0.24209559752E+02  0.35816431266E+02 -0.12886355016E+02  0.45354907977E+02  0.47000000000E+01 0.  1.
<mgrwt>
<rscale>  0 0.10002067E+04</rscale>
<asrwt>0</asrwt>
<pdfrwt beam="1">  1        2 0.19334194E-01 0.10002067E+04</pdfrwt>
<pdfrwt beam="2">  1       -2 0.30617292E+00 0.10002067E+04</pdfrwt>
<totfact> 0.95271926E+00</totfact>
</mgrwt>
</event>
<event>
 9    1  0.4342579E-036  0.1000111E+04  0.7818608E-02  0.8680932E-01
         -2   -1    0    0    0  501 -0.00000000000E+00  0.00000000000E+00  0.17600314155E+03  0.17600314155E+03  0.00000000000E+00 0.  1.
          2   -1    0    0  501    0  0.00000000000E+00 -0.00000000000E+00 -0.14207438207E+04  0.14207438207E+04  0.00000000000E+00 0.  1.
         36    2    1    2    0    0  0.71054273576E-14  0.00000000000E+00 -0.12447406791E+04  0.15967469622E+04  0.10001107454E+04 0.  0.
         25    2    3    3    0    0  0.17340012999E+01 -0.13680963673E+03 -0.28185148938E+03  0.33740391509E+03  0.12522482338E+03 0.  0.
         35    2    3    3    0    0 -0.17340012999E+01  0.13680963673E+03 -0.96288918974E+03  0.12593430471E+04  0.80004339582E+03 0.  0.
         22    1    5    5    0    0  0.26775883065E+03 -0.61575510330E+02 -0.86956143069E+03  0.91193388829E+03  0.00000000000E+00 0.  1.
         22    1    5    5    0    0 -0.26949283195E+03  0.19838514706E+03 -0.93327759055E+02  0.34740915885E+03  0.00000000000E+00 0.  1.
          5    1    4    4  502    0 -0.46755296774E+02 -0.12116861565E+03 -0.23226653357E+03  0.26615357186E+03  0.47000000000E+01 0. -1.
         -5    1    4    4    0  502  0.48489298074E+02 -0.15641021077E+02 -0.49584955810E+02  0.71250343233E+02  0.47000000000E+01 0. -1.
<mgrwt>
<rscale>  0 0.10001107E+04</rscale>
<asrwt>0</asrwt>
<pdfrwt beam="1">  1        2 0.21857597E+00 0.10001107E+04</pdfrwt>
<pdfrwt beam="2">  1       -2 0.27077407E-01 0.10001107E+04</pdfrwt>
<totfact> 0.20907954E+02</totfact>
</mgrwt>
</event>
<event>
 9    1  0.4342579E-036  0.1000003E+04  0.7818608E-02  0.8681035E-01
          1   -1    0    0  501    0  0.00000000000E+00  0.00000000000E+00  0.29880456052E+03  0.29880456052E+03  0.00000000000E+00 0.  1.
         -1   -1    0    0    0  501 -0.00000000000E+00 -0.00000000000E+00 -0.83667253061E+03  0.83667253061E+03  0.00000000000E+00 0.  1.
         36    2    1    2    0    0  0.00000000000E+00  0.00000000000E+00 -0.53786797009E+03  0.11354770911E+04  0.10000031356E+04 0.  0.
         25    2    3    3    0    0 -0.90721163765E+02  0.10326516919E+03 -0.76852626091E+02  0.20160998867E+03  0.12588183614E+03 0.  0.
         35    2    3    3    0    0  0.90721163765E+02 -0.10326516919E+03 -0.46101534400E+03  0.93386710246E+03  0.80042400822E+03 0.  0.
         22    1    5    5    0    0  0.49418862523E+02  0.13207903790E+03 -0.62717327606E+03  0.64283233773E+03  0.00000000000E+00 0. -1.
         22    1    5    5    0    0  0.41302301242E+02 -0.23534420709E+03  0.16615793206E+03  0.29103476474E+03  0.00000000000E+00 0. -1.
          5    1    4    4  502    0 -0.10778598164E+03  0.69865484979E+02 -0.94851835413E+02  0.15974343339E+03  0.47000000000E+01 0. -1.
         -5    1    4    4    0  502  0.17064817876E+02  0.33399684213E+02  0.17999209322E+02  0.41866555278E+02  0.47000000000E+01 0. -1.
<mgrwt>
<rscale>  0 0.10000031E+04</rscale>
<asrwt>0</asrwt>
<pdfrwt beam="1">  1        1 0.45969933E-01 0.10000031E+04</pdfrwt>
<pdfrwt beam="2">  1       -1 0.12871885E+00 0.10000031E+04</pdfrwt>
<totfact> 0.54918641E+01</totfact>
</mgrwt>
</event>
<event>
 9    1  0.4342579E-036  0.9992814E+03  0.7818608E-02  0.8681723E-01
          1   -1    0    0  501    0  0.00000000000E+00  0.00000000000E+00  0.47548710409E+03  0.47548710409E+03  0.00000000000E+00 0.  1.
         -1   -1    0    0    0  501 -0.00000000000E+00 -0.00000000000E+00 -0.52502126274E+03  0.52502126274E+03  0.00000000000E+00 0.  1.
         36    2    1    2    0    0  0.00000000000E+00  0.28421709430E-13 -0.49534158648E+02  0.10005083668E+04  0.99928142144E+03 0.  0.
         25    2    3    3    0    0  0.74282424958E+01  0.12525927299E+03  0.47321706443E+02  0.18374666921E+03  0.12561222189E+03 0.  0.
         35    2    3    3    0    0 -0.74282424958E+01 -0.12525927299E+03 -0.96855865091E+02  0.81676169763E+03  0.80123251797E+03 0.  0.
         22    1    5    5    0    0 -0.22955290563E+03  0.27187350514E+03 -0.50148988579E+02  0.35933919955E+03  0.00000000000E+00 0. -1.
         22    1    5    5    0    0  0.22212466314E+03 -0.39713277812E+03 -0.46706876512E+02  0.45742249808E+03  0.00000000000E+00 0. -1.
          5    1    4    4  502    0  0.49577665559E+02  0.11688775664E+03  0.57305588459E+02  0.13937974402E+03  0.47000000000E+01 0.  1.
         -5    1    4    4    0  502 -0.42149423063E+02  0.83715163476E+01 -0.99838820158E+01  0.44366925188E+02  0.47000000000E+01 0.  1.
<mgrwt>
<rscale>  0 0.99928142E+03</rscale>
<asrwt>0</asrwt>
<pdfrwt beam="1">  1        1 0.73151862E-01 0.99928142E+03</pdfrwt>
<pdfrwt beam="2">  1       -1 0.80772502E-01 0.99928142E+03</pdfrwt>
<totfact> 0.85917559E+01</totfact>
</mgrwt>
</event>
<event>
 9    1  0.4342579E-036  0.1000271E+04  0.7818608E-02  0.8680780E-01
         -1   -1    0    0    0  501 -0.00000000000E+00  0.00000000000E+00  0.42165710864E+03  0.42165710864E+03  0.00000000000E+00 0. -1.
          1   -1    0    0  501    0  0.00000000000E+00 -0.00000000000E+00 -0.59322052257E+03  0.59322052257E+03  0.00000000000E+00 0. -1.
         36    2    1    2    0    0  0.42632564146E-13  0.00000000000E+00 -0.17156341393E+03  0.10148776312E+04  0.10002712639E+04 0.  0.
         25    2    3    3    0    0 -0.37416517714E+02 -0.12831549199E+03 -0.78720706124E+02  0.19895653485E+03  0.12458688497E+03 0.  0.
         35    2    3    3    0    0  0.37416517714E+02  0.12831549199E+03 -0.92842707806E+02  0.81592109636E+03  0.79952648850E+03 0.  0.
         22    1    5    5    0    0 -0.24654886316E+03  0.33575805556E+03  0.79849773568E+02  0.42414125022E+03  0.00000000000E+00 0. -1.
         22    1    5    5    0    0  0.28396538087E+03 -0.20744256357E+03 -0.17269248137E+03  0.39177984614E+03  0.00000000000E+00 0. -1.
          5    1    4    4  502    0 -0.32445223655E+02 -0.14402244579E+03 -0.94758464603E+02  0.17548907101E+03  0.47000000000E+01 0. -1.
         -5    1    4    4    0  502 -0.49712940586E+01  0.15706953804E+02  0.16037758478E+02  0.23467463847E+02  0.47000000000E+01 0. -1.
<mgrwt>
<rscale>  0 0.10002713E+04</rscale>
<asrwt>0</asrwt>
<pdfrwt beam="1">  1        1 0.91264696E-01 0.10002713E+04</pdfrwt>
<pdfrwt beam="2">  1       -1 0.64870325E-01 0.10002713E+04</pdfrwt>
<totfact> 0.97720001E+01</totfact>
</mgrwt>
</event>
<event>
 9    1  0.4342579E-036  0.9997156E+03  0.7818608E-02  0.8681309E-01
         -2   -1    0    0    0  501 -0.00000000000E+00  0.00000000000E+00  0.28481439764E+03  0.28481439764E+03  0.00000000000E+00 0. -1.
          2   -1    0    0  501    0  0.00000000000E+00 -0.00000000000E+00 -0.87726534578E+03  0.87726534578E+03  0.00000000000E+00 0. -1.
         36    2    1    2    0    0  0.00000000000E+00 -0.28421709430E-13 -0.59245094813E+03  0.11620797434E+04  0.99971556161E+03 0.  0.
         25    2    3    3    0    0 -0.89823752024E+02 -0.77642368581E+02 -0.21235720596E+02  0.17143757365E+03  0.12183284452E+03 0.  0.
         35    2    3    3    0    0  0.89823752024E+02  0.77642368581E+02 -0.57121522754E+03  0.99064216977E+03  0.80061752949E+03 0.  0.
         22    1    5    5    0    0  0.52986745401E+02 -0.36303723265E+03 -0.27184246943E+03  0.45662014374E+03  0.00000000000E+00 0.  1.
         22    1    5    5    0    0  0.36837006623E+02  0.44067960123E+03 -0.29937275810E+03  0.53402202604E+03  0.00000000000E+00 0.  1.
          5    1    4    4  502    0 -0.17954580890E+02  0.12112991116E+02 -0.48367149151E+02  0.53203032298E+02  0.47000000000E+01 0. -1.
         -5    1    4    4    0  502 -0.71869171134E+02 -0.89755359697E+02  0.27131428555E+02  0.11823454135E+03  0.47000000000E+01 0. -1.
<mgrwt>
<rscale>  0 0.99971556E+03</rscale>
<asrwt>0</asrwt>
<pdfrwt beam="1">  1        2 0.13496390E+00 0.99971556E+03</pdfrwt>
<pdfrwt beam="2">  1       -2 0.43817599E-01 0.99971556E+03</pdfrwt>
<totfact> 0.18159329E+02</totfact>
</mgrwt>
</event>
<event>
 9    1  0.4342579E-036  0.1000088E+04  0.7818608E-02  0.8680954E-01
          2   -1    0    0  501    0  0.00000000000E+00  0.00000000000E+00  0.53726639593E+03  0.53726639593E+03  0.00000000000E+00 0.  1.
         -2   -1    0    0    0  501 -0.00000000000E+00 -0.00000000000E+00 -0.46540056079E+03  0.46540056079E+03  0.00000000000E+00 0.  1.
         36    2    1    2    0    0  0.28421709430E-13  0.00000000000E+00  0.71865835133E+02  0.10026669567E+04  0.10000881600E+04 0.  0.
         25    2    3    3    0    0 -0.86621400307E+02 -0.73863368904E+02 -0.68588526710E+02  0.18241272899E+03  0.12494380115E+03 0.  0.
         35    2    3    3    0    0  0.86621400307E+02  0.73863368904E+02  0.14045436184E+03  0.82025422773E+03  0.80008156214E+03 0.  0.
         22    1    5    5    0    0  0.25088393204E+03 -0.62378902289E+02 -0.25989399640E+03  0.36657709172E+03  0.00000000000E+00 0. -1.
         22    1    5    5    0    0 -0.16426253173E+03  0.13624227119E+03  0.40034835824E+03  0.45367713601E+03  0.00000000000E+00 0. -1.
          5    1    4    4  502    0 -0.10263739229E+03 -0.26418602715E+02 -0.77439883985E+02  0.13134459447E+03  0.47000000000E+01 0. -1.
         -5    1    4    4    0  502  0.16015991982E+02 -0.47444766189E+02  0.88513572750E+01  0.51068134522E+02  0.47000000000E+01 0. -1.
<mgrwt>
<rscale>  0 0.10000882E+04</rscale>
<asrwt>0</asrwt>
<pdfrwt beam="1">  1        2 0.82656368E-01 0.10000882E+04</pdfrwt>
<pdfrwt beam="2">  1       -2 0.71600086E-01 0.10000882E+04</pdfrwt>
<totfact> 0.12107745E+02</totfact>
</mgrwt>
</event>
<event>
 9    1  0.4342579E-036  0.9998462E+03  0.7818608E-02  0.8681184E-01
         -3   -1    0    0    0  501 -0.00000000000E+00  0.00000000000E+00  0.97134489540E+03  0.97134489540E+03  0.00000000000E+00 0. -1.
          3   -1    0    0  501    0  0.00000000000E+00 -0.00000000000E+00 -0.25729592337E+03  0.25729592337E+03  0.00000000000E+00 0. -1.
         36    2    1    2    0    0  0.42632564146E-13  0.00000000000E+00  0.71404897203E+03  0.12286408188E+04  0.99984615170E+03 0.  0.
         25    2    3    3    0    0  0.94038974381E+02 -0.10204780547E+03  0.15226331926E+03  0.24090171166E+03  0.12486966400E+03 0.  0.
         35    2    3    3    0    0 -0.94038974381E+02  0.10204780547E+03  0.56178565277E+03  0.98773910710E+03  0.80048006892E+03 0.  0.
         22    1    5    5    0    0 -0.40929247356E+03  0.23193687318E+03  0.30124089024E+03  0.55862430668E+03  0.00000000000E+00 0. -1.
         22    1    5    5    0    0  0.31525349918E+03 -0.12988906772E+03  0.26054476252E+03  0.42911480042E+03  0.00000000000E+00 0. -1.
          5    1    4    4  502    0  0.65364042703E+01  0.21294517376E+02  0.58817740094E+02  0.63069783580E+02  0.47000000000E+01 0.  1.
         -5    1    4    4    0  502  0.87502570111E+02 -0.12334232284E+03  0.93445579168E+02  0.17783192808E+03  0.47000000000E+01 0.  1.
<mgrwt>
<rscale>  0 0.99984615E+03</rscale>
<asrwt>0</asrwt>
<pdfrwt beam="1">  1        3 0.39583989E-01 0.99984615E+03</pdfrwt>
<pdfrwt beam="2">  1       -3 0.14943767E+00 0.99984615E+03</pdfrwt>
<totfact> 0.66409381E+00</totfact>
</mgrwt>
</event>
<event>
 9    1  0.4342579E-036  0.9953374E+03  0.7818608E-02  0.8685491E-01
          1   -1    0    0  501    0  0.00000000000E+00  0.00000000000E+00  0.10383873754E+04  0.10383873754E+04  0.00000000000E+00 0. -1.
         -1   -1    0    0    0  501 -0.00000000000E+00 -0.00000000000E+00 -0.23851804279E+03  0.23851804279E+03  0.00000000000E+00 0. -1.
         36    2    1    2    0    0 -0.14210854715E-13  0.00000000000E+00  0.79986933263E+03  0.12769054182E+04  0.99533737887E+03 0.  0.
         25    2    3    3    0    0 -0.87696188579E+02  0.85103646006E+02  0.21018699082E+03  0.27564075901E+03  0.12986918365E+03 0.  0.
         35    2    3    3    0    0  0.87696188579E+02 -0.85103646006E+02  0.58968234181E+03  0.10012646592E+04  0.79992024695E+03 0.  0.
         22    1    5    5    0    0  0.57949858813E+02 -0.23181436290E+03  0.74689265827E+03  0.78418411611E+03  0.00000000000E+00 0. -1.
         22    1    5    5    0    0  0.29746329766E+02  0.14671071690E+03 -0.15721031646E+03  0.21708054309E+03  0.00000000000E+00 0. -1.
          5    1    4    4  502    0  0.22051661072E+02  0.13872566020E+02  0.10326913051E+03  0.10660828843E+03  0.47000000000E+01 0.  1.
         -5    1    4    4    0  502 -0.10974784965E+03  0.71231079985E+02  0.10691786031E+03  0.16903247058E+03  0.47000000000E+01 0.  1.
<mgrwt>
<rscale>  0 0.99533738E+03</rscale>
<asrwt>0</asrwt>
<pdfrwt beam="1">  1        1 0.15975190E+00 0.99533738E+03</pdfrwt>
<pdfrwt beam="2">  1       -1 0.36695084E-01 0.99533738E+03</pdfrwt>
<totfact> 0.11234041E+02</totfact>
</mgrwt>
</event>
<event>
 9    1  0.4342579E-036  0.9997142E+03  0.7818608E-02  0.8681310E-01
         -2   -1    0    0    0  501 -0.00000000000E+00  0.00000000000E+00  0.13541620498E+03  0.13541620498E+03  0.00000000000E+00 0. -1.
          2   -1    0    0  501    0  0.00000000000E+00 -0.00000000000E+00 -0.18451050270E+04  0.18451050270E+04  0.00000000000E+00 0. -1.
         36    2    1    2    0    0 -0.28421709430E-13 -0.13322676296E-13 -0.17096888220E+04  0.19805212319E+04  0.99971420023E+03 0.  0.
         25    2    3    3    0    0  0.13513817338E+03 -0.10254579783E+01 -0.25649552398E+03  0.31538300645E+03  0.12414954478E+03 0.  0.
         35    2    3    3    0    0 -0.13513817338E+03  0.10254579783E+01 -0.14531932980E+04  0.16651382255E+04  0.80165526951E+03 0.  0.
         22    1    5    5    0    0  0.19551763802E+03 -0.29211114596E+03 -0.82824507009E+03  0.89974772269E+03  0.00000000000E+00 0.  1.
         22    1    5    5    0    0 -0.33065581140E+03  0.29313660394E+03 -0.62494822792E+03  0.76539050279E+03  0.00000000000E+00 0.  1.
          5    1    4    4  502    0  0.15538956015E+03 -0.86827512668E+01 -0.24534200942E+03  0.29057890006E+03  0.47000000000E+01 0.  1.
         -5    1    4    4    0  502 -0.20251386772E+02  0.76572932885E+01 -0.11153514553E+02  0.24804106386E+02  0.47000000000E+01 0.  1.
<mgrwt>
<rscale>  0 0.99971420E+03</rscale>
<asrwt>0</asrwt>
<pdfrwt beam="1">  1        2 0.28386229E+00 0.99971420E+03</pdfrwt>
<pdfrwt beam="2">  1       -2 0.20833264E-01 0.99971420E+03</pdfrwt>
<totfact> 0.19119151E+02</totfact>
</mgrwt>
</event>
<event>
 9    1  0.4342579E-036  0.9988822E+03  0.7818608E-02  0.8682103E-01
         -1   -1    0    0    0  501 -0.00000000000E+00  0.00000000000E+00  0.67320429455E+03  0.67320429455E+03  0.00000000000E+00 0.  1.
          1   -1    0    0  501    0  0.00000000000E+00 -0.00000000000E+00 -0.37052853440E+03  0.37052853440E+03  0.00000000000E+00 0.  1.
         36    2    1    2    0    0  0.14210854715E-13  0.00000000000E+00  0.30267576015E+03  0.10437328290E+04  0.99888217646E+03 0.  0.
         25    2    3    3    0    0  0.68491123046E+02 -0.90384691983E+02  0.14208164023E+03  0.22016067795E+03  0.12418979485E+03 0.  0.
         35    2    3    3    0    0 -0.68491123046E+02  0.90384691983E+02  0.16059411992E+03  0.82357215100E+03  0.79976258356E+03 0.  0.
         22    1    5    5    0    0  0.21964360125E+03 -0.23312357296E+03 -0.77076591440E+02  0.32943999877E+03  0.00000000000E+00 0. -1.
         22    1    5    5    0    0 -0.28813472429E+03  0.32350826494E+03  0.23767071136E+03  0.49413215223E+03  0.00000000000E+00 0. -1.
          5    1    4    4  502    0  0.51005207615E+02 -0.18692681198E+01  0.11489707101E+03  0.12581117714E+03  0.47000000000E+01 0.  1.
         -5    1    4    4    0  502  0.17485915431E+02 -0.88515423864E+02  0.27184569226E+02  0.94349500816E+02  0.47000000000E+01 0.  1.
<mgrwt>
<rscale>  0 0.99888218E+03</rscale>
<asrwt>0</asrwt>
<pdfrwt beam="1">  1        1 0.57004390E-01 0.99888218E+03</pdfrwt>
<pdfrwt beam="2">  1       -1 0.10356989E+00 0.99888218E+03</pdfrwt>
<totfact> 0.70077977E+01</totfact>
</mgrwt>
</event>
<event>
 9    1  0.4342579E-036  0.1001932E+04  0.7818608E-02  0.8679200E-01
          1   -1    0    0  501    0  0.00000000000E+00  0.00000000000E+00  0.11288743391E+04  0.11288743391E+04  0.00000000000E+00 0.  1.
         -1   -1    0    0    0  501 -0.00000000000E+00 -0.00000000000E+00 -0.22231623115E+03  0.22231623115E+03  0.00000000000E+00 0.  1.
         36    2    1    2    0    0  0.00000000000E+00  0.00000000000E+00  0.90655810800E+03  0.13511905703E+04  0.10019323101E+04 0.  0.
         25    2    3    3    0    0  0.94030799657E+02 -0.95423557561E+02  0.22891188635E+03  0.29347283031E+03  0.12561132035E+03 0.  0.
         35    2    3    3    0    0 -0.94030799657E+02  0.95423557561E+02  0.67764622165E+03  0.10577177400E+04  0.80100871977E+03 0.  0.
         22    1    5    5    0    0  0.13291208053E+03  0.15907893093E+03  0.77533934949E+03  0.80257263490E+03  0.00000000000E+00 0. -1.
         22    1    5    5    0    0 -0.22694288018E+03 -0.63655373368E+02 -0.97693127840E+02  0.25514510509E+03  0.00000000000E+00 0. -1.
          5    1    4    4  502    0  0.50404347559E+02 -0.11568137771E+03  0.20182082319E+03  0.23806829708E+03  0.47000000000E+01 0. -1.
         -5    1    4    4    0  502  0.43626452098E+02  0.20257820149E+02  0.27091063157E+02  0.55404533233E+02  0.47000000000E+01 0. -1.
<mgrwt>
<rscale>  0 0.10019323E+04</rscale>
<asrwt>0</asrwt>
<pdfrwt beam="1">  1        1 0.17367297E+00 0.10019323E+04</pdfrwt>
<pdfrwt beam="2">  1       -1 0.34202498E-01 0.10019323E+04</pdfrwt>
<totfact> 0.10810664E+02</totfact>
</mgrwt>
</event>
<event>
 9    1  0.4342579E-036  0.1001776E+04  0.7818608E-02  0.8679348E-01
          2   -1    0    0  501    0  0.00000000000E+00  0.00000000000E+00  0.58626854414E+03  0.58626854414E+03  0.00000000000E+00 0. -1.
         -2   -1    0    0    0  501 -0.00000000000E+00 -0.00000000000E+00 -0.42794196747E+03  0.42794196747E+03  0.00000000000E+00 0. -1.
         36    2    1    2    0    0  0.00000000000E+00  0.00000000000E+00  0.15832657666E+03  0.10142105116E+04  0.10017762510E+04 0.  0.
         25    2    3    3    0    0  0.49090512904E+01  0.13262360329E+03  0.29998457572E+02  0.19360305637E+03  0.13772841771E+03 0.  0.
         35    2    3    3    0    0 -0.49090512904E+01 -0.13262360329E+03  0.12832811909E+03  0.82060745524E+03  0.79957199208E+03 0.  0.
         22    1    5    5    0    0  0.34195860727E+03  0.66484468202E+02 -0.96915022638E+02  0.36159147558E+03  0.00000000000E+00 0.  1.
         22    1    5    5    0    0 -0.34686765856E+03 -0.19910807149E+03  0.22524314173E+03  0.45901597966E+03  0.00000000000E+00 0.  1.
          5    1    4    4  502    0  0.62154716724E+02  0.55354039528E+02  0.47201862667E+02  0.95798665660E+02  0.47000000000E+01 0. -1.
         -5    1    4    4    0  502 -0.57245665433E+02  0.77269563761E+02 -0.17203405095E+02  0.97804390707E+02  0.47000000000E+01 0. -1.
<mgrwt>
<rscale>  0 0.10017763E+04</rscale>
<asrwt>0</asrwt>
<pdfrwt beam="1">  1        2 0.90195160E-01 0.10017763E+04</pdfrwt>
<pdfrwt beam="2">  1       -2 0.65837226E-01 0.10017763E+04</pdfrwt>
<totfact> 0.13105928E+02</totfact>
</mgrwt>
</event>
<event>
 9    1  0.4342579E-036  0.1000071E+04  0.7818608E-02  0.8680970E-01
         -2   -1    0    0    0  501 -0.00000000000E+00  0.00000000000E+00  0.85868141965E+03  0.85868141965E+03  0.00000000000E+00 0.  1.
          2   -1    0    0  501    0  0.00000000000E+00 -0.00000000000E+00 -0.29118561640E+03  0.29118561640E+03  0.00000000000E+00 0.  1.
         36    2    1    2    0    0  0.28421709430E-13  0.00000000000E+00  0.56749580325E+03  0.11498670360E+04  0.10000713544E+04 0.  0.
         25    2    3    3    0    0  0.79400030549E+02  0.93448985696E+02  0.29069436425E+02  0.17770616535E+03  0.12528915073E+03 0.  0.
         35    2    3    3    0    0 -0.79400030549E+02 -0.93448985696E+02  0.53842636682E+03  0.97216087070E+03  0.80009794916E+03 0.  0.
         22    1    5    5    0    0 -0.40882556832E+03 -0.81613134495E+02  0.48276464035E+03  0.63785636863E+03  0.00000000000E+00 0. -1.
         22    1    5    5    0    0  0.32942553777E+03 -0.11835851201E+02  0.55661726467E+02  0.33430450206E+03  0.00000000000E+00 0. -1.
          5    1    4    4  502    0  0.24764360737E+01  0.95525825564E+02  0.10556760439E+01  0.95679258657E+02  0.47000000000E+01 0.  1.
         -5    1    4    4    0  502  0.76923594475E+02 -0.20768398679E+01  0.28013760381E+02  0.82026906692E+02  0.47000000000E+01 0.  1.
<mgrwt>
<rscale>  0 0.10000714E+04</rscale>
<asrwt>0</asrwt>
<pdfrwt beam="1">  1        2 0.44797788E-01 0.10000714E+04</pdfrwt>
<pdfrwt beam="2">  1       -2 0.13210483E+00 0.10000714E+04</pdfrwt>
<totfact> 0.54530962E+01</totfact>
</mgrwt>
</event>
<event>
 9    1  0.4342579E-036  0.9993363E+03  0.7818608E-02  0.8681670E-01
         -2   -1    0    0    0  501 -0.00000000000E+00  0.00000000000E+00  0.18676102476E+03  0.18676102476E+03  0.00000000000E+00 0. -1.
          2   -1    0    0  501    0  0.00000000000E+00 -0.00000000000E+00 -0.13368326704E+04  0.13368326704E+04  0.00000000000E+00 0. -1.
         36    2    1    2    0    0  0.14210854715E-13  0.00000000000E+00 -0.11500716456E+04  0.15235936951E+04  0.99933625860E+03 0.  0.
         25    2    3    3    0    0  0.10875497033E+03 -0.57061979909E+01 -0.80328159287E+02  0.18432539277E+03  0.12515203946E+03 0.  0.
         35    2    3    3    0    0 -0.10875497033E+03  0.57061979909E+01 -0.10697434863E+04  0.13392683023E+04  0.79839104132E+03 0.  0.
         22    1    5    5    0    0  0.25366661993E+02 -0.19197937466E+03 -0.10828409367E+04  0.11000200190E+04  0.00000000000E+00 0.  1.
         22    1    5    5    0    0 -0.13412163232E+03  0.19768557265E+03  0.13097450425E+02  0.23924828338E+03  0.00000000000E+00 0.  1.
          5    1    4    4  502    0  0.12697171403E+03  0.12261369986E+01 -0.95690896905E+02  0.15906651856E+03  0.47000000000E+01 0. -1.
         -5    1    4    4    0  502 -0.18216743702E+02 -0.69323349895E+01  0.15362737618E+02  0.25258874216E+02  0.47000000000E+01 0. -1.
<mgrwt>
<rscale>  0 0.99933626E+03</rscale>
<asrwt>0</asrwt>
<pdfrwt beam="1">  1        2 0.20566657E+00 0.99933626E+03</pdfrwt>
<pdfrwt beam="2">  1       -2 0.28732465E-01 0.99933626E+03</pdfrwt>
<totfact> 0.20986356E+02</totfact>
</mgrwt>
</event>
<event>
 9    1  0.4342579E-036  0.9979580E+03  0.7818608E-02  0.8682985E-01
         -1   -1    0    0    0  501 -0.00000000000E+00  0.00000000000E+00  0.85982078760E+02  0.85982078760E+02  0.00000000000E+00 0.  1.
          1   -1    0    0  501    0  0.00000000000E+00 -0.00000000000E+00 -0.28957201571E+04  0.28957201571E+04  0.00000000000E+00 0.  1.
         36    2    1    2    0    0 -0.14210854715E-13  0.28421709430E-13 -0.28097380783E+04  0.29817022358E+04  0.99795799233E+03 0.  0.
         25    2    3    3    0    0 -0.40284683069E+02  0.13309466504E+03 -0.40193401602E+03  0.44079472869E+03  0.11581016388E+03 0.  0.
         35    2    3    3    0    0  0.40284683069E+02 -0.13309466504E+03 -0.24078040623E+04  0.25409075071E+04  0.79959584285E+03 0.  0.
         22    1    5    5    0    0  0.14010671242E+03  0.27249684429E+03 -0.16250056801E+04  0.16536407957E+04  0.00000000000E+00 0.  1.
         22    1    5    5    0    0 -0.99822029352E+02 -0.40559150933E+03 -0.78279838220E+03  0.88726671140E+03  0.00000000000E+00 0.  1.
          5    1    4    4  502    0  0.95660270868E+01  0.35423751146E+01 -0.17059138443E+03  0.17096071987E+03  0.47000000000E+01 0.  1.
         -5    1    4    4    0  502 -0.49850710156E+02  0.12955228993E+03 -0.23134263159E+03  0.26983400883E+03  0.47000000000E+01 0.  1.
<mgrwt>
<rscale>  0 0.99795799E+03</rscale>
<asrwt>0</asrwt>
<pdfrwt beam="1">  1        1 0.44549536E+00 0.99795799E+03</pdfrwt>
<pdfrwt beam="2">  1       -1 0.13228013E-01 0.99795799E+03</pdfrwt>
<totfact> 0.29163465E+01</totfact>
</mgrwt>
</event>
<event>
 9    1  0.4342579E-036  0.1000538E+04  0.7818608E-02  0.8680526E-01
         -1   -1    0    0    0  501 -0.00000000000E+00  0.00000000000E+00  0.21071151541E+03  0.21071151541E+03  0.00000000000E+00 0.  1.
          1   -1    0    0  501    0  0.00000000000E+00 -0.00000000000E+00 -0.11877339112E+04  0.11877339112E+04  0.00000000000E+00 0.  1.
         36    2    1    2    0    0 -0.14210854715E-13  0.00000000000E+00 -0.97702239580E+03  0.13984454266E+04  0.10005382798E+04 0.  0.
         25    2    3    3    0    0 -0.86490614147E+02  0.11447748869E+03 -0.15902163249E+03  0.24819697692E+03  0.12541187345E+03 0.  0.
         35    2    3    3    0    0  0.86490614147E+02 -0.11447748869E+03 -0.81800076331E+03  0.11502484497E+04  0.79583950990E+03 0.  0.
         22    1    5    5    0    0 -0.22989230862E+03  0.18550046203E+03 -0.58631213474E+03  0.65652327782E+03  0.00000000000E+00 0. -1.
         22    1    5    5    0    0  0.31638292277E+03 -0.29997795072E+03 -0.23168862856E+03  0.49372517188E+03  0.00000000000E+00 0. -1.
          5    1    4    4  502    0 -0.83755743093E+02  0.22364295626E+02 -0.34982818012E+02  0.93600607775E+02  0.47000000000E+01 0. -1.
         -5    1    4    4    0  502 -0.27348710540E+01  0.92113193067E+02 -0.12403881448E+03  0.15459636915E+03  0.47000000000E+01 0. -1.
<mgrwt>
<rscale>  0 0.10005383E+04</rscale>
<asrwt>0</asrwt>
<pdfrwt beam="1">  1        1 0.18272829E+00 0.10005383E+04</pdfrwt>
<pdfrwt beam="2">  1       -1 0.32417156E-01 0.10005383E+04</pdfrwt>
<totfact> 0.10710998E+02</totfact>
</mgrwt>
</event>
<event>
 9    1  0.4342579E-036  0.1003377E+04  0.7818608E-02  0.8677829E-01
         -2   -1    0    0    0  501 -0.00000000000E+00  0.00000000000E+00  0.43163350147E+03  0.43163350147E+03  0.00000000000E+00 0. -1.
          2   -1    0    0  501    0  0.00000000000E+00 -0.00000000000E+00 -0.58311370747E+03  0.58311370747E+03  0.00000000000E+00 0. -1.
         36    2    1    2    0    0 -0.56843418861E-13  0.28421709430E-13 -0.15148020600E+03  0.10147472089E+04  0.10033771202E+04 0.  0.
         25    2    3    3    0    0 -0.12992795647E+03  0.72098631774E+01 -0.90840666354E+02  0.20198125175E+03  0.12494456128E+03 0.  0.
         35    2    3    3    0    0  0.12992795647E+03 -0.72098631774E+01 -0.60639539647E+02  0.81276595720E+03  0.79998630702E+03 0.  0.
         22    1    5    5    0    0 -0.74177528456E+02  0.31610850048E+03  0.16972478335E+03  0.36637875469E+03  0.00000000000E+00 0. -1.
         22    1    5    5    0    0  0.20410548492E+03 -0.32331836366E+03 -0.23036432300E+03  0.44638720251E+03  0.00000000000E+00 0. -1.
          5    1    4    4  502    0 -0.69506105177E+02 -0.43657250517E+02 -0.93762349901E+00  0.82219360964E+02  0.47000000000E+01 0.  1.
         -5    1    4    4    0  502 -0.60421851290E+02  0.50867113694E+02 -0.89903042855E+02  0.11976189078E+03  0.47000000000E+01 0.  1.
<mgrwt>
<rscale>  0 0.10033771E+04</rscale>
<asrwt>0</asrwt>
<pdfrwt beam="1">  1        2 0.89709801E-01 0.10033771E+04</pdfrwt>
<pdfrwt beam="2">  1       -2 0.66405154E-01 0.10033771E+04</pdfrwt>
<totfact> 0.12949032E+02</totfact>
</mgrwt>
</event>
<event>
 9    1  0.4342579E-036  0.9995548E+03  0.7818608E-02  0.8681462E-01
          2   -1    0    0  501    0  0.00000000000E+00  0.00000000000E+00  0.13451973173E+04  0.13451973173E+04  0.00000000000E+00 0.  1.
         -2   -1    0    0    0  501 -0.00000000000E+00 -0.00000000000E+00 -0.18568089733E+03  0.18568089733E+03  0.00000000000E+00 0.  1.
         36    2    1    2    0    0  0.42632564146E-13 -0.28421709430E-13  0.11595164200E+04  0.15308782146E+04  0.99955479081E+03 0.  0.
         25    2    3    3    0    0 -0.10398380730E+03  0.79441242459E+02  0.29227459918E+03  0.34389667286E+03  0.12536720900E+03 0.  0.
         35    2    3    3    0    0  0.10398380730E+03 -0.79441242459E+02  0.86724182078E+03  0.11869815418E+04  0.79980826552E+03 0.  0.
         22    1    5    5    0    0  0.33129210310E+03 -0.27705621375E+03  0.24710780437E+03  0.49757096995E+03  0.00000000000E+00 0.  1.
         22    1    5    5    0    0 -0.22730829581E+03  0.19761497129E+03  0.62013401641E+03  0.68941057181E+03  0.00000000000E+00 0.  1.
          5    1    4    4  502    0 -0.13228145225E+03  0.69997142855E+02  0.25721619561E+03  0.29762433351E+03  0.47000000000E+01 0.  1.
         -5    1    4    4    0  502  0.28297644952E+02  0.94440996035E+01  0.35058403575E+02  0.46272339344E+02  0.47000000000E+01 0.  1.
<mgrwt>
<rscale>  0 0.99955479E+03</rscale>
<asrwt>0</asrwt>
<pdfrwt beam="1">  1        2 0.20695343E+00 0.99955479E+03</pdfrwt>
<pdfrwt beam="2">  1       -2 0.28566293E-01 0.99955479E+03</pdfrwt>
<totfact> 0.20973856E+02</totfact>
</mgrwt>
</event>
<event>
 9    1  0.4342579E-036  0.1000253E+04  0.7818608E-02  0.8680797E-01
          1   -1    0    0  501    0  0.00000000000E+00  0.00000000000E+00  0.29471042498E+04  0.29471042498E+04  0.00000000000E+00 0.  1.
         -1   -1    0    0    0  501 -0.00000000000E+00 -0.00000000000E+00 -0.84871900349E+02  0.84871900349E+02  0.00000000000E+00 0.  1.
         36    2    1    2    0    0  0.42632564146E-13  0.00000000000E+00  0.28622323495E+04  0.30319761502E+04  0.10002526445E+04 0.  0.
         25    2    3    3    0    0  0.86783522824E+02 -0.93062142324E+02  0.73252814271E+03  0.75352301277E+03  0.12250513761E+03 0.  0.
         35    2    3    3    0    0 -0.86783522824E+02  0.93062142324E+02  0.21297042068E+04  0.22784531374E+04  0.79969791100E+03 0.  0.
         22    1    5    5    0    0 -0.36617545410E+03  0.90754217505E+01  0.18056194405E+04  0.18423974572E+04  0.00000000000E+00 0. -1.
         22    1    5    5    0    0  0.27939193127E+03  0.83986720573E+02  0.32408476626E+03  0.43605568017E+03  0.00000000000E+00 0. -1.
          5    1    4    4  502    0  0.82739337928E+02 -0.32928889613E+02  0.61427317862E+03  0.62071228261E+03  0.47000000000E+01 0.  1.
         -5    1    4    4    0  502  0.40441848956E+01 -0.60133252711E+02  0.11825496409E+03  0.13281073016E+03  0.47000000000E+01 0.  1.
<mgrwt>
<rscale>  0 0.10002526E+04</rscale>
<asrwt>0</asrwt>
<pdfrwt beam="1">  1        1 0.45340057E+00 0.10002526E+04</pdfrwt>
<pdfrwt beam="2">  1       -1 0.13057218E-01 0.10002526E+04</pdfrwt>
<totfact> 0.27338278E+01</totfact>
</mgrwt>
</event>
<event>
 9    1  0.4342579E-036  0.9992783E+03  0.7818608E-02  0.8681726E-01
         -1   -1    0    0    0  501 -0.00000000000E+00  0.00000000000E+00  0.17368685709E+03  0.17368685709E+03  0.00000000000E+00 0.  1.
          1   -1    0    0  501    0  0.00000000000E+00 -0.00000000000E+00 -0.14372951394E+04  0.14372951394E+04  0.00000000000E+00 0.  1.
         36    2    1    2    0    0  0.00000000000E+00 -0.14210854715E-13 -0.12636082823E+04  0.16109819965E+04  0.99927829050E+03 0.  0.
         25    2    3    3    0    0  0.30818814590E+01 -0.78470354221E+02 -0.51583312159E+02  0.15649670839E+03  0.12515305494E+03 0.  0.
         35    2    3    3    0    0 -0.30818814590E+01  0.78470354221E+02 -0.12120249701E+04  0.14544852881E+04  0.80022236317E+03 0.  0.
         22    1    5    5    0    0 -0.36158486267E+03 -0.49857542133E+02 -0.86676501675E+03  0.94048443990E+03  0.00000000000E+00 0.  1.
         22    1    5    5    0    0  0.35850298121E+03  0.12832789635E+03 -0.34525995339E+03  0.51400084819E+03  0.00000000000E+00 0.  1.
          5    1    4    4  502    0  0.34481995455E+02 -0.95678368533E+02 -0.61630714227E+02  0.11901173535E+03  0.47000000000E+01 0. -1.
         -5    1    4    4    0  502 -0.31400113996E+02  0.17208014312E+02  0.10047402068E+02  0.37484973040E+02  0.47000000000E+01 0. -1.
<mgrwt>
<rscale>  0 0.99927829E+03</rscale>
<asrwt>0</asrwt>
<pdfrwt beam="1">  1        1 0.22112233E+00 0.99927829E+03</pdfrwt>
<pdfrwt beam="2">  1       -1 0.26721055E-01 0.99927829E+03</pdfrwt>
<totfact> 0.97943666E+01</totfact>
</mgrwt>
</event>
<event>
 9    1  0.4342579E-036  0.1000113E+04  0.7818608E-02  0.8680931E-01
          1   -1    0    0  501    0  0.00000000000E+00  0.00000000000E+00  0.27512006519E+03  0.27512006519E+03  0.00000000000E+00 0.  1.
         -1   -1    0    0    0  501 -0.00000000000E+00 -0.00000000000E+00 -0.90889875690E+03  0.90889875690E+03  0.00000000000E+00 0.  1.
         36    2    1    2    0    0  0.14210854715E-13  0.14210854715E-13 -0.63377869171E+03  0.11840188221E+04  0.10001125642E+04 0.  0.
         25    2    3    3    0    0 -0.89686489359E+02  0.10827565107E+03 -0.12289584922E+03  0.22498663837E+03  0.12549228940E+03 0.  0.
         35    2    3    3    0    0  0.89686489359E+02 -0.10827565107E+03 -0.51088284249E+03  0.95903218373E+03  0.79935859768E+03 0.  0.
         22    1    5    5    0    0 -0.21885718688E+03  0.88838783465E+02  0.92160251583E+02  0.25354350646E+03  0.00000000000E+00 0.  1.
         22    1    5    5    0    0  0.30854367624E+03 -0.19711443454E+03 -0.60304309407E+03  0.70548867727E+03  0.00000000000E+00 0.  1.
          5    1    4    4  502    0 -0.23311907951E+01  0.86951414420E+01  0.24641516436E+02  0.26652096868E+02  0.47000000000E+01 0. -1.
         -5    1    4    4    0  502 -0.87355298564E+02  0.99580509629E+02 -0.14753736566E+03  0.19833454150E+03  0.47000000000E+01 0. -1.
<mgrwt>
<rscale>  0 0.10001126E+04</rscale>
<asrwt>0</asrwt>
<pdfrwt beam="1">  1        1 0.42326163E-01 0.10001126E+04</pdfrwt>
<pdfrwt beam="2">  1       -1 0.13983058E+00 0.10001126E+04</pdfrwt>
<totfact> 0.49052655E+01</totfact>
</mgrwt>
</event>
<event>
 9    1  0.4342579E-036  0.9997327E+03  0.7818608E-02  0.8681293E-01
          2   -1    0    0  501    0  0.00000000000E+00  0.00000000000E+00  0.10529281946E+04  0.10529281946E+04  0.00000000000E+00 0. -1.
         -2   -1    0    0    0  501 -0.00000000000E+00 -0.00000000000E+00 -0.23730619988E+03  0.23730619988E+03  0.00000000000E+00 0. -1.
         36    2    1    2    0    0  0.35527136788E-14  0.28421709430E-13  0.81562199477E+03  0.12902343945E+04  0.99973274152E+03 0.  0.
         25    2    3    3    0    0  0.36468484103E+01  0.13358908354E+03  0.17444581484E+03  0.25602176523E+03  0.13136384287E+03 0.  0.
         35    2    3    3    0    0 -0.36468484103E+01 -0.13358908354E+03  0.64117617993E+03  0.10342126293E+04  0.80039335713E+03 0.  0.
         22    1    5    5    0    0 -0.72658963530E+02  0.20053171426E+03 -0.86784073971E+02  0.23026890563E+03  0.00000000000E+00 0.  1.
         22    1    5    5    0    0  0.69012115120E+02 -0.33412079780E+03  0.72796025390E+03  0.80394372366E+03  0.00000000000E+00 0.  1.
          5    1    4    4  502    0  0.68913467955E+01 -0.26038824974E+02  0.30997766457E+02  0.41333552860E+02  0.47000000000E+01 0. -1.
         -5    1    4    4    0  502 -0.32444983852E+01  0.15962790851E+03  0.14344804838E+03  0.21468821237E+03  0.47000000000E+01 0. -1.
<mgrwt>
<rscale>  0 0.99973274E+03</rscale>
<asrwt>0</asrwt>
<pdfrwt beam="1">  1        2 0.16198895E+00 0.99973274E+03</pdfrwt>
<pdfrwt beam="2">  1       -2 0.36508647E-01 0.99973274E+03</pdfrwt>
<totfact> 0.19885534E+02</totfact>
</mgrwt>
</event>
<event>
 9    1  0.4342579E-036  0.1000173E+04  0.7818608E-02  0.8680873E-01
         -3   -1    0    0    0  501 -0.00000000000E+00  0.00000000000E+00  0.48171125637E+03  0.48171125637E+03  0.00000000000E+00 0. -1.
          3   -1    0    0  501    0  0.00000000000E+00 -0.00000000000E+00 -0.51916260548E+03  0.51916260548E+03  0.00000000000E+00 0. -1.
         36    2    1    2    0    0 -0.28421709430E-13  0.71054273576E-14 -0.37451349116E+02  0.10008738618E+04  0.10001729269E+04 0.  0.
         25    2    3    3    0    0 -0.11590319934E+03  0.46798751971E+02  0.56850449005E+02  0.18559424268E+03  0.12485821784E+03 0.  0.
         35    2    3    3    0    0  0.11590319934E+03 -0.46798751971E+02 -0.94301798121E+02  0.81527961917E+03  0.80010271435E+03 0.  0.
         22    1    5    5    0    0 -0.24669765329E+03  0.70024653203E+02 -0.28989771377E+03  0.38704504731E+03  0.00000000000E+00 0. -1.
         22    1    5    5    0    0  0.36260085262E+03 -0.11682340517E+03  0.19559591565E+03  0.42823457186E+03  0.00000000000E+00 0. -1.
          5    1    4    4  502    0 -0.12768791011E+03  0.10923086130E+01  0.30645832230E+02  0.13140263528E+03  0.47000000000E+01 0.  1.
         -5    1    4    4    0  502  0.11784710770E+02  0.45706443358E+02  0.26204616776E+02  0.54191607401E+02  0.47000000000E+01 0.  1.
<mgrwt>
<rscale>  0 0.10001729E+04</rscale>
<asrwt>0</asrwt>
<pdfrwt beam="1">  1        3 0.79871170E-01 0.10001729E+04</pdfrwt>
<pdfrwt beam="2">  1       -3 0.74109424E-01 0.10001729E+04</pdfrwt>
<totfact> 0.10084754E+01</totfact>
</mgrwt>
</event>
<event>
 9    1  0.4342579E-036  0.1000043E+04  0.7818608E-02  0.8680997E-01
         -1   -1    0    0    0  501 -0.00000000000E+00  0.00000000000E+00  0.14891279813E+03  0.14891279813E+03  0.00000000000E+00 0. -1.
          1   -1    0    0  501    0  0.00000000000E+00 -0.00000000000E+00 -0.16789798051E+04  0.16789798051E+04  0.00000000000E+00 0. -1.
         36    2    1    2    0    0  0.46185277824E-13  0.00000000000E+00 -0.15300670070E+04  0.18278926032E+04  0.10000431606E+04 0.  0.
         25    2    3    3    0    0 -0.17994032651E+02  0.16365927841E+02 -0.35276031497E+02  0.13209832469E+03  0.12495575290E+03 0.  0.
         35    2    3    3    0    0  0.17994032651E+02 -0.16365927841E+02 -0.14947909755E+04  0.16957942785E+04  0.80045396244E+03 0.  0.
         22    1    5    5    0    0  0.38876507577E+03  0.99619371697E+02 -0.61912200838E+03  0.73781729758E+03  0.00000000000E+00 0.  1.
         22    1    5    5    0    0 -0.37077104312E+03 -0.11598529954E+03 -0.87566896709E+03  0.95797698096E+03  0.00000000000E+00 0.  1.
          5    1    4    4  502    0  0.21340277904E+02 -0.45011698054E+02 -0.31131002700E+02  0.58929532085E+02  0.47000000000E+01 0.  1.
         -5    1    4    4    0  502 -0.39334310554E+02  0.61377625895E+02 -0.41450287968E+01  0.73168792603E+02  0.47000000000E+01 0.  1.
<mgrwt>
<rscale>  0 0.10000432E+04</rscale>
<asrwt>0</asrwt>
<pdfrwt beam="1">  1        1 0.25830458E+00 0.10000432E+04</pdfrwt>
<pdfrwt beam="2">  1       -1 0.22909661E-01 0.10000432E+04</pdfrwt>
<totfact> 0.85421463E+01</totfact>
</mgrwt>
</event>
<event>
 9    1  0.4342579E-036  0.9993019E+03  0.7818608E-02  0.8681703E-01
          1   -1    0    0  501    0  0.00000000000E+00  0.00000000000E+00  0.42997357945E+03  0.42997357945E+03  0.00000000000E+00 0.  1.
         -1   -1    0    0    0  501 -0.00000000000E+00 -0.00000000000E+00 -0.58061953565E+03  0.58061953565E+03  0.00000000000E+00 0.  1.
         36    2    1    2    0    0  0.00000000000E+00  0.17763568394E-14 -0.15064595619E+03  0.10105931151E+04  0.99930187639E+03 0.  0.
         25    2    3    3    0    0  0.12983509986E+03 -0.60439956787E+01 -0.82319750881E+02  0.19750984959E+03  0.12385441560E+03 0.  0.
         35    2    3    3    0    0 -0.12983509986E+03  0.60439956787E+01 -0.68326205314E+02  0.81308326550E+03  0.79971385087E+03 0.  0.
         22    1    5    5    0    0 -0.82639822705E+02  0.10377215176E+02  0.36641727643E+03  0.37576408471E+03  0.00000000000E+00 0. -1.
         22    1    5    5    0    0 -0.47195277151E+02 -0.43332194973E+01 -0.43474348174E+03  0.43731918080E+03  0.00000000000E+00 0. -1.
          5    1    4    4  502    0  0.50920710164E+02  0.24804174465E+02 -0.95991827445E+02  0.11155575615E+03  0.47000000000E+01 0.  1.
         -5    1    4    4    0  502  0.78914389692E+02 -0.30848170144E+02  0.13672076564E+02  0.85954093441E+02  0.47000000000E+01 0.  1.
<mgrwt>
<rscale>  0 0.99930188E+03</rscale>
<asrwt>0</asrwt>
<pdfrwt beam="1">  1        1 0.66149782E-01 0.99930188E+03</pdfrwt>
<pdfrwt beam="2">  1       -1 0.89326082E-01 0.99930188E+03</pdfrwt>
<totfact> 0.79565228E+01</totfact>
</mgrwt>
</event>
<event>
 9    1  0.4342579E-036  0.1000145E+04  0.7818608E-02  0.8680900E-01
         -2   -1    0    0    0  501 -0.00000000000E+00  0.00000000000E+00  0.14569526964E+03  0.14569526964E+03  0.00000000000E+00 0. -1.
          2   -1    0    0  501    0  0.00000000000E+00 -0.00000000000E+00 -0.17164079177E+04  0.17164079177E+04  0.00000000000E+00 0. -1.
         36    2    1    2    0    0  0.71054273576E-14 -0.14210854715E-13 -0.15707126480E+04  0.18621031873E+04  0.10001450182E+04 0.  0.
         25    2    3    3    0    0  0.52775967129E+02 -0.11153826276E+03 -0.42216063431E+03  0.45745893896E+03  0.12578947854E+03 0.  0.
         35    2    3    3    0    0 -0.52775967129E+02  0.11153826276E+03 -0.11485520137E+04  0.14046442483E+04  0.79914182061E+03 0.  0.
         22    1    5    5    0    0 -0.69955589515E+02  0.30506291082E+03 -0.86147030404E+02  0.32462050907E+03  0.00000000000E+00 0. -1.
         22    1    5    5    0    0  0.17179622386E+02 -0.19352464807E+03 -0.10624049833E+04  0.10800237393E+04  0.00000000000E+00 0. -1.
          5    1    4    4  502    0  0.44394207973E+02 -0.59399119185E+02 -0.72543707799E+02  0.10384498352E+03  0.47000000000E+01 0. -1.
         -5    1    4    4    0  502  0.83817591558E+01 -0.52139143572E+02 -0.34961692651E+03  0.35361395544E+03  0.47000000000E+01 0. -1.
<mgrwt>
<rscale>  0 0.10001450E+04</rscale>
<asrwt>0</asrwt>
<pdfrwt beam="1">  1        2 0.26406275E+00 0.10001450E+04</pdfrwt>
<pdfrwt beam="2">  1       -2 0.22414657E-01 0.10001450E+04</pdfrwt>
<totfact> 0.19888930E+02</totfact>
</mgrwt>
</event>
<event>
 9    1  0.4342579E-036  0.9987533E+03  0.7818608E-02  0.8682226E-01
          2   -1    0    0  501    0  0.00000000000E+00  0.00000000000E+00  0.31035849748E+03  0.31035849748E+03  0.00000000000E+00 0.  1.
         -2   -1    0    0    0  501 -0.00000000000E+00 -0.00000000000E+00 -0.80351291705E+03  0.80351291705E+03  0.00000000000E+00 0.  1.
         36    2    1    2    0    0  0.00000000000E+00  0.00000000000E+00 -0.49315441956E+03  0.11138714145E+04  0.99875334621E+03 0.  0.
         25    2    3    3    0    0 -0.77909395006E+02 -0.18262219074E+02  0.33787791666E+02  0.15261702437E+03  0.12548688691E+03 0.  0.
         35    2    3    3    0    0  0.77909395006E+02  0.18262219074E+02 -0.52694221123E+03  0.96125439016E+03  0.79996157792E+03 0.  0.
         22    1    5    5    0    0  0.37397148069E+03 -0.94362944066E+02 -0.51611529481E+03  0.64430895626E+03  0.00000000000E+00 0.  1.
         22    1    5    5    0    0 -0.29606208568E+03  0.11262516314E+03 -0.10826916422E+02  0.31694543390E+03  0.00000000000E+00 0.  1.
          5    1    4    4  502    0  0.18933906182E+02 -0.87406781598E+01  0.49514577657E+02  0.53932139385E+02  0.47000000000E+01 0.  1.
         -5    1    4    4    0  502 -0.96843301188E+02 -0.95215409142E+01 -0.15726785991E+02  0.98684884982E+02  0.47000000000E+01 0.  1.
<mgrwt>
<rscale>  0 0.99875335E+03</rscale>
<asrwt>0</asrwt>
<pdfrwt beam="1">  1        2 0.47747462E-01 0.99875335E+03</pdfrwt>
<pdfrwt beam="2">  1       -2 0.12361737E+00 0.99875335E+03</pdfrwt>
<totfact> 0.60563105E+01</totfact>
</mgrwt>
</event>
<event>
 9    1  0.4342579E-036  0.1000169E+04  0.7818608E-02  0.8680877E-01
          2   -1    0    0  501    0  0.00000000000E+00  0.00000000000E+00  0.85295243317E+03  0.85295243317E+03  0.00000000000E+00 0.  1.
         -2   -1    0    0    0  501 -0.00000000000E+00 -0.00000000000E+00 -0.29319870170E+03  0.29319870170E+03  0.00000000000E+00 0.  1.
         36    2    1    2    0    0 -0.35527136788E-14  0.00000000000E+00  0.55975373147E+03  0.11461511349E+04  0.10001690777E+04 0.  0.
         25    2    3    3    0    0 -0.24783800471E+02  0.13379659185E+03  0.78886933646E+02  0.20137644311E+03  0.12575197327E+03 0.  0.
         35    2    3    3    0    0  0.24783800471E+02 -0.13379659185E+03  0.48086679782E+03  0.94477469176E+03  0.80177963069E+03 0.  0.
         22    1    5    5    0    0  0.42385711442E+02  0.27445672068E+03 -0.42322258333E+02  0.28091673787E+03  0.00000000000E+00 0.  1.
         22    1    5    5    0    0 -0.17601910971E+02 -0.40825331254E+03  0.52318905616E+03  0.66385795389E+03  0.00000000000E+00 0.  1.
          5    1    4    4  502    0 -0.25320764766E+02  0.14887768656E+03  0.35504255627E+02  0.15520421660E+03  0.47000000000E+01 0. -1.
         -5    1    4    4    0  502  0.53696429522E+00 -0.15081094707E+02  0.43382678019E+02  0.46172226503E+02  0.47000000000E+01 0. -1.
<mgrwt>
<rscale>  0 0.10001691E+04</rscale>
<asrwt>0</asrwt>
<pdfrwt beam="1">  1        2 0.13122345E+00 0.10001691E+04</pdfrwt>
<pdfrwt beam="2">  1       -2 0.45107493E-01 0.10001691E+04</pdfrwt>
<totfact> 0.17816309E+02</totfact>
</mgrwt>
</event>
<event>
 9    1  0.4342579E-036  0.1000963E+04  0.7818608E-02  0.8680121E-01
          1   -1    0    0  501    0  0.00000000000E+00  0.00000000000E+00  0.79962501033E+03  0.79962501033E+03  0.00000000000E+00 0.  1.
         -1   -1    0    0    0  501 -0.00000000000E+00 -0.00000000000E+00 -0.31324915096E+03  0.31324915096E+03  0.00000000000E+00 0.  1.
         36    2    1    2    0    0  0.14210854715E-13  0.71054273576E-14  0.48637585936E+03  0.11128741613E+04  0.10009632472E+04 0.  0.
         25    2    3    3    0    0 -0.52599572309E+02 -0.62974273895E+02  0.22023097312E+03  0.26609269327E+03  0.12478447704E+03 0.  0.
         35    2    3    3    0    0  0.52599572309E+02  0.62974273895E+02  0.26614488624E+03  0.84678146802E+03  0.79967073219E+03 0.  0.
         22    1    5    5    0    0 -0.28633846507E+03  0.27371452275E+03  0.19448774243E+03  0.44128770490E+03  0.00000000000E+00 0.  1.
         22    1    5    5    0    0  0.33893803737E+03 -0.21074024886E+03  0.71657143810E+02  0.40549376312E+03  0.00000000000E+00 0.  1.
          5    1    4    4  502    0  0.19111809738E+02 -0.13586252990E+02  0.15591855821E+03  0.15774198660E+03  0.47000000000E+01 0.  1.
         -5    1    4    4    0  502 -0.71711382047E+02 -0.49388020905E+02  0.64312414908E+02  0.10835070667E+03  0.47000000000E+01 0.  1.
<mgrwt>
<rscale>  0 0.10009632E+04</rscale>
<asrwt>0</asrwt>
<pdfrwt beam="1">  1        1 0.12301923E+00 0.10009632E+04</pdfrwt>
<pdfrwt beam="2">  1       -1 0.48192177E-01 0.10009632E+04</pdfrwt>
<totfact> 0.10848033E+02</totfact>
</mgrwt>
</event>
<event>
 9    1  0.4342579E-036  0.9978364E+03  0.7818608E-02  0.8683101E-01
          2   -1    0    0  501    0  0.00000000000E+00  0.00000000000E+00  0.34769413205E+03  0.34769413205E+03  0.00000000000E+00 0. -1.
         -2   -1    0    0    0  501 -0.00000000000E+00 -0.00000000000E+00 -0.71591484611E+03  0.71591484611E+03  0.00000000000E+00 0. -1.
         36    2    1    2    0    0  0.00000000000E+00  0.00000000000E+00 -0.36822071406E+03  0.10636089782E+04  0.99783644159E+03 0.  0.
         25    2    3    3    0    0 -0.84554273887E+02  0.46126526558E+02  0.39515827432E+02  0.16060865592E+03  0.12229700754E+03 0.  0.
         35    2    3    3    0    0  0.84554273887E+02 -0.46126526558E+02 -0.40773654149E+03  0.90300032225E+03  0.79992712983E+03 0.  0.
         22    1    5    5    0    0 -0.16481785901E+03  0.14816008418E+03  0.14599328491E+03  0.26538721979E+03  0.00000000000E+00 0.  1.
         22    1    5    5    0    0  0.24937213289E+03 -0.19428661074E+03 -0.55372982640E+03  0.63761310245E+03  0.00000000000E+00 0.  1.
          5    1    4    4  502    0 -0.56569760979E+02  0.87767228424E+01  0.80110864672E+02  0.98574892135E+02  0.47000000000E+01 0.  1.
         -5    1    4    4    0  502 -0.27984512908E+02  0.37349803716E+02 -0.40595037240E+02  0.62033763781E+02  0.47000000000E+01 0.  1.
<mgrwt>
<rscale>  0 0.99783644E+03</rscale>
<asrwt>0</asrwt>
<pdfrwt beam="1">  1        2 0.53491405E-01 0.99783644E+03</pdfrwt>
<pdfrwt beam="2">  1       -2 0.11014075E+00 0.99783644E+03</pdfrwt>
<totfact> 0.71861179E+01</totfact>
</mgrwt>
</event>
<event>
 9    1  0.4342579E-036  0.9994725E+03  0.7818608E-02  0.8681540E-01
         -1   -1    0    0    0  501 -0.00000000000E+00  0.00000000000E+00  0.36783299321E+03  0.36783299321E+03  0.00000000000E+00 0. -1.
          1   -1    0    0  501    0  0.00000000000E+00 -0.00000000000E+00 -0.67893944650E+03  0.67893944650E+03  0.00000000000E+00 0. -1.
         36    2    1    2    0    0  0.28421709430E-13 -0.14210854715E-13 -0.31110645329E+03  0.10467724397E+04  0.99947251851E+03 0.  0.
         25    2    3    3    0    0 -0.10739957349E+03  0.81438174597E+02 -0.10152724191E+02  0.18191616612E+03  0.12175208015E+03 0.  0.
         35    2    3    3    0    0  0.10739957349E+03 -0.81438174597E+02 -0.30095372910E+03  0.86485627359E+03  0.79952259645E+03 0.  0.
         22    1    5    5    0    0  0.37425787011E+03  0.33288040791E+02 -0.40858296780E+03  0.55508295648E+03  0.00000000000E+00 0. -1.
         22    1    5    5    0    0 -0.26685829662E+03 -0.11472621539E+03  0.10762923870E+03  0.30977331711E+03  0.00000000000E+00 0. -1.
          5    1    4    4  502    0 -0.80866653837E+02  0.10079564861E+03  0.27006139083E+02  0.13210071926E+03  0.47000000000E+01 0.  1.
         -5    1    4    4    0  502 -0.26532919654E+02 -0.19357474016E+02 -0.37158863274E+02  0.49815446857E+02  0.47000000000E+01 0.  1.
<mgrwt>
<rscale>  0 0.99947252E+03</rscale>
<asrwt>0</asrwt>
<pdfrwt beam="1">  1        1 0.10445222E+00 0.99947252E+03</pdfrwt>
<pdfrwt beam="2">  1       -1 0.56589692E-01 0.99947252E+03</pdfrwt>
<totfact> 0.10395956E+02</totfact>
</mgrwt>
</event>
<event>
 9    1  0.4342579E-036  0.9996271E+03  0.7818608E-02  0.8681393E-01
         -2   -1    0    0    0  501 -0.00000000000E+00  0.00000000000E+00  0.27705288131E+03  0.27705288131E+03  0.00000000000E+00 0.  1.
          2   -1    0    0  501    0  0.00000000000E+00 -0.00000000000E+00 -0.90168203155E+03  0.90168203155E+03  0.00000000000E+00 0.  1.
         36    2    1    2    0    0  0.00000000000E+00  0.71054273576E-14 -0.62462915024E+03  0.11787349129E+04  0.99962714021E+03 0.  0.
         25    2    3    3    0    0  0.13132851770E+03 -0.17439820419E+02 -0.17218616779E+03  0.25035590858E+03  0.12441333403E+03 0.  0.
         35    2    3    3    0    0 -0.13132851770E+03  0.17439820419E+02 -0.45244298245E+03  0.92837900428E+03  0.79976971455E+03 0.  0.
         22    1    5    5    0    0 -0.27865184016E+03 -0.33063619503E+03 -0.22877281027E+03  0.48918722408E+03  0.00000000000E+00 0.  1.
         22    1    5    5    0    0  0.14732332246E+03  0.34807601544E+03 -0.22367017218E+03  0.43919178020E+03  0.00000000000E+00 0.  1.
          5    1    4    4  502    0  0.49795454490E+02 -0.68305856548E+02 -0.68454567066E+02  0.10887329828E+03  0.47000000000E+01 0. -1.
         -5    1    4    4    0  502  0.81533063210E+02  0.50866036129E+02 -0.10373160073E+03  0.14148261030E+03  0.47000000000E+01 0. -1.
<mgrwt>
<rscale>  0 0.99962714E+03</rscale>
<asrwt>0</asrwt>
<pdfrwt beam="1">  1        2 0.13872031E+00 0.99962714E+03</pdfrwt>
<pdfrwt beam="2">  1       -2 0.42623520E-01 0.99962714E+03</pdfrwt>
<totfact> 0.18460059E+02</totfact>
</mgrwt>
</event>
<event>
 9    1  0.4342579E-036  0.1001334E+04  0.7818608E-02  0.8679769E-01
         -2   -1    0    0    0  501 -0.00000000000E+00  0.00000000000E+00  0.37196307723E+03  0.37196307723E+03  0.00000000000E+00 0. -1.
          2   -1    0    0  501    0  0.00000000000E+00 -0.00000000000E+00 -0.67390420672E+03  0.67390420672E+03  0.00000000000E+00 0. -1.
         36    2    1    2    0    0 -0.71054273576E-14 -0.35527136788E-14 -0.30194112950E+03  0.10458672839E+04  0.10013340751E+04 0.  0.
         25    2    3    3    0    0  0.20498033617E+01  0.13334493746E+02 -0.20261081737E+03  0.23793781034E+03  0.12402115890E+03 0.  0.
         35    2    3    3    0    0 -0.20498033617E+01 -0.13334493746E+02 -0.99330312124E+02  0.80792947361E+03  0.80168666760E+03 0.  0.
         22    1    5    5    0    0 -0.33307680873E+03 -0.47062489851E+02 -0.27242084006E+03  0.43286043081E+03  0.00000000000E+00 0.  1.
         22    1    5    5    0    0  0.33102700537E+03  0.33727996105E+02  0.17309052794E+03  0.37506904280E+03  0.00000000000E+00 0.  1.
          5    1    4    4  502    0  0.56770427209E+02 -0.18509199932E+02 -0.11600211509E+03  0.13055287279E+03  0.47000000000E+01 0.  1.
         -5    1    4    4    0  502 -0.54720623847E+02  0.31843693679E+02 -0.86608702280E+02  0.10738493755E+03  0.47000000000E+01 0.  1.
<mgrwt>
<rscale>  0 0.10013341E+04</rscale>
<asrwt>0</asrwt>
<pdfrwt beam="1">  1        2 0.10367757E+00 0.10013341E+04</pdfrwt>
<pdfrwt beam="2">  1       -2 0.57225090E-01 0.10013341E+04</pdfrwt>
<totfact> 0.14885109E+02</totfact>
</mgrwt>
</event>
<event>
 9    1  0.4342579E-036  0.9986483E+03  0.7818608E-02  0.8682326E-01
          2   -1    0    0  501    0  0.00000000000E+00  0.00000000000E+00  0.88992863311E+03  0.88992863311E+03  0.00000000000E+00 0. -1.
         -2   -1    0    0    0  501 -0.00000000000E+00 -0.00000000000E+00 -0.28016248500E+03  0.28016248500E+03  0.00000000000E+00 0. -1.
         36    2    1    2    0    0  0.00000000000E+00 -0.28421709430E-13  0.60976614811E+03  0.11700911181E+04  0.99864832113E+03 0.  0.
         25    2    3    3    0    0 -0.23198964729E+02  0.12018436148E+03  0.35895984392E+02  0.17850184098E+03  0.12486758118E+03 0.  0.
         35    2    3    3    0    0  0.23198964729E+02 -0.12018436148E+03  0.57387016372E+03  0.99158927713E+03  0.79933713600E+03 0.  0.
         22    1    5    5    0    0 -0.45831221177E+02 -0.41602548950E+03  0.54394109941E+03  0.68633055328E+03  0.00000000000E+00 0. -1.
         22    1    5    5    0    0  0.69030185906E+02  0.29584112801E+03  0.29929064312E+02  0.30525872384E+03  0.00000000000E+00 0. -1.
          5    1    4    4  502    0 -0.24877497396E+02  0.62049500721E+02  0.80727317341E+02  0.10491911257E+03  0.47000000000E+01 0.  1.
         -5    1    4    4    0  502  0.16785326668E+01  0.58134860761E+02 -0.44831332949E+02  0.73582728419E+02  0.47000000000E+01 0.  1.
<mgrwt>
<rscale>  0 0.99864832E+03</rscale>
<asrwt>0</asrwt>
<pdfrwt beam="1">  1        2 0.13691210E+00 0.99864832E+03</pdfrwt>
<pdfrwt beam="2">  1       -2 0.43101921E-01 0.99864832E+03</pdfrwt>
<totfact> 0.18390672E+02</totfact>
</mgrwt>
</event>
<event>
 9    1  0.4342579E-036  0.9993552E+03  0.7818608E-02  0.8681652E-01
          1   -1    0    0  501    0  0.00000000000E+00  0.00000000000E+00  0.18863891616E+03  0.18863891616E+03  0.00000000000E+00 0. -1.
         -1   -1    0    0    0  501 -0.00000000000E+00 -0.00000000000E+00 -0.13235747043E+04  0.13235747043E+04  0.00000000000E+00 0. -1.
         36    2    1    2    0    0  0.42632564146E-13  0.14210854715E-13 -0.11349357881E+04  0.15122136204E+04  0.99935518744E+03 0.  0.
         25    2    3    3    0    0  0.82698435077E+02  0.92608935742E+02 -0.30822073979E+03  0.35521275857E+03  0.12554136079E+03 0.  0.
         35    2    3    3    0    0 -0.82698435077E+02 -0.92608935742E+02 -0.82671504832E+03  0.11570008619E+04  0.79986109862E+03 0.  0.
         22    1    5    5    0    0  0.30631316954E+03 -0.13434620992E+03 -0.64294975099E+03  0.72474895257E+03  0.00000000000E+00 0. -1.
         22    1    5    5    0    0 -0.38901160462E+03  0.41737274183E+02 -0.18376529733E+03  0.43225190929E+03  0.00000000000E+00 0. -1.
          5    1    4    4  502    0  0.10133010471E+03  0.27949101124E+02 -0.15010903978E+03  0.18331327338E+03  0.47000000000E+01 0. -1.
         -5    1    4    4    0  502 -0.18631669635E+02  0.64659834618E+02 -0.15811170002E+03  0.17189948519E+03  0.47000000000E+01 0. -1.
<mgrwt>
<rscale>  0 0.99935519E+03</rscale>
<asrwt>0</asrwt>
<pdfrwt beam="1">  1        1 0.29021372E-01 0.99935519E+03</pdfrwt>
<pdfrwt beam="2">  1       -1 0.20362688E+00 0.99935519E+03</pdfrwt>
<totfact> 0.23290309E+01</totfact>
</mgrwt>
</event>
<event>
 9    1  0.4342579E-036  0.9997264E+03  0.7818608E-02  0.8681299E-01
          2   -1    0    0  501    0  0.00000000000E+00  0.00000000000E+00  0.17613563901E+04  0.17613563901E+04  0.00000000000E+00 0.  1.
         -2   -1    0    0    0  501 -0.00000000000E+00 -0.00000000000E+00 -0.14185840904E+03  0.14185840904E+03  0.00000000000E+00 0.  1.
         36    2    1    2    0    0  0.00000000000E+00 -0.14210854715E-13  0.16194979811E+04  0.19032147992E+04  0.99972639309E+03 0.  0.
         25    2    3    3    0    0  0.60642044082E+02 -0.90020621681E+02  0.46366886379E+03  0.49224342010E+03  0.12463386195E+03 0.  0.
         35    2    3    3    0    0 -0.60642044082E+02  0.90020621681E+02  0.11558291173E+04  0.14109713791E+04  0.80194645353E+03 0.  0.
         22    1    5    5    0    0 -0.26111731335E+03  0.37724239755E+03  0.64003169236E+03  0.78748628246E+03  0.00000000000E+00 0.  1.
         22    1    5    5    0    0  0.20047526927E+03 -0.28722177587E+03  0.51579742494E+03  0.62348509661E+03  0.00000000000E+00 0.  1.
          5    1    4    4  502    0 -0.17046087673E+02 -0.27757982091E+02  0.22286180933E+02  0.39747182734E+02  0.47000000000E+01 0.  1.
         -5    1    4    4    0  502  0.77688131756E+02 -0.62262639590E+02  0.44138268286E+03  0.45249623737E+03  0.47000000000E+01 0.  1.
<mgrwt>
<rscale>  0 0.99972639E+03</rscale>
<asrwt>0</asrwt>
<pdfrwt beam="1">  1        2 0.27097789E+00 0.99972639E+03</pdfrwt>
<pdfrwt beam="2">  1       -2 0.21824372E-01 0.99972639E+03</pdfrwt>
<totfact> 0.19659232E+02</totfact>
</mgrwt>
</event>
<event>
 9    1  0.4342579E-036  0.9999429E+03  0.7818608E-02  0.8681092E-01
          1   -1    0    0  501    0  0.00000000000E+00  0.00000000000E+00  0.15249129032E+04  0.15249129032E+04  0.00000000000E+00 0. -1.
         -1   -1    0    0    0  501 -0.00000000000E+00 -0.00000000000E+00 -0.16392508279E+03  0.16392508279E+03  0.00000000000E+00 0. -1.
         36    2    1    2    0    0  0.00000000000E+00  0.71054273576E-14  0.13609878204E+04  0.16888379860E+04  0.99994294617E+03 0.  0.
         25    2    3    3    0    0  0.12039370599E+03 -0.62488599068E+02  0.19123265527E+03  0.26585073568E+03  0.12532843159E+03 0.  0.
         35    2    3    3    0    0 -0.12039370599E+03  0.62488599068E+02  0.11697551651E+04  0.14229872503E+04  0.79885298941E+03 0.  0.
         22    1    5    5    0    0  0.84919911751E+02 -0.29620311456E+03  0.83849538280E+03  0.89332087375E+03  0.00000000000E+00 0. -1.
         22    1    5    5    0    0 -0.20531361774E+03  0.35869171363E+03  0.33125978234E+03  0.52966637656E+03  0.00000000000E+00 0. -1.
          5    1    4    4  502    0  0.12874673445E+03 -0.69442805806E+02  0.10827911039E+03  0.18205625684E+03  0.47000000000E+01 0.  1.
         -5    1    4    4    0  502 -0.83530284524E+01  0.69542067382E+01  0.82953544880E+02  0.83794478839E+02  0.47000000000E+01 0.  1.
<mgrwt>
<rscale>  0 0.99994295E+03</rscale>
<asrwt>0</asrwt>
<pdfrwt beam="1">  1        1 0.23460198E+00 0.99994295E+03</pdfrwt>
<pdfrwt beam="2">  1       -1 0.25219244E-01 0.99994295E+03</pdfrwt>
<totfact> 0.93497054E+01</totfact>
</mgrwt>
</event>
<event>
 9    1  0.4342579E-036  0.9997588E+03  0.7818608E-02  0.8681268E-01
         -2   -1    0    0    0  501 -0.00000000000E+00  0.00000000000E+00  0.83206627330E+03  0.83206627330E+03  0.00000000000E+00 0.  1.
          2   -1    0    0  501    0  0.00000000000E+00 -0.00000000000E+00 -0.30031193944E+03  0.30031193944E+03  0.00000000000E+00 0.  1.
         36    2    1    2    0    0  0.00000000000E+00  0.00000000000E+00  0.53175433386E+03  0.11323782127E+04  0.99975884348E+03 0.  0.
         25    2    3    3    0    0  0.30293631291E+02 -0.90632576339E+02 -0.17135475343E+02  0.15782888249E+03  0.12443618300E+03 0.  0.
         35    2    3    3    0    0 -0.30293631291E+02  0.90632576339E+02  0.54888980920E+03  0.97454933025E+03  0.79958389583E+03 0.  0.
         22    1    5    5    0    0 -0.48088399037E+02  0.41965469503E+03  0.47728342780E+03  0.63735549549E+03  0.00000000000E+00 0. -1.
         22    1    5    5    0    0  0.17794767746E+02 -0.32902211869E+03  0.71606381395E+02  0.33719383476E+03  0.00000000000E+00 0. -1.
          5    1    4    4  502    0  0.28876130489E+02 -0.10625077265E+03 -0.50072747379E+02  0.12104721241E+03  0.47000000000E+01 0.  1.
         -5    1    4    4    0  502  0.14175008016E+01  0.15618196313E+02  0.32937272037E+02  0.36781670079E+02  0.47000000000E+01 0.  1.
<mgrwt>
<rscale>  0 0.99975884E+03</rscale>
<asrwt>0</asrwt>
<pdfrwt beam="1">  1        2 0.46201837E-01 0.99975884E+03</pdfrwt>
<pdfrwt beam="2">  1       -2 0.12801019E+00 0.99975884E+03</pdfrwt>
<totfact> 0.57298247E+01</totfact>
</mgrwt>
</event>
<event>
 9    1  0.4342579E-036  0.1000446E+04  0.7818608E-02  0.8680613E-01
         -1   -1    0    0    0  501 -0.00000000000E+00  0.00000000000E+00  0.43726657214E+03  0.43726657214E+03  0.00000000000E+00 0. -1.
          1   -1    0    0  501    0  0.00000000000E+00 -0.00000000000E+00 -0.57224368215E+03  0.57224368215E+03  0.00000000000E+00 0. -1.
         36    2    1    2    0    0 -0.28421709430E-13  0.14210854715E-13 -0.13497711001E+03  0.10095102543E+04  0.10004459672E+04 0.  0.
         25    2    3    3    0    0  0.12380942992E+03  0.48503323237E+02 -0.69564539252E+02  0.19564626130E+03  0.12552643999E+03 0.  0.
         35    2    3    3    0    0 -0.12380942992E+03 -0.48503323237E+02 -0.65412570759E+02  0.81386399300E+03  0.80025898770E+03 0.  0.
         22    1    5    5    0    0 -0.35741115255E+03  0.24449991758E+03  0.24232689580E+01  0.43304597203E+03  0.00000000000E+00 0. -1.
         22    1    5    5    0    0  0.23360172263E+03 -0.29300324081E+03 -0.67835839717E+02  0.38081802097E+03  0.00000000000E+00 0. -1.
          5    1    4    4  502    0  0.55376599897E+01  0.59720877734E+02 -0.50431998904E+01  0.60371953593E+02  0.47000000000E+01 0.  1.
         -5    1    4    4    0  502  0.11827176993E+03 -0.11217554497E+02 -0.64521339361E+02  0.13527430770E+03  0.47000000000E+01 0.  1.
<mgrwt>
<rscale>  0 0.10004460E+04</rscale>
<asrwt>0</asrwt>
<pdfrwt beam="1">  1        1 0.88037489E-01 0.10004460E+04</pdfrwt>
<pdfrwt beam="2">  1       -1 0.67271781E-01 0.10004460E+04</pdfrwt>
<totfact> 0.95877798E+01</totfact>
</mgrwt>
</event>
<event>
 9    1  0.4342579E-036  0.1001155E+04  0.7818608E-02  0.8679939E-01
          2   -1    0    0  501    0  0.00000000000E+00  0.00000000000E+00  0.85061966125E+03  0.85061966125E+03  0.00000000000E+00 0.  1.
         -2   -1    0    0    0  501 -0.00000000000E+00 -0.00000000000E+00 -0.29458258780E+03  0.29458258780E+03  0.00000000000E+00 0.  1.
         36    2    1    2    0    0  0.71054273576E-14  0.00000000000E+00  0.55603707344E+03  0.11452022491E+04  0.10011548153E+04 0.  0.
         25    2    3    3    0    0 -0.41594794260E+02 -0.85237035730E+02  0.22507898954E+03  0.27427584850E+03  0.12478465598E+03 0.  0.
         35    2    3    3    0    0  0.41594794260E+02  0.85237035730E+02  0.33095808390E+03  0.87092640055E+03  0.79999003913E+03 0.  0.
         22    1    5    5    0    0 -0.12474667793E+03 -0.29275521976E+03  0.32931739456E+03  0.45794901322E+03  0.00000000000E+00 0. -1.
         22    1    5    5    0    0  0.16634147219E+03  0.37799225549E+03  0.16406893429E+01  0.41297738733E+03  0.00000000000E+00 0. -1.
          5    1    4    4  502    0 -0.40597300869E+02 -0.11661504568E+03  0.19282371560E+03  0.22902027206E+03  0.47000000000E+01 0.  1.
         -5    1    4    4    0  502 -0.99749339164E+00  0.31378009954E+02  0.32255273944E+02  0.45255576440E+02  0.47000000000E+01 0.  1.
<mgrwt>
<rscale>  0 0.10011548E+04</rscale>
<asrwt>0</asrwt>
<pdfrwt beam="1">  1        2 0.13086456E+00 0.10011548E+04</pdfrwt>
<pdfrwt beam="2">  1       -2 0.45320398E-01 0.10011548E+04</pdfrwt>
<totfact> 0.17716670E+02</totfact>
</mgrwt>
</event>
<event>
 9    1  0.4342579E-036  0.9986087E+03  0.7818608E-02  0.8682364E-01
         -1   -1    0    0    0  501 -0.00000000000E+00  0.00000000000E+00  0.18820183575E+03  0.18820183575E+03  0.00000000000E+00 0.  1.
          1   -1    0    0  501    0  0.00000000000E+00 -0.00000000000E+00 -0.13246673986E+04  0.13246673986E+04  0.00000000000E+00 0.  1.
         36    2    1    2    0    0  0.00000000000E+00 -0.14210854715E-13 -0.11364655629E+04  0.15128692344E+04  0.99860870452E+03 0.  0.
         25    2    3    3    0    0  0.29986931122E+02  0.12003890196E+03 -0.30934487529E+03  0.35562131852E+03  0.12435319174E+03 0.  0.
         35    2    3    3    0    0 -0.29986931122E+02 -0.12003890196E+03 -0.82712068759E+03  0.11572479159E+04  0.79986595934E+03 0.  0.
         22    1    5    5    0    0 -0.19237185023E+03  0.30117269507E+03 -0.38732157902E+03  0.52700087912E+03  0.00000000000E+00 0.  1.
         22    1    5    5    0    0  0.16238491910E+03 -0.42121159704E+03 -0.43979910857E+03  0.63024703675E+03  0.00000000000E+00 0.  1.
          5    1    4    4  502    0 -0.49793200622E+01  0.86459968923E+02 -0.70239238257E+02  0.11160537821E+03  0.47000000000E+01 0.  1.
         -5    1    4    4    0  502  0.34966251184E+02  0.33578933041E+02 -0.23910563703E+03  0.24401594031E+03  0.47000000000E+01 0.  1.
<mgrwt>
<rscale>  0 0.99860870E+03</rscale>
<asrwt>0</asrwt>
<pdfrwt beam="1">  1        1 0.20379498E+00 0.99860870E+03</pdfrwt>
<pdfrwt beam="2">  1       -1 0.28954129E-01 0.99860870E+03</pdfrwt>
<totfact> 0.10305773E+02</totfact>
</mgrwt>
</event>
<event>
 9    1  0.4342579E-036  0.1000118E+04  0.7818608E-02  0.8680926E-01
          2   -1    0    0  501    0  0.00000000000E+00  0.00000000000E+00  0.11210083540E+04  0.11210083540E+04  0.00000000000E+00 0.  1.
         -2   -1    0    0    0  501 -0.00000000000E+00 -0.00000000000E+00 -0.22306608478E+03  0.22306608478E+03  0.00000000000E+00 0.  1.
         36    2    1    2    0    0 -0.35527136788E-14  0.00000000000E+00  0.89794226925E+03  0.13440744388E+04  0.10001178821E+04 0.  0.
         25    2    3    3    0    0  0.17783386877E+01 -0.13571409097E+03  0.22975564051E+03  0.29460114902E+03  0.12482269697E+03 0.  0.
         35    2    3    3    0    0 -0.17783386877E+01  0.13571409097E+03  0.66818662873E+03  0.10494732898E+04  0.79780908631E+03 0.  0.
         22    1    5    5    0    0 -0.10005550813E+03 -0.24077079232E+03  0.60032245841E+03  0.65449884126E+03  0.00000000000E+00 0. -1.
         22    1    5    5    0    0  0.98277169442E+02  0.37648488329E+03  0.67864170324E+02  0.39497444854E+03  0.00000000000E+00 0. -1.
          5    1    4    4  502    0  0.16673617996E+02 -0.12581482500E+03  0.24138476578E+03  0.27275643874E+03  0.47000000000E+01 0. -1.
         -5    1    4    4    0  502 -0.14895279308E+02 -0.98992659710E+01 -0.11629125266E+02  0.21844710273E+02  0.47000000000E+01 0. -1.
<mgrwt>
<rscale>  0 0.10001179E+04</rscale>
<asrwt>0</asrwt>
<pdfrwt beam="1">  1        2 0.17246282E+00 0.10001179E+04</pdfrwt>
<pdfrwt beam="2">  1       -2 0.34317860E-01 0.10001179E+04</pdfrwt>
<totfact> 0.20291937E+02</totfact>
</mgrwt>
</event>
<event>
 9    1  0.4342579E-036  0.1001634E+04  0.7818608E-02  0.8679484E-01
          1   -1    0    0  501    0  0.00000000000E+00  0.00000000000E+00  0.11838395126E+04  0.11838395126E+04  0.00000000000E+00 0.  1.
         -1   -1    0    0    0  501 -0.00000000000E+00 -0.00000000000E+00 -0.21186775722E+03  0.21186775722E+03  0.00000000000E+00 0.  1.
         36    2    1    2    0    0 -0.28421709430E-13 -0.71054273576E-14  0.97197175536E+03  0.13957072698E+04  0.10016335107E+04 0.  0.
         25    2    3    3    0    0  0.13985282604E+03 -0.22795770670E+02  0.19929342690E+03  0.27447804042E+03  0.12466701470E+03 0.  0.
         35    2    3    3    0    0 -0.13985282604E+03  0.22795770670E+02  0.77267832846E+03  0.11212292294E+04  0.80002795290E+03 0.  0.
         22    1    5    5    0    0  0.13654984289E+03 -0.22370817348E+03  0.69505477528E+03  0.74282726600E+03  0.00000000000E+00 0.  1.
         22    1    5    5    0    0 -0.27640266893E+03  0.24650394415E+03  0.77623553181E+02  0.37840196337E+03  0.00000000000E+00 0.  1.
          5    1    4    4  502    0  0.41780381118E+02 -0.67954387990E+02  0.96938893926E+02  0.12562897058E+03  0.47000000000E+01 0. -1.
         -5    1    4    4    0  502  0.98072444924E+02  0.45158617320E+02  0.10235453297E+03  0.14884906984E+03  0.47000000000E+01 0. -1.
<mgrwt>
<rscale>  0 0.10016335E+04</rscale>
<asrwt>0</asrwt>
<pdfrwt beam="1">  1        1 0.18212915E+00 0.10016335E+04</pdfrwt>
<pdfrwt beam="2">  1       -1 0.32595040E-01 0.10016335E+04</pdfrwt>
<totfact> 0.10680764E+02</totfact>
</mgrwt>
</event>
<event>
 9    1  0.4342579E-036  0.1000084E+04  0.7818608E-02  0.8680958E-01
         -2   -1    0    0    0  501 -0.00000000000E+00  0.00000000000E+00  0.19079502962E+03  0.19079502962E+03  0.00000000000E+00 0.  1.
          2   -1    0    0  501    0  0.00000000000E+00 -0.00000000000E+00 -0.13105263779E+04  0.13105263779E+04  0.00000000000E+00 0.  1.
         36    2    1    2    0    0 -0.71054273576E-14  0.28421709430E-13 -0.11197313483E+04  0.15013214075E+04  0.10000838347E+04 0.  0.
         25    2    3    3    0    0 -0.39003048106E+02 -0.12526124205E+03 -0.30538274912E+03  0.35489442328E+03  0.12441789137E+03 0.  0.
         35    2    3    3    0    0  0.39003048106E+02  0.12526124205E+03 -0.81434859914E+03  0.11464269842E+04  0.79619066355E+03 0.  0.
         22    1    5    5    0    0 -0.16288147993E+03  0.24936046509E+03 -0.85553481618E+03  0.90589780867E+03  0.00000000000E+00 0. -1.
         22    1    5    5    0    0  0.20188452803E+03 -0.12409922304E+03  0.41186217044E+02  0.24052917555E+03  0.00000000000E+00 0. -1.
          5    1    4    4  502    0 -0.47235783802E+02 -0.68464306645E+02 -0.27970038833E+03  0.29184409843E+03  0.47000000000E+01 0. -1.
         -5    1    4    4    0  502  0.82327356955E+01 -0.56796935405E+02 -0.25682360796E+02  0.63050324856E+02  0.47000000000E+01 0. -1.
<mgrwt>
<rscale>  0 0.10000838E+04</rscale>
<asrwt>0</asrwt>
<pdfrwt beam="1">  1        2 0.20161943E+00 0.10000838E+04</pdfrwt>
<pdfrwt beam="2">  1       -2 0.29353083E-01 0.10000838E+04</pdfrwt>
<totfact> 0.20907536E+02</totfact>
</mgrwt>
</event>
<event>
 9    1  0.4342579E-036  0.1000129E+04  0.7818608E-02  0.8680915E-01
          2   -1    0    0  501    0  0.00000000000E+00  0.00000000000E+00  0.47160921867E+03  0.47160921867E+03  0.00000000000E+00 0. -1.
         -2   -1    0    0    0  501 -0.00000000000E+00 -0.00000000000E+00 -0.53023659231E+03  0.53023659231E+03  0.00000000000E+00 0. -1.
         36    2    1    2    0    0  0.00000000000E+00 -0.28421709430E-13 -0.58627373636E+02  0.10018458110E+04  0.10001289217E+04 0.  0.
         25    2    3    3    0    0 -0.14221347344E+02  0.52037330285E+02 -0.14149862096E+03  0.19586510254E+03  0.12422217273E+03 0.  0.
         35    2    3    3    0    0  0.14221347344E+02 -0.52037330285E+02  0.82871247319E+02  0.80598070844E+03  0.79989194788E+03 0.  0.
         22    1    5    5    0    0  0.15030664449E+03  0.33169198994E+03  0.14906955758E+03  0.39348875024E+03  0.00000000000E+00 0.  1.
         22    1    5    5    0    0 -0.13608529714E+03 -0.38372932022E+03 -0.66198310258E+02  0.41249195820E+03  0.00000000000E+00 0.  1.
          5    1    4    4  502    0 -0.65386871363E+02  0.52594661405E+02 -0.87778616989E+02  0.12152702150E+03  0.47000000000E+01 0.  1.
         -5    1    4    4    0  502  0.51165524019E+02 -0.55733111942E+00 -0.53720003966E+02  0.74338081037E+02  0.47000000000E+01 0.  1.
<mgrwt>
<rscale>  0 0.10001289E+04</rscale>
<asrwt>0</asrwt>
<pdfrwt beam="1">  1        2 0.72555265E-01 0.10001289E+04</pdfrwt>
<pdfrwt beam="2">  1       -2 0.81574860E-01 0.10001289E+04</pdfrwt>
<totfact> 0.10488466E+02</totfact>
</mgrwt>
</event>
<event>
 9    1  0.4342579E-036  0.1001706E+04  0.7818608E-02  0.8679415E-01
         -2   -1    0    0    0  501 -0.00000000000E+00  0.00000000000E+00  0.13001372299E+03  0.13001372299E+03  0.00000000000E+00 0. -1.
          2   -1    0    0  501    0  0.00000000000E+00 -0.00000000000E+00 -0.19294416875E+04  0.19294416875E+04  0.00000000000E+00 0. -1.
         36    2    1    2    0    0  0.00000000000E+00  0.14210854715E-13 -0.17994279645E+04  0.20594554105E+04  0.10017063384E+04 0.  0.
         25    2    3    3    0    0 -0.95192028924E+02  0.94345772804E+02 -0.24085926671E+03  0.30257096584E+03  0.12479325220E+03 0.  0.
         35    2    3    3    0    0  0.95192028924E+02 -0.94345772804E+02 -0.15585686978E+04  0.17568844446E+04  0.79971489847E+03 0.  0.
         22    1    5    5    0    0  0.18249947799E+03 -0.29119983553E+03 -0.14926118097E+04  0.15316636113E+04  0.00000000000E+00 0. -1.
         22    1    5    5    0    0 -0.87307449069E+02  0.19685406273E+03 -0.65956888058E+02  0.22522083331E+03  0.00000000000E+00 0. -1.
          5    1    4    4  502    0 -0.90926698765E+02  0.11346682370E+03 -0.24203224525E+03  0.28238994735E+03  0.47000000000E+01 0. -1.
         -5    1    4    4    0  502 -0.42653301590E+01 -0.19121050892E+02  0.11729785380E+01  0.20181018489E+02  0.47000000000E+01 0. -1.
<mgrwt>
<rscale>  0 0.10017063E+04</rscale>
<asrwt>0</asrwt>
<pdfrwt beam="1">  1        2 0.29683716E+00 0.10017063E+04</pdfrwt>
<pdfrwt beam="2">  1       -2 0.20002113E-01 0.10017063E+04</pdfrwt>
<totfact> 0.18381188E+02</totfact>
</mgrwt>
</event>
<event>
 9    1  0.4342579E-036  0.1007730E+04  0.7818608E-02  0.8673711E-01
         -2   -1    0    0    0  501 -0.00000000000E+00  0.00000000000E+00  0.24020093848E+03  0.24020093848E+03  0.00000000000E+00 0.  1.
          2   -1    0    0  501    0  0.00000000000E+00 -0.00000000000E+00 -0.10569481052E+04  0.10569481052E+04  0.00000000000E+00 0.  1.
         36    2    1    2    0    0  0.00000000000E+00  0.71054273576E-14 -0.81674716670E+03  0.12971490437E+04  0.10077299773E+04 0.  0.
         25    2    3    3    0    0  0.13044710974E+03 -0.77229093254E+01 -0.67739948364E+02  0.19330816095E+03  0.12531261995E+03 0.  0.
         35    2    3    3    0    0 -0.13044710974E+03  0.77229093254E+01 -0.74900721834E+03  0.11038408827E+04  0.80023545877E+03 0.  0.
         22    1    5    5    0    0 -0.17072526772E+03 -0.42458681165E+02  0.13234188598E+03  0.22014593212E+03  0.00000000000E+00 0.  1.
         22    1    5    5    0    0  0.40278157988E+02  0.50181590491E+02 -0.88134910431E+03  0.88369495060E+03  0.00000000000E+00 0.  1.
          5    1    4    4  502    0  0.71284344115E+02 -0.31781411269E+02 -0.95572265591E+02  0.12348143086E+03  0.47000000000E+01 0.  1.
         -5    1    4    4    0  502  0.59162765621E+02  0.24058501944E+02  0.27832317228E+02  0.69826730083E+02  0.47000000000E+01 0.  1.
<mgrwt>
<rscale>  0 0.10077300E+04</rscale>
<asrwt>0</asrwt>
<pdfrwt beam="1">  1        2 0.16260740E+00 0.10077300E+04</pdfrwt>
<pdfrwt beam="2">  1       -2 0.36953991E-01 0.10077300E+04</pdfrwt>
<totfact> 0.19324920E+02</totfact>
</mgrwt>
</event>
<event>
 9    1  0.4342579E-036  0.1000016E+04  0.7818608E-02  0.8681023E-01
         -1   -1    0    0    0  501 -0.00000000000E+00  0.00000000000E+00  0.59477405011E+03  0.59477405011E+03  0.00000000000E+00 0.  1.
          1   -1    0    0  501    0  0.00000000000E+00 -0.00000000000E+00 -0.42034123350E+03  0.42034123350E+03  0.00000000000E+00 0.  1.
         36    2    1    2    0    0  0.28421709430E-13  0.00000000000E+00  0.17443281661E+03  0.10151152836E+04  0.10000161156E+04 0.  0.
         25    2    3    3    0    0  0.81447356118E+02 -0.35222283048E+02 -0.85519644352E+02  0.17519215827E+03  0.12451667241E+03 0.  0.
         35    2    3    3    0    0 -0.81447356118E+02  0.35222283048E+02  0.25995246096E+03  0.83992312534E+03  0.79373880683E+03 0.  0.
         22    1    5    5    0    0  0.34656526568E+03  0.10986448011E+03  0.13530258425E+03  0.38792328710E+03  0.00000000000E+00 0.  1.
         22    1    5    5    0    0 -0.42801262180E+03 -0.74642197062E+02  0.12464987671E+03  0.45199983824E+03  0.00000000000E+00 0.  1.
          5    1    4    4  502    0 -0.18651605729E+02 -0.43636346068E+02 -0.83040127058E+01  0.48405162136E+02  0.47000000000E+01 0. -1.
         -5    1    4    4    0  502  0.10009896185E+03  0.84140630196E+01 -0.77215631646E+02  0.12678699614E+03  0.47000000000E+01 0. -1.
<mgrwt>
<rscale>  0 0.10000161E+04</rscale>
<asrwt>0</asrwt>
<pdfrwt beam="1">  1        1 0.64667882E-01 0.10000161E+04</pdfrwt>
<pdfrwt beam="2">  1       -1 0.91503700E-01 0.10000161E+04</pdfrwt>
<totfact> 0.77888380E+01</totfact>
</mgrwt>
</event>
<event>
 9    1  0.4342579E-036  0.1000614E+04  0.7818608E-02  0.8680453E-01
         -1   -1    0    0    0  501 -0.00000000000E+00  0.00000000000E+00  0.48731286302E+03  0.48731286302E+03  0.00000000000E+00 0.  1.
          1   -1    0    0  501    0  0.00000000000E+00 -0.00000000000E+00 -0.51364784948E+03  0.51364784948E+03  0.00000000000E+00 0.  1.
         36    2    1    2    0    0  0.28421709430E-13  0.00000000000E+00 -0.26334986458E+02  0.10009607125E+04  0.10006142196E+04 0.  0.
         25    2    3    3    0    0 -0.92852860862E+02  0.10274506951E+03 -0.36086273052E+02  0.18997573582E+03  0.12494141835E+03 0.  0.
         35    2    3    3    0    0  0.92852860862E+02 -0.10274506951E+03  0.97512865941E+01  0.81098497669E+03  0.79901398094E+03 0.  0.
         22    1    5    5    0    0 -0.28858621245E+03 -0.26652218467E+03  0.39475119887E+02  0.39480927297E+03  0.00000000000E+00 0.  1.
         22    1    5    5    0    0  0.38143907331E+03  0.16377711516E+03 -0.29723833293E+02  0.41617570371E+03  0.00000000000E+00 0.  1.
          5    1    4    4  502    0 -0.19915502371E+02  0.16467893743E+02  0.44118156779E+02  0.51345111906E+02  0.47000000000E+01 0. -1.
         -5    1    4    4    0  502 -0.72937358492E+02  0.86277175768E+02 -0.80204429832E+02  0.13863062391E+03  0.47000000000E+01 0. -1.
<mgrwt>
<rscale>  0 0.10006142E+04</rscale>
<asrwt>0</asrwt>
<pdfrwt beam="1">  1        1 0.79022746E-01 0.10006142E+04</pdfrwt>
<pdfrwt beam="2">  1       -1 0.74971210E-01 0.10006142E+04</pdfrwt>
<totfact> 0.90012125E+01</totfact>
</mgrwt>
</event>
<event>
 9    1  0.4342579E-036  0.9968505E+03  0.7818608E-02  0.8684043E-01
          2   -1    0    0  501    0  0.00000000000E+00  0.00000000000E+00  0.17028964867E+04  0.17028964867E+04  0.00000000000E+00 0.  1.
         -2   -1    0    0    0  501 -0.00000000000E+00 -0.00000000000E+00 -0.14588538424E+03  0.14588538424E+03  0.00000000000E+00 0.  1.
         36    2    1    2    0    0 -0.28421709430E-13  0.00000000000E+00  0.15570111024E+04  0.18487818709E+04  0.99685045675E+03 0.  0.
         25    2    3    3    0    0  0.65998523848E+02 -0.11164048594E+03  0.34565497707E+03  0.39086965994E+03  0.12838350609E+03 0.  0.
         35    2    3    3    0    0 -0.65998523848E+02  0.11164048594E+03  0.12113561254E+04  0.14579122110E+04  0.80081517794E+03 0.  0.
         22    1    5    5    0    0 -0.39508612731E+03  0.19915740962E+03  0.48984117794E+03  0.66007658753E+03  0.00000000000E+00 0.  1.
         22    1    5    5    0    0  0.32908760347E+03 -0.87516923676E+02  0.72151494741E+03  0.79783562344E+03  0.00000000000E+00 0.  1.
          5    1    4    4  502    0  0.27764943695E+02  0.18981252328E+02  0.14109574726E+03  0.14512504929E+03  0.47000000000E+01 0. -1.
         -5    1    4    4    0  502  0.38233580153E+02 -0.13062173827E+03  0.20455922981E+03  0.24574461064E+03  0.47000000000E+01 0. -1.
<mgrwt>
<rscale>  0 0.99685046E+03</rscale>
<asrwt>0</asrwt>
<pdfrwt beam="1">  1        2 0.26198406E+00 0.99685046E+03</pdfrwt>
<pdfrwt beam="2">  1       -2 0.22443907E-01 0.99685046E+03</pdfrwt>
<totfact> 0.20194203E+02</totfact>
</mgrwt>
</event>
<event>
 9    1  0.4342579E-036  0.9998260E+03  0.7818608E-02  0.8681204E-01
          2   -1    0    0  501    0  0.00000000000E+00  0.00000000000E+00  0.69691059623E+03  0.69691059623E+03  0.00000000000E+00 0.  1.
         -2   -1    0    0    0  501 -0.00000000000E+00 -0.00000000000E+00 -0.35860125163E+03  0.35860125163E+03  0.00000000000E+00 0.  1.
         36    2    1    2    0    0 -0.71054273576E-14  0.00000000000E+00  0.33830934460E+03  0.10555118479E+04  0.99982600902E+03 0.  0.
         25    2    3    3    0    0 -0.38987348257E+01 -0.12299123994E+03  0.13674923782E+03  0.22195408141E+03  0.12418218461E+03 0.  0.
         35    2    3    3    0    0  0.38987348257E+01  0.12299123994E+03  0.20156010678E+03  0.83355776645E+03  0.79940604709E+03 0.  0.
         22    1    5    5    0    0  0.10213825246E+03  0.18256220881E+03  0.48474346184E+03  0.52795587552E+03  0.00000000000E+00 0. -1.
         22    1    5    5    0    0 -0.98239517632E+02 -0.59570968877E+02 -0.28318335506E+03  0.30560189093E+03  0.00000000000E+00 0. -1.
          5    1    4    4  502    0  0.31875172728E+02 -0.37435932147E+02  0.11703688437E+03  0.12703227132E+03  0.47000000000E+01 0. -1.
         -5    1    4    4    0  502 -0.35773907554E+02 -0.85555307789E+02  0.19712353445E+02  0.94921810091E+02  0.47000000000E+01 0. -1.
<mgrwt>
<rscale>  0 0.99982601E+03</rscale>
<asrwt>0</asrwt>
<pdfrwt beam="1">  1        2 0.10721701E+00 0.99982601E+03</pdfrwt>
<pdfrwt beam="2">  1       -2 0.55169423E-01 0.99982601E+03</pdfrwt>
<totfact> 0.15403848E+02</totfact>
</mgrwt>
</event>
<event>
 9    1  0.4342579E-036  0.9992484E+03  0.7818608E-02  0.8681754E-01
          2   -1    0    0  501    0  0.00000000000E+00  0.00000000000E+00  0.89688719882E+03  0.89688719882E+03  0.00000000000E+00 0. -1.
         -2   -1    0    0    0  501 -0.00000000000E+00 -0.00000000000E+00 -0.27832303138E+03  0.27832303138E+03  0.00000000000E+00 0. -1.
         36    2    1    2    0    0  0.28421709430E-13  0.00000000000E+00  0.61856416745E+03  0.11752102302E+04  0.99924844554E+03 0.  0.
         25    2    3    3    0    0 -0.73092559842E+02  0.72666767240E+02  0.56393435741E+01  0.16083576580E+03  0.12334245011E+03 0.  0.
         35    2    3    3    0    0  0.73092559842E+02 -0.72666767240E+02  0.61292482387E+03  0.10143744644E+04  0.80165811474E+03 0.  0.
         22    1    5    5    0    0  0.29849543455E+03  0.83242369708E+02  0.66659085882E+03  0.73510012218E+03  0.00000000000E+00 0. -1.
         22    1    5    5    0    0 -0.22540287471E+03 -0.15590913695E+03 -0.53666034950E+02  0.27927434221E+03  0.00000000000E+00 0. -1.
          5    1    4    4  502    0  0.10422037838E+02  0.71894357856E+01 -0.42218758158E+02  0.44326294680E+02  0.47000000000E+01 0. -1.
         -5    1    4    4    0  502 -0.83514597681E+02  0.65477331455E+02  0.47858101732E+02  0.11650947112E+03  0.47000000000E+01 0. -1.
<mgrwt>
<rscale>  0 0.99924845E+03</rscale>
<asrwt>0</asrwt>
<pdfrwt beam="1">  1        2 0.13798264E+00 0.99924845E+03</pdfrwt>
<pdfrwt beam="2">  1       -2 0.42818928E-01 0.99924845E+03</pdfrwt>
<totfact> 0.18430822E+02</totfact>
</mgrwt>
</event>
<event>
 9    1  0.4342579E-036  0.9998086E+03  0.7818608E-02  0.8681220E-01
          2   -1    0    0  501    0  0.00000000000E+00  0.00000000000E+00  0.15022803523E+04  0.15022803523E+04  0.00000000000E+00 0. -1.
         -2   -1    0    0    0  501 -0.00000000000E+00 -0.00000000000E+00 -0.16634997855E+03  0.16634997855E+03  0.00000000000E+00 0. -1.
         36    2    1    2    0    0  0.00000000000E+00  0.00000000000E+00  0.13359303738E+04  0.16686303309E+04  0.99980859043E+03 0.  0.
         25    2    3    3    0    0  0.11683605575E+03 -0.70492538536E+02  0.29944554028E+03  0.35227145258E+03  0.12572860772E+03 0.  0.
         35    2    3    3    0    0 -0.11683605575E+03  0.70492538536E+02  0.10364848335E+04  0.13163588783E+04  0.79992501177E+03 0.  0.
         22    1    5    5    0    0 -0.91660067844E+02 -0.52940723097E+02  0.11451263493E+04  0.11500081061E+04  0.00000000000E+00 0.  1.
         22    1    5    5    0    0 -0.25175987905E+02  0.12343326163E+03 -0.10864151582E+03  0.16635077218E+03  0.00000000000E+00 0.  1.
          5    1    4    4  502    0 -0.22880443611E+02 -0.30356416450E+02  0.44122257932E+02  0.58428506437E+02  0.47000000000E+01 0.  1.
         -5    1    4    4    0  502  0.13971649936E+03 -0.40136122086E+02  0.25532328235E+03  0.29384294615E+03  0.47000000000E+01 0. -1.
<mgrwt>
<rscale>  0 0.99980859E+03</rscale>
<asrwt>0</asrwt>
<pdfrwt beam="1">  1        2 0.23112005E+00 0.99980859E+03</pdfrwt>
<pdfrwt beam="2">  1       -2 0.25592305E-01 0.99980859E+03</pdfrwt>
<totfact> 0.20786539E+02</totfact>
</mgrwt>
</event>
<event>
 9    1  0.4342579E-036  0.9993902E+03  0.7818608E-02  0.8681619E-01
          1   -1    0    0  501    0  0.00000000000E+00  0.00000000000E+00  0.20532210739E+03  0.20532210739E+03  0.00000000000E+00 0.  1.
         -1   -1    0    0    0  501 -0.00000000000E+00 -0.00000000000E+00 -0.12161145754E+04  0.12161145754E+04  0.00000000000E+00 0.  1.
         36    2    1    2    0    0  0.00000000000E+00 -0.14210854715E-13 -0.10107924680E+04  0.14214366828E+04  0.99939022899E+03 0.  0.
         25    2    3    3    0    0 -0.82101534119E+02 -0.28385093105E+02 -0.34772681476E+02  0.15599809447E+03  0.12481943233E+03 0.  0.
         35    2    3    3    0    0  0.82101534119E+02  0.28385093105E+02 -0.97601978653E+03  0.12654385883E+04  0.80073330247E+03 0.  0.
         22    1    5    5    0    0  0.13593387940E+02 -0.50971266904E+02 -0.11010267421E+04  0.11022897700E+04  0.00000000000E+00 0.  1.
         22    1    5    5    0    0  0.68508146179E+02  0.79356360009E+02  0.12500695558E+03  0.16314881829E+03  0.00000000000E+00 0.  1.
          5    1    4    4  502    0 -0.24961940080E+02  0.44034717825E+02  0.12337195643E+02  0.52311100379E+02  0.47000000000E+01 0.  1.
         -5    1    4    4    0  502 -0.57139594039E+02 -0.72419810930E+02 -0.47109877119E+02  0.10368699409E+03  0.47000000000E+01 0.  1.
<mgrwt>
<rscale>  0 0.99939023E+03</rscale>
<asrwt>0</asrwt>
<pdfrwt beam="1">  1        1 0.31588016E-01 0.99939023E+03</pdfrwt>
<pdfrwt beam="2">  1       -1 0.18709455E+00 0.99939023E+03</pdfrwt>
<totfact> 0.28780492E+01</totfact>
</mgrwt>
</event>
<event>
 9    1  0.4342579E-036  0.1000197E+04  0.7818608E-02  0.8680850E-01
          2   -1    0    0  501    0  0.00000000000E+00  0.00000000000E+00  0.39157388576E+03  0.39157388576E+03  0.00000000000E+00 0. -1.
         -2   -1    0    0    0  501 -0.00000000000E+00 -0.00000000000E+00 -0.63870125850E+03  0.63870125850E+03  0.00000000000E+00 0. -1.
         36    2    1    2    0    0  0.00000000000E+00  0.00000000000E+00 -0.24712737275E+03  0.10302751443E+04  0.10001974478E+04 0.  0.
         25    2    3    3    0    0 -0.46216943779E+02  0.99735444615E+02  0.38758475496E+02  0.17173340011E+03  0.12612286265E+03 0.  0.
         35    2    3    3    0    0  0.46216943779E+02 -0.99735444615E+02 -0.28588584824E+03  0.85854174415E+03  0.80204740722E+03 0.  0.
         22    1    5    5    0    0  0.40710158638E+03  0.94459358579E+01 -0.25449936282E+03  0.48019876407E+03  0.00000000000E+00 0.  1.
         22    1    5    5    0    0 -0.36088464260E+03 -0.10918138047E+03 -0.31386485424E+02  0.37834298008E+03  0.00000000000E+00 0.  1.
          5    1    4    4  502    0  0.83170481373E+00  0.64101004893E+02 -0.38094333902E+02  0.74718798415E+02  0.47000000000E+01 0. -1.
         -5    1    4    4    0  502 -0.47048648593E+02  0.35634439722E+02  0.76852809398E+02  0.97014601690E+02  0.47000000000E+01 0. -1.
<mgrwt>
<rscale>  0 0.10001974E+04</rscale>
<asrwt>0</asrwt>
<pdfrwt beam="1">  1        2 0.60242137E-01 0.10001974E+04</pdfrwt>
<pdfrwt beam="2">  1       -2 0.98261731E-01 0.10001974E+04</pdfrwt>
<totfact> 0.83414886E+01</totfact>
</mgrwt>
</event>
<event>
 9    1  0.4342579E-036  0.9984256E+03  0.7818608E-02  0.8682539E-01
          2   -1    0    0  501    0  0.00000000000E+00  0.00000000000E+00  0.65080619217E+03  0.65080619217E+03  0.00000000000E+00 0.  1.
         -2   -1    0    0    0  501 -0.00000000000E+00 -0.00000000000E+00 -0.38293030413E+03  0.38293030413E+03  0.00000000000E+00 0.  1.
         36    2    1    2    0    0  0.00000000000E+00 -0.28421709430E-13  0.26787588805E+03  0.10337364963E+04  0.99842558681E+03 0.  0.
         25    2    3    3    0    0 -0.61188652387E+02 -0.67774602366E+02  0.15450843519E+03  0.21830506936E+03  0.12428515140E+03 0.  0.
         35    2    3    3    0    0  0.61188652387E+02  0.67774602366E+02  0.11336745286E+03  0.81543142694E+03  0.80233333769E+03 0.  0.
         22    1    5    5    0    0 -0.12670037047E+03  0.16855865923E+03  0.40356114759E+03  0.45533131379E+03  0.00000000000E+00 0.  1.
         22    1    5    5    0    0  0.18788902285E+03 -0.10078405686E+03 -0.29019369473E+03  0.36010011314E+03  0.00000000000E+00 0.  1.
          5    1    4    4  502    0  0.47708956049E+00  0.14230572219E+02 -0.14290143582E+02  0.20713160158E+02  0.47000000000E+01 0. -1.
         -5    1    4    4    0  502 -0.61665741948E+02 -0.82005174585E+02  0.16879857877E+03  0.19759190920E+03  0.47000000000E+01 0. -1.
<mgrwt>
<rscale>  0 0.99842559E+03</rscale>
<asrwt>0</asrwt>
<pdfrwt beam="1">  1        2 0.10012403E+00 0.99842559E+03</pdfrwt>
<pdfrwt beam="2">  1       -2 0.58912355E-01 0.99842559E+03</pdfrwt>
<totfact> 0.14621878E+02</totfact>
</mgrwt>
</event>
<event>
 9    1  0.4342579E-036  0.9989481E+03  0.7818608E-02  0.8682040E-01
          2   -1    0    0  501    0  0.00000000000E+00  0.00000000000E+00  0.13909263379E+04  0.13909263379E+04  0.00000000000E+00 0.  1.
         -2   -1    0    0    0  501 -0.00000000000E+00 -0.00000000000E+00 -0.17935840736E+03  0.17935840736E+03  0.00000000000E+00 0.  1.
         36    2    1    2    0    0 -0.28421709430E-13  0.00000000000E+00  0.12115679305E+04  0.15702847452E+04  0.99894811221E+03 0.  0.
         25    2    3    3    0    0 -0.10843787246E+03 -0.58347800846E+02  0.12056254390E+03  0.21238727813E+03  0.12413617874E+03 0.  0.
         35    2    3    3    0    0  0.10843787246E+03  0.58347800846E+02  0.10910053866E+04  0.13578974671E+04  0.79901785933E+03 0.  0.
         22    1    5    5    0    0 -0.27277492154E+03  0.24420730045E+03  0.65023525353E+03  0.74622332338E+03  0.00000000000E+00 0.  1.
         22    1    5    5    0    0  0.38121279400E+03 -0.18585949961E+03  0.44077013308E+03  0.61167414374E+03  0.00000000000E+00 0.  1.
          5    1    4    4  502    0 -0.11252137241E+03 -0.63351848023E+02  0.45637897105E+02  0.13703803687E+03  0.47000000000E+01 0. -1.
         -5    1    4    4    0  502  0.40834999558E+01  0.50040471767E+01  0.74924646797E+02  0.75349241255E+02  0.47000000000E+01 0. -1.
<mgrwt>
<rscale>  0 0.99894811E+03</rscale>
<asrwt>0</asrwt>
<pdfrwt beam="1">  1        2 0.21398866E+00 0.99894811E+03</pdfrwt>
<pdfrwt beam="2">  1       -2 0.27593602E-01 0.99894811E+03</pdfrwt>
<totfact> 0.21018709E+02</totfact>
</mgrwt>
</event>
<event>
 9    1  0.4342579E-036  0.1000837E+04  0.7818608E-02  0.8680241E-01
          2   -1    0    0  501    0  0.00000000000E+00  0.00000000000E+00  0.70810006438E+03  0.70810006438E+03  0.00000000000E+00 0. -1.
         -2   -1    0    0    0  501 -0.00000000000E+00 -0.00000000000E+00 -0.35364895898E+03  0.35364895898E+03  0.00000000000E+00 0. -1.
         36    2    1    2    0    0  0.35527136788E-13  0.00000000000E+00  0.35445110540E+03  0.10617490234E+04  0.10008373507E+04 0.  0.
         25    2    3    3    0    0  0.42791502251E+02  0.12586259460E+03  0.11797664418E+03  0.21704166807E+03  0.12456360514E+03 0.  0.
         35    2    3    3    0    0 -0.42791502251E+02 -0.12586259460E+03  0.23647446123E+03  0.84470735529E+03  0.79996114898E+03 0.  0.
         22    1    5    5    0    0  0.36217820517E+03  0.21616109394E+02  0.22483508636E+02  0.36351866065E+03  0.00000000000E+00 0.  1.
         22    1    5    5    0    0 -0.40496970742E+03 -0.14747870399E+03  0.21399095259E+03  0.48118869464E+03  0.00000000000E+00 0.  1.
          5    1    4    4  502    0 -0.18836975742E+02  0.10332692156E+03  0.34275985839E+02  0.11058127137E+03  0.47000000000E+01 0.  1.
         -5    1    4    4    0  502  0.61628477993E+02  0.22535673043E+02  0.83700658337E+02  0.10646039670E+03  0.47000000000E+01 0.  1.
<mgrwt>
<rscale>  0 0.10008374E+04</rscale>
<asrwt>0</asrwt>
<pdfrwt beam="1">  1        2 0.10893847E+00 0.10008374E+04</pdfrwt>
<pdfrwt beam="2">  1       -2 0.54407532E-01 0.10008374E+04</pdfrwt>
<totfact> 0.15539905E+02</totfact>
</mgrwt>
</event>
<event>
 9    1  0.4342579E-036  0.1002721E+04  0.7818608E-02  0.8678451E-01
          1   -1    0    0  501    0  0.00000000000E+00  0.00000000000E+00  0.60842869789E+03  0.60842869789E+03  0.00000000000E+00 0.  1.
         -1   -1    0    0    0  501 -0.00000000000E+00 -0.00000000000E+00 -0.41313367133E+03  0.41313367133E+03  0.00000000000E+00 0.  1.
         36    2    1    2    0    0  0.00000000000E+00  0.00000000000E+00  0.19529502657E+03  0.10215623692E+04  0.10027210613E+04 0.  0.
         25    2    3    3    0    0 -0.13181213028E+03  0.48149523746E+01 -0.22476678757E+02  0.18284186404E+03  0.12461269880E+03 0.  0.
         35    2    3    3    0    0  0.13181213028E+03 -0.48149523746E+01  0.21777170532E+03  0.83872050518E+03  0.79914325919E+03 0.  0.
         22    1    5    5    0    0  0.43839300602E+03 -0.11039340868E+03  0.24343665064E+03  0.51345548520E+03  0.00000000000E+00 0.  1.
         22    1    5    5    0    0 -0.30658087574E+03  0.10557845630E+03 -0.25664945313E+02  0.32526501998E+03  0.00000000000E+00 0.  1.
          5    1    4    4  502    0 -0.32743774202E+02  0.13225098730E+02 -0.65377993799E+02  0.74454214512E+02  0.47000000000E+01 0.  1.
         -5    1    4    4    0  502 -0.99068356079E+02 -0.84101463557E+01  0.42901315042E+02  0.10838764953E+03  0.47000000000E+01 0.  1.
<mgrwt>
<rscale>  0 0.10027211E+04</rscale>
<asrwt>0</asrwt>
<pdfrwt beam="1">  1        1 0.93604415E-01 0.10027211E+04</pdfrwt>
<pdfrwt beam="2">  1       -1 0.63559026E-01 0.10027211E+04</pdfrwt>
<totfact> 0.97964596E+01</totfact>
</mgrwt>
</event>
<event>
 9    1  0.4342579E-036  0.1000519E+04  0.7818608E-02  0.8680543E-01
          2   -1    0    0  501    0  0.00000000000E+00  0.00000000000E+00  0.30910354463E+03  0.30910354463E+03  0.00000000000E+00 0. -1.
         -2   -1    0    0    0  501 -0.00000000000E+00 -0.00000000000E+00 -0.80963087855E+03  0.80963087855E+03  0.00000000000E+00 0. -1.
         36    2    1    2    0    0  0.28421709430E-13  0.21316282073E-13 -0.50052733392E+03  0.11187344232E+04  0.10005194139E+04 0.  0.
         25    2    3    3    0    0 -0.94401604035E+02 -0.34931301015E+02 -0.20024680985E+03  0.25829180902E+03  0.12839008962E+03 0.  0.
         35    2    3    3    0    0  0.94401604035E+02  0.34931301015E+02 -0.30028052406E+03  0.86044261416E+03  0.80003827440E+03 0.  0.
         22    1    5    5    0    0  0.20041866640E+03  0.26245560231E+03  0.13597553433E+03  0.35712733158E+03  0.00000000000E+00 0. -1.
         22    1    5    5    0    0 -0.10601706236E+03 -0.22752430130E+03 -0.43625605840E+03  0.50331528258E+03  0.00000000000E+00 0. -1.
          5    1    4    4  502    0 -0.14277114124E+02  0.46256096702E+02 -0.52330293780E+02  0.71442369200E+02  0.47000000000E+01 0. -1.
         -5    1    4    4    0  502 -0.80124489911E+02 -0.81187397718E+02 -0.14791651608E+03  0.18684943982E+03  0.47000000000E+01 0. -1.
<mgrwt>
<rscale>  0 0.10005194E+04</rscale>
<asrwt>0</asrwt>
<pdfrwt beam="1">  1        2 0.47554391E-01 0.10005194E+04</pdfrwt>
<pdfrwt beam="2">  1       -2 0.12455860E+00 0.10005194E+04</pdfrwt>
<totfact> 0.59629983E+01</totfact>
</mgrwt>
</event>
<event>
 9    1  0.4342579E-036  0.1000142E+04  0.7818608E-02  0.8680902E-01
         -2   -1    0    0    0  501 -0.00000000000E+00  0.00000000000E+00  0.11574354557E+03  0.11574354557E+03  0.00000000000E+00 0. -1.
          2   -1    0    0  501    0  0.00000000000E+00 -0.00000000000E+00 -0.21605625580E+04  0.21605625580E+04  0.00000000000E+00 0. -1.
         36    2    1    2    0    0 -0.14210854715E-13 -0.14210854715E-13 -0.20448190124E+04  0.22763061036E+04  0.10001423317E+04 0.  0.
         25    2    3    3    0    0  0.13385026012E+02  0.87148843579E+02 -0.57646685684E+03  0.59640380337E+03  0.12493750352E+03 0.  0.
         35    2    3    3    0    0 -0.13385026012E+02 -0.87148843579E+02 -0.14683521556E+04  0.16799023002E+04  0.81131966914E+03 0.  0.
         22    1    5    5    0    0  0.24651094705E+03 -0.69546203706E+02 -0.13819046238E+04  0.14054411090E+04  0.00000000000E+00 0.  1.
         22    1    5    5    0    0 -0.25989597306E+03 -0.17602639873E+02 -0.86447531777E+02  0.27446119124E+03  0.00000000000E+00 0.  1.
          5    1    4    4  502    0 -0.52042113865E+02  0.64909473777E+02 -0.29535894844E+03  0.30688861143E+03  0.47000000000E+01 0. -1.
         -5    1    4    4    0  502  0.65427139878E+02  0.22239369802E+02 -0.28110790839E+03  0.28951519194E+03  0.47000000000E+01 0. -1.
<mgrwt>
<rscale>  0 0.10001423E+04</rscale>
<asrwt>0</asrwt>
<pdfrwt beam="1">  1        2 0.33239426E+00 0.10001423E+04</pdfrwt>
<pdfrwt beam="2">  1       -2 0.17806698E-01 0.10001423E+04</pdfrwt>
<totfact> 0.16554997E+02</totfact>
</mgrwt>
</event>
<event>
 9    1  0.4342579E-036  0.9950218E+03  0.7818608E-02  0.8685793E-01
          2   -1    0    0  501    0  0.00000000000E+00  0.00000000000E+00  0.36457509199E+03  0.36457509199E+03  0.00000000000E+00 0. -1.
         -2   -1    0    0    0  501 -0.00000000000E+00 -0.00000000000E+00 -0.67891943132E+03  0.67891943132E+03  0.00000000000E+00 0. -1.
         36    2    1    2    0    0  0.28421709430E-13 -0.28421709430E-13 -0.31434433933E+03  0.10434945233E+04  0.99502183720E+03 0.  0.
         25    2    3    3    0    0  0.70157131417E+02  0.10913564980E+03 -0.19070025439E+02  0.18152729542E+03  0.12552242813E+03 0.  0.
         35    2    3    3    0    0 -0.70157131417E+02 -0.10913564980E+03 -0.29527431389E+03  0.86196722789E+03  0.79935471999E+03 0.  0.
         22    1    5    5    0    0  0.30131289402E+03 -0.27002180780E+03 -0.13403510123E+03  0.42622370318E+03  0.00000000000E+00 0.  1.
         22    1    5    5    0    0 -0.37147002543E+03  0.16088615800E+03 -0.16123921266E+03  0.43574352471E+03  0.00000000000E+00 0.  1.
          5    1    4    4  502    0  0.73892794365E+02  0.13405769543E+02  0.20155551754E+02  0.77898626320E+02  0.47000000000E+01 0. -1.
         -5    1    4    4    0  502 -0.37356629475E+01  0.95729880260E+02 -0.39225577193E+02  0.10362866910E+03  0.47000000000E+01 0. -1.
<mgrwt>
<rscale>  0 0.99502184E+03</rscale>
<asrwt>0</asrwt>
<pdfrwt beam="1">  1        2 0.56088476E-01 0.99502184E+03</pdfrwt>
<pdfrwt beam="2">  1       -2 0.10444914E+00 0.99502184E+03</pdfrwt>
<totfact> 0.77832949E+01</totfact>
</mgrwt>
</event>
<event>
 9    1  0.4342579E-036  0.1000323E+04  0.7818608E-02  0.8680731E-01
         -2   -1    0    0    0  501 -0.00000000000E+00  0.00000000000E+00  0.10104009879E+03  0.10104009879E+03  0.00000000000E+00 0. -1.
          2   -1    0    0  501    0  0.00000000000E+00 -0.00000000000E+00 -0.24758633356E+04  0.24758633356E+04  0.00000000000E+00 0. -1.
         36    2    1    2    0    0  0.00000000000E+00  0.00000000000E+00 -0.23748232368E+04  0.25769034344E+04  0.10003228999E+04 0.  0.
         25    2    3    3    0    0  0.95150051542E+02  0.51445193282E+02 -0.67925977019E+03  0.69909070488E+03  0.12503534713E+03 0.  0.
         35    2    3    3    0    0 -0.95150051542E+02 -0.51445193282E+02 -0.16955634666E+04  0.18778127295E+04  0.79971559793E+03 0.  0.
         22    1    5    5    0    0  0.16464145306E+03 -0.20216458834E+03 -0.14928775121E+04  0.15154737196E+04  0.00000000000E+00 0.  1.
         22    1    5    5    0    0 -0.25979150460E+03  0.15071939506E+03 -0.20268595454E+03  0.36233900988E+03  0.00000000000E+00 0.  1.
          5    1    4    4  502    0  0.67998982087E+02 -0.30788599578E+00 -0.13069568877E+03  0.14740220290E+03  0.47000000000E+01 0.  1.
         -5    1    4    4    0  502  0.27151069455E+02  0.51753079277E+02 -0.54856408142E+03  0.55168850197E+03  0.47000000000E+01 0.  1.
<mgrwt>
<rscale>  0 0.10003229E+04</rscale>
<asrwt>0</asrwt>
<pdfrwt beam="1">  1        2 0.38090202E+00 0.10003229E+04</pdfrwt>
<pdfrwt beam="2">  1       -2 0.15544632E-01 0.10003229E+04</pdfrwt>
<totfact> 0.13566159E+02</totfact>
</mgrwt>
</event>
<event>
 9    1  0.4342579E-036  0.1000016E+04  0.7818608E-02  0.8681023E-01
         -2   -1    0    0    0  501 -0.00000000000E+00  0.00000000000E+00  0.17865459027E+03  0.17865459027E+03  0.00000000000E+00 0. -1.
          2   -1    0    0  501    0  0.00000000000E+00 -0.00000000000E+00 -0.13993917225E+04  0.13993917225E+04  0.00000000000E+00 0. -1.
         36    2    1    2    0    0  0.28421709430E-13  0.00000000000E+00 -0.12207371322E+04  0.15780463128E+04  0.10000155095E+04 0.  0.
         25    2    3    3    0    0  0.35242015516E+02 -0.20680188468E+02 -0.44125000292E+03  0.46040018630E+03  0.12488833659E+03 0.  0.
         35    2    3    3    0    0 -0.35242015516E+02  0.20680188468E+02 -0.77948712930E+03  0.11176461265E+04  0.79991437628E+03 0.  0.
         22    1    5    5    0    0  0.25234892653E+03 -0.24075372838E+02  0.32033524416E+02  0.25551076491E+03  0.00000000000E+00 0. -1.
         22    1    5    5    0    0 -0.28759094205E+03  0.44755561306E+02 -0.81152065372E+03  0.86213536154E+03  0.00000000000E+00 0. -1.
          5    1    4    4  502    0 -0.18205941974E+02  0.39061178516E+02 -0.87488782103E+02  0.97640201680E+02  0.47000000000E+01 0. -1.
         -5    1    4    4    0  502  0.53447957489E+02 -0.59741366984E+02 -0.35376122081E+03  0.36275998462E+03  0.47000000000E+01 0. -1.
<mgrwt>
<rscale>  0 0.10000155E+04</rscale>
<asrwt>0</asrwt>
<pdfrwt beam="1">  1        2 0.21529103E+00 0.10000155E+04</pdfrwt>
<pdfrwt beam="2">  1       -2 0.27485323E-01 0.10000155E+04</pdfrwt>
<totfact> 0.20933185E+02</totfact>
</mgrwt>
</event>
<event>
 9    1  0.4342579E-036  0.1000169E+04  0.7818608E-02  0.8680877E-01
          2   -1    0    0  501    0  0.00000000000E+00  0.00000000000E+00  0.74807135340E+03  0.74807135340E+03  0.00000000000E+00 0.  1.
         -2   -1    0    0    0  501 -0.00000000000E+00 -0.00000000000E+00 -0.33430555035E+03  0.33430555035E+03  0.00000000000E+00 0.  1.
         36    2    1    2    0    0  0.14210854715E-13 -0.35527136788E-13  0.41376580304E+03  0.10823769037E+04  0.10001687968E+04 0.  0.
         25    2    3    3    0    0 -0.23958507741E+02 -0.14604791273E+02  0.20387052632E+03  0.24098141876E+03  0.12538557598E+03 0.  0.
         35    2    3    3    0    0  0.23958507741E+02  0.14604791273E+02  0.20989527673E+03  0.84139548499E+03  0.81431138083E+03 0.  0.
         22    1    5    5    0    0  0.27368546366E+03 -0.30454977561E+03  0.99101584060E+02  0.42127831989E+03  0.00000000000E+00 0. -1.
         22    1    5    5    0    0 -0.24972695592E+03  0.31915456689E+03  0.11079369267E+03  0.42011716510E+03  0.00000000000E+00 0. -1.
          5    1    4    4  502    0 -0.34639433736E+02 -0.30815139531E+02  0.21369877657E+03  0.21872064443E+03  0.47000000000E+01 0.  1.
         -5    1    4    4    0  502  0.10680925995E+02  0.16210348258E+02 -0.98282502488E+01  0.22260774329E+02  0.47000000000E+01 0.  1.
<mgrwt>
<rscale>  0 0.10001688E+04</rscale>
<asrwt>0</asrwt>
<pdfrwt beam="1">  1        2 0.11508790E+00 0.10001688E+04</pdfrwt>
<pdfrwt beam="2">  1       -2 0.51431623E-01 0.10001688E+04</pdfrwt>
<totfact> 0.16266004E+02</totfact>
</mgrwt>
</event>
<event>
 9    1  0.4342579E-036  0.9993381E+03  0.7818608E-02  0.8681669E-01
         -2   -1    0    0    0  501 -0.00000000000E+00  0.00000000000E+00  0.19963717010E+03  0.19963717010E+03  0.00000000000E+00 0. -1.
          2   -1    0    0  501    0  0.00000000000E+00 -0.00000000000E+00 -0.12506145419E+04  0.12506145419E+04  0.00000000000E+00 0. -1.
         36    2    1    2    0    0  0.00000000000E+00 -0.71054273576E-14 -0.10509773718E+04  0.14502517120E+04  0.99933807698E+03 0.  0.
         25    2    3    3    0    0 -0.96990503231E+02 -0.63158526158E+02 -0.30942174154E+03  0.35352925733E+03  0.12587678303E+03 0.  0.
         35    2    3    3    0    0  0.96990503231E+02  0.63158526158E+02 -0.74155563026E+03  0.10967224547E+04  0.79968695917E+03 0.  0.
         22    1    5    5    0    0  0.93319789275E+02 -0.36015137448E+03 -0.25116383676E+03  0.44888848115E+03  0.00000000000E+00 0. -1.
         22    1    5    5    0    0  0.36707139563E+01  0.42330990064E+03 -0.49039179349E+03  0.64783397352E+03  0.00000000000E+00 0. -1.
          5    1    4    4  502    0 -0.15362237064E+02  0.13107192980E+02  0.36838689156E+01  0.21058435973E+02  0.47000000000E+01 0. -1.
         -5    1    4    4    0  502 -0.81628266167E+02 -0.76265719138E+02 -0.31310561045E+03  0.33247082135E+03  0.47000000000E+01 0. -1.
<mgrwt>
<rscale>  0 0.99933808E+03</rscale>
<asrwt>0</asrwt>
<pdfrwt beam="1">  1        2 0.19240224E+00 0.99933808E+03</pdfrwt>
<pdfrwt beam="2">  1       -2 0.30713411E-01 0.99933808E+03</pdfrwt>
<totfact> 0.20859576E+02</totfact>
</mgrwt>
</event>
<event>
 9    1  0.4342579E-036  0.9986972E+03  0.7818608E-02  0.8682280E-01
         -2   -1    0    0    0  501 -0.00000000000E+00  0.00000000000E+00  0.43766693963E+03  0.43766693963E+03  0.00000000000E+00 0.  1.
          2   -1    0    0  501    0  0.00000000000E+00 -0.00000000000E+00 -0.56972320965E+03  0.56972320965E+03  0.00000000000E+00 0.  1.
         36    2    1    2    0    0  0.00000000000E+00  0.00000000000E+00 -0.13205627002E+03  0.10073901493E+04  0.99869717854E+03 0.  0.
         25    2    3    3    0    0 -0.74273338227E+02 -0.85436704205E+02 -0.10813823428E+03  0.19938060788E+03  0.12346169402E+03 0.  0.
         35    2    3    3    0    0  0.74273338227E+02  0.85436704205E+02 -0.23918035739E+02  0.80800954140E+03  0.79968205392E+03 0.  0.
         22    1    5    5    0    0 -0.28326128664E+03 -0.14197406567E+03  0.14927401115E+03  0.35025179833E+03  0.00000000000E+00 0.  1.
         22    1    5    5    0    0  0.35753462486E+03  0.22741076988E+03 -0.17319204689E+03  0.45775774307E+03  0.00000000000E+00 0.  1.
          5    1    4    4  502    0 -0.90748200319E+02 -0.39984281793E+02 -0.23857163766E+02  0.10210402986E+03  0.47000000000E+01 0. -1.
         -5    1    4    4    0  502  0.16474862092E+02 -0.45452422411E+02 -0.84281070515E+02  0.97276578020E+02  0.47000000000E+01 0. -1.
<mgrwt>
<rscale>  0 0.99869718E+03</rscale>
<asrwt>0</asrwt>
<pdfrwt beam="1">  1        2 0.87649724E-01 0.99869718E+03</pdfrwt>
<pdfrwt beam="2">  1       -2 0.67333375E-01 0.99869718E+03</pdfrwt>
<totfact> 0.12918863E+02</totfact>
</mgrwt>
</event>
<event>
 9    1  0.4342579E-036  0.1000408E+04  0.7818608E-02  0.8680649E-01
          1   -1    0    0  501    0  0.00000000000E+00  0.00000000000E+00  0.16356481063E+04  0.16356481063E+04  0.00000000000E+00 0. -1.
         -1   -1    0    0    0  501 -0.00000000000E+00 -0.00000000000E+00 -0.15296940636E+03  0.15296940636E+03  0.00000000000E+00 0. -1.
         36    2    1    2    0    0  0.00000000000E+00  0.00000000000E+00  0.14826786999E+04  0.17886175126E+04  0.10004081564E+04 0.  0.
         25    2    3    3    0    0 -0.30160348161E+02 -0.10821202668E+03  0.42409693151E+03  0.45613599652E+03  0.12482928618E+03 0.  0.
         35    2    3    3    0    0  0.30160348161E+02  0.10821202668E+03  0.10585817684E+04  0.13324815161E+04  0.80143130776E+03 0.  0.
         22    1    5    5    0    0  0.47887745133E+02 -0.32432241320E+03  0.23937711604E+03  0.40593061910E+03  0.00000000000E+00 0.  1.
         22    1    5    5    0    0 -0.17727396973E+02  0.43253443988E+03  0.81920465236E+03  0.92655089700E+03  0.00000000000E+00 0.  1.
          5    1    4    4  502    0  0.44707410308E+02 -0.17540403312E+02  0.15737785828E+03  0.16460953363E+03  0.47000000000E+01 0.  1.
         -5    1    4    4    0  502 -0.74867758468E+02 -0.90671623364E+02  0.26671907323E+03  0.29152646289E+03  0.47000000000E+01 0.  1.
<mgrwt>
<rscale>  0 0.10004082E+04</rscale>
<asrwt>0</asrwt>
<pdfrwt beam="1">  1        1 0.25163816E+00 0.10004082E+04</pdfrwt>
<pdfrwt beam="2">  1       -1 0.23533756E-01 0.10004082E+04</pdfrwt>
<totfact> 0.87633163E+01</totfact>
</mgrwt>
</event>
<event>
 9    1  0.4342579E-036  0.1000248E+04  0.7818608E-02  0.8680801E-01
          2   -1    0    0  501    0  0.00000000000E+00  0.00000000000E+00  0.31738481462E+04  0.31738481462E+04  0.00000000000E+00 0.  1.
         -2   -1    0    0    0  501 -0.00000000000E+00 -0.00000000000E+00 -0.78807863609E+02  0.78807863609E+02  0.00000000000E+00 0.  1.
         36    2    1    2    0    0  0.00000000000E+00  0.00000000000E+00  0.30950402825E+04  0.32526560098E+04  0.10002483528E+04 0.  0.
         25    2    3    3    0    0  0.59362944811E+02 -0.41941503294E+00  0.16797347043E+03  0.21762645752E+03  0.12498821192E+03 0.  0.
         35    2    3    3    0    0 -0.59362944811E+02  0.41941503294E+00  0.29270668121E+04  0.30350295522E+04  0.80010007205E+03 0.  0.
         22    1    5    5    0    0 -0.21179902945E+03  0.16696494376E+03  0.32124600000E+03  0.41944619898E+03  0.00000000000E+00 0. -1.
         22    1    5    5    0    0  0.15243608464E+03 -0.16654552872E+03  0.26058208121E+04  0.26155833533E+04  0.00000000000E+00 0. -1.
          5    1    4    4  502    0  0.14097492550E+02  0.27953673097E+02 -0.88315364988E+01  0.32866900869E+02  0.47000000000E+01 0.  1.
         -5    1    4    4    0  502  0.45265452260E+02 -0.28373088129E+02  0.17680500693E+03  0.18475955665E+03  0.47000000000E+01 0.  1.
<mgrwt>
<rscale>  0 0.10002484E+04</rscale>
<asrwt>0</asrwt>
<pdfrwt beam="1">  1        2 0.48828423E+00 0.10002484E+04</pdfrwt>
<pdfrwt beam="2">  1       -2 0.12124289E-01 0.10002484E+04</pdfrwt>
<totfact> 0.72565536E+01</totfact>
</mgrwt>
</event>
<event>
 9    1  0.4342579E-036  0.9999325E+03  0.7818608E-02  0.8681102E-01
          2   -1    0    0  501    0  0.00000000000E+00  0.00000000000E+00  0.20452929598E+03  0.20452929598E+03  0.00000000000E+00 0. -1.
         -2   -1    0    0    0  501 -0.00000000000E+00 -0.00000000000E+00 -0.12221537111E+04  0.12221537111E+04  0.00000000000E+00 0. -1.
         36    2    1    2    0    0  0.00000000000E+00  0.00000000000E+00 -0.10176244151E+04  0.14266830071E+04  0.99993247395E+03 0.  0.
         25    2    3    3    0    0  0.99993095866E+02 -0.97798699533E+02 -0.17915591026E+03  0.25990606715E+03  0.12605998059E+03 0.  0.
         35    2    3    3    0    0 -0.99993095866E+02  0.97798699533E+02 -0.83846850488E+03  0.11667769399E+04  0.79923450193E+03 0.  0.
         22    1    5    5    0    0  0.25315646035E+03  0.15963333108E+03 -0.53799222349E+02  0.30408115715E+03  0.00000000000E+00 0.  1.
         22    1    5    5    0    0 -0.35314955622E+03 -0.61834631549E+02 -0.78466928253E+03  0.86269578280E+03  0.00000000000E+00 0.  1.
          5    1    4    4  502    0  0.23751159683E+02 -0.10786361740E+03 -0.11646261895E+03  0.16057493316E+03  0.47000000000E+01 0. -1.
         -5    1    4    4    0  502  0.76241936183E+02  0.10064917867E+02 -0.62693291312E+02  0.99331133992E+02  0.47000000000E+01 0. -1.
<mgrwt>
<rscale>  0 0.99993247E+03</rscale>
<asrwt>0</asrwt>
<pdfrwt beam="1">  1        2 0.31466046E-01 0.99993247E+03</pdfrwt>
<pdfrwt beam="2">  1       -2 0.18802365E+00 0.99993247E+03</pdfrwt>
<totfact> 0.29593917E+01</totfact>
</mgrwt>
</event>
<event>
 9    1  0.4342579E-036  0.9998278E+03  0.7818608E-02  0.8681202E-01
          1   -1    0    0  501    0  0.00000000000E+00  0.00000000000E+00  0.52388797883E+03  0.52388797883E+03  0.00000000000E+00 0.  1.
         -1   -1    0    0    0  501 -0.00000000000E+00 -0.00000000000E+00 -0.47703694035E+03  0.47703694035E+03  0.00000000000E+00 0.  1.
         36    2    1    2    0    0  0.00000000000E+00  0.14210854715E-13  0.46851038481E+02  0.10009249192E+04  0.99982782220E+03 0.  0.
         25    2    3    3    0    0 -0.98183147203E+02 -0.98319224417E+02 -0.28758717265E+01  0.18736656621E+03  0.12566367499E+03 0.  0.
         35    2    3    3    0    0  0.98183147203E+02  0.98319224417E+02  0.49726910208E+02  0.81355835297E+03  0.80006114004E+03 0.  0.
         22    1    5    5    0    0  0.36585728019E+02  0.36977511889E+02 -0.37572870641E+03  0.37931242097E+03  0.00000000000E+00 0.  1.
         22    1    5    5    0    0  0.61597419184E+02  0.61341712529E+02  0.42545561662E+03  0.43424593200E+03  0.00000000000E+00 0.  1.
          5    1    4    4  502    0 -0.82546874489E+02  0.47610192813E+01 -0.51376894111E+01  0.82976741590E+02  0.47000000000E+01 0. -1.
         -5    1    4    4    0  502 -0.15636272715E+02 -0.10308024370E+03  0.22618176846E+01  0.10438982462E+03  0.47000000000E+01 0. -1.
<mgrwt>
<rscale>  0 0.99982782E+03</rscale>
<asrwt>0</asrwt>
<pdfrwt beam="1">  1        1 0.80598151E-01 0.99982782E+03</pdfrwt>
<pdfrwt beam="2">  1       -1 0.73390298E-01 0.99982782E+03</pdfrwt>
<totfact> 0.91421955E+01</totfact>
</mgrwt>
</event>
<event>
 9    1  0.4342579E-036  0.9950020E+03  0.7818608E-02  0.8685812E-01
         -2   -1    0    0    0  501 -0.00000000000E+00  0.00000000000E+00  0.52119723719E+03  0.52119723719E+03  0.00000000000E+00 0.  1.
          2   -1    0    0  501    0  0.00000000000E+00 -0.00000000000E+00 -0.47488210541E+03  0.47488210541E+03  0.00000000000E+00 0.  1.
         36    2    1    2    0    0  0.00000000000E+00 -0.14210854715E-13  0.46315131779E+02  0.99607934260E+03  0.99500199263E+03 0.  0.
         25    2    3    3    0    0  0.86916495934E+02  0.72642631181E+02 -0.65052882235E+02  0.17980402926E+03  0.12355639328E+03 0.  0.
         35    2    3    3    0    0 -0.86916495934E+02 -0.72642631181E+02  0.11136801401E+03  0.81627531334E+03  0.80066917232E+03 0.  0.
         22    1    5    5    0    0  0.17590761157E+03 -0.24704249819E+03 -0.20772972956E+03  0.36759369454E+03  0.00000000000E+00 0. -1.
         22    1    5    5    0    0 -0.26282410751E+03  0.17439986701E+03  0.31909774358E+03  0.44868161881E+03  0.00000000000E+00 0. -1.
          5    1    4    4  502    0  0.48345890041E+02 -0.25272821535E+02 -0.48542960917E+02  0.73174788328E+02  0.47000000000E+01 0.  1.
         -5    1    4    4    0  502  0.38570605893E+02  0.97915452716E+02 -0.16509921318E+02  0.10662924093E+03  0.47000000000E+01 0.  1.
<mgrwt>
<rscale>  0 0.99500199E+03</rscale>
<asrwt>0</asrwt>
<pdfrwt beam="1">  1        2 0.73058786E-01 0.99500199E+03</pdfrwt>
<pdfrwt beam="2">  1       -2 0.80184190E-01 0.99500199E+03</pdfrwt>
<totfact> 0.10829592E+02</totfact>
</mgrwt>
</event>
<event>
 9    1  0.4342579E-036  0.1000160E+04  0.7818608E-02  0.8680885E-01
          1   -1    0    0  501    0  0.00000000000E+00  0.00000000000E+00  0.25549359102E+04  0.25549359102E+04  0.00000000000E+00 0.  1.
         -1   -1    0    0    0  501 -0.00000000000E+00 -0.00000000000E+00 -0.97881209116E+02  0.97881209116E+02  0.00000000000E+00 0.  1.
         36    2    1    2    0    0  0.28421709430E-13  0.00000000000E+00  0.24570547011E+04  0.26528171193E+04  0.10001604193E+04 0.  0.
         25    2    3    3    0    0 -0.16111358268E+02  0.13080799143E+03  0.59310243840E+03  0.62010755365E+03  0.12406679321E+03 0.  0.
         35    2    3    3    0    0  0.16111358268E+02 -0.13080799143E+03  0.18639522627E+04  0.20327095656E+04  0.80013738462E+03 0.  0.
         22    1    5    5    0    0 -0.14208921634E+03 -0.77545340839E+02  0.18586642376E+04  0.18656997008E+04  0.00000000000E+00 0. -1.
         22    1    5    5    0    0  0.15820057461E+03 -0.53262650591E+02  0.52880250493E+01  0.16700986487E+03  0.00000000000E+00 0. -1.
          5    1    4    4  502    0  0.35414600905E+02  0.63306179825E+02  0.12719520428E+03  0.14650111383E+03  0.47000000000E+01 0.  1.
         -5    1    4    4    0  502 -0.51525959173E+02  0.67501811605E+02  0.46590723412E+03  0.47360643983E+03  0.47000000000E+01 0.  1.
<mgrwt>
<rscale>  0 0.10001604E+04</rscale>
<asrwt>0</asrwt>
<pdfrwt beam="1">  1        1 0.39306701E+00 0.10001604E+04</pdfrwt>
<pdfrwt beam="2">  1       -1 0.15058649E-01 0.10001604E+04</pdfrwt>
<totfact> 0.41284859E+01</totfact>
</mgrwt>
</event>
<event>
 9    1  0.4342579E-036  0.1000379E+04  0.7818608E-02  0.8680677E-01
         -2   -1    0    0    0  501 -0.00000000000E+00  0.00000000000E+00  0.12488261677E+03  0.12488261677E+03  0.00000000000E+00 0. -1.
          2   -1    0    0  501    0  0.00000000000E+00 -0.00000000000E+00 -0.20033962372E+04  0.20033962372E+04  0.00000000000E+00 0. -1.
         36    2    1    2    0    0  0.00000000000E+00  0.14210854715E-13 -0.18785136204E+04  0.21282788540E+04  0.10003786574E+04 0.  0.
         25    2    3    3    0    0  0.44369018598E+02  0.12468336605E+03 -0.46608731131E+03  0.49947028442E+03  0.12132036790E+03 0.  0.
         35    2    3    3    0    0 -0.44369018598E+02 -0.12468336605E+03 -0.14124263091E+04  0.16288085696E+04  0.80034662866E+03 0.  0.
         22    1    5    5    0    0 -0.61323954777E+02  0.20809268153E+03 -0.12298938562E+04  0.12488803341E+04  0.00000000000E+00 0. -1.
         22    1    5    5    0    0  0.16954936179E+02 -0.33277604758E+03 -0.18253245297E+03  0.37992823545E+03  0.00000000000E+00 0. -1.
          5    1    4    4  502    0 -0.33471993217E+02  0.44211746058E+02 -0.80024435341E+02  0.97473345439E+02  0.47000000000E+01 0. -1.
         -5    1    4    4    0  502  0.77841011815E+02  0.80471619990E+02 -0.38606287597E+03  0.40199693898E+03  0.47000000000E+01 0. -1.
<mgrwt>
<rscale>  0 0.10003787E+04</rscale>
<asrwt>0</asrwt>
<pdfrwt beam="1">  1        2 0.30821483E+00 0.10003787E+04</pdfrwt>
<pdfrwt beam="2">  1       -2 0.19212709E-01 0.10003787E+04</pdfrwt>
<totfact> 0.17886727E+02</totfact>
</mgrwt>
</event>
<event>
 9    1  0.4342579E-036  0.1000675E+04  0.7818608E-02  0.8680395E-01
          1   -1    0    0  501    0  0.00000000000E+00  0.00000000000E+00  0.76587366673E+03  0.76587366673E+03  0.00000000000E+00 0. -1.
         -1   -1    0    0    0  501 -0.00000000000E+00 -0.00000000000E+00 -0.32686559618E+03  0.32686559618E+03  0.00000000000E+00 0. -1.
         36    2    1    2    0    0  0.00000000000E+00  0.00000000000E+00  0.43900807055E+03  0.10927392629E+04  0.10006752773E+04 0.  0.
         25    2    3    3    0    0  0.11010999636E+03 -0.60330903608E+02  0.14221742111E+03  0.22986881983E+03  0.12980697298E+03 0.  0.
         35    2    3    3    0    0 -0.11010999636E+03  0.60330903608E+02  0.29679064944E+03  0.86287044308E+03  0.80043530826E+03 0.  0.
         22    1    5    5    0    0  0.24770810042E+03  0.28087413212E+03  0.22374097724E+03  0.43624489224E+03  0.00000000000E+00 0. -1.
         22    1    5    5    0    0 -0.35781809678E+03 -0.22054322851E+03  0.73049672201E+02  0.42662555084E+03  0.00000000000E+00 0. -1.
          5    1    4    4  502    0  0.36778451220E+02 -0.49437420307E+02 -0.79758083626E+01  0.62309040434E+02  0.47000000000E+01 0. -1.
         -5    1    4    4    0  502  0.73331545137E+02 -0.10893483302E+02  0.15019322947E+03  0.16755977939E+03  0.47000000000E+01 0. -1.
<mgrwt>
<rscale>  0 0.10006753E+04</rscale>
<asrwt>0</asrwt>
<pdfrwt beam="1">  1        1 0.11782672E+00 0.10006753E+04</pdfrwt>
<pdfrwt beam="2">  1       -1 0.50287015E-01 0.10006753E+04</pdfrwt>
<totfact> 0.10751335E+02</totfact>
</mgrwt>
</event>
<event>
 9    1  0.4342579E-036  0.9970673E+03  0.7818608E-02  0.8683836E-01
         -1   -1    0    0    0  501 -0.00000000000E+00  0.00000000000E+00  0.35953923443E+03  0.35953923443E+03  0.00000000000E+00 0.  1.
          1   -1    0    0  501    0  0.00000000000E+00 -0.00000000000E+00 -0.69126195867E+03  0.69126195867E+03  0.00000000000E+00 0.  1.
         36    2    1    2    0    0  0.00000000000E+00  0.00000000000E+00 -0.33172272424E+03  0.10508011931E+04  0.99706729042E+03 0.  0.
         25    2    3    3    0    0 -0.24075571805E+02 -0.11108935288E+03  0.12135412386E+02  0.16960137438E+03  0.12528719199E+03 0.  0.
         35    2    3    3    0    0  0.24075571805E+02  0.11108935288E+03 -0.34385813663E+03  0.88119981872E+03  0.80333942073E+03 0.  0.
         22    1    5    5    0    0 -0.14773341809E+02 -0.34895795536E+03 -0.16157842103E+03  0.38483437006E+03  0.00000000000E+00 0.  1.
         22    1    5    5    0    0  0.38848913614E+02  0.46004730824E+03 -0.18227971560E+03  0.49636544866E+03  0.00000000000E+00 0.  1.
          5    1    4    4  502    0 -0.33017424008E+02 -0.82379927569E+02 -0.48870643774E+02  0.10142500962E+03  0.47000000000E+01 0. -1.
         -5    1    4    4    0  502  0.89418522030E+01 -0.28709425312E+02  0.61006056161E+02  0.68176364752E+02  0.47000000000E+01 0. -1.
<mgrwt>
<rscale>  0 0.99706729E+03</rscale>
<asrwt>0</asrwt>
<pdfrwt beam="1">  1        1 0.10634799E+00 0.99706729E+03</pdfrwt>
<pdfrwt beam="2">  1       -1 0.55313729E-01 0.99706729E+03</pdfrwt>
<totfact> 0.10563053E+02</totfact>
</mgrwt>
</event>
<event>
 9    1  0.4342579E-036  0.9998576E+03  0.7818608E-02  0.8681174E-01
         -2   -1    0    0    0  501 -0.00000000000E+00  0.00000000000E+00  0.22317992334E+03  0.22317992334E+03  0.00000000000E+00 0. -1.
          2   -1    0    0  501    0  0.00000000000E+00 -0.00000000000E+00 -0.11198534390E+04  0.11198534390E+04  0.00000000000E+00 0. -1.
         36    2    1    2    0    0  0.00000000000E+00  0.35527136788E-14 -0.89667351567E+03  0.13430333624E+04  0.99985759921E+03 0.  0.
         25    2    3    3    0    0  0.12194499650E+03  0.70050713850E+01 -0.25935766123E+03  0.31273324297E+03  0.12496412133E+03 0.  0.
         35    2    3    3    0    0 -0.12194499650E+03 -0.70050713850E+01 -0.63731585444E+03  0.10303001194E+04  0.80026694578E+03 0.  0.
         22    1    5    5    0    0 -0.37527917719E+03 -0.97302064157E+02 -0.58531893150E+02  0.39208179636E+03  0.00000000000E+00 0. -1.
         22    1    5    5    0    0  0.25333418069E+03  0.90296992772E+02 -0.57878396129E+03  0.63821832303E+03  0.00000000000E+00 0. -1.
          5    1    4    4  502    0  0.11679799037E+03  0.26320273371E+02 -0.11220294362E+03  0.16415272736E+03  0.47000000000E+01 0. -1.
         -5    1    4    4    0  502  0.51470061301E+01 -0.19315201986E+02 -0.14715471762E+03  0.14858051560E+03  0.47000000000E+01 0. -1.
<mgrwt>
<rscale>  0 0.99985760E+03</rscale>
<asrwt>0</asrwt>
<pdfrwt beam="1">  1        2 0.17228515E+00 0.99985760E+03</pdfrwt>
<pdfrwt beam="2">  1       -2 0.34335373E-01 0.99985760E+03</pdfrwt>
<totfact> 0.20305232E+02</totfact>
</mgrwt>
</event>
<event>
 9    1  0.4342579E-036  0.9991916E+03  0.7818608E-02  0.8681808E-01
         -2   -1    0    0    0  501 -0.00000000000E+00  0.00000000000E+00  0.15564960271E+03  0.15564960271E+03  0.00000000000E+00 0.  1.
          2   -1    0    0  501    0  0.00000000000E+00 -0.00000000000E+00 -0.16035758700E+04  0.16035758700E+04  0.00000000000E+00 0.  1.
         36    2    1    2    0    0  0.21316282073E-13  0.00000000000E+00 -0.14479262673E+04  0.17592254727E+04  0.99919156738E+03 0.  0.
         25    2    3    3    0    0 -0.27750690519E+02 -0.48872811035E+02 -0.49684650318E+03  0.51535999971E+03  0.12482319134E+03 0.  0.
         35    2    3    3    0    0  0.27750690519E+02  0.48872811035E+02 -0.95107976407E+03  0.12438654730E+04  0.79968115192E+03 0.  0.
         22    1    5    5    0    0 -0.35092957971E+03  0.18745509319E+03 -0.44923004804E+03  0.60008217599E+03  0.00000000000E+00 0.  1.
         22    1    5    5    0    0  0.37868027023E+03 -0.13858228215E+03 -0.50184971603E+03  0.64378329698E+03  0.00000000000E+00 0.  1.
          5    1    4    4  502    0  0.13815714552E+02  0.37871813007E+02 -0.14606731611E+03  0.15160111815E+03  0.47000000000E+01 0.  1.
         -5    1    4    4    0  502 -0.41566405072E+02 -0.86744624043E+02 -0.35077918707E+03  0.36375888156E+03  0.47000000000E+01 0.  1.
<mgrwt>
<rscale>  0 0.99919157E+03</rscale>
<asrwt>0</asrwt>
<pdfrwt beam="1">  1        2 0.24670397E+00 0.99919157E+03</pdfrwt>
<pdfrwt beam="2">  1       -2 0.23946093E-01 0.99919157E+03</pdfrwt>
<totfact> 0.20498668E+02</totfact>
</mgrwt>
</event>
<event>
 9    1  0.4342579E-036  0.9999594E+03  0.7818608E-02  0.8681077E-01
         -1   -1    0    0    0  501 -0.00000000000E+00  0.00000000000E+00  0.18791848422E+03  0.18791848422E+03  0.00000000000E+00 0.  1.
          1   -1    0    0  501    0  0.00000000000E+00 -0.00000000000E+00 -0.13302559706E+04  0.13302559706E+04  0.00000000000E+00 0.  1.
         36    2    1    2    0    0 -0.14210854715E-13 -0.42632564146E-13 -0.11423374863E+04  0.15181744548E+04  0.99995937039E+03 0.  0.
         25    2    3    3    0    0  0.93723990193E+02 -0.73811335730E+02 -0.10582184741E+03  0.20293784562E+03  0.12551177704E+03 0.  0.
         35    2    3    3    0    0 -0.93723990193E+02  0.73811335730E+02 -0.10365156389E+04  0.13152366092E+04  0.80078109912E+03 0.  0.
         22    1    5    5    0    0 -0.16181717825E+03 -0.29015152702E+03 -0.17058187272E+03  0.37345800716E+03  0.00000000000E+00 0. -1.
         22    1    5    5    0    0  0.68093188057E+02  0.36396286275E+03 -0.86593376621E+03  0.94177860200E+03  0.00000000000E+00 0. -1.
          5    1    4    4  502    0  0.45581212141E+02  0.23069733988E+02 -0.74054095488E+02  0.90088615180E+02  0.47000000000E+01 0. -1.
         -5    1    4    4    0  502  0.48142778052E+02 -0.96881069718E+02 -0.31767751924E+02  0.11284923044E+03  0.47000000000E+01 0. -1.
<mgrwt>
<rscale>  0 0.99995937E+03</rscale>
<asrwt>0</asrwt>
<pdfrwt beam="1">  1        1 0.20465477E+00 0.99995937E+03</pdfrwt>
<pdfrwt beam="2">  1       -1 0.28910535E-01 0.99995937E+03</pdfrwt>
<totfact> 0.10234820E+02</totfact>
</mgrwt>
</event>
<event>
 9    1  0.4342579E-036  0.9996648E+03  0.7818608E-02  0.8681357E-01
         -2   -1    0    0    0  501 -0.00000000000E+00  0.00000000000E+00  0.14041255488E+03  0.14041255488E+03  0.00000000000E+00 0.  1.
          2   -1    0    0  501    0  0.00000000000E+00 -0.00000000000E+00 -0.17792742221E+04  0.17792742221E+04  0.00000000000E+00 0.  1.
         36    2    1    2    0    0 -0.39079850467E-13  0.00000000000E+00 -0.16388616672E+04  0.19196867769E+04  0.99966482252E+03 0.  0.
         25    2    3    3    0    0 -0.25829549364E+01 -0.62636008776E+02 -0.71075480717E+02  0.15858124333E+03  0.12714694461E+03 0.  0.
         35    2    3    3    0    0  0.25829549364E+01  0.62636008776E+02 -0.15677861865E+04  0.17611055336E+04  0.79975573320E+03 0.  0.
         22    1    5    5    0    0 -0.33249719236E+03  0.25187080053E+03 -0.79299663504E+03  0.89601168869E+03  0.00000000000E+00 0.  1.
         22    1    5    5    0    0  0.33508014729E+03 -0.18923479175E+03 -0.77478955142E+03  0.86509384492E+03  0.00000000000E+00 0.  1.
          5    1    4    4  502    0 -0.30428528465E+02  0.11924477534E+02 -0.71604487064E+02  0.78850371443E+02  0.47000000000E+01 0.  1.
         -5    1    4    4    0  502  0.27845573528E+02 -0.74560486310E+02  0.52900634729E+00  0.79730871885E+02  0.47000000000E+01 0.  1.
<mgrwt>
<rscale>  0 0.99966482E+03</rscale>
<asrwt>0</asrwt>
<pdfrwt beam="1">  1        2 0.27373447E+00 0.99966482E+03</pdfrwt>
<pdfrwt beam="2">  1       -2 0.21601933E-01 0.99966482E+03</pdfrwt>
<totfact> 0.19553586E+02</totfact>
</mgrwt>
</event>
<event>
 9    1  0.4342579E-036  0.1000028E+04  0.7818608E-02  0.8681011E-01
         -2   -1    0    0    0  501 -0.00000000000E+00  0.00000000000E+00  0.32729126273E+03  0.32729126273E+03  0.00000000000E+00 0. -1.
          2   -1    0    0  501    0  0.00000000000E+00 -0.00000000000E+00 -0.76388844996E+03  0.76388844996E+03  0.00000000000E+00 0. -1.
         36    2    1    2    0    0 -0.14210854715E-13  0.00000000000E+00 -0.43659718723E+03  0.10911797127E+04  0.10000280303E+04 0.  0.
         25    2    3    3    0    0  0.11278553656E+03 -0.64740444870E+02 -0.13972110692E+03  0.22748363137E+03  0.12375343374E+03 0.  0.
         35    2    3    3    0    0 -0.11278553656E+03  0.64740444870E+02 -0.29687608032E+03  0.86369608132E+03  0.80057704898E+03 0.  0.
         22    1    5    5    0    0 -0.13710944385E+03  0.28552338550E+03  0.16061578673E+03  0.35513382578E+03  0.00000000000E+00 0.  1.
         22    1    5    5    0    0  0.24323907292E+02 -0.22078294063E+03 -0.45749186705E+03  0.50856225554E+03  0.00000000000E+00 0.  1.
          5    1    4    4  502    0  0.70520733172E+02 -0.62728665958E+02 -0.15559815171E+03  0.18204651646E+03  0.47000000000E+01 0.  1.
         -5    1    4    4    0  502  0.42264803391E+02 -0.20117789125E+01  0.15877044792E+02  0.45437114910E+02  0.47000000000E+01 0.  1.
<mgrwt>
<rscale>  0 0.10000280E+04</rscale>
<asrwt>0</asrwt>
<pdfrwt beam="1">  1        2 0.11752130E+00 0.10000280E+04</pdfrwt>
<pdfrwt beam="2">  1       -2 0.50352503E-01 0.10000280E+04</pdfrwt>
<totfact> 0.16531401E+02</totfact>
</mgrwt>
</event>
<event>
 9    1  0.4342579E-036  0.9928221E+03  0.7818608E-02  0.8687904E-01
         -2   -1    0    0    0  501 -0.00000000000E+00  0.00000000000E+00  0.23624834905E+03  0.23624834905E+03  0.00000000000E+00 0. -1.
          2   -1    0    0  501    0  0.00000000000E+00 -0.00000000000E+00 -0.10430714841E+04  0.10430714841E+04  0.00000000000E+00 0. -1.
         36    2    1    2    0    0 -0.28421709430E-13  0.00000000000E+00 -0.80682313503E+03  0.12793198331E+04  0.99282207076E+03 0.  0.
         25    2    3    3    0    0  0.10234712105E+03 -0.40007546039E+02 -0.24960348907E+03  0.30014283096E+03  0.12533267846E+03 0.  0.
         35    2    3    3    0    0 -0.10234712105E+03  0.40007546039E+02 -0.55721964596E+03  0.97917700216E+03  0.79763295493E+03 0.  0.
         22    1    5    5    0    0  0.32727878082E+03  0.59265790055E+02 -0.90847181131E+02  0.34478550516E+03  0.00000000000E+00 0.  1.
         22    1    5    5    0    0 -0.42962590187E+03 -0.19258244016E+02 -0.46637246483E+03  0.63439149700E+03  0.00000000000E+00 0.  1.
          5    1    4    4  502    0  0.23321820746E+02 -0.65433602357E+01  0.10043981432E+02  0.26640091011E+02  0.47000000000E+01 0.  1.
         -5    1    4    4    0  502  0.79025300307E+02 -0.33464185803E+02 -0.25964747050E+03  0.27350273995E+03  0.47000000000E+01 0.  1.
<mgrwt>
<rscale>  0 0.99282207E+03</rscale>
<asrwt>0</asrwt>
<pdfrwt beam="1">  1        2 0.16047254E+00 0.99282207E+03</pdfrwt>
<pdfrwt beam="2">  1       -2 0.36345900E-01 0.99282207E+03</pdfrwt>
<totfact> 0.20337216E+02</totfact>
</mgrwt>
</event>
<event>
 9    1  0.4342579E-036  0.9999656E+03  0.7818608E-02  0.8681071E-01
         -2   -1    0    0    0  501 -0.00000000000E+00  0.00000000000E+00  0.66983677002E+03  0.66983677002E+03  0.00000000000E+00 0.  1.
          2   -1    0    0  501    0  0.00000000000E+00 -0.00000000000E+00 -0.37319955580E+03  0.37319955580E+03  0.00000000000E+00 0.  1.
         36    2    1    2    0    0  0.00000000000E+00  0.21316282073E-13  0.29663721422E+03  0.10430363258E+04  0.99996556947E+03 0.  0.
         25    2    3    3    0    0 -0.12768932123E+03 -0.35789217895E+01 -0.29986119266E+01  0.17933439134E+03  0.12583505396E+03 0.  0.
         35    2    3    3    0    0  0.12768932123E+03  0.35789217895E+01  0.29963582615E+03  0.86370193448E+03  0.79992626652E+03 0.  0.
         22    1    5    5    0    0 -0.21665945230E+03 -0.17782724879E+03 -0.10773838824E+03  0.30028554574E+03  0.00000000000E+00 0. -1.
         22    1    5    5    0    0  0.34434877353E+03  0.18140617058E+03  0.40737421438E+03  0.56341638874E+03  0.00000000000E+00 0. -1.
          5    1    4    4  502    0 -0.84234655874E+01  0.36181310148E+02  0.31445977124E+02  0.48897663071E+02  0.47000000000E+01 0. -1.
         -5    1    4    4    0  502 -0.11926585565E+03 -0.39760231938E+02 -0.34444589051E+02  0.13043672827E+03  0.47000000000E+01 0. -1.
<mgrwt>
<rscale>  0 0.99996557E+03</rscale>
<asrwt>0</asrwt>
<pdfrwt beam="1">  1        2 0.57415316E-01 0.99996557E+03</pdfrwt>
<pdfrwt beam="2">  1       -2 0.10305181E+00 0.99996557E+03</pdfrwt>
<totfact> 0.78357812E+01</totfact>
</mgrwt>
</event>
<event>
 9    1  0.4342579E-036  0.1004474E+04  0.7818608E-02  0.8676789E-01
         -2   -1    0    0    0  501 -0.00000000000E+00  0.00000000000E+00  0.14521417960E+03  0.14521417960E+03  0.00000000000E+00 0.  1.
          2   -1    0    0  501    0  0.00000000000E+00 -0.00000000000E+00 -0.17370338671E+04  0.17370338671E+04  0.00000000000E+00 0.  1.
         36    2    1    2    0    0  0.14210854715E-13  0.71054273576E-14 -0.15918196875E+04  0.18822480467E+04  0.10044738881E+04 0.  0.
         25    2    3    3    0    0 -0.29744319813E+02 -0.18931224671E+02 -0.40009093066E+02  0.13599902822E+03  0.12510752304E+03 0.  0.
         35    2    3    3    0    0  0.29744319813E+02  0.18931224671E+02 -0.15518105944E+04  0.17462490185E+04  0.80001649841E+03 0.  0.
         22    1    5    5    0    0 -0.21964336958E+03  0.30304660145E+03 -0.47330100560E+03  0.60340226579E+03  0.00000000000E+00 0.  1.
         22    1    5    5    0    0  0.24938768940E+03 -0.28411537678E+03 -0.10785095888E+04  0.11428467527E+04  0.00000000000E+00 0.  1.
          5    1    4    4  502    0 -0.49931134693E+02  0.71492270083E+01 -0.73169404998E+02  0.88994839661E+02  0.47000000000E+01 0. -1.
         -5    1    4    4    0  502  0.20186814881E+02 -0.26080451680E+02  0.33160311932E+02  0.47004188561E+02  0.47000000000E+01 0. -1.
<mgrwt>
<rscale>  0 0.10044739E+04</rscale>
<asrwt>0</asrwt>
<pdfrwt beam="1">  1        2 0.26723597E+00 0.10044739E+04</pdfrwt>
<pdfrwt beam="2">  1       -2 0.22340644E-01 0.10044739E+04</pdfrwt>
<totfact> 0.19476734E+02</totfact>
</mgrwt>
</event>
<event>
 9    1  0.4342579E-036  0.9995162E+03  0.7818608E-02  0.8681499E-01
         -1   -1    0    0    0  501 -0.00000000000E+00  0.00000000000E+00  0.31636759202E+03  0.31636759202E+03  0.00000000000E+00 0. -1.
          1   -1    0    0  501    0  0.00000000000E+00 -0.00000000000E+00 -0.78945564577E+03  0.78945564577E+03  0.00000000000E+00 0. -1.
         36    2    1    2    0    0  0.00000000000E+00 -0.28421709430E-13 -0.47308805376E+03  0.11058232378E+04  0.99951624631E+03 0.  0.
         25    2    3    3    0    0 -0.13129548074E+03  0.33487287561E+02 -0.61460666050E+02  0.19464264930E+03  0.12549281160E+03 0.  0.
         35    2    3    3    0    0  0.13129548074E+03 -0.33487287561E+02 -0.41162738771E+03  0.91118058850E+03  0.80153169423E+03 0.  0.
         22    1    5    5    0    0  0.25917226891E+03 -0.28862205796E+03  0.25936158807E+02  0.38877453832E+03  0.00000000000E+00 0.  1.
         22    1    5    5    0    0 -0.12787678818E+03  0.25513477040E+03 -0.43756354652E+03  0.52240605017E+03  0.00000000000E+00 0.  1.
          5    1    4    4  502    0 -0.10615692959E+03 -0.61150743062E+01 -0.90126755003E+02  0.13946902811E+03  0.47000000000E+01 0.  1.
         -5    1    4    4    0  502 -0.25138551142E+02  0.39602361867E+02  0.28666088954E+02  0.55173621187E+02  0.47000000000E+01 0.  1.
<mgrwt>
<rscale>  0 0.99951625E+03</rscale>
<asrwt>0</asrwt>
<pdfrwt beam="1">  1        1 0.12145471E+00 0.99951625E+03</pdfrwt>
<pdfrwt beam="2">  1       -1 0.48671937E-01 0.99951625E+03</pdfrwt>
<totfact> 0.10877204E+02</totfact>
</mgrwt>
</event>
<event>
 9    1  0.4342579E-036  0.1000674E+04  0.7818608E-02  0.8680397E-01
          2   -1    0    0  501    0  0.00000000000E+00  0.00000000000E+00  0.21546638137E+03  0.21546638137E+03  0.00000000000E+00 0.  1.
         -2   -1    0    0    0  501 -0.00000000000E+00 -0.00000000000E+00 -0.11618375168E+04  0.11618375168E+04  0.00000000000E+00 0.  1.
         36    2    1    2    0    0  0.00000000000E+00  0.35527136788E-13 -0.94637113546E+03  0.13773038982E+04  0.10006736241E+04 0.  0.
         25    2    3    3    0    0  0.13249360366E+03  0.12396673924E+01 -0.24744861252E+03  0.30664360547E+03  0.12346413709E+03 0.  0.
         35    2    3    3    0    0 -0.13249360366E+03 -0.12396673924E+01 -0.69892252294E+03  0.10706602927E+04  0.80016540638E+03 0.  0.
         22    1    5    5    0    0 -0.18383891244E+03 -0.31789448853E+03 -0.83422831110E+02  0.37658069562E+03  0.00000000000E+00 0. -1.
         22    1    5    5    0    0  0.51345308780E+02  0.31665482114E+03 -0.61549969183E+03  0.69407959711E+03  0.00000000000E+00 0. -1.
          5    1    4    4  502    0  0.13346166713E+03  0.41081301091E+02 -0.17623099370E+03  0.22489807254E+03  0.47000000000E+01 0.  1.
         -5    1    4    4    0  502 -0.96806346727E+00 -0.39841633699E+02 -0.71217618821E+02  0.81745532925E+02  0.47000000000E+01 0.  1.
<mgrwt>
<rscale>  0 0.10006736E+04</rscale>
<asrwt>0</asrwt>
<pdfrwt beam="1">  1        2 0.33148674E-01 0.10006736E+04</pdfrwt>
<pdfrwt beam="2">  1       -2 0.17874424E+00 0.10006736E+04</pdfrwt>
<totfact> 0.32503744E+01</totfact>
</mgrwt>
</event>
<event>
 9    1  0.4342579E-036  0.9989541E+03  0.7818608E-02  0.8682035E-01
          2   -1    0    0  501    0  0.00000000000E+00  0.00000000000E+00  0.25250947040E+04  0.25250947040E+04  0.00000000000E+00 0. -1.
         -2   -1    0    0    0  501 -0.00000000000E+00 -0.00000000000E+00 -0.98799187054E+02  0.98799187054E+02  0.00000000000E+00 0. -1.
         36    2    1    2    0    0  0.35527136788E-14  0.00000000000E+00  0.24262955170E+04  0.26238938911E+04  0.99895406099E+03 0.  0.
         25    2    3    3    0    0  0.17624370047E+02 -0.10145954856E+03  0.70675473875E+03  0.72513313402E+03  0.12534409797E+03 0.  0.
         35    2    3    3    0    0 -0.17624370047E+02  0.10145954856E+03  0.17195407782E+04  0.18987607571E+04  0.79866592901E+03 0.  0.
         22    1    5    5    0    0  0.10340357471E+03 -0.14992118224E+03  0.15732102103E+04  0.15837168390E+04  0.00000000000E+00 0.  1.
         22    1    5    5    0    0 -0.12102794476E+03  0.25138073080E+03  0.14633056791E+03  0.31504391810E+03  0.00000000000E+00 0.  1.
          5    1    4    4  502    0 -0.16300365075E+02 -0.33765440949E+02  0.43782188591E+02  0.57834046563E+02  0.47000000000E+01 0. -1.
         -5    1    4    4    0  502  0.33924735122E+02 -0.67694107615E+02  0.66297255016E+03  0.66729908746E+03  0.47000000000E+01 0. -1.
<mgrwt>
<rscale>  0 0.99895406E+03</rscale>
<asrwt>0</asrwt>
<pdfrwt beam="1">  1        2 0.38847606E+00 0.99895406E+03</pdfrwt>
<pdfrwt beam="2">  1       -2 0.15199877E-01 0.99895406E+03</pdfrwt>
<totfact> 0.13148348E+02</totfact>
</mgrwt>
</event>
<event>
 9    1  0.4342579E-036  0.1005323E+04  0.7818608E-02  0.8675985E-01
          2   -1    0    0  501    0  0.00000000000E+00  0.00000000000E+00  0.67719104233E+03  0.67719104233E+03  0.00000000000E+00 0. -1.
         -2   -1    0    0    0  501 -0.00000000000E+00 -0.00000000000E+00 -0.37311304970E+03  0.37311304970E+03  0.00000000000E+00 0. -1.
         36    2    1    2    0    0  0.00000000000E+00  0.28421709430E-13  0.30407799262E+03  0.10503040920E+04  0.10053234605E+04 0.  0.
         25    2    3    3    0    0 -0.10137600477E+03  0.97788909904E+02  0.99136033649E+02  0.21272932524E+03  0.12484409241E+03 0.  0.
         35    2    3    3    0    0  0.10137600477E+03 -0.97788909904E+02  0.20494195897E+03  0.83757476679E+03  0.79980655046E+03 0.  0.
         22    1    5    5    0    0  0.18947265503E+02 -0.43441328239E+03  0.22660231688E+03  0.49032898018E+03  0.00000000000E+00 0.  1.
         22    1    5    5    0    0  0.82428739265E+02  0.33662437249E+03 -0.21660357909E+02  0.34724578660E+03  0.00000000000E+00 0.  1.
          5    1    4    4  502    0  0.14199144522E+02  0.16813323788E+02  0.63119051129E+02  0.67010507963E+02  0.47000000000E+01 0.  1.
         -5    1    4    4    0  502 -0.11557514929E+03  0.80975586116E+02  0.36016982519E+02  0.14571881728E+03  0.47000000000E+01 0.  1.
<mgrwt>
<rscale>  0 0.10053235E+04</rscale>
<asrwt>0</asrwt>
<pdfrwt beam="1">  1        2 0.10418324E+00 0.10053235E+04</pdfrwt>
<pdfrwt beam="2">  1       -2 0.57402008E-01 0.10053235E+04</pdfrwt>
<totfact> 0.14701404E+02</totfact>
</mgrwt>
</event>
<event>
 9    1  0.4342579E-036  0.1000037E+04  0.7818608E-02  0.8681003E-01
         -1   -1    0    0    0  501 -0.00000000000E+00  0.00000000000E+00  0.44988530054E+03  0.44988530054E+03  0.00000000000E+00 0. -1.
          1   -1    0    0  501    0  0.00000000000E+00 -0.00000000000E+00 -0.55573847206E+03  0.55573847206E+03  0.00000000000E+00 0. -1.
         36    2    1    2    0    0  0.28421709430E-13 -0.71054273576E-14 -0.10585317152E+03  0.10056237726E+04  0.10000371384E+04 0.  0.
         25    2    3    3    0    0 -0.81946286945E+02 -0.55234597510E+02  0.80452218711E+02  0.17854278038E+03  0.12505562852E+03 0.  0.
         35    2    3    3    0    0  0.81946286945E+02  0.55234597510E+02 -0.18630539023E+03  0.82708099221E+03  0.79974196748E+03 0.  0.
         22    1    5    5    0    0 -0.12785843404E+03  0.32875951488E+03  0.11315460121E+03  0.37045183432E+03  0.00000000000E+00 0.  1.
         22    1    5    5    0    0  0.20980472098E+03 -0.27352491737E+03 -0.29945999144E+03  0.45662915789E+03  0.00000000000E+00 0.  1.
          5    1    4    4  502    0  0.10413217923E+01 -0.61391491001E+02 -0.15761143163E+01  0.61600110833E+02  0.47000000000E+01 0.  1.
         -5    1    4    4    0  502 -0.82987608737E+02  0.61568934907E+01  0.82028333028E+02  0.11694266955E+03  0.47000000000E+01 0.  1.
<mgrwt>
<rscale>  0 0.10000371E+04</rscale>
<asrwt>0</asrwt>
<pdfrwt beam="1">  1        1 0.85498227E-01 0.10000371E+04</pdfrwt>
<pdfrwt beam="2">  1       -1 0.69213123E-01 0.10000371E+04</pdfrwt>
<totfact> 0.94532996E+01</totfact>
</mgrwt>
</event>
<event>
 9    1  0.4342579E-036  0.9998186E+03  0.7818608E-02  0.8681211E-01
          1   -1    0    0  501    0  0.00000000000E+00  0.00000000000E+00  0.44177326896E+03  0.44177326896E+03  0.00000000000E+00 0. -1.
         -1   -1    0    0    0  501 -0.00000000000E+00 -0.00000000000E+00 -0.56569581243E+03  0.56569581243E+03  0.00000000000E+00 0. -1.
         36    2    1    2    0    0  0.28421709430E-13 -0.42632564146E-13 -0.12392254348E+03  0.10074690814E+04  0.99981856013E+03 0.  0.
         25    2    3    3    0    0 -0.10609317048E+03 -0.42056604316E+02  0.59938816940E+02  0.17885998617E+03  0.12399078226E+03 0.  0.
         35    2    3    3    0    0  0.10609317048E+03  0.42056604316E+02 -0.18386136042E+03  0.82860909522E+03  0.79985218262E+03 0.  0.
         22    1    5    5    0    0  0.48498622267E+02  0.41514166420E+03 -0.24005954260E+02  0.41865379916E+03  0.00000000000E+00 0. -1.
         22    1    5    5    0    0  0.57594548217E+02 -0.37308505988E+03 -0.15985540616E+03  0.40995529606E+03  0.00000000000E+00 0. -1.
          5    1    4    4  502    0  0.17841491305E+02 -0.32647605294E+02 -0.61669983808E+01  0.38004036792E+02  0.47000000000E+01 0.  1.
         -5    1    4    4    0  502 -0.12393466179E+03 -0.94089990219E+01  0.66105815321E+02  0.14085594938E+03  0.47000000000E+01 0.  1.
<mgrwt>
<rscale>  0 0.99981856E+03</rscale>
<asrwt>0</asrwt>
<pdfrwt beam="1">  1        1 0.67965119E-01 0.99981856E+03</pdfrwt>
<pdfrwt beam="2">  1       -1 0.87030124E-01 0.99981856E+03</pdfrwt>
<totfact> 0.81088052E+01</totfact>
</mgrwt>
</event>
<event>
 9    1  0.4342579E-036  0.9998234E+03  0.7818608E-02  0.8681206E-01
         -2   -1    0    0    0  501 -0.00000000000E+00  0.00000000000E+00  0.26809910440E+03  0.26809910440E+03  0.00000000000E+00 0. -1.
          2   -1    0    0  501    0  0.00000000000E+00 -0.00000000000E+00 -0.93216172770E+03  0.93216172770E+03  0.00000000000E+00 0. -1.
         36    2    1    2    0    0 -0.71054273576E-14  0.00000000000E+00 -0.66406262329E+03  0.12002608321E+04  0.99982343312E+03 0.  0.
         25    2    3    3    0    0  0.26529451719E+02 -0.93122418813E+02 -0.35236695004E+01  0.15815393245E+03  0.12499861363E+03 0.  0.
         35    2    3    3    0    0 -0.26529451719E+02  0.93122418813E+02 -0.66053895379E+03  0.10421068997E+04  0.80018715569E+03 0.  0.
         22    1    5    5    0    0  0.36936849397E+03  0.86783107277E+01 -0.46102547399E+03  0.59080697785E+03  0.00000000000E+00 0.  1.
         22    1    5    5    0    0 -0.39589794569E+03  0.84444108086E+02 -0.19951347981E+03  0.45129992180E+03  0.00000000000E+00 0.  1.
          5    1    4    4  502    0 -0.27321992632E+02 -0.96804697490E+02 -0.17484136322E+02  0.10220286572E+03  0.47000000000E+01 0. -1.
         -5    1    4    4    0  502  0.53851444350E+02  0.36822786763E+01  0.13960466822E+02  0.55951066735E+02  0.47000000000E+01 0. -1.
<mgrwt>
<rscale>  0 0.99982343E+03</rscale>
<asrwt>0</asrwt>
<pdfrwt beam="1">  1        2 0.14340950E+00 0.99982343E+03</pdfrwt>
<pdfrwt beam="2">  1       -2 0.41246016E-01 0.99982343E+03</pdfrwt>
<totfact> 0.18788253E+02</totfact>
</mgrwt>
</event>
<event>
 9    1  0.4342579E-036  0.9997008E+03  0.7818608E-02  0.8681323E-01
          1   -1    0    0  501    0  0.00000000000E+00  0.00000000000E+00  0.12474477946E+04  0.12474477946E+04  0.00000000000E+00 0. -1.
         -1   -1    0    0    0  501 -0.00000000000E+00 -0.00000000000E+00 -0.20028927589E+03  0.20028927589E+03  0.00000000000E+00 0. -1.
         36    2    1    2    0    0  0.00000000000E+00  0.00000000000E+00  0.10471585187E+04  0.14477370704E+04  0.99970078619E+03 0.  0.
         25    2    3    3    0    0 -0.20578295243E+02  0.13664965149E+03  0.21393705767E+03  0.28451175842E+03  0.12681199685E+03 0.  0.
         35    2    3    3    0    0  0.20578295243E+02 -0.13664965149E+03  0.83322146099E+03  0.11632253120E+04  0.79983656455E+03 0.  0.
         22    1    5    5    0    0 -0.58583951128E+02 -0.37508189841E+02 -0.15342357968E+03  0.16845693348E+03  0.00000000000E+00 0. -1.
         22    1    5    5    0    0  0.79162246372E+02 -0.99141461646E+02  0.98664504067E+03  0.99476837855E+03  0.00000000000E+00 0. -1.
          5    1    4    4  502    0  0.39737759485E+02  0.11729418481E+03  0.14593314813E+03  0.19145649386E+03  0.47000000000E+01 0. -1.
         -5    1    4    4    0  502 -0.60316054729E+02  0.19355466680E+02  0.68003909550E+02  0.93055264561E+02  0.47000000000E+01 0. -1.
<mgrwt>
<rscale>  0 0.99970079E+03</rscale>
<asrwt>0</asrwt>
<pdfrwt beam="1">  1        1 0.19191504E+00 0.99970079E+03</pdfrwt>
<pdfrwt beam="2">  1       -1 0.30813736E-01 0.99970079E+03</pdfrwt>
<totfact> 0.10553247E+02</totfact>
</mgrwt>
</event>
<event>
 9    1  0.4342579E-036  0.9999484E+03  0.7818608E-02  0.8681087E-01
         -2   -1    0    0    0  501 -0.00000000000E+00  0.00000000000E+00  0.16424611057E+03  0.16424611057E+03  0.00000000000E+00 0. -1.
          2   -1    0    0  501    0  0.00000000000E+00 -0.00000000000E+00 -0.15219490496E+04  0.15219490496E+04  0.00000000000E+00 0. -1.
         36    2    1    2    0    0 -0.71054273576E-14  0.14210854715E-13 -0.13577029390E+04  0.16861951602E+04  0.99994842244E+03 0.  0.
         25    2    3    3    0    0 -0.57291297254E+00 -0.77140663717E+02 -0.44871882364E+03  0.47303723533E+03  0.12831458642E+03 0.  0.
         35    2    3    3    0    0  0.57291297254E+00  0.77140663717E+02 -0.90898411540E+03  0.12131579249E+04  0.79971808681E+03 0.  0.
         22    1    5    5    0    0 -0.34935165372E+03 -0.13456217122E+03 -0.30076725263E+03  0.48022338149E+03  0.00000000000E+00 0.  1.
         22    1    5    5    0    0  0.34992456669E+03  0.21170283494E+03 -0.60821686277E+03  0.73293454336E+03  0.00000000000E+00 0.  1.
          5    1    4    4  502    0 -0.48339531003E+02 -0.11098420339E+02 -0.71885195713E+02  0.87461171695E+02  0.47000000000E+01 0. -1.
         -5    1    4    4    0  502  0.47766618031E+02 -0.66042243377E+02 -0.37683362793E+03  0.38557606363E+03  0.47000000000E+01 0. -1.
<mgrwt>
<rscale>  0 0.99994842E+03</rscale>
<asrwt>0</asrwt>
<pdfrwt beam="1">  1        2 0.23414601E+00 0.99994842E+03</pdfrwt>
<pdfrwt beam="2">  1       -2 0.25268632E-01 0.99994842E+03</pdfrwt>
<totfact> 0.20724294E+02</totfact>
</mgrwt>
</event>
<event>
 9    1  0.4342579E-036  0.9999619E+03  0.7818608E-02  0.8681074E-01
          3   -1    0    0  501    0  0.00000000000E+00  0.00000000000E+00  0.64049042727E+03  0.64049042727E+03  0.00000000000E+00 0.  1.
         -3   -1    0    0    0  501 -0.00000000000E+00 -0.00000000000E+00 -0.39029619174E+03  0.39029619174E+03  0.00000000000E+00 0.  1.
         36    2    1    2    0    0  0.00000000000E+00  0.00000000000E+00  0.25019423553E+03  0.10307866190E+04  0.99996194850E+03 0.  0.
         25    2    3    3    0    0 -0.34408235761E+02  0.55907203337E+02  0.17435360034E+03  0.22472695734E+03  0.12567213426E+03 0.  0.
         35    2    3    3    0    0  0.34408235761E+02 -0.55907203337E+02  0.75840635190E+02  0.80605966167E+03  0.79979424489E+03 0.  0.
         22    1    5    5    0    0  0.29841047985E+02 -0.32902849098E+03  0.30489973226E+03  0.44957099857E+03  0.00000000000E+00 0.  1.
         22    1    5    5    0    0  0.45671877768E+01  0.27312128765E+03 -0.22905909707E+03  0.35648866310E+03  0.00000000000E+00 0.  1.
          5    1    4    4  502    0  0.81347634436E+01  0.87152749658E+02  0.94565813567E+02  0.12894401593E+03  0.47000000000E+01 0.  1.
         -5    1    4    4    0  502 -0.42542999205E+02 -0.31245546321E+02  0.79787786775E+02  0.95782941408E+02  0.47000000000E+01 0.  1.
<mgrwt>
<rscale>  0 0.99996195E+03</rscale>
<asrwt>0</asrwt>
<pdfrwt beam="1">  1        3 0.98536989E-01 0.99996195E+03</pdfrwt>
<pdfrwt beam="2">  1       -3 0.60045568E-01 0.99996195E+03</pdfrwt>
<totfact> 0.10130610E+01</totfact>
</mgrwt>
</event>
<event>
 9    1  0.4342579E-036  0.1001331E+04  0.7818608E-02  0.8679771E-01
         -1   -1    0    0    0  501 -0.00000000000E+00  0.00000000000E+00  0.19244776385E+03  0.19244776385E+03  0.00000000000E+00 0. -1.
          1   -1    0    0  501    0  0.00000000000E+00 -0.00000000000E+00 -0.13025144894E+04  0.13025144894E+04  0.00000000000E+00 0. -1.
         36    2    1    2    0    0  0.14210854715E-13  0.35527136788E-13 -0.11100667256E+04  0.14949622533E+04  0.10013311158E+04 0.  0.
         25    2    3    3    0    0 -0.11657998897E+03 -0.63346276567E+02 -0.28229095867E+03  0.33638833738E+03  0.12595746739E+03 0.  0.
         35    2    3    3    0    0  0.11657998897E+03  0.63346276567E+02 -0.82777576690E+03  0.11585739159E+04  0.79967315432E+03 0.  0.
         22    1    5    5    0    0 -0.89645582146E+02  0.39092367471E+03 -0.28546686336E+03  0.49228952855E+03  0.00000000000E+00 0.  1.
         22    1    5    5    0    0  0.20622557111E+03 -0.32757739814E+03 -0.54230890354E+03  0.66628438734E+03  0.00000000000E+00 0.  1.
          5    1    4    4  502    0 -0.38089669666E+02 -0.73501639421E+02 -0.22140692098E+03  0.23642425551E+03  0.47000000000E+01 0. -1.
         -5    1    4    4    0  502 -0.78490319301E+02  0.10155362854E+02 -0.60884037692E+02  0.99964081871E+02  0.47000000000E+01 0. -1.
<mgrwt>
<rscale>  0 0.10013311E+04</rscale>
<asrwt>0</asrwt>
<pdfrwt beam="1">  1        1 0.20038684E+00 0.10013311E+04</pdfrwt>
<pdfrwt beam="2">  1       -1 0.29607348E-01 0.10013311E+04</pdfrwt>
<totfact> 0.10294310E+02</totfact>
</mgrwt>
</event>
<event>
 9    1  0.4342579E-036  0.9997622E+03  0.7818608E-02  0.8681264E-01
         -1   -1    0    0    0  501 -0.00000000000E+00  0.00000000000E+00  0.18335104230E+03  0.18335104230E+03  0.00000000000E+00 0.  1.
          1   -1    0    0  501    0  0.00000000000E+00 -0.00000000000E+00 -0.13628562228E+04  0.13628562228E+04  0.00000000000E+00 0.  1.
         36    2    1    2    0    0 -0.28421709430E-13  0.28421709430E-13 -0.11795051805E+04  0.15462072651E+04  0.99976218963E+03 0.  0.
         25    2    3    3    0    0  0.77902807658E+02  0.19522089570E+02 -0.41805132929E+02  0.15398542392E+03  0.12455473583E+03 0.  0.
         35    2    3    3    0    0 -0.77902807658E+02 -0.19522089570E+02 -0.11377000475E+04  0.13922218412E+04  0.79841737042E+03 0.  0.
         22    1    5    5    0    0  0.84891124778E+02 -0.32692211576E+03 -0.20106144972E+03  0.39307795588E+03  0.00000000000E+00 0. -1.
         22    1    5    5    0    0 -0.16279393244E+03  0.30740002619E+03 -0.93663859782E+03  0.99914388527E+03  0.00000000000E+00 0. -1.
          5    1    4    4  502    0  0.26652213246E+02 -0.16576173893E+02 -0.76045305842E+02  0.82401993619E+02  0.47000000000E+01 0.  1.
         -5    1    4    4    0  502  0.51250594412E+02  0.36098263462E+02  0.34240172913E+02  0.71583430301E+02  0.47000000000E+01 0.  1.
<mgrwt>
<rscale>  0 0.99976219E+03</rscale>
<asrwt>0</asrwt>
<pdfrwt beam="1">  1        1 0.20967018E+00 0.99976219E+03</pdfrwt>
<pdfrwt beam="2">  1       -1 0.28207853E-01 0.99976219E+03</pdfrwt>
<totfact> 0.10107643E+02</totfact>
</mgrwt>
</event>
<event>
 9    1  0.4342579E-036  0.1000601E+04  0.7818608E-02  0.8680466E-01
          2   -1    0    0  501    0  0.00000000000E+00  0.00000000000E+00  0.37115335761E+03  0.37115335761E+03  0.00000000000E+00 0.  1.
         -2   -1    0    0    0  501 -0.00000000000E+00 -0.00000000000E+00 -0.67438560925E+03  0.67438560925E+03  0.00000000000E+00 0.  1.
         36    2    1    2    0    0  0.14210854715E-13 -0.14210854715E-13 -0.30323225164E+03  0.10455389669E+04  0.10006007859E+04 0.  0.
         25    2    3    3    0    0 -0.92781864497E+02  0.48487108612E+02  0.40700307645E+02  0.16805647774E+03  0.12500796209E+03 0.  0.
         35    2    3    3    0    0  0.92781864497E+02 -0.48487108612E+02 -0.34393255928E+03  0.87748248912E+03  0.80045389580E+03 0.  0.
         22    1    5    5    0    0 -0.85829535272E+02  0.18501776933E+03  0.18304396892E+03  0.27404995649E+03  0.00000000000E+00 0. -1.
         22    1    5    5    0    0  0.17861139977E+03 -0.23350487795E+03 -0.52697652820E+03  0.60343253263E+03  0.00000000000E+00 0. -1.
          5    1    4    4  502    0 -0.31673201561E+02  0.76984706240E+02 -0.94228400736E+01  0.83908978108E+02  0.47000000000E+01 0. -1.
         -5    1    4    4    0  502 -0.61108662936E+02 -0.28497597629E+02  0.50123147719E+02  0.84147499628E+02  0.47000000000E+01 0. -1.
<mgrwt>
<rscale>  0 0.10006008E+04</rscale>
<asrwt>0</asrwt>
<pdfrwt beam="1">  1        2 0.57100517E-01 0.10006008E+04</pdfrwt>
<pdfrwt beam="2">  1       -2 0.10375163E+00 0.10006008E+04</pdfrwt>
<totfact> 0.77532551E+01</totfact>
</mgrwt>
</event>
<event>
 9    1  0.4342579E-036  0.1000271E+04  0.7818608E-02  0.8680780E-01
          1   -1    0    0  501    0  0.00000000000E+00  0.00000000000E+00  0.40386656664E+03  0.40386656664E+03  0.00000000000E+00 0. -1.
         -1   -1    0    0    0  501 -0.00000000000E+00 -0.00000000000E+00 -0.61935188747E+03  0.61935188747E+03  0.00000000000E+00 0. -1.
         36    2    1    2    0    0  0.28421709430E-13  0.71054273576E-14 -0.21548532083E+03  0.10232184541E+04  0.10002710039E+04 0.  0.
         25    2    3    3    0    0 -0.13899719297E+03  0.25351669694E+02 -0.37969219039E+02  0.19257034134E+03  0.12521480726E+03 0.  0.
         35    2    3    3    0    0  0.13899719297E+03 -0.25351669694E+02 -0.17751610179E+03  0.83064811277E+03  0.79906282234E+03 0.  0.
         22    1    5    5    0    0  0.42749496727E+03 -0.20034480817E+03 -0.13164216238E+03  0.49012207470E+03  0.00000000000E+00 0. -1.
         22    1    5    5    0    0 -0.28849777430E+03  0.17499313847E+03 -0.45873939411E+02  0.34052603807E+03  0.00000000000E+00 0. -1.
          5    1    4    4  502    0 -0.17830923602E+02 -0.21858214379E+02  0.33552737396E+02  0.44086274044E+02  0.47000000000E+01 0.  1.
         -5    1    4    4    0  502 -0.12116626937E+03  0.47209884073E+02 -0.71521956436E+02  0.14848406729E+03  0.47000000000E+01 0.  1.
<mgrwt>
<rscale>  0 0.10002710E+04</rscale>
<asrwt>0</asrwt>
<pdfrwt beam="1">  1        1 0.62133318E-01 0.10002710E+04</pdfrwt>
<pdfrwt beam="2">  1       -1 0.95284905E-01 0.10002710E+04</pdfrwt>
<totfact> 0.75262540E+01</totfact>
</mgrwt>
</event>
<event>
 9    1  0.4342579E-036  0.1000467E+04  0.7818608E-02  0.8680593E-01
         -2   -1    0    0    0  501 -0.00000000000E+00  0.00000000000E+00  0.11794690611E+03  0.11794690611E+03  0.00000000000E+00 0. -1.
          2   -1    0    0  501    0  0.00000000000E+00 -0.00000000000E+00 -0.21215785478E+04  0.21215785478E+04  0.00000000000E+00 0. -1.
         36    2    1    2    0    0 -0.28421709430E-13  0.00000000000E+00 -0.20036316417E+04  0.22395254539E+04  0.10004671425E+04 0.  0.
         25    2    3    3    0    0  0.11467313661E+03  0.70961778095E+02 -0.47086195521E+03  0.50546875658E+03  0.12490868985E+03 0.  0.
         35    2    3    3    0    0 -0.11467313661E+03 -0.70961778095E+02 -0.15327696865E+04  0.17340566973E+04  0.79961504211E+03 0.  0.
         22    1    5    5    0    0 -0.12762489915E+03 -0.32354850458E+03 -0.25442826426E+03  0.43093560001E+03  0.00000000000E+00 0. -1.
         22    1    5    5    0    0  0.12951762542E+02  0.25258672648E+03 -0.12783414222E+04  0.13031210973E+04  0.00000000000E+00 0. -1.
          5    1    4    4  502    0  0.98159478200E+01  0.72502861637E+02 -0.25668299037E+03  0.26694805735E+03  0.47000000000E+01 0. -1.
         -5    1    4    4    0  502  0.10485718879E+03 -0.15410835419E+01 -0.21417896485E+03  0.23852069923E+03  0.47000000000E+01 0. -1.
<mgrwt>
<rscale>  0 0.10004671E+04</rscale>
<asrwt>0</asrwt>
<pdfrwt beam="1">  1        2 0.32639668E+00 0.10004671E+04</pdfrwt>
<pdfrwt beam="2">  1       -2 0.18145679E-01 0.10004671E+04</pdfrwt>
<totfact> 0.16882954E+02</totfact>
</mgrwt>
</event>
<event>
 9    1  0.4342579E-036  0.9980608E+03  0.7818608E-02  0.8682887E-01
         -2   -1    0    0    0  501 -0.00000000000E+00  0.00000000000E+00  0.15825126226E+03  0.15825126226E+03  0.00000000000E+00 0.  1.
          2   -1    0    0  501    0  0.00000000000E+00 -0.00000000000E+00 -0.15736452370E+04  0.15736452370E+04  0.00000000000E+00 0.  1.
         36    2    1    2    0    0  0.14210854715E-13 -0.14210854715E-13 -0.14153939747E+04  0.17318964992E+04  0.99806080998E+03 0.  0.
         25    2    3    3    0    0 -0.10880218558E+03 -0.84552535298E+02 -0.29841717072E+03  0.35175529481E+03  0.12526744522E+03 0.  0.
         35    2    3    3    0    0  0.10880218558E+03  0.84552535298E+02 -0.11169768040E+04  0.13801412044E+04  0.79885262514E+03 0.  0.
         22    1    5    5    0    0 -0.19157865128E+02  0.41513562583E+03 -0.81347561017E+03  0.91348080438E+03  0.00000000000E+00 0. -1.
         22    1    5    5    0    0  0.12796005071E+03 -0.33058309053E+03 -0.30350119384E+03  0.46666040006E+03  0.00000000000E+00 0. -1.
          5    1    4    4  502    0 -0.33983894817E+02 -0.10028014088E+03 -0.20646045490E+03  0.23207546445E+03  0.47000000000E+01 0.  1.
         -5    1    4    4    0  502 -0.74818290768E+02  0.15727605581E+02 -0.91956715828E+02  0.11967983037E+03  0.47000000000E+01 0.  1.
<mgrwt>
<rscale>  0 0.99806081E+03</rscale>
<asrwt>0</asrwt>
<pdfrwt beam="1">  1        2 0.24209926E+00 0.99806081E+03</pdfrwt>
<pdfrwt beam="2">  1       -2 0.24346349E-01 0.99806081E+03</pdfrwt>
<totfact> 0.20695942E+02</totfact>
</mgrwt>
</event>
<event>
 9    1  0.4342579E-036  0.9980992E+03  0.7818608E-02  0.8682850E-01
          1   -1    0    0  501    0  0.00000000000E+00  0.00000000000E+00  0.10002971359E+04  0.10002971359E+04  0.00000000000E+00 0.  1.
         -1   -1    0    0    0  501 -0.00000000000E+00 -0.00000000000E+00 -0.24897654789E+03  0.24897654789E+03  0.00000000000E+00 0.  1.
         36    2    1    2    0    0 -0.28421709430E-13  0.35527136788E-14  0.75132058801E+03  0.12492736838E+04  0.99809924910E+03 0.  0.
         25    2    3    3    0    0  0.11401684659E+03 -0.18721618702E+02  0.23169529565E+03  0.28809712569E+03  0.12636021323E+03 0.  0.
         35    2    3    3    0    0 -0.11401684659E+03  0.18721618702E+02  0.51962529236E+03  0.96117655810E+03  0.80031218351E+03 0.  0.
         22    1    5    5    0    0 -0.20269601830E+03  0.98230509974E+02 -0.15673481217E+03  0.27440974886E+03  0.00000000000E+00 0.  1.
         22    1    5    5    0    0  0.88679171702E+02 -0.79508891272E+02  0.67636010453E+03  0.68676680925E+03  0.00000000000E+00 0.  1.
          5    1    4    4  502    0  0.33054489421E+01 -0.29680240570E+01  0.14849413626E+03  0.14863490056E+03  0.47000000000E+01 0.  1.
         -5    1    4    4    0  502  0.11071139765E+03 -0.15753594645E+02  0.83201159391E+02  0.13946222513E+03  0.47000000000E+01 0.  1.
<mgrwt>
<rscale>  0 0.99809925E+03</rscale>
<asrwt>0</asrwt>
<pdfrwt beam="1">  1        1 0.15389186E+00 0.99809925E+03</pdfrwt>
<pdfrwt beam="2">  1       -1 0.38304085E-01 0.99809925E+03</pdfrwt>
<totfact> 0.11158670E+02</totfact>
</mgrwt>
</event>
<event>
 9    1  0.4342579E-036  0.1001893E+04  0.7818608E-02  0.8679237E-01
         -3   -1    0    0    0  501 -0.00000000000E+00  0.00000000000E+00  0.34818312147E+03  0.34818312147E+03  0.00000000000E+00 0. -1.
          3   -1    0    0  501    0  0.00000000000E+00 -0.00000000000E+00 -0.72073419437E+03  0.72073419437E+03  0.00000000000E+00 0. -1.
         36    2    1    2    0    0 -0.71054273576E-14  0.28421709430E-13 -0.37255107290E+03  0.10689173158E+04  0.10018931710E+04 0.  0.
         25    2    3    3    0    0  0.48290656850E+02  0.12729384250E+03 -0.25105835423E+02  0.18580037011E+03  0.12391837912E+03 0.  0.
         35    2    3    3    0    0 -0.48290656850E+02 -0.12729384250E+03 -0.34744523748E+03  0.88311694573E+03  0.80040092261E+03 0.  0.
         22    1    5    5    0    0 -0.12919470947E+03  0.22587032773E+03 -0.43817800086E+03  0.50961616766E+03  0.00000000000E+00 0. -1.
         22    1    5    5    0    0  0.80904052618E+02 -0.35316417023E+03  0.90732763386E+02  0.37350077807E+03  0.00000000000E+00 0. -1.
          5    1    4    4  502    0 -0.19110125543E+02  0.23996085885E+02 -0.50982765248E+02  0.59685353215E+02  0.47000000000E+01 0. -1.
         -5    1    4    4    0  502  0.67400782392E+02  0.10329775662E+03  0.25876929825E+02  0.12611501690E+03  0.47000000000E+01 0. -1.
<mgrwt>
<rscale>  0 0.10018932E+04</rscale>
<asrwt>0</asrwt>
<pdfrwt beam="1">  1        3 0.11088218E+00 0.10018932E+04</pdfrwt>
<pdfrwt beam="2">  1       -3 0.53566634E-01 0.10018932E+04</pdfrwt>
<totfact> 0.98453624E+00</totfact>
</mgrwt>
</event>
<event>
 9    1  0.4342579E-036  0.1003212E+04  0.7818608E-02  0.8677985E-01
         -2   -1    0    0    0  501 -0.00000000000E+00  0.00000000000E+00  0.97961270177E+02  0.97961270177E+02  0.00000000000E+00 0.  1.
          2   -1    0    0  501    0  0.00000000000E+00 -0.00000000000E+00 -0.25684497322E+04  0.25684497322E+04  0.00000000000E+00 0.  1.
         36    2    1    2    0    0 -0.10658141036E-13  0.28421709430E-13 -0.24704884620E+04  0.26664110023E+04  0.10032120377E+04 0.  0.
         25    2    3    3    0    0  0.46440961378E+01 -0.80585616839E+02 -0.15053588020E+03  0.21101742653E+03  0.12390195237E+03 0.  0.
         35    2    3    3    0    0 -0.46440961378E+01  0.80585616839E+02 -0.23199525818E+04  0.24553935758E+04  0.80016374645E+03 0.  0.
         22    1    5    5    0    0 -0.25219047673E+03  0.31744800977E+03 -0.16936908767E+04  0.17415401405E+04  0.00000000000E+00 0.  1.
         22    1    5    5    0    0  0.24754638059E+03 -0.23686239293E+03 -0.62626170514E+03  0.71385343528E+03  0.00000000000E+00 0.  1.
          5    1    4    4  502    0 -0.13958973608E+01  0.46236129233E+01  0.19521924285E+02  0.20652405519E+02  0.47000000000E+01 0. -1.
         -5    1    4    4    0  502  0.60399934986E+01 -0.85209229763E+02 -0.17005780449E+03  0.19036502101E+03  0.47000000000E+01 0. -1.
<mgrwt>
<rscale>  0 0.10032120E+04</rscale>
<asrwt>0</asrwt>
<pdfrwt beam="1">  1        2 0.39514610E+00 0.10032120E+04</pdfrwt>
<pdfrwt beam="2">  1       -2 0.15070965E-01 0.10032120E+04</pdfrwt>
<totfact> 0.12544593E+02</totfact>
</mgrwt>
</event>
<event>
 9    1  0.4342579E-036  0.9996597E+03  0.7818608E-02  0.8681362E-01
         -1   -1    0    0    0  501 -0.00000000000E+00  0.00000000000E+00  0.15021870458E+03  0.15021870458E+03  0.00000000000E+00 0. -1.
          1   -1    0    0  501    0  0.00000000000E+00 -0.00000000000E+00 -0.16631075087E+04  0.16631075087E+04  0.00000000000E+00 0. -1.
         36    2    1    2    0    0  0.56843418861E-13  0.14210854715E-13 -0.15128888041E+04  0.18133262133E+04  0.99965965314E+03 0.  0.
         25    2    3    3    0    0 -0.95159154896E+02 -0.12276977856E+01 -0.97763490986E+02  0.18479255249E+03  0.12463472744E+03 0.  0.
         35    2    3    3    0    0  0.95159154896E+02  0.12276977856E+01 -0.14151253131E+04  0.16285336608E+04  0.80030335526E+03 0.  0.
         22    1    5    5    0    0 -0.29000231631E+03  0.18085087171E+03 -0.88752014571E+03  0.95105225424E+03  0.00000000000E+00 0.  1.
         22    1    5    5    0    0  0.38516147121E+03 -0.17962317392E+03 -0.52760516741E+03  0.67748140653E+03  0.00000000000E+00 0.  1.
          5    1    4    4  502    0 -0.36790086053E+02 -0.38288181957E+02 -0.10228802303E+03  0.11534480901E+03  0.47000000000E+01 0. -1.
         -5    1    4    4    0  502 -0.58369068842E+02  0.37060484171E+02  0.45245320485E+01  0.69447743482E+02  0.47000000000E+01 0. -1.
<mgrwt>
<rscale>  0 0.99965965E+03</rscale>
<asrwt>0</asrwt>
<pdfrwt beam="1">  1        1 0.25586269E+00 0.99965965E+03</pdfrwt>
<pdfrwt beam="2">  1       -1 0.23110570E-01 0.99965965E+03</pdfrwt>
<totfact> 0.86388448E+01</totfact>
</mgrwt>
</event>
<event>
 9    1  0.4342579E-036  0.9996283E+03  0.7818608E-02  0.8681392E-01
         -2   -1    0    0    0  501 -0.00000000000E+00  0.00000000000E+00  0.33911034350E+03  0.33911034350E+03  0.00000000000E+00 0. -1.
          2   -1    0    0  501    0  0.00000000000E+00 -0.00000000000E+00 -0.73667518165E+03  0.73667518165E+03  0.00000000000E+00 0. -1.
         36    2    1    2    0    0  0.42632564146E-13 -0.17763568394E-14 -0.39756483814E+03  0.10757855252E+04  0.99962827871E+03 0.  0.
         25    2    3    3    0    0  0.12433714347E+03 -0.51204965367E+01 -0.11502136795E+03  0.21811758058E+03  0.13732960039E+03 0.  0.
         35    2    3    3    0    0 -0.12433714347E+03  0.51204965367E+01 -0.28254347019E+03  0.85766794457E+03  0.80017344736E+03 0.  0.
         22    1    5    5    0    0  0.16673750622E+03 -0.49825887952E+02  0.21623365964E+03  0.27756262473E+03  0.00000000000E+00 0. -1.
         22    1    5    5    0    0 -0.29107464968E+03  0.54946384489E+02 -0.49877712983E+03  0.58010531983E+03  0.00000000000E+00 0. -1.
          5    1    4    4  502    0  0.27740891500E+02 -0.16251539777E+02  0.29487153678E+02  0.43877691808E+02  0.47000000000E+01 0. -1.
         -5    1    4    4    0  502  0.96596251968E+02  0.11131043240E+02 -0.14450852163E+03  0.17423988878E+03  0.47000000000E+01 0. -1.
<mgrwt>
<rscale>  0 0.99962828E+03</rscale>
<asrwt>0</asrwt>
<pdfrwt beam="1">  1        2 0.11333464E+00 0.99962828E+03</pdfrwt>
<pdfrwt beam="2">  1       -2 0.52170822E-01 0.99962828E+03</pdfrwt>
<totfact> 0.16111836E+02</totfact>
</mgrwt>
</event>
<event>
 9    1  0.4342579E-036  0.1002267E+04  0.7818608E-02  0.8678883E-01
         -1   -1    0    0    0  501 -0.00000000000E+00  0.00000000000E+00  0.65813835835E+03  0.65813835835E+03  0.00000000000E+00 0. -1.
          1   -1    0    0  501    0  0.00000000000E+00 -0.00000000000E+00 -0.38158321483E+03  0.38158321483E+03  0.00000000000E+00 0. -1.
         36    2    1    2    0    0 -0.14210854715E-13  0.14210854715E-13  0.27655514352E+03  0.10397215732E+04  0.10022665326E+04 0.  0.
         25    2    3    3    0    0 -0.78995193385E+02  0.46835291538E+02  0.16477564336E+03  0.22625555268E+03  0.12492708819E+03 0.  0.
         35    2    3    3    0    0  0.78995193385E+02 -0.46835291538E+02  0.11177950017E+03  0.81346602050E+03  0.80049892238E+03 0.  0.
         22    1    5    5    0    0  0.10765155849E+03 -0.39104631201E+03 -0.87183113144E+02  0.41485777250E+03  0.00000000000E+00 0.  1.
         22    1    5    5    0    0 -0.28656365107E+02  0.34421102048E+03  0.19896261331E+03  0.39860824800E+03  0.00000000000E+00 0.  1.
          5    1    4    4  502    0 -0.15667102477E+02  0.31314810001E+02  0.15641072950E+03  0.16035112014E+03  0.47000000000E+01 0. -1.
         -5    1    4    4    0  502 -0.63328090908E+02  0.15520481537E+02  0.83649138521E+01  0.65904432544E+02  0.47000000000E+01 0. -1.
<mgrwt>
<rscale>  0 0.10022665E+04</rscale>
<asrwt>0</asrwt>
<pdfrwt beam="1">  1        1 0.58705110E-01 0.10022665E+04</pdfrwt>
<pdfrwt beam="2">  1       -1 0.10125206E+00 0.10022665E+04</pdfrwt>
<totfact> 0.70911879E+01</totfact>
</mgrwt>
</event>
<event>
 9    1  0.4342579E-036  0.9964494E+03  0.7818608E-02  0.8684427E-01
         -2   -1    0    0    0  501 -0.00000000000E+00  0.00000000000E+00  0.47781124278E+03  0.47781124278E+03  0.00000000000E+00 0. -1.
          2   -1    0    0  501    0  0.00000000000E+00 -0.00000000000E+00 -0.51951029432E+03  0.51951029432E+03  0.00000000000E+00 0. -1.
         36    2    1    2    0    0  0.00000000000E+00  0.42632564146E-13 -0.41699051542E+02  0.99732153710E+03  0.99644941541E+03 0.  0.
         25    2    3    3    0    0  0.18376889293E+02 -0.39546346975E+02  0.12090470549E+03  0.17958414696E+03  0.12542286239E+03 0.  0.
         35    2    3    3    0    0 -0.18376889293E+02  0.39546346975E+02 -0.16260375703E+03  0.81773739014E+03  0.80022049075E+03 0.  0.
         22    1    5    5    0    0  0.17895946162E+03 -0.27938686209E+03 -0.26983579780E+03  0.42766209253E+03  0.00000000000E+00 0. -1.
         22    1    5    5    0    0 -0.19733635092E+03  0.31893320907E+03  0.10723204077E+03  0.39007529761E+03  0.00000000000E+00 0. -1.
          5    1    4    4  502    0 -0.15583177427E+00 -0.72147795831E+02  0.25000038218E+02  0.76501115271E+02  0.47000000000E+01 0.  1.
         -5    1    4    4    0  502  0.18532721067E+02  0.32601448857E+02  0.95904667270E+02  0.10308303169E+03  0.47000000000E+01 0.  1.
<mgrwt>
<rscale>  0 0.99644942E+03</rscale>
<asrwt>0</asrwt>
<pdfrwt beam="1">  1        2 0.79924661E-01 0.99644942E+03</pdfrwt>
<pdfrwt beam="2">  1       -2 0.73509422E-01 0.99644942E+03</pdfrwt>
<totfact> 0.11881228E+02</totfact>
</mgrwt>
</event>
<event>
 9    1  0.4342579E-036  0.1002643E+04  0.7818608E-02  0.8678525E-01
         -2   -1    0    0    0  501 -0.00000000000E+00  0.00000000000E+00  0.10540229865E+03  0.10540229865E+03  0.00000000000E+00 0.  1.
          2   -1    0    0  501    0  0.00000000000E+00 -0.00000000000E+00 -0.23844201811E+04  0.23844201811E+04  0.00000000000E+00 0.  1.
         36    2    1    2    0    0  0.14210854715E-13  0.14210854715E-13 -0.22790178825E+04  0.24898224798E+04  0.10026432427E+04 0.  0.
         25    2    3    3    0    0  0.79510919571E+02 -0.11163108369E+03 -0.32205251755E+03  0.37146629558E+03  0.12444235420E+03 0.  0.
         35    2    3    3    0    0 -0.79510919571E+02  0.11163108369E+03 -0.19569653649E+04  0.21183561842E+04  0.79933472238E+03 0.  0.
         22    1    5    5    0    0 -0.16326941093E+03  0.36235386993E+03 -0.50557118375E+03  0.64308588030E+03  0.00000000000E+00 0.  1.
         22    1    5    5    0    0  0.83758491359E+02 -0.25072278623E+03 -0.14513941812E+04  0.14752703039E+04  0.00000000000E+00 0.  1.
          5    1    4    4  502    0  0.23717964122E+02 -0.12498297522E+03 -0.21250599425E+03  0.24771793134E+03  0.47000000000E+01 0.  1.
         -5    1    4    4    0  502  0.55792955449E+02  0.13351891530E+02 -0.10954652330E+03  0.12374836424E+03  0.47000000000E+01 0.  1.
<mgrwt>
<rscale>  0 0.10026432E+04</rscale>
<asrwt>0</asrwt>
<pdfrwt beam="1">  1        2 0.36683388E+00 0.10026432E+04</pdfrwt>
<pdfrwt beam="2">  1       -2 0.16215738E-01 0.10026432E+04</pdfrwt>
<totfact> 0.14337475E+02</totfact>
</mgrwt>
</event>
<event>
 9    1  0.4342579E-036  0.9989096E+03  0.7818608E-02  0.8682077E-01
         -2   -1    0    0    0  501 -0.00000000000E+00  0.00000000000E+00  0.72383859206E+03  0.72383859206E+03  0.00000000000E+00 0.  1.
          2   -1    0    0  501    0  0.00000000000E+00 -0.00000000000E+00 -0.34462808687E+03  0.34462808687E+03  0.00000000000E+00 0.  1.
         36    2    1    2    0    0 -0.31974423109E-13  0.00000000000E+00  0.37921050519E+03  0.10684666789E+04  0.99890962390E+03 0.  0.
         25    2    3    3    0    0 -0.14322641089E+02 -0.91474540104E+02  0.18093587403E+03  0.23900216153E+03  0.12574383949E+03 0.  0.
         35    2    3    3    0    0  0.14322641089E+02  0.91474540104E+02  0.19827463117E+03  0.82946451740E+03  0.80007863784E+03 0.  0.
         22    1    5    5    0    0 -0.35547405536E+03 -0.10252985621E+03  0.18009736223E+03  0.41147203469E+03  0.00000000000E+00 0.  1.
         22    1    5    5    0    0  0.36979669645E+03  0.19400439632E+03  0.18177268932E+02  0.41799248271E+03  0.00000000000E+00 0.  1.
          5    1    4    4  502    0  0.15260352312E+02 -0.71146243244E+02  0.22243856841E+02  0.76233492951E+02  0.47000000000E+01 0.  1.
         -5    1    4    4    0  502 -0.29582993401E+02 -0.20328296860E+02  0.15869201719E+03  0.16276866858E+03  0.47000000000E+01 0.  1.
<mgrwt>
<rscale>  0 0.99890962E+03</rscale>
<asrwt>0</asrwt>
<pdfrwt beam="1">  1        2 0.53019706E-01 0.99890962E+03</pdfrwt>
<pdfrwt beam="2">  1       -2 0.11135978E+00 0.99890962E+03</pdfrwt>
<totfact> 0.70577496E+01</totfact>
</mgrwt>
</event>
<event>
 9    1  0.4342579E-036  0.9978577E+03  0.7818608E-02  0.8683081E-01
         -1   -1    0    0    0  501 -0.00000000000E+00  0.00000000000E+00  0.15228449908E+03  0.15228449908E+03  0.00000000000E+00 0.  1.
          1   -1    0    0  501    0  0.00000000000E+00 -0.00000000000E+00 -0.16346376337E+04  0.16346376337E+04  0.00000000000E+00 0.  1.
         36    2    1    2    0    0  0.00000000000E+00  0.00000000000E+00 -0.14823531347E+04  0.17869221328E+04  0.99785765164E+03 0.  0.
         25    2    3    3    0    0 -0.79579293395E+02 -0.11014288386E+03 -0.25244957025E+03  0.31324119294E+03  0.12619405942E+03 0.  0.
         35    2    3    3    0    0  0.79579293395E+02  0.11014288386E+03 -0.12299035644E+04  0.14736809399E+04  0.80038016969E+03 0.  0.
         22    1    5    5    0    0 -0.14576758030E+03  0.38572154367E+03 -0.89274930930E+03  0.98337715348E+03  0.00000000000E+00 0.  1.
         22    1    5    5    0    0  0.22534687370E+03 -0.27557865981E+03 -0.33715425511E+03  0.49030378641E+03  0.00000000000E+00 0.  1.
          5    1    4    4  502    0  0.26318791842E+01 -0.57999110023E+02 -0.20678764426E+02  0.61810394350E+02  0.47000000000E+01 0.  1.
         -5    1    4    4    0  502 -0.82211172580E+02 -0.52143773835E+02 -0.23177080582E+03  0.25143079859E+03  0.47000000000E+01 0.  1.
<mgrwt>
<rscale>  0 0.99785765E+03</rscale>
<asrwt>0</asrwt>
<pdfrwt beam="1">  1        1 0.25148270E+00 0.99785765E+03</pdfrwt>
<pdfrwt beam="2">  1       -1 0.23428386E-01 0.99785765E+03</pdfrwt>
<totfact> 0.88454424E+01</totfact>
</mgrwt>
</event>
<event>
 9    1  0.4342579E-036  0.9992302E+03  0.7818608E-02  0.8681771E-01
          2   -1    0    0  501    0  0.00000000000E+00  0.00000000000E+00  0.16423752789E+04  0.16423752789E+04  0.00000000000E+00 0.  1.
         -2   -1    0    0    0  501 -0.00000000000E+00 -0.00000000000E+00 -0.15198430209E+03  0.15198430209E+03  0.00000000000E+00 0.  1.
         36    2    1    2    0    0  0.00000000000E+00 -0.17763568394E-13  0.14903909769E+04  0.17943595810E+04  0.99923022479E+03 0.  0.
         25    2    3    3    0    0 -0.19878243643E+02  0.13707457745E+02  0.53103650338E+03  0.54464388121E+03  0.11855020224E+03 0.  0.
         35    2    3    3    0    0  0.19878243643E+02 -0.13707457745E+02  0.95935447347E+03  0.12497156998E+04  0.80052812919E+03 0.  0.
         22    1    5    5    0    0 -0.32657316700E+02 -0.27250545486E+03  0.94632209712E+03  0.98531783438E+03  0.00000000000E+00 0.  1.
         22    1    5    5    0    0  0.52535560343E+02  0.25879799711E+03  0.13032376356E+02  0.26439786543E+03  0.00000000000E+00 0.  1.
          5    1    4    4  502    0 -0.40322679087E+02 -0.20595489090E+02  0.46574592529E+03  0.46796522258E+03  0.47000000000E+01 0. -1.
         -5    1    4    4    0  502  0.20444435444E+02  0.34302946835E+02  0.65290578090E+02  0.76678658631E+02  0.47000000000E+01 0. -1.
<mgrwt>
<rscale>  0 0.99923022E+03</rscale>
<asrwt>0</asrwt>
<pdfrwt beam="1">  1        2 0.25267311E+00 0.99923022E+03</pdfrwt>
<pdfrwt beam="2">  1       -2 0.23382201E-01 0.99923022E+03</pdfrwt>
<totfact> 0.20328400E+02</totfact>
</mgrwt>
</event>
<event>
 9    1  0.4342579E-036  0.9998814E+03  0.7818608E-02  0.8681151E-01
          2   -1    0    0  501    0  0.00000000000E+00  0.00000000000E+00  0.13311964618E+03  0.13311964618E+03  0.00000000000E+00 0.  1.
         -2   -1    0    0    0  501 -0.00000000000E+00 -0.00000000000E+00 -0.18775642855E+04  0.18775642855E+04  0.00000000000E+00 0.  1.
         36    2    1    2    0    0  0.71054273576E-14  0.14210854715E-13 -0.17444446393E+04  0.20106839317E+04  0.99988137969E+03 0.  0.
         25    2    3    3    0    0  0.94990887131E+01 -0.46299045334E+02 -0.61152092705E+02  0.14638698962E+03  0.12432110843E+03 0.  0.
         35    2    3    3    0    0 -0.94990887131E+01  0.46299045334E+02 -0.16832925466E+04  0.18642969421E+04  0.79993465758E+03 0.  0.
         22    1    5    5    0    0  0.15993272522E+03 -0.30362070754E+03 -0.41909517935E+03  0.54166851486E+03  0.00000000000E+00 0.  1.
         22    1    5    5    0    0 -0.16943181393E+03  0.34991975287E+03 -0.12641973673E+04  0.13226284272E+04  0.00000000000E+00 0.  1.
          5    1    4    4  502    0  0.60864555615E+02 -0.28906328042E+02 -0.43044030539E+01  0.67680778783E+02  0.47000000000E+01 0. -1.
         -5    1    4    4    0  502 -0.51365466902E+02 -0.17392717293E+02 -0.56847689652E+02  0.78706210832E+02  0.47000000000E+01 0. -1.
<mgrwt>
<rscale>  0 0.99988138E+03</rscale>
<asrwt>0</asrwt>
<pdfrwt beam="1">  1        2 0.20479946E-01 0.99988138E+03</pdfrwt>
<pdfrwt beam="2">  1       -2 0.28885604E+00 0.99988138E+03</pdfrwt>
<totfact> 0.11143830E+01</totfact>
</mgrwt>
</event>
<event>
 9    1  0.4342579E-036  0.1000425E+04  0.7818608E-02  0.8680633E-01
          2   -1    0    0  501    0  0.00000000000E+00  0.00000000000E+00  0.32343526857E+03  0.32343526857E+03  0.00000000000E+00 0.  1.
         -2   -1    0    0    0  501 -0.00000000000E+00 -0.00000000000E+00 -0.77360909439E+03  0.77360909439E+03  0.00000000000E+00 0.  1.
         36    2    1    2    0    0  0.17763568394E-14  0.28421709430E-13 -0.45017382581E+03  0.10970443630E+04  0.10004248402E+04 0.  0.
         25    2    3    3    0    0  0.90470324792E+01  0.77291953020E+02  0.40739532106E+02  0.15385188180E+03  0.12631230050E+03 0.  0.
         35    2    3    3    0    0 -0.90470324792E+01 -0.77291953020E+02 -0.49091335792E+03  0.94319248116E+03  0.80159855086E+03 0.  0.
         22    1    5    5    0    0 -0.20745498080E+02  0.26840055785E+03 -0.53064877502E+03  0.59502719062E+03  0.00000000000E+00 0.  1.
         22    1    5    5    0    0  0.11698465601E+02 -0.34569251087E+03  0.39735417097E+02  0.34816529055E+03  0.00000000000E+00 0.  1.
          5    1    4    4  502    0 -0.31976488362E+02  0.95725590938E+02  0.39890500746E+02  0.10862424507E+03  0.47000000000E+01 0.  1.
         -5    1    4    4    0  502  0.41023520841E+02 -0.18433637918E+02  0.84903136004E+00  0.45227636721E+02  0.47000000000E+01 0.  1.
<mgrwt>
<rscale>  0 0.10004248E+04</rscale>
<asrwt>0</asrwt>
<pdfrwt beam="1">  1        2 0.49759273E-01 0.10004248E+04</pdfrwt>
<pdfrwt beam="2">  1       -2 0.11901678E+00 0.10004248E+04</pdfrwt>
<totfact> 0.63853880E+01</totfact>
</mgrwt>
</event>
<event>
 9    1  0.4342579E-036  0.9993476E+03  0.7818608E-02  0.8681659E-01
          1   -1    0    0  501    0  0.00000000000E+00  0.00000000000E+00  0.70469412701E+03  0.70469412701E+03  0.00000000000E+00 0.  1.
         -1   -1    0    0    0  501 -0.00000000000E+00 -0.00000000000E+00 -0.35430109485E+03  0.35430109485E+03  0.00000000000E+00 0.  1.
         36    2    1    2    0    0  0.14210854715E-13  0.21316282073E-13  0.35039303216E+03  0.10589952219E+04  0.99934758864E+03 0.  0.
         25    2    3    3    0    0  0.69553476911E+02  0.47036504714E+02  0.17984481445E+03  0.23491432431E+03  0.12566011123E+03 0.  0.
         35    2    3    3    0    0 -0.69553476911E+02 -0.47036504714E+02  0.17054821771E+03  0.82408089754E+03  0.80185566794E+03 0.  0.
         22    1    5    5    0    0  0.25107536058E+03  0.22648163891E+03 -0.60434441300E+02  0.34348957939E+03  0.00000000000E+00 0.  1.
         22    1    5    5    0    0 -0.32062883749E+03 -0.27351814363E+03  0.23098265901E+03  0.48059131815E+03  0.00000000000E+00 0.  1.
          5    1    4    4  502    0  0.36292190807E+02  0.71904121425E+02  0.42173201149E+02  0.91038424232E+02  0.47000000000E+01 0. -1.
         -5    1    4    4    0  502  0.33261286104E+02 -0.24867616712E+02  0.13767161330E+03  0.14387590008E+03  0.47000000000E+01 0. -1.
<mgrwt>
<rscale>  0 0.99934759E+03</rscale>
<asrwt>0</asrwt>
<pdfrwt beam="1">  1        1 0.10841448E+00 0.99934759E+03</pdfrwt>
<pdfrwt beam="2">  1       -1 0.54507861E-01 0.99934759E+03</pdfrwt>
<totfact> 0.10540834E+02</totfact>
</mgrwt>
</event>
<event>
 9    1  0.4342579E-036  0.9994995E+03  0.7818608E-02  0.8681515E-01
          2   -1    0    0  501    0  0.00000000000E+00  0.00000000000E+00  0.11498744144E+04  0.11498744144E+04  0.00000000000E+00 0.  1.
         -2   -1    0    0    0  501 -0.00000000000E+00 -0.00000000000E+00 -0.21719745133E+03  0.21719745133E+03  0.00000000000E+00 0.  1.
         36    2    1    2    0    0  0.00000000000E+00  0.00000000000E+00  0.93267696304E+03  0.13670718657E+04  0.99949945903E+03 0.  0.
         25    2    3    3    0    0 -0.10483454430E+03  0.89146999102E+02  0.21463895703E+03  0.28387267736E+03  0.12480523205E+03 0.  0.
         35    2    3    3    0    0  0.10483454430E+03 -0.89146999102E+02  0.71803800600E+03  0.10831991883E+04  0.79925242221E+03 0.  0.
         22    1    5    5    0    0 -0.18324998964E+03 -0.36595670724E+03  0.40336065785E+03  0.57463439732E+03  0.00000000000E+00 0.  1.
         22    1    5    5    0    0  0.28808453395E+03  0.27680970814E+03  0.31467734815E+03  0.50856479102E+03  0.00000000000E+00 0.  1.
          5    1    4    4  502    0  0.15019994080E+02 -0.78871939115E+01  0.70746412863E+02  0.72903724067E+02  0.47000000000E+01 0.  1.
         -5    1    4    4    0  502 -0.11985453838E+03  0.97034193013E+02  0.14389254417E+03  0.21096895329E+03  0.47000000000E+01 0.  1.
<mgrwt>
<rscale>  0 0.99949946E+03</rscale>
<asrwt>0</asrwt>
<pdfrwt beam="1">  1        2 0.17690375E+00 0.99949946E+03</pdfrwt>
<pdfrwt beam="2">  1       -2 0.33414993E-01 0.99949946E+03</pdfrwt>
<totfact> 0.20487644E+02</totfact>
</mgrwt>
</event>
<event>
 9    1  0.4342579E-036  0.1000847E+04  0.7818608E-02  0.8680232E-01
         -2   -1    0    0    0  501 -0.00000000000E+00  0.00000000000E+00  0.54666125068E+02  0.54666125068E+02  0.00000000000E+00 0.  1.
          2   -1    0    0  501    0  0.00000000000E+00 -0.00000000000E+00 -0.45809677443E+04  0.45809677443E+04  0.00000000000E+00 0.  1.
         36    2    1    2    0    0 -0.71054273576E-14 -0.42632564146E-13 -0.45263016192E+04  0.46356338694E+04  0.10008471525E+04 0.  0.
         25    2    3    3    0    0  0.47319496290E+02  0.88714904467E+02 -0.13137862797E+04  0.13234984098E+04  0.12451579404E+03 0.  0.
         35    2    3    3    0    0 -0.47319496290E+02 -0.88714904467E+02 -0.32125153395E+04  0.33121354596E+04  0.79992313813E+03 0.  0.
         22    1    5    5    0    0 -0.22378882853E+01 -0.43853960037E+03 -0.20897696599E+04  0.21352890251E+04  0.00000000000E+00 0. -1.
         22    1    5    5    0    0 -0.45081608005E+02  0.34982469591E+03 -0.11227456796E+04  0.11768464344E+04  0.00000000000E+00 0. -1.
          5    1    4    4  502    0 -0.41766162409E+01  0.25744093405E+02 -0.45933216997E+02  0.53029735924E+02  0.47000000000E+01 0.  1.
         -5    1    4    4    0  502  0.51496112531E+02  0.62970811062E+02 -0.12678530627E+04  0.12704686738E+04  0.47000000000E+01 0.  1.
<mgrwt>
<rscale>  0 0.10008472E+04</rscale>
<asrwt>0</asrwt>
<pdfrwt beam="1">  1        2 0.70476440E+00 0.10008472E+04</pdfrwt>
<pdfrwt beam="2">  1       -2 0.84101715E-02 0.10008472E+04</pdfrwt>
<totfact> 0.82559829E+00</totfact>
</mgrwt>
</event>
<event>
 9    1  0.4342579E-036  0.1000270E+04  0.7818608E-02  0.8680781E-01
          2   -1    0    0  501    0  0.00000000000E+00  0.00000000000E+00  0.26213754355E+04  0.26213754355E+04  0.00000000000E+00 0.  1.
         -2   -1    0    0    0  501 -0.00000000000E+00 -0.00000000000E+00 -0.95421348687E+02  0.95421348687E+02  0.00000000000E+00 0.  1.
         36    2    1    2    0    0  0.28421709430E-13 -0.71054273576E-14  0.25259540868E+04  0.27167967842E+04  0.10002703224E+04 0.  0.
         25    2    3    3    0    0  0.32014598146E+02 -0.16107980726E+02  0.84321516673E+03  0.85322797524E+03  0.12530665899E+03 0.  0.
         35    2    3    3    0    0 -0.32014598146E+02  0.16107980726E+02  0.16827389201E+04  0.18635688090E+04  0.79999626936E+03 0.  0.
         22    1    5    5    0    0  0.22661734118E+03  0.57613407352E+02  0.15543788479E+04  0.15718677829E+04  0.00000000000E+00 0.  1.
         22    1    5    5    0    0 -0.25863193932E+03 -0.41505426626E+02  0.12836007216E+03  0.29170102606E+03  0.00000000000E+00 0.  1.
          5    1    4    4  502    0 -0.26691362479E+02 -0.51854480857E+02  0.47840354173E+03  0.48196820928E+03  0.47000000000E+01 0.  1.
         -5    1    4    4    0  502  0.58705960625E+02  0.35746500131E+02  0.36481162500E+03  0.37125976596E+03  0.47000000000E+01 0.  1.
<mgrwt>
<rscale>  0 0.10002703E+04</rscale>
<asrwt>0</asrwt>
<pdfrwt beam="1">  1        2 0.40328847E+00 0.10002703E+04</pdfrwt>
<pdfrwt beam="2">  1       -2 0.14680209E-01 0.10002703E+04</pdfrwt>
<totfact> 0.12157859E+02</totfact>
</mgrwt>
</event>
<event>
 9    1  0.4342579E-036  0.1000001E+04  0.7818608E-02  0.8681037E-01
          1   -1    0    0  501    0  0.00000000000E+00  0.00000000000E+00  0.10248197006E+04  0.10248197006E+04  0.00000000000E+00 0. -1.
         -1   -1    0    0    0  501 -0.00000000000E+00 -0.00000000000E+00 -0.24394606388E+03  0.24394606388E+03  0.00000000000E+00 0. -1.
         36    2    1    2    0    0  0.00000000000E+00 -0.14210854715E-13  0.78087363677E+03  0.12687657645E+04  0.10000014643E+04 0.  0.
         25    2    3    3    0    0  0.83761520934E+02  0.11373741717E+03  0.14408940133E+03  0.23695564583E+03  0.12423377182E+03 0.  0.
         35    2    3    3    0    0 -0.83761520934E+02 -0.11373741717E+03  0.63678423544E+03  0.10318101187E+04  0.79949094184E+03 0.  0.
         22    1    5    5    0    0  0.33000776132E+03  0.61779677392E+02  0.14539430076E+03  0.36587067901E+03  0.00000000000E+00 0. -1.
         22    1    5    5    0    0 -0.41376928225E+03 -0.17551709456E+03  0.49138993468E+03  0.66593943968E+03  0.00000000000E+00 0. -1.
          5    1    4    4  502    0 -0.30137540443E+02  0.77500027789E+01  0.15631467817E+02  0.35139246906E+02  0.47000000000E+01 0. -1.
         -5    1    4    4    0  502  0.11389906138E+03  0.10598741439E+03  0.12845793351E+03  0.20181639892E+03  0.47000000000E+01 0. -1.
<mgrwt>
<rscale>  0 0.10000015E+04</rscale>
<asrwt>0</asrwt>
<pdfrwt beam="1">  1        1 0.15766457E+00 0.10000015E+04</pdfrwt>
<pdfrwt beam="2">  1       -1 0.37530164E-01 0.10000015E+04</pdfrwt>
<totfact> 0.11061407E+02</totfact>
</mgrwt>
</event>
<event>
 9    1  0.4342579E-036  0.1001691E+04  0.7818608E-02  0.8679429E-01
         -2   -1    0    0    0  501 -0.00000000000E+00  0.00000000000E+00  0.57849856622E+03  0.57849856622E+03  0.00000000000E+00 0. -1.
          2   -1    0    0  501    0  0.00000000000E+00 -0.00000000000E+00 -0.43361580136E+03  0.43361580136E+03  0.00000000000E+00 0. -1.
         36    2    1    2    0    0  0.14210854715E-13  0.28421709430E-13  0.14488276486E+03  0.10121143676E+04  0.10016908093E+04 0.  0.
         25    2    3    3    0    0  0.81875813353E+02 -0.11174233745E+03  0.57945185545E+02  0.19554549840E+03  0.12526132135E+03 0.  0.
         35    2    3    3    0    0 -0.81875813353E+02  0.11174233745E+03  0.86937579316E+02  0.81656886919E+03  0.80002286007E+03 0.  0.
         22    1    5    5    0    0 -0.41313858267E+03  0.60725945254E+02  0.19979015547E+03  0.46291169260E+03  0.00000000000E+00 0. -1.
         22    1    5    5    0    0  0.33126276932E+03  0.51016392191E+02 -0.11285257615E+03  0.35365717659E+03  0.00000000000E+00 0. -1.
          5    1    4    4  502    0  0.26129536747E+02  0.42012768121E+01 -0.29508249710E+02  0.39915288029E+02  0.47000000000E+01 0.  1.
         -5    1    4    4    0  502  0.55746276606E+02 -0.11594361426E+03  0.87453435255E+02  0.15563021037E+03  0.47000000000E+01 0.  1.
<mgrwt>
<rscale>  0 0.10016908E+04</rscale>
<asrwt>0</asrwt>
<pdfrwt beam="1">  1        2 0.66710123E-01 0.10016908E+04</pdfrwt>
<pdfrwt beam="2">  1       -2 0.88999779E-01 0.10016908E+04</pdfrwt>
<totfact> 0.94092829E+01</totfact>
</mgrwt>
</event>
<event>
 9    1  0.4342579E-036  0.1002613E+04  0.7818608E-02  0.8678554E-01
         -2   -1    0    0    0  501 -0.00000000000E+00  0.00000000000E+00  0.11491986662E+03  0.11491986662E+03  0.00000000000E+00 0. -1.
          2   -1    0    0  501    0  0.00000000000E+00 -0.00000000000E+00 -0.21868108856E+04  0.21868108856E+04  0.00000000000E+00 0. -1.
         36    2    1    2    0    0  0.00000000000E+00  0.00000000000E+00 -0.20718910190E+04  0.23017307523E+04  0.10026126177E+04 0.  0.
         25    2    3    3    0    0  0.57315006736E+02 -0.24114034071E+02 -0.98594788299E+02  0.17123533045E+03  0.12543567864E+03 0.  0.
         35    2    3    3    0    0 -0.57315006736E+02  0.24114034071E+02 -0.19732962307E+04  0.21304954218E+04  0.80077851592E+03 0.  0.
         22    1    5    5    0    0  0.36519569493E+03  0.15420907075E+02 -0.11226970921E+04  0.11807008345E+04  0.00000000000E+00 0. -1.
         22    1    5    5    0    0 -0.42251070166E+03  0.86931269962E+01 -0.85059913862E+03  0.94979458731E+03  0.00000000000E+00 0. -1.
          5    1    4    4  502    0  0.73726495884E+02  0.30123765964E+02 -0.38782689601E+02  0.88708649430E+02  0.47000000000E+01 0.  1.
         -5    1    4    4    0  502 -0.16411489147E+02 -0.54237800035E+02 -0.59812098698E+02  0.82526681015E+02  0.47000000000E+01 0.  1.
<mgrwt>
<rscale>  0 0.10026126E+04</rscale>
<asrwt>0</asrwt>
<pdfrwt beam="1">  1        2 0.33643244E+00 0.10026126E+04</pdfrwt>
<pdfrwt beam="2">  1       -2 0.17679980E-01 0.10026126E+04</pdfrwt>
<totfact> 0.16180677E+02</totfact>
</mgrwt>
</event>
<event>
 9    1  0.4342579E-036  0.1000735E+04  0.7818608E-02  0.8680338E-01
         -1   -1    0    0    0  501 -0.00000000000E+00  0.00000000000E+00  0.16323671123E+03  0.16323671123E+03  0.00000000000E+00 0.  1.
          1   -1    0    0  501    0  0.00000000000E+00 -0.00000000000E+00 -0.15337717002E+04  0.15337717002E+04  0.00000000000E+00 0.  1.
         36    2    1    2    0    0  0.00000000000E+00  0.00000000000E+00 -0.13705349890E+04  0.16970084115E+04  0.10007354258E+04 0.  0.
         25    2    3    3    0    0  0.76501559349E+02  0.11252459085E+03 -0.17369463213E+03  0.25395067088E+03  0.12572527941E+03 0.  0.
         35    2    3    3    0    0 -0.76501559349E+02 -0.11252459085E+03 -0.11968403569E+04  0.14430577406E+04  0.79465371746E+03 0.  0.
         22    1    5    5    0    0  0.22393416932E+03 -0.23458532934E+02 -0.10884298090E+04  0.11114748149E+04  0.00000000000E+00 0. -1.
         22    1    5    5    0    0 -0.30043572867E+03 -0.89066057913E+02 -0.10841054786E+03  0.33158292571E+03  0.00000000000E+00 0. -1.
          5    1    4    4  502    0  0.11915633396E+02  0.10840862906E+03 -0.64110008015E+02  0.12659619387E+03  0.47000000000E+01 0. -1.
         -5    1    4    4    0  502  0.64585925953E+02  0.41159617830E+01 -0.10958462412E+03  0.12735447701E+03  0.47000000000E+01 0. -1.
<mgrwt>
<rscale>  0 0.10007354E+04</rscale>
<asrwt>0</asrwt>
<pdfrwt beam="1">  1        1 0.23596487E+00 0.10007354E+04</pdfrwt>
<pdfrwt beam="2">  1       -1 0.25113341E-01 0.10007354E+04</pdfrwt>
<totfact> 0.92798930E+01</totfact>
</mgrwt>
</event>
<event>
 9    1  0.4342579E-036  0.9998751E+03  0.7818608E-02  0.8681157E-01
         -1   -1    0    0    0  501 -0.00000000000E+00  0.00000000000E+00  0.15299017971E+03  0.15299017971E+03  0.00000000000E+00 0.  1.
          1   -1    0    0  501    0  0.00000000000E+00 -0.00000000000E+00 -0.16336837316E+04  0.16336837316E+04  0.00000000000E+00 0.  1.
         36    2    1    2    0    0 -0.28421709430E-13  0.00000000000E+00 -0.14806935519E+04  0.17866739113E+04  0.99987512757E+03 0.  0.
         25    2    3    3    0    0 -0.10306712787E+03  0.68119152444E+02 -0.39524041367E+03  0.43255297965E+03  0.12499617525E+03 0.  0.
         35    2    3    3    0    0  0.10306712787E+03 -0.68119152444E+02 -0.10854531382E+04  0.13541209317E+04  0.80010744935E+03 0.  0.
         22    1    5    5    0    0  0.43004696727E+03 -0.10637235811E+03 -0.41417464812E+03  0.60646196235E+03  0.00000000000E+00 0. -1.
         22    1    5    5    0    0 -0.32697983940E+03  0.38253205665E+02 -0.67127849012E+03  0.74765896933E+03  0.00000000000E+00 0. -1.
          5    1    4    4  502    0 -0.13043366394E+03  0.68837699411E+02 -0.32116780442E+03  0.35344365625E+03  0.47000000000E+01 0.  1.
         -5    1    4    4    0  502  0.27366536077E+02 -0.71854696683E+00 -0.74072609255E+02  0.79109323398E+02  0.47000000000E+01 0.  1.
<mgrwt>
<rscale>  0 0.99987513E+03</rscale>
<asrwt>0</asrwt>
<pdfrwt beam="1">  1        1 0.25133596E+00 0.99987513E+03</pdfrwt>
<pdfrwt beam="2">  1       -1 0.23536951E-01 0.99987513E+03</pdfrwt>
<totfact> 0.87897177E+01</totfact>
</mgrwt>
</event>
<event>
 9    1  0.4342579E-036  0.9997929E+03  0.7818608E-02  0.8681235E-01
         -1   -1    0    0    0  501 -0.00000000000E+00  0.00000000000E+00  0.41545477499E+03  0.41545477499E+03  0.00000000000E+00 0.  1.
          1   -1    0    0  501    0  0.00000000000E+00 -0.00000000000E+00 -0.60150097892E+03  0.60150097892E+03  0.00000000000E+00 0.  1.
         36    2    1    2    0    0 -0.42632564146E-13  0.28421709430E-13 -0.18604620393E+03  0.10169557539E+04  0.99979288626E+03 0.  0.
         25    2    3    3    0    0  0.10417065291E+03 -0.87641464564E+02 -0.66677750284E+02  0.19653493415E+03  0.12508999448E+03 0.  0.
         35    2    3    3    0    0 -0.10417065291E+03  0.87641464564E+02 -0.11936845364E+03  0.82042081976E+03  0.80019306579E+03 0.  0.
         22    1    5    5    0    0 -0.36948448762E+03 -0.45841029540E+02 -0.29531439482E+03  0.47521655945E+03  0.00000000000E+00 0. -1.
         22    1    5    5    0    0  0.26531383471E+03  0.13348249410E+03  0.17594594118E+03  0.34520426031E+03  0.00000000000E+00 0. -1.
          5    1    4    4  502    0  0.26631617392E+02 -0.23707591769E+02 -0.86781361982E+02  0.93938212352E+02  0.47000000000E+01 0.  1.
         -5    1    4    4    0  502  0.77539035520E+02 -0.63933872795E+02  0.20103611698E+02  0.10259672180E+03  0.47000000000E+01 0.  1.
<mgrwt>
<rscale>  0 0.99979289E+03</rscale>
<asrwt>0</asrwt>
<pdfrwt beam="1">  1        1 0.92538612E-01 0.99979289E+03</pdfrwt>
<pdfrwt beam="2">  1       -1 0.63916120E-01 0.99979289E+03</pdfrwt>
<totfact> 0.98569054E+01</totfact>
</mgrwt>
</event>
<event>
 9    1  0.4342579E-036  0.9995362E+03  0.7818608E-02  0.8681480E-01
          3   -1    0    0  501    0  0.00000000000E+00  0.00000000000E+00  0.23096698655E+04  0.23096698655E+04  0.00000000000E+00 0. -1.
         -3   -1    0    0    0  501 -0.00000000000E+00 -0.00000000000E+00 -0.10814018779E+03  0.10814018779E+03  0.00000000000E+00 0. -1.
         36    2    1    2    0    0 -0.14210854715E-13  0.00000000000E+00  0.22015296777E+04  0.24178100533E+04  0.99953615841E+03 0.  0.
         25    2    3    3    0    0  0.20675834878E+02 -0.13846873153E+03  0.36464522686E+03  0.40997089700E+03  0.12453479496E+03 0.  0.
         35    2    3    3    0    0 -0.20675834878E+02  0.13846873153E+03  0.18368844509E+04  0.20078391563E+04  0.79854399503E+03 0.  0.
         22    1    5    5    0    0 -0.18756736614E+03 -0.27205861405E+03  0.10939911193E+04  0.11428096847E+04  0.00000000000E+00 0. -1.
         22    1    5    5    0    0  0.16689153126E+03  0.41052734558E+03  0.74289333156E+03  0.86502947161E+03  0.00000000000E+00 0. -1.
          5    1    4    4  502    0  0.68891560184E+02 -0.46375147676E+02  0.16987576674E+03  0.18914694688E+03  0.47000000000E+01 0.  1.
         -5    1    4    4    0  502 -0.48215725306E+02 -0.92093583859E+02  0.19476946012E+03  0.22082395013E+03  0.47000000000E+01 0.  1.
<mgrwt>
<rscale>  0 0.99953616E+03</rscale>
<asrwt>0</asrwt>
<pdfrwt beam="1">  1        3 0.35533379E+00 0.99953616E+03</pdfrwt>
<pdfrwt beam="2">  1       -3 0.16636954E-01 0.99953616E+03</pdfrwt>
<totfact> 0.36242717E+00</totfact>
</mgrwt>
</event>
<event>
 9    1  0.4342579E-036  0.1000093E+04  0.7818608E-02  0.8680950E-01
         -2   -1    0    0    0  501 -0.00000000000E+00  0.00000000000E+00  0.39704460706E+03  0.39704460706E+03  0.00000000000E+00 0. -1.
          2   -1    0    0  501    0  0.00000000000E+00 -0.00000000000E+00 -0.62976871249E+03  0.62976871249E+03  0.00000000000E+00 0. -1.
         36    2    1    2    0    0 -0.28421709430E-13 -0.14210854715E-13 -0.23272410544E+03  0.10268133196E+04  0.10000925377E+04 0.  0.
         25    2    3    3    0    0  0.13057535686E+03  0.32723648454E+02 -0.78009903634E+01  0.18440840132E+03  0.12579682842E+03 0.  0.
         35    2    3    3    0    0 -0.13057535686E+03 -0.32723648454E+02 -0.22492311507E+03  0.84240491823E+03  0.80058408526E+03 0.  0.
         22    1    5    5    0    0  0.15917250196E+03 -0.24001604032E+03  0.15041137869E+03  0.32491101525E+03  0.00000000000E+00 0.  1.
         22    1    5    5    0    0 -0.28974785882E+03  0.20729239186E+03 -0.37533449376E+03  0.51749390298E+03  0.00000000000E+00 0.  1.
          5    1    4    4  502    0  0.13729005084E+03  0.18079268476E+02 -0.43282619350E+02  0.14515816596E+03  0.47000000000E+01 0. -1.
         -5    1    4    4    0  502 -0.67146939819E+01  0.14644379978E+02  0.35481628987E+02  0.39250235359E+02  0.47000000000E+01 0. -1.
<mgrwt>
<rscale>  0 0.10000925E+04</rscale>
<asrwt>0</asrwt>
<pdfrwt beam="1">  1        2 0.96887494E-01 0.10000925E+04</pdfrwt>
<pdfrwt beam="2">  1       -2 0.61083786E-01 0.10000925E+04</pdfrwt>
<totfact> 0.14104516E+02</totfact>
</mgrwt>
</event>
<event>
 9    1  0.4342579E-036  0.9981659E+03  0.7818608E-02  0.8682787E-01
          1   -1    0    0  501    0  0.00000000000E+00  0.00000000000E+00  0.66051259807E+03  0.66051259807E+03  0.00000000000E+00 0. -1.
         -1   -1    0    0    0  501 -0.00000000000E+00 -0.00000000000E+00 -0.37710679721E+03  0.37710679721E+03  0.00000000000E+00 0. -1.
         36    2    1    2    0    0 -0.14210854715E-13  0.00000000000E+00  0.28340580085E+03  0.10376193953E+04  0.99816589879E+03 0.  0.
         25    2    3    3    0    0  0.10536153506E+03  0.89216497870E+02  0.40056672939E+02  0.19027413110E+03  0.12465581157E+03 0.  0.
         35    2    3    3    0    0 -0.10536153506E+03 -0.89216497870E+02  0.24334912791E+03  0.84734526418E+03  0.79982158142E+03 0.  0.
         22    1    5    5    0    0  0.30885543516E+03 -0.12500885506E+03 -0.52175654192E+02  0.33725538181E+03  0.00000000000E+00 0.  1.
         22    1    5    5    0    0 -0.41421697022E+03  0.35792357186E+02  0.29552478211E+03  0.51008988237E+03  0.00000000000E+00 0.  1.
          5    1    4    4  502    0  0.48925907558E+02  0.66660837751E+02 -0.38092754233E+02  0.91162270953E+02  0.47000000000E+01 0. -1.
         -5    1    4    4    0  502  0.56435627505E+02  0.22555660118E+02  0.78149427172E+02  0.99111860151E+02  0.47000000000E+01 0. -1.
<mgrwt>
<rscale>  0 0.99816590E+03</rscale>
<asrwt>0</asrwt>
<pdfrwt beam="1">  1        1 0.10161732E+00 0.99816590E+03</pdfrwt>
<pdfrwt beam="2">  1       -1 0.58016430E-01 0.99816590E+03</pdfrwt>
<totfact> 0.10337612E+02</totfact>
</mgrwt>
</event>
<event>
 9    1  0.4342579E-036  0.1000137E+04  0.7818608E-02  0.8680907E-01
         -1   -1    0    0    0  501 -0.00000000000E+00  0.00000000000E+00  0.63591294360E+03  0.63591294360E+03  0.00000000000E+00 0. -1.
          1   -1    0    0  501    0  0.00000000000E+00 -0.00000000000E+00 -0.39324337437E+03  0.39324337437E+03  0.00000000000E+00 0. -1.
         36    2    1    2    0    0  0.00000000000E+00 -0.71054273576E-14  0.24266956923E+03  0.10291563180E+04  0.10001370941E+04 0.  0.
         25    2    3    3    0    0  0.10531587969E+03  0.19033195600E+02 -0.47499828193E+02  0.17320938592E+03  0.12763839800E+03 0.  0.
         35    2    3    3    0    0 -0.10531587969E+03 -0.19033195600E+02  0.29016939742E+03  0.85594693206E+03  0.79811852143E+03 0.  0.
         22    1    5    5    0    0 -0.44766701488E+03  0.53768927180E+02  0.11898048405E+03  0.46631878509E+03  0.00000000000E+00 0. -1.
         22    1    5    5    0    0  0.34235113519E+03 -0.72802122779E+02  0.17118891337E+03  0.38962814697E+03  0.00000000000E+00 0. -1.
          5    1    4    4  502    0  0.12762946167E+03 -0.25478161932E+01 -0.16007607858E+02  0.12874045348E+03  0.47000000000E+01 0.  1.
         -5    1    4    4    0  502 -0.22313581979E+02  0.21581011793E+02 -0.31492220335E+02  0.44468932440E+02  0.47000000000E+01 0.  1.
<mgrwt>
<rscale>  0 0.10001371E+04</rscale>
<asrwt>0</asrwt>
<pdfrwt beam="1">  1        1 0.60498981E-01 0.10001371E+04</pdfrwt>
<pdfrwt beam="2">  1       -1 0.97832760E-01 0.10001371E+04</pdfrwt>
<totfact> 0.73589528E+01</totfact>
</mgrwt>
</event>
<event>
 9    1  0.4342579E-036  0.1000194E+04  0.7818608E-02  0.8680853E-01
         -2   -1    0    0    0  501 -0.00000000000E+00  0.00000000000E+00  0.18031115406E+03  0.18031115406E+03  0.00000000000E+00 0. -1.
          2   -1    0    0  501    0  0.00000000000E+00 -0.00000000000E+00 -0.13870304973E+04  0.13870304973E+04  0.00000000000E+00 0. -1.
         36    2    1    2    0    0 -0.14210854715E-13  0.00000000000E+00 -0.12067193432E+04  0.15673416514E+04  0.10001941205E+04 0.  0.
         25    2    3    3    0    0 -0.54423792599E+01 -0.50664540368E+02 -0.43096808282E+03  0.45154687165E+03  0.12475806086E+03 0.  0.
         35    2    3    3    0    0  0.54423792599E+01  0.50664540368E+02 -0.77575126043E+03  0.11157947797E+04  0.80038206954E+03 0.  0.
         22    1    5    5    0    0  0.36089171872E+03  0.90876347368E+02 -0.62542346301E+03  0.72777458820E+03  0.00000000000E+00 0.  1.
         22    1    5    5    0    0 -0.35544933946E+03 -0.40211807001E+02 -0.15032779742E+03  0.38802019151E+03  0.00000000000E+00 0.  1.
          5    1    4    4  502    0 -0.18477500773E+02 -0.62167068012E+02 -0.95151831962E+02  0.11524809545E+03  0.47000000000E+01 0.  1.
         -5    1    4    4    0  502  0.13035121513E+02  0.11502527645E+02 -0.33581625085E+03  0.33629877620E+03  0.47000000000E+01 0.  1.
<mgrwt>
<rscale>  0 0.10001941E+04</rscale>
<asrwt>0</asrwt>
<pdfrwt beam="1">  1        2 0.21338931E+00 0.10001941E+04</pdfrwt>
<pdfrwt beam="2">  1       -2 0.27740177E-01 0.10001941E+04</pdfrwt>
<totfact> 0.20926152E+02</totfact>
</mgrwt>
</event>
<event>
 9    1  0.4342579E-036  0.1000696E+04  0.7818608E-02  0.8680376E-01
         -2   -1    0    0    0  501 -0.00000000000E+00  0.00000000000E+00  0.17697706730E+03  0.17697706730E+03  0.00000000000E+00 0.  1.
          2   -1    0    0  501    0  0.00000000000E+00 -0.00000000000E+00 -0.14145791958E+04  0.14145791958E+04  0.00000000000E+00 0.  1.
         36    2    1    2    0    0 -0.14210854715E-13  0.14210854715E-13 -0.12376021285E+04  0.15915562631E+04  0.10006959129E+04 0.  0.
         25    2    3    3    0    0 -0.12309959630E+03  0.56525469938E+02 -0.17764283242E+03  0.25625053718E+03  0.12553375058E+03 0.  0.
         35    2    3    3    0    0  0.12309959630E+03 -0.56525469938E+02 -0.10599592960E+04  0.13353057259E+04  0.80073655653E+03 0.  0.
         22    1    5    5    0    0  0.52636832048E+02 -0.30858960674E+03 -0.82954179613E+02  0.32385116550E+03  0.00000000000E+00 0.  1.
         22    1    5    5    0    0  0.70462764251E+02  0.25206413681E+03 -0.97700511642E+03  0.10114545604E+04  0.00000000000E+00 0.  1.
          5    1    4    4  502    0 -0.65514688624E+02 -0.15940534463E+02 -0.15275357461E+02  0.69294311528E+02  0.47000000000E+01 0. -1.
         -5    1    4    4    0  502 -0.57584907674E+02  0.72466004401E+02 -0.16236747496E+03  0.18695622565E+03  0.47000000000E+01 0. -1.
<mgrwt>
<rscale>  0 0.10006959E+04</rscale>
<asrwt>0</asrwt>
<pdfrwt beam="1">  1        2 0.21762756E+00 0.10006959E+04</pdfrwt>
<pdfrwt beam="2">  1       -2 0.27227242E-01 0.10006959E+04</pdfrwt>
<totfact> 0.20870072E+02</totfact>
</mgrwt>
</event>
<event>
 9    1  0.4342579E-036  0.9998130E+03  0.7818608E-02  0.8681216E-01
         -1   -1    0    0    0  501 -0.00000000000E+00  0.00000000000E+00  0.42896668704E+03  0.42896668704E+03  0.00000000000E+00 0.  1.
          1   -1    0    0  501    0  0.00000000000E+00 -0.00000000000E+00 -0.58257788350E+03  0.58257788350E+03  0.00000000000E+00 0.  1.
         36    2    1    2    0    0  0.00000000000E+00  0.28421709430E-13 -0.15361119646E+03  0.10115445705E+04  0.99981299177E+03 0.  0.
         25    2    3    3    0    0 -0.37562627863E+02  0.11127916950E+03  0.53340268656E+02  0.17723279417E+03  0.12154124605E+03 0.  0.
         35    2    3    3    0    0  0.37562627863E+02 -0.11127916950E+03 -0.20695146511E+03  0.83431177637E+03  0.79965819367E+03 0.  0.
         22    1    5    5    0    0 -0.82022199031E+02 -0.44360747359E+03 -0.15669312224E+03  0.47756462004E+03  0.00000000000E+00 0.  1.
         22    1    5    5    0    0  0.11958482689E+03  0.33232830408E+03 -0.50258342870E+02  0.35674715633E+03  0.00000000000E+00 0.  1.
          5    1    4    4  502    0 -0.46828837045E+02  0.53059116428E+02 -0.28351272581E+02  0.76381244243E+02  0.47000000000E+01 0. -1.
         -5    1    4    4    0  502  0.92662091820E+01  0.58220053076E+02  0.81691541237E+02  0.10085154993E+03  0.47000000000E+01 0. -1.
<mgrwt>
<rscale>  0 0.99981299E+03</rscale>
<asrwt>0</asrwt>
<pdfrwt beam="1">  1        1 0.89627366E-01 0.99981299E+03</pdfrwt>
<pdfrwt beam="2">  1       -1 0.65994876E-01 0.99981299E+03</pdfrwt>
<totfact> 0.97015289E+01</totfact>
</mgrwt>
</event>
<event>
 9    1  0.4342579E-036  0.9892513E+03  0.7818608E-02  0.8691342E-01
         -1   -1    0    0    0  501 -0.00000000000E+00  0.00000000000E+00  0.19848878689E+03  0.19848878689E+03  0.00000000000E+00 0. -1.
          1   -1    0    0  501    0  0.00000000000E+00 -0.00000000000E+00 -0.12325861477E+04  0.12325861477E+04  0.00000000000E+00 0. -1.
         36    2    1    2    0    0 -0.14210854715E-13  0.14210854715E-13 -0.10340973608E+04  0.14310749346E+04  0.98925129102E+03 0.  0.
         25    2    3    3    0    0  0.74958550650E+02 -0.71583483443E+02 -0.28205390120E+03  0.32539493809E+03  0.12483782734E+03 0.  0.
         35    2    3    3    0    0 -0.74958550650E+02  0.71583483443E+02 -0.75204345961E+03  0.11056799965E+04  0.80387555636E+03 0.  0.
         22    1    5    5    0    0 -0.28388366064E+03  0.21715008878E+03 -0.77153421618E+03  0.85029944171E+03  0.00000000000E+00 0.  1.
         22    1    5    5    0    0  0.20892510999E+03 -0.14556660534E+03  0.19490756567E+02  0.25538055480E+03  0.00000000000E+00 0.  1.
          5    1    4    4  502    0 -0.19199665476E+02  0.39396654829E+01 -0.12825890268E+03  0.12983290891E+03  0.47000000000E+01 0. -1.
         -5    1    4    4    0  502  0.94158216126E+02 -0.75523148926E+02 -0.15379499852E+03  0.19556202918E+03  0.47000000000E+01 0. -1.
<mgrwt>
<rscale>  0 0.98925129E+03</rscale>
<asrwt>0</asrwt>
<pdfrwt beam="1">  1        1 0.18962864E+00 0.98925129E+03</pdfrwt>
<pdfrwt beam="2">  1       -1 0.30536736E-01 0.98925129E+03</pdfrwt>
<totfact> 0.11002535E+02</totfact>
</mgrwt>
</event>
<event>
 9    1  0.4342579E-036  0.1000597E+04  0.7818608E-02  0.8680469E-01
         -2   -1    0    0    0  501 -0.00000000000E+00  0.00000000000E+00  0.14371146880E+04  0.14371146880E+04  0.00000000000E+00 0. -1.
          2   -1    0    0  501    0  0.00000000000E+00 -0.00000000000E+00 -0.17416755152E+03  0.17416755152E+03  0.00000000000E+00 0. -1.
         36    2    1    2    0    0  0.14210854715E-13 -0.28421709430E-13  0.12629471365E+04  0.16112822396E+04  0.10005973146E+04 0.  0.
         25    2    3    3    0    0  0.49775404972E+02  0.12471181472E+03  0.34088233563E+03  0.38410616221E+03  0.11535228404E+03 0.  0.
         35    2    3    3    0    0 -0.49775404972E+02 -0.12471181472E+03  0.92206480090E+03  0.12271760774E+04  0.79857811147E+03 0.  0.
         22    1    5    5    0    0 -0.23074657246E+03  0.14022829844E+03  0.85867146739E+03  0.90012479429E+03  0.00000000000E+00 0.  1.
         22    1    5    5    0    0  0.18097116749E+03 -0.26494011316E+03  0.63393333509E+02  0.32705128307E+03  0.00000000000E+00 0.  1.
          5    1    4    4  502    0 -0.14444503183E+02  0.29304775088E+02  0.19749685062E+03  0.20023613440E+03  0.47000000000E+01 0.  1.
         -5    1    4    4    0  502  0.64219908155E+02  0.95407039635E+02  0.14338548501E+03  0.18387002781E+03  0.47000000000E+01 0.  1.
<mgrwt>
<rscale>  0 0.10005973E+04</rscale>
<asrwt>0</asrwt>
<pdfrwt beam="1">  1        2 0.26795009E-01 0.10005973E+04</pdfrwt>
<pdfrwt beam="2">  1       -2 0.22109456E+00 0.10005973E+04</pdfrwt>
<totfact> 0.21243566E+01</totfact>
</mgrwt>
</event>
<event>
 9    1  0.4342579E-036  0.1000227E+04  0.7818608E-02  0.8680822E-01
         -1   -1    0    0    0  501 -0.00000000000E+00  0.00000000000E+00  0.19924567565E+03  0.19924567565E+03  0.00000000000E+00 0. -1.
          1   -1    0    0  501    0  0.00000000000E+00 -0.00000000000E+00 -0.12553023067E+04  0.12553023067E+04  0.00000000000E+00 0. -1.
         36    2    1    2    0    0  0.00000000000E+00  0.14210854715E-13 -0.10560566311E+04  0.14545479824E+04  0.10002270867E+04 0.  0.
         25    2    3    3    0    0  0.12641901739E+03  0.51943680390E+02 -0.25054177424E+03  0.31115829604E+03  0.12396931341E+03 0.  0.
         35    2    3    3    0    0 -0.12641901739E+03 -0.51943680390E+02 -0.80551485684E+03  0.11433896863E+04  0.79987866350E+03 0.  0.
         22    1    5    5    0    0  0.26159365465E+03  0.75889982249E+02 -0.39476896306E+02  0.27522528027E+03  0.00000000000E+00 0.  1.
         22    1    5    5    0    0 -0.38801267204E+03 -0.12783366264E+03 -0.76603796054E+03  0.86816440606E+03  0.00000000000E+00 0.  1.
          5    1    4    4  502    0  0.55518246557E+02  0.78733852313E+02 -0.83152187893E+02  0.12734862211E+03  0.47000000000E+01 0. -1.
         -5    1    4    4    0  502  0.70900770837E+02 -0.26790171923E+02 -0.16738958634E+03  0.18380967394E+03  0.47000000000E+01 0. -1.
<mgrwt>
<rscale>  0 0.10002271E+04</rscale>
<asrwt>0</asrwt>
<pdfrwt beam="1">  1        1 0.19312343E+00 0.10002271E+04</pdfrwt>
<pdfrwt beam="2">  1       -1 0.30653181E-01 0.10002271E+04</pdfrwt>
<totfact> 0.10506769E+02</totfact>
</mgrwt>
</event>
<event>
 9    1  0.4342579E-036  0.9996211E+03  0.7818608E-02  0.8681399E-01
          2   -1    0    0  501    0  0.00000000000E+00  0.00000000000E+00  0.21093866050E+04  0.21093866050E+04  0.00000000000E+00 0.  1.
         -2   -1    0    0    0  501 -0.00000000000E+00 -0.00000000000E+00 -0.11842805934E+03  0.11842805934E+03  0.00000000000E+00 0.  1.
         36    2    1    2    0    0  0.28421709430E-13  0.00000000000E+00  0.19909585456E+04  0.22278146643E+04  0.99962105225E+03 0.  0.
         25    2    3    3    0    0  0.13974414164E+03 -0.19705051608E+02  0.38063676047E+03  0.42470761601E+03  0.12480184894E+03 0.  0.
         35    2    3    3    0    0 -0.13974414164E+03  0.19705051608E+02  0.16103217851E+04  0.18031070483E+04  0.79883794455E+03 0.  0.
         22    1    5    5    0    0  0.75540021398E+02  0.21996676269E+03  0.14493651471E+04  0.14679070138E+04  0.00000000000E+00 0.  1.
         22    1    5    5    0    0 -0.21528416304E+03 -0.20026171108E+03  0.16095663803E+03  0.33520003447E+03  0.00000000000E+00 0.  1.
          5    1    4    4  502    0  0.12930487231E+03 -0.59915761157E+02  0.25321416822E+03  0.29060136515E+03  0.47000000000E+01 0. -1.
         -5    1    4    4    0  502  0.10439269336E+02  0.40210709549E+02  0.12742259225E+03  0.13410625087E+03  0.47000000000E+01 0. -1.
<mgrwt>
<rscale>  0 0.99962105E+03</rscale>
<asrwt>0</asrwt>
<pdfrwt beam="1">  1        2 0.32452099E+00 0.99962105E+03</pdfrwt>
<pdfrwt beam="2">  1       -2 0.18219703E-01 0.99962105E+03</pdfrwt>
<totfact> 0.17039101E+02</totfact>
</mgrwt>
</event>
<event>
 9    1  0.4342579E-036  0.9999333E+03  0.7818608E-02  0.8681101E-01
         -1   -1    0    0    0  501 -0.00000000000E+00  0.00000000000E+00  0.29017375544E+03  0.29017375544E+03  0.00000000000E+00 0.  1.
          1   -1    0    0  501    0  0.00000000000E+00 -0.00000000000E+00 -0.86143778431E+03  0.86143778431E+03  0.00000000000E+00 0.  1.
         36    2    1    2    0    0  0.14210854715E-13  0.00000000000E+00 -0.57126402886E+03  0.11516115397E+04  0.99993327168E+03 0.  0.
         25    2    3    3    0    0  0.44554965408E+02 -0.36094285899E+02 -0.25160822344E+03  0.28684227160E+03  0.12523517179E+03 0.  0.
         35    2    3    3    0    0 -0.44554965408E+02  0.36094285899E+02 -0.31965580542E+03  0.86476926815E+03  0.80147246414E+03 0.  0.
         22    1    5    5    0    0  0.13134193033E+03 -0.40989432655E+02 -0.54880300409E+03  0.56578756928E+03  0.00000000000E+00 0. -1.
         22    1    5    5    0    0 -0.17589689574E+03  0.77083718553E+02  0.22914719867E+03  0.29898169887E+03  0.00000000000E+00 0. -1.
          5    1    4    4  502    0  0.17340906300E+01 -0.77443363691E+02 -0.13098232466E+03  0.15224631695E+03  0.47000000000E+01 0. -1.
         -5    1    4    4    0  502  0.42820874778E+02  0.41349077792E+02 -0.12062589878E+03  0.13459595465E+03  0.47000000000E+01 0. -1.
<mgrwt>
<rscale>  0 0.99993327E+03</rscale>
<asrwt>0</asrwt>
<pdfrwt beam="1">  1        1 0.13252889E+00 0.99993327E+03</pdfrwt>
<pdfrwt beam="2">  1       -1 0.44642117E-01 0.99993327E+03</pdfrwt>
<totfact> 0.11026435E+02</totfact>
</mgrwt>
</event>
<event>
 9    1  0.4342579E-036  0.9995516E+03  0.7818608E-02  0.8681465E-01
         -2   -1    0    0    0  501 -0.00000000000E+00  0.00000000000E+00  0.16737693635E+03  0.16737693635E+03  0.00000000000E+00 0. -1.
          2   -1    0    0  501    0  0.00000000000E+00 -0.00000000000E+00 -0.14922956205E+04  0.14922956205E+04  0.00000000000E+00 0. -1.
         36    2    1    2    0    0 -0.28421709430E-13 -0.35527136788E-14 -0.13249186842E+04  0.16596725569E+04  0.99955163766E+03 0.  0.
         25    2    3    3    0    0  0.13949667465E+03  0.11700407379E+01 -0.22158643753E+03  0.28960342169E+03  0.12372914502E+03 0.  0.
         35    2    3    3    0    0 -0.13949667465E+03 -0.11700407379E+01 -0.11033322466E+04  0.13700691352E+04  0.80017916583E+03 0.  0.
         22    1    5    5    0    0 -0.74012686832E+01  0.21460437137E+02 -0.12028979052E+04  0.12031120893E+04  0.00000000000E+00 0.  1.
         22    1    5    5    0    0 -0.13209540597E+03 -0.22630477875E+02  0.99565658533E+02  0.16695704587E+03  0.00000000000E+00 0.  1.
          5    1    4    4  502    0  0.33587177673E+02 -0.35023894140E+02 -0.14737550240E+03  0.15523015291E+03  0.47000000000E+01 0. -1.
         -5    1    4    4    0  502  0.10590949698E+03  0.36193934878E+02 -0.74210935130E+02  0.13437326879E+03  0.47000000000E+01 0. -1.
<mgrwt>
<rscale>  0 0.99955164E+03</rscale>
<asrwt>0</asrwt>
<pdfrwt beam="1">  1        2 0.22958395E+00 0.99955164E+03</pdfrwt>
<pdfrwt beam="2">  1       -2 0.25750297E-01 0.99955164E+03</pdfrwt>
<totfact> 0.20829381E+02</totfact>
</mgrwt>
</event>
<event>
 9    1  0.4342579E-036  0.9986575E+03  0.7818608E-02  0.8682317E-01
          2   -1    0    0  501    0  0.00000000000E+00  0.00000000000E+00  0.16812665583E+04  0.16812665583E+04  0.00000000000E+00 0. -1.
         -2   -1    0    0    0  501 -0.00000000000E+00 -0.00000000000E+00 -0.14829843146E+03  0.14829843146E+03  0.00000000000E+00 0. -1.
         36    2    1    2    0    0 -0.71054273576E-14  0.14210854715E-13  0.15329681268E+04  0.18295649897E+04  0.99865748576E+03 0.  0.
         25    2    3    3    0    0  0.19202984982E+02 -0.12442897705E+03  0.17768245943E+03  0.25051151954E+03  0.12382907604E+03 0.  0.
         35    2    3    3    0    0 -0.19202984982E+02  0.12442897705E+03  0.13552856674E+04  0.15790534702E+04  0.80047441969E+03 0.  0.
         22    1    5    5    0    0 -0.36100900002E+03  0.25581278382E+03  0.69083194271E+03  0.82037579896E+03  0.00000000000E+00 0.  1.
         22    1    5    5    0    0  0.34180601504E+03 -0.13138380677E+03  0.66445372467E+03  0.75867767124E+03  0.00000000000E+00 0.  1.
          5    1    4    4  502    0 -0.37266754243E+02  0.16007844434E+01  0.48344494299E+02  0.61242580054E+02  0.47000000000E+01 0.  1.
         -5    1    4    4    0  502  0.56469739225E+02 -0.12602976149E+03  0.12933796513E+03  0.18926893949E+03  0.47000000000E+01 0.  1.
<mgrwt>
<rscale>  0 0.99865749E+03</rscale>
<asrwt>0</asrwt>
<pdfrwt beam="1">  1        2 0.25865638E+00 0.99865749E+03</pdfrwt>
<pdfrwt beam="2">  1       -2 0.22815145E-01 0.99865749E+03</pdfrwt>
<totfact> 0.20179972E+02</totfact>
</mgrwt>
</event>
<event>
 9    1  0.4342579E-036  0.9995019E+03  0.7818608E-02  0.8681512E-01
         -2   -1    0    0    0  501 -0.00000000000E+00  0.00000000000E+00  0.26153646999E+03  0.26153646999E+03  0.00000000000E+00 0.  1.
          2   -1    0    0  501    0  0.00000000000E+00 -0.00000000000E+00 -0.95493760855E+03  0.95493760855E+03  0.00000000000E+00 0.  1.
         36    2    1    2    0    0  0.28421709430E-13  0.14210854715E-13 -0.69340113856E+03  0.12164740785E+04  0.99950189834E+03 0.  0.
         25    2    3    3    0    0  0.11484660340E+03 -0.33952253992E+02 -0.21906054918E+03  0.27956525943E+03  0.12580426150E+03 0.  0.
         35    2    3    3    0    0 -0.11484660340E+03  0.33952253992E+02 -0.47434058938E+03  0.93690881910E+03  0.79903481946E+03 0.  0.
         22    1    5    5    0    0  0.12785698817E+02  0.37786534754E+03 -0.42161199616E+03  0.56630589814E+03  0.00000000000E+00 0. -1.
         22    1    5    5    0    0 -0.12763230221E+03 -0.34391309355E+03 -0.52728593225E+02  0.37060292096E+03  0.00000000000E+00 0. -1.
          5    1    4    4  502    0  0.63945075657E+02 -0.81453964028E+02 -0.13820705283E+03  0.17276284441E+03  0.47000000000E+01 0.  1.
         -5    1    4    4    0  502  0.50901527739E+02  0.47501710036E+02 -0.80853496352E+02  0.10680241502E+03  0.47000000000E+01 0.  1.
<mgrwt>
<rscale>  0 0.99950190E+03</rscale>
<asrwt>0</asrwt>
<pdfrwt beam="1">  1        2 0.14691348E+00 0.99950190E+03</pdfrwt>
<pdfrwt beam="2">  1       -2 0.40236380E-01 0.99950190E+03</pdfrwt>
<totfact> 0.19049683E+02</totfact>
</mgrwt>
</event>
<event>
 9    1  0.4342579E-036  0.1001026E+04  0.7818608E-02  0.8680061E-01
         -2   -1    0    0    0  501 -0.00000000000E+00  0.00000000000E+00  0.18434327437E+03  0.18434327437E+03  0.00000000000E+00 0.  1.
          2   -1    0    0  501    0  0.00000000000E+00 -0.00000000000E+00 -0.13589499245E+04  0.13589499245E+04  0.00000000000E+00 0.  1.
         36    2    1    2    0    0 -0.21316282073E-13  0.14210854715E-13 -0.11746066502E+04  0.15432931989E+04  0.10010260312E+04 0.  0.
         25    2    3    3    0    0 -0.12220992689E+02 -0.12479792542E+03 -0.31395800073E+03  0.36122392869E+03  0.12723688765E+03 0.  0.
         35    2    3    3    0    0  0.12220992689E+02  0.12479792542E+03 -0.86064864944E+03  0.11820692702E+04  0.80052969150E+03 0.  0.
         22    1    5    5    0    0  0.33509309039E+03 -0.14304134432E+03 -0.55138943322E+03  0.66089220942E+03  0.00000000000E+00 0.  1.
         22    1    5    5    0    0 -0.32287209770E+03  0.26783926974E+03 -0.30925921622E+03  0.52117706080E+03  0.00000000000E+00 0.  1.
          5    1    4    4  502    0  0.45213807946E+02 -0.36407396234E+02 -0.18850385936E+03  0.19729567133E+03  0.47000000000E+01 0.  1.
         -5    1    4    4    0  502 -0.57434800635E+02 -0.88390529189E+02 -0.12545414137E+03  0.16392825736E+03  0.47000000000E+01 0.  1.
<mgrwt>
<rscale>  0 0.10010260E+04</rscale>
<asrwt>0</asrwt>
<pdfrwt beam="1">  1        2 0.20906921E+00 0.10010260E+04</pdfrwt>
<pdfrwt beam="2">  1       -2 0.28360504E-01 0.10010260E+04</pdfrwt>
<totfact> 0.20866447E+02</totfact>
</mgrwt>
</event>
<event>
 9    1  0.4342579E-036  0.9994977E+03  0.7818608E-02  0.8681516E-01
          2   -1    0    0  501    0  0.00000000000E+00  0.00000000000E+00  0.96360014306E+03  0.96360014306E+03  0.00000000000E+00 0.  1.
         -2   -1    0    0    0  501 -0.00000000000E+00 -0.00000000000E+00 -0.25918315468E+03  0.25918315468E+03  0.00000000000E+00 0.  1.
         36    2    1    2    0    0 -0.28421709430E-13 -0.14210854715E-13  0.70441698838E+03  0.12227832977E+04  0.99949772372E+03 0.  0.
         25    2    3    3    0    0  0.98043136826E+02  0.52827741628E+02  0.31116277976E+02  0.16980510199E+03  0.12434758921E+03 0.  0.
         35    2    3    3    0    0 -0.98043136826E+02 -0.52827741628E+02  0.67330071040E+03  0.10529781958E+04  0.80188902420E+03 0.  0.
         22    1    5    5    0    0 -0.20589619537E+03  0.26162546474E+03  0.63675691661E+03  0.71854053325E+03  0.00000000000E+00 0.  1.
         22    1    5    5    0    0  0.10785305854E+03 -0.31445320637E+03  0.36543793794E+02  0.33443766250E+03  0.00000000000E+00 0.  1.
          5    1    4    4  502    0  0.11950858784E+03  0.52613946792E+02 -0.12686039596E+01  0.13066839450E+03  0.47000000000E+01 0. -1.
         -5    1    4    4    0  502 -0.21465451013E+02  0.21379483664E+00  0.32384881935E+02  0.39136707493E+02  0.47000000000E+01 0. -1.
<mgrwt>
<rscale>  0 0.99949772E+03</rscale>
<asrwt>0</asrwt>
<pdfrwt beam="1">  1        2 0.14824617E+00 0.99949772E+03</pdfrwt>
<pdfrwt beam="2">  1       -2 0.39874332E-01 0.99949772E+03</pdfrwt>
<totfact> 0.19136578E+02</totfact>
</mgrwt>
</event>
<event>
 9    1  0.4342579E-036  0.1000092E+04  0.7818608E-02  0.8680951E-01
         -2   -1    0    0    0  501 -0.00000000000E+00  0.00000000000E+00  0.29854905177E+03  0.29854905177E+03  0.00000000000E+00 0.  1.
          2   -1    0    0  501    0  0.00000000000E+00 -0.00000000000E+00 -0.83753666606E+03  0.83753666606E+03  0.00000000000E+00 0.  1.
         36    2    1    2    0    0  0.00000000000E+00  0.42632564146E-13 -0.53898761429E+03  0.11360857178E+04  0.10000915508E+04 0.  0.
         25    2    3    3    0    0 -0.43153412194E+02  0.71317712898E+02 -0.22850365606E+03  0.27439924198E+03  0.12701413311E+03 0.  0.
         35    2    3    3    0    0  0.43153412194E+02 -0.71317712898E+02 -0.31048395823E+03  0.86168647585E+03  0.79947161375E+03 0.  0.
         22    1    5    5    0    0 -0.42138763713E+02 -0.32739660662E+03  0.12197337981E+03  0.35191152129E+03  0.00000000000E+00 0. -1.
         22    1    5    5    0    0  0.85292175907E+02  0.25607889372E+03 -0.43245733804E+03  0.50977495456E+03  0.00000000000E+00 0. -1.
          5    1    4    4  502    0 -0.63317141295E+02  0.94196789451E+02 -0.20905585202E+03  0.23792548159E+03  0.47000000000E+01 0.  1.
         -5    1    4    4    0  502  0.20163729101E+02 -0.22879076553E+02 -0.19447804043E+02  0.36473760394E+02  0.47000000000E+01 0.  1.
<mgrwt>
<rscale>  0 0.10000916E+04</rscale>
<asrwt>0</asrwt>
<pdfrwt beam="1">  1        2 0.12885179E+00 0.10000916E+04</pdfrwt>
<pdfrwt beam="2">  1       -2 0.45930624E-01 0.10000916E+04</pdfrwt>
<totfact> 0.17615226E+02</totfact>
</mgrwt>
</event>
<event>
 9    1  0.4342579E-036  0.1000247E+04  0.7818608E-02  0.8680802E-01
          1   -1    0    0  501    0  0.00000000000E+00  0.00000000000E+00  0.40258820305E+03  0.40258820305E+03  0.00000000000E+00 0. -1.
         -1   -1    0    0    0  501 -0.00000000000E+00 -0.00000000000E+00 -0.62128921778E+03  0.62128921778E+03  0.00000000000E+00 0. -1.
         36    2    1    2    0    0 -0.71054273576E-14  0.00000000000E+00 -0.21870101473E+03  0.10238774208E+04  0.10002473889E+04 0.  0.
         25    2    3    3    0    0  0.15577868289E+01 -0.21758142459E+02  0.98568387488E+02  0.16084838552E+03  0.12522233287E+03 0.  0.
         35    2    3    3    0    0 -0.15577868289E+01  0.21758142459E+02 -0.31726940222E+03  0.86302903531E+03  0.80229882135E+03 0.  0.
         22    1    5    5    0    0  0.22686827571E+03  0.66718418948E+02 -0.50911824709E+03  0.56135724050E+03  0.00000000000E+00 0. -1.
         22    1    5    5    0    0 -0.22842606253E+03 -0.44960276489E+02  0.19184884486E+03  0.30167179481E+03  0.00000000000E+00 0. -1.
          5    1    4    4  502    0 -0.42658442913E+02  0.34422111917E+02  0.36192763181E+02  0.65853098995E+02  0.47000000000E+01 0.  1.
         -5    1    4    4    0  502  0.44216229742E+02 -0.56180254376E+02  0.62375624307E+02  0.94995286525E+02  0.47000000000E+01 0.  1.
<mgrwt>
<rscale>  0 0.10002474E+04</rscale>
<asrwt>0</asrwt>
<pdfrwt beam="1">  1        1 0.61936647E-01 0.10002474E+04</pdfrwt>
<pdfrwt beam="2">  1       -1 0.95582956E-01 0.10002474E+04</pdfrwt>
<totfact> 0.75067507E+01</totfact>
</mgrwt>
</event>
<event>
 9    1  0.4342579E-036  0.9944199E+03  0.7818608E-02  0.8686370E-01
         -1   -1    0    0    0  501 -0.00000000000E+00  0.00000000000E+00  0.18217848932E+03  0.18217848932E+03  0.00000000000E+00 0. -1.
          1   -1    0    0  501    0  0.00000000000E+00 -0.00000000000E+00 -0.13570083331E+04  0.13570083331E+04  0.00000000000E+00 0. -1.
         36    2    1    2    0    0  0.14210854715E-13  0.71054273576E-14 -0.11748298438E+04  0.15391868224E+04  0.99441988740E+03 0.  0.
         25    2    3    3    0    0 -0.86584325250E+02 -0.45971231578E+02 -0.75798846350E+02  0.17607884682E+03  0.12509234860E+03 0.  0.
         35    2    3    3    0    0  0.86584325250E+02  0.45971231578E+02 -0.10990309974E+04  0.13631079756E+04  0.80036492946E+03 0.  0.
         22    1    5    5    0    0  0.11607837890E+03  0.23016787899E+03 -0.11427881023E+04  0.11715016387E+04  0.00000000000E+00 0. -1.
         22    1    5    5    0    0 -0.29494053646E+02 -0.18419664741E+03  0.43757104916E+02  0.19160633692E+03  0.00000000000E+00 0. -1.
          5    1    4    4  502    0 -0.97174320898E+02  0.13494016808E+02 -0.50270693479E+02  0.11033662019E+03  0.47000000000E+01 0.  1.
         -5    1    4    4    0  502  0.10589995648E+02 -0.59465248387E+02 -0.25528152871E+02  0.65742226632E+02  0.47000000000E+01 0.  1.
<mgrwt>
<rscale>  0 0.99441989E+03</rscale>
<asrwt>0</asrwt>
<pdfrwt beam="1">  1        1 0.20877052E+00 0.99441989E+03</pdfrwt>
<pdfrwt beam="2">  1       -1 0.28027459E-01 0.99441989E+03</pdfrwt>
<totfact> 0.10323129E+02</totfact>
</mgrwt>
</event>
<event>
 9    1  0.4342579E-036  0.1001083E+04  0.7818608E-02  0.8680007E-01
          2   -1    0    0  501    0  0.00000000000E+00  0.00000000000E+00  0.15796812421E+04  0.15796812421E+04  0.00000000000E+00 0. -1.
         -2   -1    0    0    0  501 -0.00000000000E+00 -0.00000000000E+00 -0.15860271683E+03  0.15860271683E+03  0.00000000000E+00 0. -1.
         36    2    1    2    0    0  0.28421709430E-13 -0.14210854715E-13  0.14210785253E+04  0.17382839589E+04  0.10010828871E+04 0.  0.
         25    2    3    3    0    0 -0.75279394845E+02  0.11252861859E+03  0.21961599062E+03  0.28852725956E+03  0.12917863168E+03 0.  0.
         35    2    3    3    0    0  0.75279394845E+02 -0.11252861859E+03  0.12014625346E+04  0.14497566993E+04  0.79997036688E+03 0.  0.
         22    1    5    5    0    0 -0.20870007409E+03  0.11828571817E+03  0.54738578746E+02  0.24605597748E+03  0.00000000000E+00 0. -1.
         22    1    5    5    0    0  0.28397946894E+03 -0.23081433676E+03  0.11467239559E+04  0.12037007219E+04  0.00000000000E+00 0. -1.
          5    1    4    4  502    0 -0.16273776963E+02  0.92875186627E+02  0.47958640875E+02  0.10589030807E+03  0.47000000000E+01 0.  1.
         -5    1    4    4    0  502 -0.59005617882E+02  0.19653431964E+02  0.17165734975E+03  0.18263695149E+03  0.47000000000E+01 0.  1.
<mgrwt>
<rscale>  0 0.10010829E+04</rscale>
<asrwt>0</asrwt>
<pdfrwt beam="1">  1        2 0.24302787E+00 0.10010829E+04</pdfrwt>
<pdfrwt beam="2">  1       -2 0.24400419E-01 0.10010829E+04</pdfrwt>
<totfact> 0.20453725E+02</totfact>
</mgrwt>
</event>
<event>
 9    1  0.4342579E-036  0.9996247E+03  0.7818608E-02  0.8681395E-01
         -2   -1    0    0    0  501 -0.00000000000E+00  0.00000000000E+00  0.23123043761E+03  0.23123043761E+03  0.00000000000E+00 0.  1.
          2   -1    0    0  501    0  0.00000000000E+00 -0.00000000000E+00 -0.10803611192E+04  0.10803611192E+04  0.00000000000E+00 0.  1.
         36    2    1    2    0    0  0.00000000000E+00  0.00000000000E+00 -0.84913068160E+03  0.13115915568E+04  0.99962467831E+03 0.  0.
         25    2    3    3    0    0  0.42414511204E+02 -0.13228085735E+03 -0.14400510121E+03  0.23636903329E+03  0.12583971846E+03 0.  0.
         35    2    3    3    0    0 -0.42414511204E+02  0.13228085735E+03 -0.70512558039E+03  0.10752225235E+04  0.79975257111E+03 0.  0.
         22    1    5    5    0    0 -0.92977240428E+02  0.36117736393E+03 -0.46153051717E+02  0.37579776427E+03  0.00000000000E+00 0. -1.
         22    1    5    5    0    0  0.50562729224E+02 -0.22889650657E+03 -0.65897252867E+03  0.69942475925E+03  0.00000000000E+00 0. -1.
          5    1    4    4  502    0  0.81202604330E+02 -0.98868016899E+02 -0.13135403720E+03  0.18342497323E+03  0.47000000000E+01 0. -1.
         -5    1    4    4    0  502 -0.38788093126E+02 -0.33412840453E+02 -0.12651064013E+02  0.52944060065E+02  0.47000000000E+01 0. -1.
<mgrwt>
<rscale>  0 0.99962468E+03</rscale>
<asrwt>0</asrwt>
<pdfrwt beam="1">  1        2 0.16620940E+00 0.99962468E+03</pdfrwt>
<pdfrwt beam="2">  1       -2 0.35573914E-01 0.99962468E+03</pdfrwt>
<totfact> 0.20083764E+02</totfact>
</mgrwt>
</event>
<event>
 9    1  0.4342579E-036  0.1000613E+04  0.7818608E-02  0.8680455E-01
          1   -1    0    0  501    0  0.00000000000E+00  0.00000000000E+00  0.74461634394E+03  0.74461634394E+03  0.00000000000E+00 0. -1.
         -1   -1    0    0    0  501 -0.00000000000E+00 -0.00000000000E+00 -0.33615479526E+03  0.33615479526E+03  0.00000000000E+00 0. -1.
         36    2    1    2    0    0  0.00000000000E+00  0.00000000000E+00  0.40846154868E+03  0.10807711392E+04  0.10006125217E+04 0.  0.
         25    2    3    3    0    0 -0.11787456038E+03  0.41591118118E+02 -0.81404798302E+01  0.17712241180E+03  0.12522718658E+03 0.  0.
         35    2    3    3    0    0  0.11787456038E+03 -0.41591118118E+02  0.41660202851E+03  0.90364872740E+03  0.79208556310E+03 0.  0.
         22    1    5    5    0    0  0.13808330486E+03  0.34720308742E+03  0.34344671981E+03  0.50751613999E+03  0.00000000000E+00 0. -1.
         22    1    5    5    0    0 -0.20208744479E+02 -0.38879420554E+03  0.73155308695E+02  0.39613258741E+03  0.00000000000E+00 0. -1.
          5    1    4    4  502    0 -0.13587521925E+03  0.16739772112E+02 -0.28608280254E+02  0.13993862539E+03  0.47000000000E+01 0.  1.
         -5    1    4    4    0  502  0.18000658864E+02  0.24851346007E+02  0.20467800423E+02  0.37183786414E+02  0.47000000000E+01 0.  1.
<mgrwt>
<rscale>  0 0.10006125E+04</rscale>
<asrwt>0</asrwt>
<pdfrwt beam="1">  1        1 0.11455636E+00 0.10006125E+04</pdfrwt>
<pdfrwt beam="2">  1       -1 0.51716123E-01 0.10006125E+04</pdfrwt>
<totfact> 0.10672227E+02</totfact>
</mgrwt>
</event>
<event>
 9    1  0.4342579E-036  0.9996055E+03  0.7818608E-02  0.8681414E-01
          2   -1    0    0  501    0  0.00000000000E+00  0.00000000000E+00  0.12819580906E+04  0.12819580906E+04  0.00000000000E+00 0.  1.
         -2   -1    0    0    0  501 -0.00000000000E+00 -0.00000000000E+00 -0.19486035905E+03  0.19486035905E+03  0.00000000000E+00 0.  1.
         36    2    1    2    0    0  0.28421709430E-13  0.00000000000E+00  0.10870977315E+04  0.14768184496E+04  0.99960554985E+03 0.  0.
         25    2    3    3    0    0  0.45253979640E+02  0.85364289332E+02  0.35522641542E+03  0.38878430026E+03  0.12502976185E+03 0.  0.
         35    2    3    3    0    0 -0.45253979640E+02 -0.85364289332E+02  0.73187131611E+03  0.10880341494E+04  0.79927948948E+03 0.  0.
         22    1    5    5    0    0  0.30019788861E+03  0.16518423364E+03  0.17005933666E+03  0.38252422323E+03  0.00000000000E+00 0. -1.
         22    1    5    5    0    0 -0.34545186825E+03 -0.25054852297E+03  0.56181197945E+03  0.70550992615E+03  0.00000000000E+00 0. -1.
          5    1    4    4  502    0  0.16622850184E+02 -0.28218032817E+02  0.36914633905E+02  0.49571733080E+02  0.47000000000E+01 0. -1.
         -5    1    4    4    0  502  0.28631129457E+02  0.11358232215E+03  0.31831178152E+03  0.33921256718E+03  0.47000000000E+01 0. -1.
<mgrwt>
<rscale>  0 0.99960555E+03</rscale>
<asrwt>0</asrwt>
<pdfrwt beam="1">  1        2 0.19722432E+00 0.99960555E+03</pdfrwt>
<pdfrwt beam="2">  1       -2 0.29978518E-01 0.99960555E+03</pdfrwt>
<totfact> 0.20903898E+02</totfact>
</mgrwt>
</event>
<event>
 9    1 -0.4342579E-036  0.1005475E+04  0.7818608E-02  0.8675841E-01
          1   -1    0    0  501    0  0.00000000000E+00  0.00000000000E+00  0.83441708337E+02  0.83441708337E+02  0.00000000000E+00 0.  1.
         -1   -1    0    0    0  501 -0.00000000000E+00 -0.00000000000E+00 -0.30290010587E+04  0.30290010587E+04  0.00000000000E+00 0.  1.
         36    2    1    2    0    0  0.00000000000E+00  0.00000000000E+00 -0.29455593503E+04  0.31124427670E+04  0.10054750576E+04 0.  0.
         25    2    3    3    0    0 -0.13567950955E+03  0.50188403558E+02 -0.50035561027E+03  0.53547023707E+03  0.12427724208E+03 0.  0.
         35    2    3    3    0    0  0.13567950955E+03 -0.50188403558E+02 -0.24452037401E+04  0.25769725299E+04  0.80052375632E+03 0.  0.
         22    1    5    5    0    0 -0.30431993010E+03  0.11875551017E+03 -0.12556936485E+04  0.12974898959E+04  0.00000000000E+00 0.  1.
         22    1    5    5    0    0  0.43999943965E+03 -0.16894391373E+03 -0.11895100915E+04  0.12794826340E+04  0.00000000000E+00 0.  1.
          5    1    4    4  502    0 -0.18625886060E+02 -0.23635223556E+02 -0.22710248411E+03  0.22913571462E+03  0.47000000000E+01 0. -1.
         -5    1    4    4    0  502 -0.11705362349E+03  0.73823627113E+02 -0.27325312616E+03  0.30633452246E+03  0.47000000000E+01 0. -1.
<mgrwt>
<rscale>  0 0.10054751E+04</rscale>
<asrwt>0</asrwt>
<pdfrwt beam="1">  1        1 0.12837185E-01 0.10054751E+04</pdfrwt>
<pdfrwt beam="2">  1       -1 0.46600021E+00 0.10054751E+04</pdfrwt>
<totfact>-0.28473695E+00</totfact>
</mgrwt>
</event>
<event>
 9    1  0.4342579E-036  0.1000467E+04  0.7818608E-02  0.8680594E-01
          2   -1    0    0  501    0  0.00000000000E+00  0.00000000000E+00  0.20769134103E+03  0.20769134103E+03  0.00000000000E+00 0.  1.
         -2   -1    0    0    0  501 -0.00000000000E+00 -0.00000000000E+00 -0.12048332123E+04  0.12048332123E+04  0.00000000000E+00 0.  1.
         36    2    1    2    0    0  0.14210854715E-13 -0.35527136788E-14 -0.99714187130E+03  0.14125245534E+04  0.10004667423E+04 0.  0.
         25    2    3    3    0    0 -0.92884601922E+02  0.21690480861E+02 -0.40932965957E+02  0.16196311029E+03  0.12433227722E+03 0.  0.
         35    2    3    3    0    0  0.92884601922E+02 -0.21690480861E+02 -0.95620890534E+03  0.12505614431E+04  0.80029396225E+03 0.  0.
         22    1    5    5    0    0  0.15915467340E+03 -0.21735128348E+03  0.29510554801E+01  0.26940768219E+03  0.00000000000E+00 0. -1.
         22    1    5    5    0    0 -0.66270071474E+02  0.19566080262E+03 -0.95915996082E+03  0.98115376088E+03  0.00000000000E+00 0. -1.
          5    1    4    4  502    0 -0.82979967778E+02  0.11794632672E+01  0.29179261589E+02  0.88094185352E+02  0.47000000000E+01 0. -1.
         -5    1    4    4    0  502 -0.99046341444E+01  0.20511017593E+02 -0.70112227546E+02  0.73868924939E+02  0.47000000000E+01 0. -1.
<mgrwt>
<rscale>  0 0.10004667E+04</rscale>
<asrwt>0</asrwt>
<pdfrwt beam="1">  1        2 0.31952514E-01 0.10004667E+04</pdfrwt>
<pdfrwt beam="2">  1       -2 0.18535896E+00 0.10004667E+04</pdfrwt>
<totfact> 0.30373840E+01</totfact>
</mgrwt>
</event>
<event>
 9    1  0.4342579E-036  0.9999621E+03  0.7818608E-02  0.8681074E-01
         -2   -1    0    0    0  501 -0.00000000000E+00  0.00000000000E+00  0.33069610437E+03  0.33069610437E+03  0.00000000000E+00 0.  1.
          2   -1    0    0  501    0  0.00000000000E+00 -0.00000000000E+00 -0.75592383382E+03  0.75592383382E+03  0.00000000000E+00 0.  1.
         36    2    1    2    0    0  0.00000000000E+00  0.14210854715E-13 -0.42522772945E+03  0.10866199382E+04  0.99996213337E+03 0.  0.
         25    2    3    3    0    0 -0.13133043654E+03  0.44072689260E+02 -0.10816854971E+03  0.21534831937E+03  0.12443624073E+03 0.  0.
         35    2    3    3    0    0  0.13133043654E+03 -0.44072689260E+02 -0.31705917974E+03  0.87127161882E+03  0.79962342688E+03 0.  0.
         22    1    5    5    0    0  0.25436565111E+03 -0.32746090374E+03  0.18615953185E+02  0.41506515351E+03  0.00000000000E+00 0. -1.
         22    1    5    5    0    0 -0.12303521458E+03  0.28338821448E+03 -0.33567513292E+03  0.45620646531E+03  0.00000000000E+00 0. -1.
          5    1    4    4  502    0 -0.80602822012E+02  0.83746738347E+02 -0.44162312519E+02  0.12442962247E+03  0.47000000000E+01 0. -1.
         -5    1    4    4    0  502 -0.50727614524E+02 -0.39674049087E+02 -0.64006237194E+02  0.90918696900E+02  0.47000000000E+01 0. -1.
<mgrwt>
<rscale>  0 0.99996213E+03</rscale>
<asrwt>0</asrwt>
<pdfrwt beam="1">  1        2 0.11629597E+00 0.99996213E+03</pdfrwt>
<pdfrwt beam="2">  1       -2 0.50876324E-01 0.99996213E+03</pdfrwt>
<totfact> 0.16407837E+02</totfact>
</mgrwt>
</event>
<event>
 9    1  0.4342579E-036  0.1000829E+04  0.7818608E-02  0.8680249E-01
          2   -1    0    0  501    0  0.00000000000E+00  0.00000000000E+00  0.18789073797E+04  0.18789073797E+04  0.00000000000E+00 0.  1.
         -2   -1    0    0    0  501 -0.00000000000E+00 -0.00000000000E+00 -0.13327666084E+03  0.13327666084E+03  0.00000000000E+00 0.  1.
         36    2    1    2    0    0  0.14210854715E-13  0.00000000000E+00  0.17456307188E+04  0.20121840405E+04  0.10008286598E+04 0.  0.
         25    2    3    3    0    0 -0.10155810291E+03 -0.75556593559E+02  0.21296840400E+03  0.27793810968E+03  0.12598096926E+03 0.  0.
         35    2    3    3    0    0  0.10155810291E+03  0.75556593559E+02  0.15326623148E+04  0.17342459308E+04  0.80158114384E+03 0.  0.
         22    1    5    5    0    0 -0.25678197061E+03  0.29507041109E+03  0.72356938646E+03  0.82253035504E+03  0.00000000000E+00 0.  1.
         22    1    5    5    0    0  0.35834007353E+03 -0.21951381753E+03  0.80909292836E+03  0.91171557577E+03  0.00000000000E+00 0.  1.
          5    1    4    4  502    0 -0.27618453817E+02  0.10173277238E+02 -0.68970410986E+01  0.30593034124E+02  0.47000000000E+01 0.  1.
         -5    1    4    4    0  502 -0.73939649096E+02 -0.85729870796E+02  0.21986544510E+03  0.24734507556E+03  0.47000000000E+01 0.  1.
<mgrwt>
<rscale>  0 0.10008287E+04</rscale>
<asrwt>0</asrwt>
<pdfrwt beam="1">  1        2 0.28906265E+00 0.10008287E+04</pdfrwt>
<pdfrwt beam="2">  1       -2 0.20504103E-01 0.10008287E+04</pdfrwt>
<totfact> 0.18809170E+02</totfact>
</mgrwt>
</event>
<event>
 9    1  0.4342579E-036  0.9998317E+03  0.7818608E-02  0.8681198E-01
          2   -1    0    0  501    0  0.00000000000E+00  0.00000000000E+00  0.34723889745E+03  0.34723889745E+03  0.00000000000E+00 0.  1.
         -2   -1    0    0    0  501 -0.00000000000E+00 -0.00000000000E+00 -0.71972317202E+03  0.71972317202E+03  0.00000000000E+00 0.  1.
         36    2    1    2    0    0  0.71054273576E-14  0.71054273576E-14 -0.37248427456E+03  0.10669620695E+04  0.99983174729E+03 0.  0.
         25    2    3    3    0    0 -0.22979058744E+02 -0.54628904013E+02 -0.20428859054E+03  0.24696192280E+03  0.12547513216E+03 0.  0.
         35    2    3    3    0    0  0.22979058744E+02  0.54628904013E+02 -0.16819568402E+03  0.82000014667E+03  0.80037372404E+03 0.  0.
         22    1    5    5    0    0 -0.28175218595E+03  0.75564175905E+02  0.19085833289E+03  0.34859882703E+03  0.00000000000E+00 0.  1.
         22    1    5    5    0    0  0.30473124470E+03 -0.20935271893E+02 -0.35905401691E+03  0.47140131965E+03  0.00000000000E+00 0.  1.
          5    1    4    4  502    0 -0.30674418123E+02 -0.67529233974E+02 -0.21529159264E+03  0.22775793560E+03  0.47000000000E+01 0. -1.
         -5    1    4    4    0  502  0.76953593785E+01  0.12900329962E+02  0.11003002095E+02  0.19203987195E+02  0.47000000000E+01 0. -1.
<mgrwt>
<rscale>  0 0.99983175E+03</rscale>
<asrwt>0</asrwt>
<pdfrwt beam="1">  1        2 0.53421369E-01 0.99983175E+03</pdfrwt>
<pdfrwt beam="2">  1       -2 0.11072664E+00 0.99983175E+03</pdfrwt>
<totfact> 0.70998060E+01</totfact>
</mgrwt>
</event>
<event>
 9    1  0.4342579E-036  0.1000624E+04  0.7818608E-02  0.8680444E-01
          1   -1    0    0  501    0  0.00000000000E+00  0.00000000000E+00  0.15389170174E+04  0.15389170174E+04  0.00000000000E+00 0.  1.
         -1   -1    0    0    0  501 -0.00000000000E+00 -0.00000000000E+00 -0.16265485540E+03  0.16265485540E+03  0.00000000000E+00 0.  1.
         36    2    1    2    0    0 -0.10658141036E-13 -0.71054273576E-14  0.13762621620E+04  0.17015718728E+04  0.10006244549E+04 0.  0.
         25    2    3    3    0    0  0.16969111027E+01 -0.93435105548E+01  0.50149718866E+03  0.51685659408E+03  0.12470416158E+03 0.  0.
         35    2    3    3    0    0 -0.16969111027E+01  0.93435105548E+01  0.87476497332E+03  0.11847152787E+04  0.79890321838E+03 0.  0.
         22    1    5    5    0    0  0.74441829738E+02 -0.26125920626E+03  0.86147359464E+03  0.90329104564E+03  0.00000000000E+00 0. -1.
         22    1    5    5    0    0 -0.76138740841E+02  0.27060271681E+03  0.13291378674E+02  0.28142423305E+03  0.00000000000E+00 0. -1.
          5    1    4    4  502    0 -0.10566201693E+02 -0.64553486355E+02  0.32166885996E+03  0.32828606837E+03  0.47000000000E+01 0. -1.
         -5    1    4    4    0  502  0.12263112796E+02  0.55209975800E+02  0.17982832870E+03  0.18857052571E+03  0.47000000000E+01 0. -1.
<mgrwt>
<rscale>  0 0.10006245E+04</rscale>
<asrwt>0</asrwt>
<pdfrwt beam="1">  1        1 0.23675645E+00 0.10006245E+04</pdfrwt>
<pdfrwt beam="2">  1       -1 0.25023825E-01 0.10006245E+04</pdfrwt>
<totfact> 0.92575268E+01</totfact>
</mgrwt>
</event>
<event>
 9    1  0.4342579E-036  0.9985434E+03  0.7818608E-02  0.8682426E-01
         -1   -1    0    0    0  501 -0.00000000000E+00  0.00000000000E+00  0.22135033585E+03  0.22135033585E+03  0.00000000000E+00 0. -1.
          1   -1    0    0  501    0  0.00000000000E+00 -0.00000000000E+00 -0.11261434879E+04  0.11261434879E+04  0.00000000000E+00 0. -1.
         36    2    1    2    0    0  0.00000000000E+00 -0.31974423109E-13 -0.90479315205E+03  0.13474938237E+04  0.99854341770E+03 0.  0.
         25    2    3    3    0    0 -0.11343658320E+03  0.22092208039E+02 -0.27356904911E+03  0.32197350975E+03  0.12438244363E+03 0.  0.
         35    2    3    3    0    0  0.11343658320E+03 -0.22092208039E+02 -0.63122410294E+03  0.10255203140E+04  0.79993257354E+03 0.  0.
         22    1    5    5    0    0  0.84140096614E+02  0.34654788549E+03 -0.86207799634E+02  0.36688796317E+03  0.00000000000E+00 0. -1.
         22    1    5    5    0    0  0.29296486589E+02 -0.36864009353E+03 -0.54501630331E+03  0.65863235083E+03  0.00000000000E+00 0. -1.
          5    1    4    4  502    0 -0.12706683935E+03  0.44889129182E+02 -0.25724589755E+03  0.29044544649E+03  0.47000000000E+01 0. -1.
         -5    1    4    4    0  502  0.13630256143E+02 -0.22796921143E+02 -0.16323151564E+02  0.31528063263E+02  0.47000000000E+01 0. -1.
<mgrwt>
<rscale>  0 0.99854342E+03</rscale>
<asrwt>0</asrwt>
<pdfrwt beam="1">  1        1 0.17325285E+00 0.99854342E+03</pdfrwt>
<pdfrwt beam="2">  1       -1 0.34053898E-01 0.99854342E+03</pdfrwt>
<totfact> 0.10948293E+02</totfact>
</mgrwt>
</event>
<event>
 9    1  0.4342579E-036  0.9998755E+03  0.7818608E-02  0.8681157E-01
          2   -1    0    0  501    0  0.00000000000E+00  0.00000000000E+00  0.18938525129E+04  0.18938525129E+04  0.00000000000E+00 0. -1.
         -2   -1    0    0    0  501 -0.00000000000E+00 -0.00000000000E+00 -0.13197317648E+03  0.13197317648E+03  0.00000000000E+00 0. -1.
         36    2    1    2    0    0  0.00000000000E+00 -0.14210854715E-13  0.17618793364E+04  0.20258256894E+04  0.99987545607E+03 0.  0.
         25    2    3    3    0    0 -0.10791438510E+03  0.72190540050E+02  0.22260211065E+03  0.28685056642E+03  0.12599428244E+03 0.  0.
         35    2    3    3    0    0  0.10791438510E+03 -0.72190540050E+02  0.15392772258E+04  0.17389751230E+04  0.79862576462E+03 0.  0.
         22    1    5    5    0    0 -0.20998848687E+03 -0.20438767477E+03  0.12658221707E+04  0.12992979851E+04  0.00000000000E+00 0. -1.
         22    1    5    5    0    0  0.31790287197E+03  0.13219713472E+03  0.27345505509E+03  0.43967713790E+03  0.00000000000E+00 0. -1.
          5    1    4    4  502    0 -0.70420897614E+02  0.85945788698E+02  0.75665528186E+02  0.13451075634E+03  0.47000000000E+01 0. -1.
         -5    1    4    4    0  502 -0.37493487487E+02 -0.13755248648E+02  0.14693658247E+03  0.15233981008E+03  0.47000000000E+01 0. -1.
<mgrwt>
<rscale>  0 0.99987546E+03</rscale>
<asrwt>0</asrwt>
<pdfrwt beam="1">  1        2 0.29136191E+00 0.99987546E+03</pdfrwt>
<pdfrwt beam="2">  1       -2 0.20303567E-01 0.99987546E+03</pdfrwt>
<totfact> 0.18763251E+02</totfact>
</mgrwt>
</event>
<event>
 9    1  0.4342579E-036  0.9997687E+03  0.7818608E-02  0.8681258E-01
          3   -1    0    0  501    0  0.00000000000E+00  0.00000000000E+00  0.11474374125E+04  0.11474374125E+04  0.00000000000E+00 0. -1.
         -3   -1    0    0    0  501 -0.00000000000E+00 -0.00000000000E+00 -0.21777604280E+03  0.21777604280E+03  0.00000000000E+00 0. -1.
         36    2    1    2    0    0 -0.10658141036E-13 -0.14210854715E-13  0.92966136972E+03  0.13652134553E+04  0.99976873137E+03 0.  0.
         25    2    3    3    0    0 -0.22068627264E+02  0.12032895956E+03  0.27126187679E+03  0.32254821346E+03  0.12445184366E+03 0.  0.
         35    2    3    3    0    0  0.22068627264E+02 -0.12032895956E+03  0.65839949293E+03  0.10426652419E+04  0.79918385335E+03 0.  0.
         22    1    5    5    0    0 -0.18424230748E+03 -0.59471138210E+02 -0.12488213301E+03  0.23038574454E+03  0.00000000000E+00 0. -1.
         22    1    5    5    0    0  0.20631093474E+03 -0.60857821352E+02  0.78328162594E+03  0.81227949731E+03  0.00000000000E+00 0. -1.
          5    1    4    4  502    0 -0.40379824416E+02  0.13854105861E+03  0.20051271851E+03  0.24708621051E+03  0.47000000000E+01 0. -1.
         -5    1    4    4    0  502  0.18311197152E+02 -0.18212099044E+02  0.70749158271E+02  0.75462002947E+02  0.47000000000E+01 0. -1.
<mgrwt>
<rscale>  0 0.99976873E+03</rscale>
<asrwt>0</asrwt>
<pdfrwt beam="1">  1        3 0.17652883E+00 0.99976873E+03</pdfrwt>
<pdfrwt beam="2">  1       -3 0.33504007E-01 0.99976873E+03</pdfrwt>
<totfact> 0.75104290E+00</totfact>
</mgrwt>
</event>
<event>
 9    1  0.4342579E-036  0.9995830E+03  0.7818608E-02  0.8681435E-01
          1   -1    0    0  501    0  0.00000000000E+00  0.00000000000E+00  0.25109375688E+04  0.25109375688E+04  0.00000000000E+00 0. -1.
         -1   -1    0    0    0  501 -0.00000000000E+00 -0.00000000000E+00 -0.99481374645E+02  0.99481374645E+02  0.00000000000E+00 0. -1.
         36    2    1    2    0    0 -0.53290705182E-14  0.00000000000E+00  0.24114561942E+04  0.26104189435E+04  0.99958295502E+03 0.  0.
         25    2    3    3    0    0  0.82094471742E+01 -0.13944109311E+03  0.40354224708E+03  0.44494466499E+03  0.12497278206E+03 0.  0.
         35    2    3    3    0    0 -0.82094471742E+01  0.13944109311E+03  0.20079139471E+04  0.21654742785E+04  0.79877983094E+03 0.  0.
         22    1    5    5    0    0 -0.49948778090E+01 -0.31683947277E+03  0.51781639735E+03  0.60707991375E+03  0.00000000000E+00 0.  1.
         22    1    5    5    0    0 -0.32145693652E+01  0.45628056588E+03  0.14900975497E+04  0.15583943647E+04  0.00000000000E+00 0.  1.
          5    1    4    4  502    0  0.42892461252E+02 -0.15790132344E+02  0.46032820215E+02  0.65040003449E+02  0.47000000000E+01 0.  1.
         -5    1    4    4    0  502 -0.34683014078E+02 -0.12365096076E+03  0.35750942687E+03  0.37990466155E+03  0.47000000000E+01 0.  1.
<mgrwt>
<rscale>  0 0.99958296E+03</rscale>
<asrwt>0</asrwt>
<pdfrwt beam="1">  1        1 0.38629804E+00 0.99958296E+03</pdfrwt>
<pdfrwt beam="2">  1       -1 0.15304829E-01 0.99958296E+03</pdfrwt>
<totfact> 0.43183231E+01</totfact>
</mgrwt>
</event>
<event>
 9    1  0.4342579E-036  0.1000205E+04  0.7818608E-02  0.8680843E-01
         -2   -1    0    0    0  501 -0.00000000000E+00  0.00000000000E+00  0.14628118840E+03  0.14628118840E+03  0.00000000000E+00 0.  1.
          2   -1    0    0  501    0  0.00000000000E+00 -0.00000000000E+00 -0.17097372122E+04  0.17097372122E+04  0.00000000000E+00 0.  1.
         36    2    1    2    0    0  0.14210854715E-13 -0.21316282073E-13 -0.15634560238E+04  0.18560184006E+04  0.10002047615E+04 0.  0.
         25    2    3    3    0    0  0.66014060132E+02  0.19384461177E+02 -0.67924595708E+02  0.15814563041E+03  0.12515061425E+03 0.  0.
         35    2    3    3    0    0 -0.66014060132E+02 -0.19384461177E+02 -0.14955314281E+04  0.16978727702E+04  0.80088955410E+03 0.  0.
         22    1    5    5    0    0  0.10750375884E+03  0.36337743494E+03 -0.61862452967E+03  0.72546297431E+03  0.00000000000E+00 0. -1.
         22    1    5    5    0    0 -0.17351781897E+03 -0.38276189612E+03 -0.87690689842E+03  0.97240979587E+03  0.00000000000E+00 0. -1.
          5    1    4    4  502    0  0.74484384078E+02  0.63152410815E+02 -0.42436712781E+02  0.10657914925E+03  0.47000000000E+01 0. -1.
         -5    1    4    4    0  502 -0.84703239462E+01 -0.43767949638E+02 -0.25487882927E+02  0.51566481162E+02  0.47000000000E+01 0. -1.
<mgrwt>
<rscale>  0 0.10002048E+04</rscale>
<asrwt>0</asrwt>
<pdfrwt beam="1">  1        2 0.26303649E+00 0.10002048E+04</pdfrwt>
<pdfrwt beam="2">  1       -2 0.22504798E-01 0.10002048E+04</pdfrwt>
<totfact> 0.19921098E+02</totfact>
</mgrwt>
</event>
<event>
 9    1  0.4342579E-036  0.9955245E+03  0.7818608E-02  0.8685312E-01
          3   -1    0    0  501    0  0.00000000000E+00  0.00000000000E+00  0.56025464533E+03  0.56025464533E+03  0.00000000000E+00 0.  1.
         -3   -1    0    0    0  501 -0.00000000000E+00 -0.00000000000E+00 -0.44224045665E+03  0.44224045665E+03  0.00000000000E+00 0.  1.
         36    2    1    2    0    0  0.00000000000E+00  0.00000000000E+00  0.11801418869E+03  0.10024951020E+04  0.99552452544E+03 0.  0.
         25    2    3    3    0    0 -0.50185160687E+02 -0.12387222488E+03 -0.42993666302E+02  0.18849023234E+03  0.12576658497E+03 0.  0.
         35    2    3    3    0    0  0.50185160687E+02  0.12387222488E+03  0.16100785499E+03  0.81400486964E+03  0.78664955347E+03 0.  0.
         22    1    5    5    0    0  0.16248788150E+03 -0.28128883471E+03  0.21582696548E+03  0.39000897322E+03  0.00000000000E+00 0. -1.
         22    1    5    5    0    0 -0.11230272081E+03  0.40516105959E+03 -0.54819110489E+02  0.42399589642E+03  0.00000000000E+00 0. -1.
          5    1    4    4  502    0  0.21027306270E+01 -0.12236629460E+03 -0.55559740364E+02  0.13448756924E+03  0.47000000000E+01 0.  1.
         -5    1    4    4    0  502 -0.52287891314E+02 -0.15059302773E+01  0.12566074062E+02  0.54002663095E+02  0.47000000000E+01 0.  1.
<mgrwt>
<rscale>  0 0.99552453E+03</rscale>
<asrwt>0</asrwt>
<pdfrwt beam="1">  1        3 0.86193023E-01 0.99552453E+03</pdfrwt>
<pdfrwt beam="2">  1       -3 0.68036993E-01 0.99552453E+03</pdfrwt>
<totfact> 0.10365591E+01</totfact>
</mgrwt>
</event>
<event>
 9    1  0.4342579E-036  0.9975976E+03  0.7818608E-02  0.8683329E-01
         -1   -1    0    0    0  501 -0.00000000000E+00  0.00000000000E+00  0.27019946206E+03  0.27019946206E+03  0.00000000000E+00 0. -1.
          1   -1    0    0  501    0  0.00000000000E+00 -0.00000000000E+00 -0.92080220654E+03  0.92080220654E+03  0.00000000000E+00 0. -1.
         36    2    1    2    0    0 -0.14210854715E-13  0.00000000000E+00 -0.65060274448E+03  0.11910016686E+04  0.99759763606E+03 0.  0.
         25    2    3    3    0    0 -0.31224269519E+02 -0.89924029569E+02 -0.40003173754E+01  0.15737683934E+03  0.12526045234E+03 0.  0.
         35    2    3    3    0    0  0.31224269519E+02  0.89924029569E+02 -0.64660242711E+03  0.10336248293E+04  0.80076482366E+03 0.  0.
         22    1    5    5    0    0  0.17569217787E+03  0.15584591448E+03  0.11085496795E+03  0.25970081698E+03  0.00000000000E+00 0.  1.
         22    1    5    5    0    0 -0.14446790835E+03 -0.65921884908E+02 -0.75745739506E+03  0.77392401227E+03  0.00000000000E+00 0.  1.
          5    1    4    4  502    0  0.46504715314E+02 -0.53449350601E+02  0.32733260510E+01  0.71079717850E+02  0.47000000000E+01 0.  1.
         -5    1    4    4    0  502 -0.77728984833E+02 -0.36474678968E+02 -0.72736434264E+01  0.86297121491E+02  0.47000000000E+01 0.  1.
<mgrwt>
<rscale>  0 0.99759764E+03</rscale>
<asrwt>0</asrwt>
<pdfrwt beam="1">  1        1 0.14166188E+00 0.99759764E+03</pdfrwt>
<pdfrwt beam="2">  1       -1 0.41569148E-01 0.99759764E+03</pdfrwt>
<totfact> 0.11186214E+02</totfact>
</mgrwt>
</event>
<event>
 9    1  0.4342579E-036  0.9997895E+03  0.7818608E-02  0.8681238E-01
          2   -1    0    0  501    0  0.00000000000E+00  0.00000000000E+00  0.30201484858E+04  0.30201484858E+04  0.00000000000E+00 0. -1.
         -2   -1    0    0    0  501 -0.00000000000E+00 -0.00000000000E+00 -0.82742536307E+02  0.82742536307E+02  0.00000000000E+00 0. -1.
         36    2    1    2    0    0 -0.53290705182E-14  0.00000000000E+00  0.29374059495E+04  0.31028910221E+04  0.99978946931E+03 0.  0.
         25    2    3    3    0    0  0.56952857033E+00 -0.12941066986E+03  0.40689364271E+03  0.44558942224E+03  0.12743645827E+03 0.  0.
         35    2    3    3    0    0 -0.56952857033E+00  0.12941066986E+03  0.25305123067E+04  0.26573015998E+04  0.80063213277E+03 0.  0.
         22    1    5    5    0    0 -0.40947044173E+01  0.46692839710E+03  0.12992691585E+04  0.13806300160E+04  0.00000000000E+00 0.  1.
         22    1    5    5    0    0  0.35251758470E+01 -0.33751772724E+03  0.12312431482E+04  0.12766715839E+04  0.00000000000E+00 0.  1.
          5    1    4    4  502    0  0.58172402818E+02 -0.87727344144E+02  0.18961061951E+03  0.21692024431E+03  0.47000000000E+01 0. -1.
         -5    1    4    4    0  502 -0.57602874248E+02 -0.41683325717E+02  0.21728302320E+03  0.22866917793E+03  0.47000000000E+01 0. -1.
<mgrwt>
<rscale>  0 0.99978947E+03</rscale>
<asrwt>0</asrwt>
<pdfrwt beam="1">  1        2 0.46463814E+00 0.99978947E+03</pdfrwt>
<pdfrwt beam="2">  1       -2 0.12729623E-01 0.99978947E+03</pdfrwt>
<totfact> 0.85255833E+01</totfact>
</mgrwt>
</event>
<event>
 9    1  0.4342579E-036  0.9977285E+03  0.7818608E-02  0.8683204E-01
         -1   -1    0    0    0  501 -0.00000000000E+00  0.00000000000E+00  0.22775726250E+03  0.22775726250E+03  0.00000000000E+00 0. -1.
          1   -1    0    0  501    0  0.00000000000E+00 -0.00000000000E+00 -0.10926788422E+04  0.10926788422E+04  0.00000000000E+00 0. -1.
         36    2    1    2    0    0  0.14210854715E-13  0.00000000000E+00 -0.86492157969E+03  0.13204361047E+04  0.99772850393E+03 0.  0.
         25    2    3    3    0    0  0.71942096906E+02  0.92972596354E+02 -0.65460082856E+02  0.18340347816E+03  0.12462842523E+03 0.  0.
         35    2    3    3    0    0 -0.71942096906E+02 -0.92972596354E+02 -0.79946149684E+03  0.11370326265E+04  0.79992808420E+03 0.  0.
         22    1    5    5    0    0 -0.28845286724E+03  0.18719383544E+03 -0.68233573349E+03  0.76408680256E+03  0.00000000000E+00 0. -1.
         22    1    5    5    0    0  0.21651077034E+03 -0.28016643180E+03 -0.11712576335E+03  0.37294582397E+03  0.00000000000E+00 0. -1.
          5    1    4    4  502    0  0.41703868593E+02  0.12152805458E+03 -0.41122286309E+02  0.13498671467E+03  0.47000000000E+01 0.  1.
         -5    1    4    4    0  502  0.30238228313E+02 -0.28555458230E+02 -0.24337796547E+02  0.48416763491E+02  0.47000000000E+01 0.  1.
<mgrwt>
<rscale>  0 0.99772850E+03</rscale>
<asrwt>0</asrwt>
<pdfrwt beam="1">  1        1 0.16810444E+00 0.99772850E+03</pdfrwt>
<pdfrwt beam="2">  1       -1 0.35039579E-01 0.99772850E+03</pdfrwt>
<totfact> 0.11050780E+02</totfact>
</mgrwt>
</event>
<event>
 9    1  0.4342579E-036  0.9999157E+03  0.7818608E-02  0.8681118E-01
          2   -1    0    0  501    0  0.00000000000E+00  0.00000000000E+00  0.57632249484E+03  0.57632249484E+03  0.00000000000E+00 0. -1.
         -2   -1    0    0    0  501 -0.00000000000E+00 -0.00000000000E+00 -0.43371179890E+03  0.43371179890E+03  0.00000000000E+00 0. -1.
         36    2    1    2    0    0  0.14210854715E-13  0.00000000000E+00  0.14261069594E+03  0.10100342937E+04  0.99991572841E+03 0.  0.
         25    2    3    3    0    0 -0.11619095457E+03 -0.39482561858E+02  0.92090837586E+02  0.19937931519E+03  0.12732705268E+03 0.  0.
         35    2    3    3    0    0  0.11619095457E+03  0.39482561858E+02  0.50519858351E+02  0.81065497855E+03  0.79971871776E+03 0.  0.
         22    1    5    5    0    0  0.14210952728E+03  0.22313747497E+03  0.36186310207E+03  0.44825255729E+03  0.00000000000E+00 0. -1.
         22    1    5    5    0    0 -0.25918572712E+02 -0.18365491311E+03 -0.31134324372E+03  0.36240242125E+03  0.00000000000E+00 0. -1.
          5    1    4    4  502    0  0.24026140490E+01  0.21379273066E+02 -0.16391183535E+02  0.27451899184E+02  0.47000000000E+01 0. -1.
         -5    1    4    4    0  502 -0.11859356862E+03 -0.60861834924E+02  0.10848202112E+03  0.17192741601E+03  0.47000000000E+01 0. -1.
<mgrwt>
<rscale>  0 0.99991573E+03</rscale>
<asrwt>0</asrwt>
<pdfrwt beam="1">  1        2 0.88665000E-01 0.99991573E+03</pdfrwt>
<pdfrwt beam="2">  1       -2 0.66724892E-01 0.99991573E+03</pdfrwt>
<totfact> 0.12995618E+02</totfact>
</mgrwt>
</event>
<event>
 9    1  0.4342579E-036  0.1003919E+04  0.7818608E-02  0.8677315E-01
         -2   -1    0    0    0  501 -0.00000000000E+00  0.00000000000E+00  0.24463199048E+03  0.24463199048E+03  0.00000000000E+00 0. -1.
          2   -1    0    0  501    0  0.00000000000E+00 -0.00000000000E+00 -0.10299690590E+04  0.10299690590E+04  0.00000000000E+00 0. -1.
         36    2    1    2    0    0 -0.14210854715E-13  0.35527136788E-14 -0.78533706855E+03  0.12746010495E+04  0.10039190825E+04 0.  0.
         25    2    3    3    0    0 -0.77237541825E+02 -0.19576002760E+02 -0.30204583355E+03  0.33628728759E+03  0.12453351550E+03 0.  0.
         35    2    3    3    0    0  0.77237541825E+02  0.19576002760E+02 -0.48329123500E+03  0.93831376192E+03  0.80032083581E+03 0.  0.
         22    1    5    5    0    0  0.95030982055E+02 -0.23907246341E+03  0.11835400959E+03  0.28318580808E+03  0.00000000000E+00 0. -1.
         22    1    5    5    0    0 -0.17793440230E+02  0.25864846616E+03 -0.60164524460E+03  0.65512795385E+03  0.00000000000E+00 0. -1.
          5    1    4    4  502    0 -0.48350128921E+02  0.19214057357E+02 -0.30633181699E+02  0.60559035559E+02  0.47000000000E+01 0.  1.
         -5    1    4    4    0  502 -0.28887412904E+02 -0.38790060117E+02 -0.27141265185E+03  0.27572825204E+03  0.47000000000E+01 0.  1.
<mgrwt>
<rscale>  0 0.10039191E+04</rscale>
<asrwt>0</asrwt>
<pdfrwt beam="1">  1        2 0.15845678E+00 0.10039191E+04</pdfrwt>
<pdfrwt beam="2">  1       -2 0.37635690E-01 0.10039191E+04</pdfrwt>
<totfact> 0.19400926E+02</totfact>
</mgrwt>
</event>
<event>
 9    1  0.4342579E-036  0.9997762E+03  0.7818608E-02  0.8681251E-01
          2   -1    0    0  501    0  0.00000000000E+00  0.00000000000E+00  0.17073715662E+04  0.17073715662E+04  0.00000000000E+00 0.  1.
         -2   -1    0    0    0  501 -0.00000000000E+00 -0.00000000000E+00 -0.14635836376E+03  0.14635836376E+03  0.00000000000E+00 0.  1.
         36    2    1    2    0    0  0.00000000000E+00  0.28421709430E-13  0.15610132024E+04  0.18537299299E+04  0.99977619245E+03 0.  0.
         25    2    3    3    0    0 -0.19401915977E+02  0.13102285121E+03  0.23120279778E+03  0.29433737459E+03  0.12504532975E+03 0.  0.
         35    2    3    3    0    0  0.19401915977E+02 -0.13102285121E+03  0.13298104046E+04  0.15593925554E+04  0.80359567414E+03 0.  0.
         22    1    5    5    0    0  0.58604808641E+02 -0.34856446091E+03  0.12864639143E+04  0.13341368407E+04  0.00000000000E+00 0. -1.
         22    1    5    5    0    0 -0.39202892664E+02  0.21754160970E+03  0.43346490350E+02  0.22525571462E+03  0.00000000000E+00 0. -1.
          5    1    4    4  502    0  0.28610858363E+02  0.29212385490E+02  0.14978083089E+03  0.15533297134E+03  0.47000000000E+01 0.  1.
         -5    1    4    4    0  502 -0.48012774340E+02  0.10181046572E+03  0.81421966895E+02  0.13900440325E+03  0.47000000000E+01 0.  1.
<mgrwt>
<rscale>  0 0.99977619E+03</rscale>
<asrwt>0</asrwt>
<pdfrwt beam="1">  1        2 0.26267253E+00 0.99977619E+03</pdfrwt>
<pdfrwt beam="2">  1       -2 0.22516673E-01 0.99977619E+03</pdfrwt>
<totfact> 0.19963834E+02</totfact>
</mgrwt>
</event>
<event>
 9    1  0.4342579E-036  0.1000778E+04  0.7818608E-02  0.8680298E-01
         -2   -1    0    0    0  501 -0.00000000000E+00  0.00000000000E+00  0.44017827415E+03  0.44017827415E+03  0.00000000000E+00 0.  1.
          2   -1    0    0  501    0  0.00000000000E+00 -0.00000000000E+00 -0.56883566585E+03  0.56883566585E+03  0.00000000000E+00 0.  1.
         36    2    1    2    0    0 -0.56843418861E-13  0.00000000000E+00 -0.12865739171E+03  0.10090139400E+04  0.10007779008E+04 0.  0.
         25    2    3    3    0    0 -0.13753985914E+03  0.42027351724E+02 -0.21385301162E+02  0.19137721584E+03  0.12443631500E+03 0.  0.
         35    2    3    3    0    0  0.13753985914E+03 -0.42027351724E+02 -0.10727209055E+03  0.81763672416E+03  0.79770859350E+03 0.  0.
         22    1    5    5    0    0  0.44252563564E+03  0.61813251220E+01  0.89455539938E+02  0.45151903682E+03  0.00000000000E+00 0.  1.
         22    1    5    5    0    0 -0.30498577650E+03 -0.48208676846E+02 -0.19672763048E+03  0.36611768734E+03  0.00000000000E+00 0.  1.
          5    1    4    4  502    0 -0.29227564731E+01  0.31099451915E+02  0.33019350256E+02  0.45695578628E+02  0.47000000000E+01 0. -1.
         -5    1    4    4    0  502 -0.13461710267E+03  0.10927899808E+02 -0.54404651418E+02  0.14568163721E+03  0.47000000000E+01 0. -1.
<mgrwt>
<rscale>  0 0.10007779E+04</rscale>
<asrwt>0</asrwt>
<pdfrwt beam="1">  1        2 0.87513179E-01 0.10007779E+04</pdfrwt>
<pdfrwt beam="2">  1       -2 0.67719735E-01 0.10007779E+04</pdfrwt>
<totfact> 0.12783505E+02</totfact>
</mgrwt>
</event>
<event>
 9    1  0.4342579E-036  0.1000017E+04  0.7818608E-02  0.8681022E-01
          2   -1    0    0  501    0  0.00000000000E+00  0.00000000000E+00  0.15606954048E+04  0.15606954048E+04  0.00000000000E+00 0. -1.
         -2   -1    0    0    0  501 -0.00000000000E+00 -0.00000000000E+00 -0.16019046147E+03  0.16019046147E+03  0.00000000000E+00 0. -1.
         36    2    1    2    0    0  0.28421709430E-13 -0.17763568394E-14  0.14005049434E+04  0.17208858663E+04  0.10000170341E+04 0.  0.
         25    2    3    3    0    0  0.13063280680E+03 -0.90052373523E+01  0.33073403224E+03  0.37686386203E+03  0.12448030332E+03 0.  0.
         35    2    3    3    0    0 -0.13063280680E+03  0.90052373523E+01  0.10697709111E+04  0.13440220043E+04  0.80301887968E+03 0.  0.
         22    1    5    5    0    0 -0.20004944514E+03  0.13937822614E+02 -0.62164983911E+02  0.20994887146E+03  0.00000000000E+00 0. -1.
         22    1    5    5    0    0  0.69416638344E+02 -0.49325852618E+01  0.11319358950E+04  0.11340731328E+04  0.00000000000E+00 0. -1.
          5    1    4    4  502    0  0.40616071198E+02 -0.38765513337E+02  0.23645680591E+03  0.24307682186E+03  0.47000000000E+01 0.  1.
         -5    1    4    4    0  502  0.90016735601E+02  0.29760275985E+02  0.94277226326E+02  0.13378704017E+03  0.47000000000E+01 0.  1.
<mgrwt>
<rscale>  0 0.10000170E+04</rscale>
<asrwt>0</asrwt>
<pdfrwt beam="1">  1        2 0.24010697E+00 0.10000170E+04</pdfrwt>
<pdfrwt beam="2">  1       -2 0.24644687E-01 0.10000170E+04</pdfrwt>
<totfact> 0.20598466E+02</totfact>
</mgrwt>
</event>
<event>
 9    1  0.4342579E-036  0.9996469E+03  0.7818608E-02  0.8681374E-01
         -2   -1    0    0    0  501 -0.00000000000E+00  0.00000000000E+00  0.11662973534E+03  0.11662973534E+03  0.00000000000E+00 0. -1.
          2   -1    0    0  501    0  0.00000000000E+00 -0.00000000000E+00 -0.21420222291E+04  0.21420222291E+04  0.00000000000E+00 0. -1.
         36    2    1    2    0    0 -0.14210854715E-13  0.14210854715E-13 -0.20253924938E+04  0.22586519644E+04  0.99964690900E+03 0.  0.
         25    2    3    3    0    0  0.44671620959E+02 -0.97515717159E+02 -0.58367986560E+03  0.60637990040E+03  0.12453726065E+03 0.  0.
         35    2    3    3    0    0 -0.44671620959E+02  0.97515717159E+02 -0.14417126282E+04  0.16522720640E+04  0.79997675128E+03 0.  0.
         22    1    5    5    0    0  0.30735261194E+03 -0.80687675942E+01 -0.11277405607E+04  0.11689009818E+04  0.00000000000E+00 0. -1.
         22    1    5    5    0    0 -0.35202423290E+03  0.10558448475E+03 -0.31397206747E+03  0.48337108222E+03  0.00000000000E+00 0. -1.
          5    1    4    4  502    0  0.46260572029E+02 -0.73836607211E+02 -0.57355311985E+03  0.58015270091E+03  0.47000000000E+01 0. -1.
         -5    1    4    4    0  502 -0.15889510693E+01 -0.23679109948E+02 -0.10126745753E+02  0.26227199488E+02  0.47000000000E+01 0. -1.
<mgrwt>
<rscale>  0 0.99964691E+03</rscale>
<asrwt>0</asrwt>
<pdfrwt beam="1">  1        2 0.32954189E+00 0.99964691E+03</pdfrwt>
<pdfrwt beam="2">  1       -2 0.17943036E-01 0.99964691E+03</pdfrwt>
<totfact> 0.16749253E+02</totfact>
</mgrwt>
</event>
<event>
 9    1  0.4342579E-036  0.1000196E+04  0.7818608E-02  0.8680851E-01
          1   -1    0    0  501    0  0.00000000000E+00  0.00000000000E+00  0.13806216410E+04  0.13806216410E+04  0.00000000000E+00 0. -1.
         -1   -1    0    0    0  501 -0.00000000000E+00 -0.00000000000E+00 -0.18114898901E+03  0.18114898901E+03  0.00000000000E+00 0. -1.
         36    2    1    2    0    0  0.71054273576E-14  0.00000000000E+00  0.11994726520E+04  0.15617706300E+04  0.10001964097E+04 0.  0.
         25    2    3    3    0    0 -0.45036520552E+02 -0.91956595580E+02  0.37879203761E+03  0.41191975673E+03  0.12534023526E+03 0.  0.
         35    2    3    3    0    0  0.45036520552E+02  0.91956595580E+02  0.82068061442E+03  0.11498508733E+04  0.79884670389E+03 0.  0.
         22    1    5    5    0    0 -0.16442447313E+03 -0.65015638039E+02 -0.92745864737E+02  0.19966030146E+03  0.00000000000E+00 0.  1.
         22    1    5    5    0    0  0.20946099368E+03  0.15697223362E+03  0.91342647915E+03  0.95019057184E+03  0.00000000000E+00 0.  1.
          5    1    4    4  502    0  0.43114671422E+02 -0.22261201052E+02  0.98498360652E+02  0.10990201552E+03  0.47000000000E+01 0.  1.
         -5    1    4    4    0  502 -0.88151191974E+02 -0.69695394527E+02  0.28029367695E+03  0.30201774121E+03  0.47000000000E+01 0.  1.
<mgrwt>
<rscale>  0 0.10001964E+04</rscale>
<asrwt>0</asrwt>
<pdfrwt beam="1">  1        1 0.21240332E+00 0.10001964E+04</pdfrwt>
<pdfrwt beam="2">  1       -1 0.27869076E-01 0.10001964E+04</pdfrwt>
<totfact> 0.10016794E+02</totfact>
</mgrwt>
</event>
<event>
 9    1  0.4342579E-036  0.9982477E+03  0.7818608E-02  0.8682708E-01
         -1   -1    0    0    0  501 -0.00000000000E+00  0.00000000000E+00  0.30786046047E+03  0.30786046047E+03  0.00000000000E+00 0.  1.
          1   -1    0    0  501    0  0.00000000000E+00 -0.00000000000E+00 -0.80921271298E+03  0.80921271298E+03  0.00000000000E+00 0.  1.
         36    2    1    2    0    0 -0.71054273576E-14  0.71054273576E-14 -0.50135225251E+03  0.11170731734E+04  0.99824766152E+03 0.  0.
         25    2    3    3    0    0  0.93458829447E+01  0.56796984428E+02  0.34155716132E+02  0.14267822706E+03  0.12600484341E+03 0.  0.
         35    2    3    3    0    0 -0.93458829447E+01 -0.56796984428E+02 -0.53550796864E+03  0.97439494639E+03  0.81201199751E+03 0.  0.
         22    1    5    5    0    0  0.52530094107E+02  0.86780437721E+02 -0.72310781452E+03  0.73018844594E+03  0.00000000000E+00 0.  1.
         22    1    5    5    0    0 -0.61875977052E+02 -0.14357742215E+03  0.18759984588E+03  0.24420650045E+03  0.00000000000E+00 0.  1.
          5    1    4    4  502    0 -0.40280131973E+02 -0.43831972156E+01 -0.21501030970E+02  0.46109497746E+02  0.47000000000E+01 0.  1.
         -5    1    4    4    0  502  0.49626014918E+02  0.61180181644E+02  0.55656747101E+02  0.96568729310E+02  0.47000000000E+01 0.  1.
<mgrwt>
<rscale>  0 0.99824766E+03</rscale>
<asrwt>0</asrwt>
<pdfrwt beam="1">  1        1 0.12449426E+00 0.99824766E+03</pdfrwt>
<pdfrwt beam="2">  1       -1 0.47363149E-01 0.99824766E+03</pdfrwt>
<totfact> 0.10985611E+02</totfact>
</mgrwt>
</event>
<event>
 9    1  0.4342579E-036  0.9998184E+03  0.7818608E-02  0.8681211E-01
         -1   -1    0    0    0  501 -0.00000000000E+00  0.00000000000E+00  0.92730467580E+02  0.92730467580E+02  0.00000000000E+00 0. -1.
          1   -1    0    0  501    0  0.00000000000E+00 -0.00000000000E+00 -0.26950066721E+04  0.26950066721E+04  0.00000000000E+00 0. -1.
         36    2    1    2    0    0 -0.71054273576E-14  0.14210854715E-13 -0.26022762045E+04  0.27877371397E+04  0.99981844118E+03 0.  0.
         25    2    3    3    0    0 -0.49226245254E+02 -0.29535640024E+02 -0.13487636150E+03  0.19236344609E+03  0.12456518474E+03 0.  0.
         35    2    3    3    0    0  0.49226245254E+02  0.29535640024E+02 -0.24673998430E+04  0.25953736936E+04  0.80287424094E+03 0.  0.
         22    1    5    5    0    0  0.29986764909E+03  0.25219165871E+03 -0.18673966312E+04  0.19080595950E+04  0.00000000000E+00 0.  1.
         22    1    5    5    0    0 -0.25064140383E+03 -0.22265601868E+03 -0.60000321176E+03  0.68731409857E+03  0.00000000000E+00 0.  1.
          5    1    4    4  502    0 -0.41442524134E+02  0.36863965156E+02 -0.10530110005E+03  0.11910854884E+03  0.47000000000E+01 0. -1.
         -5    1    4    4    0  502 -0.77837211200E+01 -0.66399605180E+02 -0.29575261448E+02  0.73254897258E+02  0.47000000000E+01 0. -1.
<mgrwt>
<rscale>  0 0.99981844E+03</rscale>
<asrwt>0</asrwt>
<pdfrwt beam="1">  1        1 0.41461637E+00 0.99981844E+03</pdfrwt>
<pdfrwt beam="2">  1       -1 0.14266227E-01 0.99981844E+03</pdfrwt>
<totfact> 0.35900194E+01</totfact>
</mgrwt>
</event>
<event>
 9    1  0.4342579E-036  0.9978506E+03  0.7818608E-02  0.8683088E-01
          1   -1    0    0  501    0  0.00000000000E+00  0.00000000000E+00  0.48425731625E+03  0.48425731625E+03  0.00000000000E+00 0. -1.
         -1   -1    0    0    0  501 -0.00000000000E+00 -0.00000000000E+00 -0.51403756882E+03  0.51403756882E+03  0.00000000000E+00 0. -1.
         36    2    1    2    0    0  0.00000000000E+00  0.00000000000E+00 -0.29780252574E+02  0.99829488507E+03  0.99785059709E+03 0.  0.
         25    2    3    3    0    0 -0.90807672386E+02  0.97851024077E+02  0.93503303140E+01  0.18501384694E+03  0.12775695130E+03 0.  0.
         35    2    3    3    0    0  0.90807672386E+02 -0.97851024077E+02 -0.39130582888E+02  0.81328103813E+03  0.80129519416E+03 0.  0.
         22    1    5    5    0    0  0.48617098371E+01  0.12728297582E+03 -0.37719358977E+03  0.39812007776E+03  0.00000000000E+00 0.  1.
         22    1    5    5    0    0  0.85945962549E+02 -0.22513399990E+03  0.33806300688E+03  0.41516096036E+03  0.00000000000E+00 0.  1.
          5    1    4    4  502    0 -0.10565728326E+03  0.10784762661E+03 -0.17861926426E+02  0.15210427505E+03  0.47000000000E+01 0. -1.
         -5    1    4    4    0  502  0.14849610872E+02 -0.99966025362E+01  0.27212256741E+02  0.32909571894E+02  0.47000000000E+01 0. -1.
<mgrwt>
<rscale>  0 0.99785060E+03</rscale>
<asrwt>0</asrwt>
<pdfrwt beam="1">  1        1 0.74501126E-01 0.99785060E+03</pdfrwt>
<pdfrwt beam="2">  1       -1 0.79082703E-01 0.99785060E+03</pdfrwt>
<totfact> 0.87570103E+01</totfact>
</mgrwt>
</event>
<event>
 9    1  0.4342579E-036  0.1000003E+04  0.7818608E-02  0.8681036E-01
         -1   -1    0    0    0  501 -0.00000000000E+00  0.00000000000E+00  0.36911009026E+03  0.36911009026E+03  0.00000000000E+00 0.  1.
          1   -1    0    0  501    0  0.00000000000E+00 -0.00000000000E+00 -0.67730816445E+03  0.67730816445E+03  0.00000000000E+00 0.  1.
         36    2    1    2    0    0 -0.28421709430E-13  0.00000000000E+00 -0.30819807418E+03  0.10464182547E+04  0.10000025554E+04 0.  0.
         25    2    3    3    0    0  0.44321316145E+02  0.70266253139E+02  0.59126684174E+02  0.16106649679E+03  0.12467849138E+03 0.  0.
         35    2    3    3    0    0 -0.44321316145E+02 -0.70266253139E+02 -0.36732475836E+03  0.88535175792E+03  0.80126058917E+03 0.  0.
         22    1    5    5    0    0  0.35707701056E+03 -0.23007739810E+02 -0.31703688202E+03  0.47806456898E+03  0.00000000000E+00 0.  1.
         22    1    5    5    0    0 -0.40139832670E+03 -0.47258513329E+02 -0.50287876341E+02  0.40728718893E+03  0.00000000000E+00 0.  1.
          5    1    4    4  502    0  0.12332012045E+01  0.16064404437E+02  0.85268957290E+02  0.86904953555E+02  0.47000000000E+01 0.  1.
         -5    1    4    4    0  502  0.43088114940E+02  0.54201848703E+02 -0.26142273116E+02  0.74161543239E+02  0.47000000000E+01 0.  1.
<mgrwt>
<rscale>  0 0.10000026E+04</rscale>
<asrwt>0</asrwt>
<pdfrwt beam="1">  1        1 0.10420126E+00 0.10000026E+04</pdfrwt>
<pdfrwt beam="2">  1       -1 0.56786168E-01 0.10000026E+04</pdfrwt>
<totfact> 0.10365101E+02</totfact>
</mgrwt>
</event>
<event>
 9    1  0.4342579E-036  0.1000478E+04  0.7818608E-02  0.8680583E-01
          1   -1    0    0  501    0  0.00000000000E+00  0.00000000000E+00  0.15606449040E+04  0.15606449040E+04  0.00000000000E+00 0. -1.
         -1   -1    0    0    0  501 -0.00000000000E+00 -0.00000000000E+00 -0.16034342177E+03  0.16034342177E+03  0.00000000000E+00 0. -1.
         36    2    1    2    0    0  0.28421709430E-13 -0.35527136788E-14  0.14003014823E+04  0.17209883258E+04  0.10004781738E+04 0.  0.
         25    2    3    3    0    0  0.13896526444E+03  0.12707605277E+02  0.29980652654E+03  0.35345941898E+03  0.12480696919E+03 0.  0.
         35    2    3    3    0    0 -0.13896526444E+03 -0.12707605277E+02  0.11004949557E+04  0.13675289068E+04  0.79973329022E+03 0.  0.
         22    1    5    5    0    0  0.22436105468E+03 -0.15097070695E+03  0.87998127125E+03  0.92059604331E+03  0.00000000000E+00 0. -1.
         22    1    5    5    0    0 -0.36332631912E+03  0.13826310167E+03  0.22051368446E+03  0.44693286351E+03  0.00000000000E+00 0. -1.
          5    1    4    4  502    0  0.12214853160E+03 -0.19338226136E+02  0.12887661623E+03  0.17867709135E+03  0.47000000000E+01 0. -1.
         -5    1    4    4    0  502  0.16816732841E+02  0.32045831413E+02  0.17092991030E+03  0.17478232763E+03  0.47000000000E+01 0. -1.
<mgrwt>
<rscale>  0 0.10004782E+04</rscale>
<asrwt>0</asrwt>
<pdfrwt beam="1">  1        1 0.24009921E+00 0.10004782E+04</pdfrwt>
<pdfrwt beam="2">  1       -1 0.24668220E-01 0.10004782E+04</pdfrwt>
<totfact> 0.91517511E+01</totfact>
</mgrwt>
</event>
<event>
 9    1  0.4342579E-036  0.1001556E+04  0.7818608E-02  0.8679558E-01
         -2   -1    0    0    0  501 -0.00000000000E+00  0.00000000000E+00  0.10086656885E+03  0.10086656885E+03  0.00000000000E+00 0.  1.
          2   -1    0    0  501    0  0.00000000000E+00 -0.00000000000E+00 -0.24862404680E+04  0.24862404680E+04  0.00000000000E+00 0.  1.
         36    2    1    2    0    0  0.00000000000E+00 -0.14210854715E-13 -0.23853738992E+04  0.25871070369E+04  0.10015558803E+04 0.  0.
         25    2    3    3    0    0  0.94284359868E+02 -0.83114061426E+02 -0.27653234357E+03  0.32783801068E+03  0.12332938208E+03 0.  0.
         35    2    3    3    0    0 -0.94284359868E+02  0.83114061426E+02 -0.21088415556E+04  0.22592690262E+04  0.80080355788E+03 0.  0.
         22    1    5    5    0    0  0.28947832950E+02  0.20573054599E+03 -0.20709507892E+04  0.20813457680E+04  0.00000000000E+00 0.  1.
         22    1    5    5    0    0 -0.12323219282E+03 -0.12261648457E+03 -0.37890766410E+02  0.17792325821E+03  0.00000000000E+00 0.  1.
          5    1    4    4  502    0  0.28448230873E+02  0.31651965374E+02 -0.82383418613E+02  0.92845389838E+02  0.47000000000E+01 0. -1.
         -5    1    4    4    0  502  0.65836128995E+02 -0.11476602680E+03 -0.19414892495E+03  0.23499262084E+03  0.47000000000E+01 0. -1.
<mgrwt>
<rscale>  0 0.10015559E+04</rscale>
<asrwt>0</asrwt>
<pdfrwt beam="1">  1        2 0.38249853E+00 0.10015559E+04</pdfrwt>
<pdfrwt beam="2">  1       -2 0.15517934E-01 0.10015559E+04</pdfrwt>
<totfact> 0.13409325E+02</totfact>
</mgrwt>
</event>
<event>
 9    1  0.4342579E-036  0.9997434E+03  0.7818608E-02  0.8681282E-01
          2   -1    0    0  501    0  0.00000000000E+00  0.00000000000E+00  0.54307344674E+03  0.54307344674E+03  0.00000000000E+00 0.  1.
         -2   -1    0    0    0  501 -0.00000000000E+00 -0.00000000000E+00 -0.46010664215E+03  0.46010664215E+03  0.00000000000E+00 0.  1.
         36    2    1    2    0    0  0.35527136788E-14  0.00000000000E+00  0.82966804593E+02  0.10031800889E+04  0.99974336711E+03 0.  0.
         25    2    3    3    0    0  0.42354079282E+01 -0.13961667583E+03  0.14087218309E+02  0.18812469331E+03  0.12522657731E+03 0.  0.
         35    2    3    3    0    0 -0.42354079282E+01  0.13961667583E+03  0.68879586284E+02  0.81505539558E+03  0.80003759012E+03 0.  0.
         22    1    5    5    0    0 -0.37540565881E+03  0.10505119462E+03 -0.10500042662E+03  0.40372051192E+03  0.00000000000E+00 0. -1.
         22    1    5    5    0    0  0.37117025088E+03  0.34565481205E+02  0.17388001291E+03  0.41133488366E+03  0.00000000000E+00 0. -1.
          5    1    4    4  502    0  0.19335506274E+02  0.19387766171E+02  0.98425788329E+00  0.27799389266E+02  0.47000000000E+01 0.  1.
         -5    1    4    4    0  502 -0.15100098346E+02 -0.15900444200E+03  0.13102960426E+02  0.16032530404E+03  0.47000000000E+01 0.  1.
<mgrwt>
<rscale>  0 0.99974337E+03</rscale>
<asrwt>0</asrwt>
<pdfrwt beam="1">  1        2 0.83549761E-01 0.99974337E+03</pdfrwt>
<pdfrwt beam="2">  1       -2 0.70785637E-01 0.99974337E+03</pdfrwt>
<totfact> 0.12260345E+02</totfact>
</mgrwt>
</event>
<event>
 9    1  0.4342579E-036  0.9999398E+03  0.7818608E-02  0.8681095E-01
          1   -1    0    0  501    0  0.00000000000E+00  0.00000000000E+00  0.93514816276E+03  0.93514816276E+03  0.00000000000E+00 0.  1.
         -1   -1    0    0    0  501 -0.00000000000E+00 -0.00000000000E+00 -0.26730511602E+03  0.26730511602E+03  0.00000000000E+00 0.  1.
         36    2    1    2    0    0  0.14210854715E-13  0.00000000000E+00  0.66784304674E+03  0.12024532788E+04  0.99993977446E+03 0.  0.
         25    2    3    3    0    0  0.67518127415E+02  0.73595278172E+02  0.58598995537E+01  0.16041602514E+03  0.12539537551E+03 0.  0.
         35    2    3    3    0    0 -0.67518127415E+02 -0.73595278172E+02  0.66198314719E+03  0.10420372536E+04  0.79852676117E+03 0.  0.
         22    1    5    5    0    0 -0.74298388680E+02 -0.35277600098E+03  0.67199670944E+03  0.76259473833E+03  0.00000000000E+00 0.  1.
         22    1    5    5    0    0  0.67802612643E+01  0.27918072281E+03 -0.10013562257E+02  0.27944251531E+03  0.00000000000E+00 0.  1.
          5    1    4    4  502    0  0.48215340583E+02  0.34325296041E+02  0.64130038514E+02  0.87393917727E+02  0.47000000000E+01 0. -1.
         -5    1    4    4    0  502  0.19302786832E+02  0.39269982131E+02 -0.58270138960E+02  0.73022107410E+02  0.47000000000E+01 0. -1.
<mgrwt>
<rscale>  0 0.99993977E+03</rscale>
<asrwt>0</asrwt>
<pdfrwt beam="1">  1        1 0.14386895E+00 0.99993977E+03</pdfrwt>
<pdfrwt beam="2">  1       -1 0.41123865E-01 0.99993977E+03</pdfrwt>
<totfact> 0.11096440E+02</totfact>
</mgrwt>
</event>
<event>
 9    1  0.4342579E-036  0.9997413E+03  0.7818608E-02  0.8681284E-01
         -2   -1    0    0    0  501 -0.00000000000E+00  0.00000000000E+00  0.10576681116E+03  0.10576681116E+03  0.00000000000E+00 0. -1.
          2   -1    0    0  501    0  0.00000000000E+00 -0.00000000000E+00 -0.23624674483E+04  0.23624674483E+04  0.00000000000E+00 0. -1.
         36    2    1    2    0    0  0.00000000000E+00  0.00000000000E+00 -0.22567006371E+04  0.24682342594E+04  0.99974126348E+03 0.  0.
         25    2    3    3    0    0  0.13338577857E+03  0.32442551828E+02 -0.37523281160E+03  0.41879940643E+03  0.12549499924E+03 0.  0.
         35    2    3    3    0    0 -0.13338577857E+03 -0.32442551828E+02 -0.18814678255E+04  0.20494348530E+04  0.80088560555E+03 0.  0.
         22    1    5    5    0    0  0.61848608759E+02 -0.32618916218E+03 -0.14721202370E+04  0.15090933079E+04  0.00000000000E+00 0.  1.
         22    1    5    5    0    0 -0.19523438733E+03  0.29374661035E+03 -0.40934758853E+03  0.54034154507E+03  0.00000000000E+00 0.  1.
          5    1    4    4  502    0  0.13777299634E+03  0.65259191117E+02 -0.31072009618E+03  0.34613469736E+03  0.47000000000E+01 0. -1.
         -5    1    4    4    0  502 -0.43872177685E+01 -0.32816639289E+02 -0.64512715421E+02  0.72664709075E+02  0.47000000000E+01 0. -1.
<mgrwt>
<rscale>  0 0.99974126E+03</rscale>
<asrwt>0</asrwt>
<pdfrwt beam="1">  1        2 0.36345649E+00 0.99974126E+03</pdfrwt>
<pdfrwt beam="2">  1       -2 0.16271819E-01 0.99974126E+03</pdfrwt>
<totfact> 0.14690827E+02</totfact>
</mgrwt>
</event>
<event>
 9    1  0.4342579E-036  0.1000725E+04  0.7818608E-02  0.8680348E-01
         -1   -1    0    0    0  501 -0.00000000000E+00  0.00000000000E+00  0.34981746930E+03  0.34981746930E+03  0.00000000000E+00 0.  1.
          1   -1    0    0  501    0  0.00000000000E+00 -0.00000000000E+00 -0.71569464966E+03  0.71569464966E+03  0.00000000000E+00 0.  1.
         36    2    1    2    0    0  0.14210854715E-13 -0.42632564146E-13 -0.36587718036E+03  0.10655121190E+04  0.10007247197E+04 0.  0.
         25    2    3    3    0    0  0.12693872602E+03 -0.43815167982E+02 -0.12181713505E+03  0.21732038219E+03  0.11981454424E+03 0.  0.
         35    2    3    3    0    0 -0.12693872602E+03  0.43815167982E+02 -0.24406004530E+03  0.84819173678E+03  0.80114337513E+03 0.  0.
         22    1    5    5    0    0  0.15584336205E+03  0.33288412029E+03  0.15136242656E+02  0.36786967377E+03  0.00000000000E+00 0.  1.
         22    1    5    5    0    0 -0.28278208807E+03 -0.28906895231E+03 -0.25919628796E+03  0.48032206301E+03  0.00000000000E+00 0.  1.
          5    1    4    4  502    0  0.97043661573E+02  0.14915922701E+02 -0.27328415821E+02  0.10202396440E+03  0.47000000000E+01 0. -1.
         -5    1    4    4    0  502  0.29895064452E+02 -0.58731090684E+02 -0.94488719233E+02  0.11529641778E+03  0.47000000000E+01 0. -1.
<mgrwt>
<rscale>  0 0.10007247E+04</rscale>
<asrwt>0</asrwt>
<pdfrwt beam="1">  1        1 0.11010687E+00 0.10007247E+04</pdfrwt>
<pdfrwt beam="2">  1       -1 0.53818072E-01 0.10007247E+04</pdfrwt>
<totfact> 0.10539320E+02</totfact>
</mgrwt>
</event>
<event>
 9    1  0.4342579E-036  0.1000680E+04  0.7818608E-02  0.8680391E-01
          2   -1    0    0  501    0  0.00000000000E+00  0.00000000000E+00  0.11456307038E+04  0.11456307038E+04  0.00000000000E+00 0.  1.
         -2   -1    0    0    0  501 -0.00000000000E+00 -0.00000000000E+00 -0.21851710206E+03  0.21851710206E+03  0.00000000000E+00 0.  1.
         36    2    1    2    0    0  0.14210854715E-13 -0.42632564146E-13  0.92711360177E+03  0.13641478059E+04  0.10006795719E+04 0.  0.
         25    2    3    3    0    0 -0.70695071818E+02  0.77762013400E+02  0.46812408611E+02  0.17016242544E+03  0.12537593678E+03 0.  0.
         35    2    3    3    0    0  0.70695071818E+02 -0.77762013400E+02  0.88030119316E+03  0.11939853804E+04  0.79976632470E+03 0.  0.
         22    1    5    5    0    0  0.67306919298E+02  0.32864087365E+03  0.63800684448E+03  0.72082437446E+03  0.00000000000E+00 0.  1.
         22    1    5    5    0    0  0.33881525202E+01 -0.40640288705E+03  0.24229434868E+03  0.47316100598E+03  0.00000000000E+00 0.  1.
          5    1    4    4  502    0  0.24286989116E+02 -0.15262752255E+02  0.17538399672E+02  0.33948415424E+02  0.47000000000E+01 0.  1.
         -5    1    4    4    0  502 -0.94982060934E+02  0.93024765654E+02  0.29274008938E+02  0.13621401001E+03  0.47000000000E+01 0.  1.
<mgrwt>
<rscale>  0 0.10006796E+04</rscale>
<asrwt>0</asrwt>
<pdfrwt beam="1">  1        2 0.17625087E+00 0.10006796E+04</pdfrwt>
<pdfrwt beam="2">  1       -2 0.33618017E-01 0.10006796E+04</pdfrwt>
<totfact> 0.20377646E+02</totfact>
</mgrwt>
</event>
<event>
 9    1  0.4342579E-036  0.9987227E+03  0.7818608E-02  0.8682255E-01
         -2   -1    0    0    0  501 -0.00000000000E+00  0.00000000000E+00  0.59172769795E+03  0.59172769795E+03  0.00000000000E+00 0. -1.
          2   -1    0    0  501    0  0.00000000000E+00 -0.00000000000E+00 -0.42141299159E+03  0.42141299159E+03  0.00000000000E+00 0. -1.
         36    2    1    2    0    0 -0.28421709430E-13  0.00000000000E+00  0.17031470636E+03  0.10131406895E+04  0.99872266301E+03 0.  0.
         25    2    3    3    0    0 -0.52723930679E+02  0.97973186532E+02 -0.52100531114E+02  0.17496209291E+03  0.12457411636E+03 0.  0.
         35    2    3    3    0    0  0.52723930679E+02 -0.97973186532E+02  0.22241523748E+03  0.83817859664E+03  0.80043504662E+03 0.  0.
         22    1    5    5    0    0 -0.14970296301E+03  0.12126768677E+03  0.43234732717E+03  0.47332973739E+03  0.00000000000E+00 0. -1.
         22    1    5    5    0    0  0.20242689368E+03 -0.21924087330E+03 -0.20993208969E+03  0.36484885925E+03  0.00000000000E+00 0. -1.
          5    1    4    4  502    0  0.40847658670E+02  0.30475650660E+02 -0.21441140859E+02  0.55489719979E+02  0.47000000000E+01 0. -1.
         -5    1    4    4    0  502 -0.93571589349E+02  0.67497535871E+02 -0.30659390255E+02  0.11947237293E+03  0.47000000000E+01 0. -1.
<mgrwt>
<rscale>  0 0.99872266E+03</rscale>
<asrwt>0</asrwt>
<pdfrwt beam="1">  1        2 0.64832768E-01 0.99872266E+03</pdfrwt>
<pdfrwt beam="2">  1       -2 0.91035031E-01 0.99872266E+03</pdfrwt>
<totfact> 0.92154502E+01</totfact>
</mgrwt>
</event>
<event>
 9    1  0.4342579E-036  0.9998330E+03  0.7818608E-02  0.8681197E-01
          2   -1    0    0  501    0  0.00000000000E+00  0.00000000000E+00  0.62433853248E+03  0.62433853248E+03  0.00000000000E+00 0. -1.
         -2   -1    0    0    0  501 -0.00000000000E+00 -0.00000000000E+00 -0.40029003139E+03  0.40029003139E+03  0.00000000000E+00 0. -1.
         36    2    1    2    0    0 -0.28421709430E-13 -0.88817841970E-15  0.22404850110E+03  0.10246285639E+04  0.99983296758E+03 0.  0.
         25    2    3    3    0    0 -0.89831713524E+02  0.60475376260E+01 -0.67170229254E+02  0.16857093538E+03  0.12569013920E+03 0.  0.
         35    2    3    3    0    0  0.89831713524E+02 -0.60475376260E+01  0.29121873035E+03  0.85605762848E+03  0.79995000151E+03 0.  0.
         22    1    5    5    0    0  0.34900432859E+03 -0.21304519414E+03  0.32545875277E+03  0.52260470326E+03  0.00000000000E+00 0. -1.
         22    1    5    5    0    0 -0.25917261506E+03  0.20699765652E+03 -0.34240022416E+02  0.33345292522E+03  0.00000000000E+00 0. -1.
          5    1    4    4  502    0  0.19889466263E+02  0.50896494942E+01  0.19471639079E+02  0.28683272627E+02  0.47000000000E+01 0. -1.
         -5    1    4    4    0  502 -0.10972117979E+03  0.95788813175E+00 -0.86641868333E+02  0.13988766276E+03  0.47000000000E+01 0. -1.
<mgrwt>
<rscale>  0 0.99983297E+03</rscale>
<asrwt>0</asrwt>
<pdfrwt beam="1">  1        2 0.96052082E-01 0.99983297E+03</pdfrwt>
<pdfrwt beam="2">  1       -2 0.61583082E-01 0.99983297E+03</pdfrwt>
<totfact> 0.14010361E+02</totfact>
</mgrwt>
</event>
<event>
 9    1  0.4342579E-036  0.1000008E+04  0.7818608E-02  0.8681031E-01
          1   -1    0    0  501    0  0.00000000000E+00  0.00000000000E+00  0.13311754840E+04  0.13311754840E+04  0.00000000000E+00 0. -1.
         -1   -1    0    0    0  501 -0.00000000000E+00 -0.00000000000E+00 -0.18780687263E+03  0.18780687263E+03  0.00000000000E+00 0. -1.
         36    2    1    2    0    0 -0.23092638912E-13  0.00000000000E+00  0.11433686114E+04  0.15189823567E+04  0.10000078091E+04 0.  0.
         25    2    3    3    0    0 -0.28702644812E+01  0.22824928193E+02  0.42466598196E+03  0.44302749226E+03  0.12410860927E+03 0.  0.
         35    2    3    3    0    0  0.28702644812E+01 -0.22824928193E+02  0.71870262945E+03  0.10759548644E+04  0.80038502293E+03 0.  0.
         22    1    5    5    0    0  0.14336286055E+03  0.18713461639E+03  0.78096346906E+03  0.81576725507E+03  0.00000000000E+00 0. -1.
         22    1    5    5    0    0 -0.14049259607E+03 -0.20995954458E+03 -0.62260839610E+02  0.26018760935E+03  0.00000000000E+00 0. -1.
          5    1    4    4  502    0  0.65889855011E+01  0.73434339189E+02  0.27144874571E+03  0.28132281893E+03  0.47000000000E+01 0.  1.
         -5    1    4    4    0  502 -0.94592499824E+01 -0.50609410996E+02  0.15321723626E+03  0.16170467333E+03  0.47000000000E+01 0.  1.
<mgrwt>
<rscale>  0 0.10000078E+04</rscale>
<asrwt>0</asrwt>
<pdfrwt beam="1">  1        1 0.20479622E+00 0.10000078E+04</pdfrwt>
<pdfrwt beam="2">  1       -1 0.28893366E-01 0.10000078E+04</pdfrwt>
<totfact> 0.10229390E+02</totfact>
</mgrwt>
</event>
<event>
 9    1  0.4342579E-036  0.9994238E+03  0.7818608E-02  0.8681587E-01
         -2   -1    0    0    0  501 -0.00000000000E+00  0.00000000000E+00  0.20886888464E+03  0.20886888464E+03  0.00000000000E+00 0.  1.
          2   -1    0    0  501    0  0.00000000000E+00 -0.00000000000E+00 -0.11955443044E+04  0.11955443044E+04  0.00000000000E+00 0.  1.
         36    2    1    2    0    0 -0.71054273576E-14 -0.42632564146E-13 -0.98667541974E+03  0.14044131890E+04  0.99942384482E+03 0.  0.
         25    2    3    3    0    0 -0.54449861053E+02  0.27496879426E+02 -0.88971338090E+01  0.13970662235E+03  0.12537111147E+03 0.  0.
         35    2    3    3    0    0  0.54449861053E+02 -0.27496879426E+02 -0.97777828593E+03  0.12647065667E+04  0.79981964068E+03 0.  0.
         22    1    5    5    0    0 -0.17108019782E+03 -0.35799860155E+03 -0.41465610706E+03  0.57390863377E+03  0.00000000000E+00 0.  1.
         22    1    5    5    0    0  0.22553005887E+03  0.33050172212E+03 -0.56312217887E+03  0.69079793291E+03  0.00000000000E+00 0.  1.
          5    1    4    4  502    0 -0.94687458882E+02  0.27949832661E+02 -0.42826539434E+01  0.98930981700E+02  0.47000000000E+01 0.  1.
         -5    1    4    4    0  502  0.40237597829E+02 -0.45295323484E+00 -0.46144798656E+01  0.40775640646E+02  0.47000000000E+01 0.  1.
<mgrwt>
<rscale>  0 0.99942384E+03</rscale>
<asrwt>0</asrwt>
<pdfrwt beam="1">  1        2 0.18392990E+00 0.99942384E+03</pdfrwt>
<pdfrwt beam="2">  1       -2 0.32133674E-01 0.99942384E+03</pdfrwt>
<totfact> 0.20685715E+02</totfact>
</mgrwt>
</event>
<event>
 9    1  0.4342579E-036  0.9999510E+03  0.7818608E-02  0.8681085E-01
         -2   -1    0    0    0  501 -0.00000000000E+00  0.00000000000E+00  0.56131385144E+03  0.56131385144E+03  0.00000000000E+00 0.  1.
          2   -1    0    0  501    0  0.00000000000E+00 -0.00000000000E+00 -0.44533995448E+03  0.44533995448E+03  0.00000000000E+00 0.  1.
         36    2    1    2    0    0  0.00000000000E+00 -0.42632564146E-13  0.11597389695E+03  0.10066538059E+04  0.99995096890E+03 0.  0.
         25    2    3    3    0    0  0.88068625410E+02  0.50758515064E+02  0.11873002796E+03  0.20011947699E+03  0.12497390086E+03 0.  0.
         35    2    3    3    0    0 -0.88068625410E+02 -0.50758515064E+02 -0.27561310087E+01  0.80653432893E+03  0.80009844261E+03 0.  0.
         22    1    5    5    0    0 -0.27049177205E+03 -0.35792653534E+03 -0.17447445923E+02  0.44897841464E+03  0.00000000000E+00 0.  1.
         22    1    5    5    0    0  0.18242314665E+03  0.30716802027E+03  0.14691314914E+02  0.35755591429E+03  0.00000000000E+00 0.  1.
          5    1    4    4  502    0  0.11087607643E+03  0.10872938666E+02  0.10162183502E+03  0.15086687003E+03  0.47000000000E+01 0.  1.
         -5    1    4    4    0  502 -0.22807451017E+02  0.39885576398E+02  0.17108192940E+02  0.49252606958E+02  0.47000000000E+01 0.  1.
<mgrwt>
<rscale>  0 0.99995097E+03</rscale>
<asrwt>0</asrwt>
<pdfrwt beam="1">  1        2 0.68513839E-01 0.99995097E+03</pdfrwt>
<pdfrwt beam="2">  1       -2 0.86355978E-01 0.99995097E+03</pdfrwt>
<totfact> 0.97991460E+01</totfact>
</mgrwt>
</event>
<event>
 9    1  0.4342579E-036  0.1000473E+04  0.7818608E-02  0.8680588E-01
          2   -1    0    0  501    0  0.00000000000E+00  0.00000000000E+00  0.86783534157E+03  0.86783534157E+03  0.00000000000E+00 0.  1.
         -2   -1    0    0    0  501 -0.00000000000E+00 -0.00000000000E+00 -0.28834565476E+03  0.28834565476E+03  0.00000000000E+00 0.  1.
         36    2    1    2    0    0  0.14210854715E-13  0.00000000000E+00  0.57948968681E+03  0.11561809963E+04  0.10004729877E+04 0.  0.
         25    2    3    3    0    0 -0.11893773201E+03  0.35369357625E+02  0.31922707463E+02  0.17892842636E+03  0.12489654500E+03 0.  0.
         35    2    3    3    0    0  0.11893773201E+03 -0.35369357625E+02  0.54756697935E+03  0.97725256996E+03  0.79987237299E+03 0.  0.
         22    1    5    5    0    0  0.31912044250E+03  0.97644439114E+02  0.63835980782E+03  0.72033015871E+03  0.00000000000E+00 0.  1.
         22    1    5    5    0    0 -0.20018271049E+03 -0.13301379674E+03 -0.90792828475E+02  0.25692241125E+03  0.00000000000E+00 0.  1.
          5    1    4    4  502    0 -0.21151585973E+02  0.53615172647E+02  0.51501925814E+02  0.77437166075E+02  0.47000000000E+01 0. -1.
         -5    1    4    4    0  502 -0.97786146036E+02 -0.18245815022E+02 -0.19579218351E+02  0.10149126028E+03  0.47000000000E+01 0. -1.
<mgrwt>
<rscale>  0 0.10004730E+04</rscale>
<asrwt>0</asrwt>
<pdfrwt beam="1">  1        2 0.13351313E+00 0.10004730E+04</pdfrwt>
<pdfrwt beam="2">  1       -2 0.44360870E-01 0.10004730E+04</pdfrwt>
<totfact> 0.17987292E+02</totfact>
</mgrwt>
</event>
<event>
 9    1  0.4342579E-036  0.9998713E+03  0.7818608E-02  0.8681161E-01
         -3   -1    0    0    0  501 -0.00000000000E+00  0.00000000000E+00  0.35067566801E+03  0.35067566801E+03  0.00000000000E+00 0. -1.
          3   -1    0    0  501    0  0.00000000000E+00 -0.00000000000E+00 -0.71272597044E+03  0.71272597044E+03  0.00000000000E+00 0. -1.
         36    2    1    2    0    0  0.71054273576E-14  0.14210854715E-13 -0.36205030242E+03  0.10634016384E+04  0.99987130331E+03 0.  0.
         25    2    3    3    0    0  0.40467264583E+02 -0.90699992953E+02  0.34162125482E+02  0.16357510482E+03  0.12540205690E+03 0.  0.
         35    2    3    3    0    0 -0.40467264583E+02  0.90699992953E+02 -0.39621242790E+03  0.89982653363E+03  0.80177267001E+03 0.  0.
         22    1    5    5    0    0 -0.16342586068E+03  0.38777717746E+02  0.21578138463E+03  0.27344712338E+03  0.00000000000E+00 0. -1.
         22    1    5    5    0    0  0.12295859609E+03  0.51922275207E+02 -0.61199381253E+03  0.62637941025E+03  0.00000000000E+00 0. -1.
          5    1    4    4  502    0  0.77505095645E+02 -0.81055395437E+02  0.48713260781E+02  0.12236048691E+03  0.47000000000E+01 0. -1.
         -5    1    4    4    0  502 -0.37037831062E+02 -0.96445975160E+01 -0.14551135300E+02  0.41214617911E+02  0.47000000000E+01 0. -1.
<mgrwt>
<rscale>  0 0.99987130E+03</rscale>
<asrwt>0</asrwt>
<pdfrwt beam="1">  1        3 0.10965015E+00 0.99987130E+03</pdfrwt>
<pdfrwt beam="2">  1       -3 0.53950104E-01 0.99987130E+03</pdfrwt>
<totfact> 0.99606671E+00</totfact>
</mgrwt>
</event>
<event>
 9    1  0.4342579E-036  0.1000169E+04  0.7818608E-02  0.8680877E-01
         -2   -1    0    0    0  501 -0.00000000000E+00  0.00000000000E+00  0.10986196601E+04  0.10986196601E+04  0.00000000000E+00 0.  1.
          2   -1    0    0  501    0  0.00000000000E+00 -0.00000000000E+00 -0.22763519893E+03  0.22763519893E+03  0.00000000000E+00 0.  1.
         36    2    1    2    0    0 -0.71054273576E-14  0.00000000000E+00  0.87098446113E+03  0.13262548590E+04  0.10001689955E+04 0.  0.
         25    2    3    3    0    0  0.59009953453E+02 -0.10533942733E+03  0.68127822794E+02  0.18634966977E+03  0.12452401225E+03 0.  0.
         35    2    3    3    0    0 -0.59009953453E+02  0.10533942733E+03  0.80285663834E+03  0.11399051892E+04  0.80014154319E+03 0.  0.
         22    1    5    5    0    0 -0.18647421911E+03 -0.14702381551E+03  0.82289211955E+03  0.85646954245E+03  0.00000000000E+00 0. -1.
         22    1    5    5    0    0  0.12746426566E+03  0.25236324284E+03 -0.20035481212E+02  0.28343564678E+03  0.00000000000E+00 0. -1.
          5    1    4    4  502    0  0.91826582930E+02 -0.97220842768E+02  0.33961532198E+02  0.13805610914E+03  0.47000000000E+01 0. -1.
         -5    1    4    4    0  502 -0.32816629477E+02 -0.81185845654E+01  0.34166290596E+02  0.48293560634E+02  0.47000000000E+01 0. -1.
<mgrwt>
<rscale>  0 0.10001690E+04</rscale>
<asrwt>0</asrwt>
<pdfrwt beam="1">  1        2 0.35020800E-01 0.10001690E+04</pdfrwt>
<pdfrwt beam="2">  1       -2 0.16901841E+00 0.10001690E+04</pdfrwt>
<totfact> 0.36061540E+01</totfact>
</mgrwt>
</event>
<event>
 9    1  0.4342579E-036  0.9988274E+03  0.7818608E-02  0.8682155E-01
         -2   -1    0    0    0  501 -0.00000000000E+00  0.00000000000E+00  0.24304715078E+03  0.24304715078E+03  0.00000000000E+00 0.  1.
          2   -1    0    0  501    0  0.00000000000E+00 -0.00000000000E+00 -0.10261960963E+04  0.10261960963E+04  0.00000000000E+00 0.  1.
         36    2    1    2    0    0 -0.10658141036E-13 -0.71054273576E-14 -0.78314894550E+03  0.12692432471E+04  0.99882738717E+03 0.  0.
         25    2    3    3    0    0  0.96717695107E+01 -0.44390204132E+02 -0.31409777408E+03  0.34126532731E+03  0.12546146260E+03 0.  0.
         35    2    3    3    0    0 -0.96717695107E+01  0.44390204132E+02 -0.46905117142E+03  0.92797791974E+03  0.79941852916E+03 0.  0.
         22    1    5    5    0    0  0.37072086760E+03 -0.22807501245E+02 -0.38039434042E+03  0.53165214004E+03  0.00000000000E+00 0.  1.
         22    1    5    5    0    0 -0.38039263711E+03  0.67197705377E+02 -0.88656831001E+02  0.39632577970E+03  0.00000000000E+00 0.  1.
          5    1    4    4  502    0  0.24732419509E+02  0.34405122760E+02 -0.17959251885E+03  0.18458322749E+03  0.47000000000E+01 0. -1.
         -5    1    4    4    0  502 -0.15060649998E+02 -0.78795326892E+02 -0.13450525523E+03  0.15668209982E+03  0.47000000000E+01 0. -1.
<mgrwt>
<rscale>  0 0.99882739E+03</rscale>
<asrwt>0</asrwt>
<pdfrwt beam="1">  1        2 0.15787632E+00 0.99882739E+03</pdfrwt>
<pdfrwt beam="2">  1       -2 0.37391870E-01 0.99882739E+03</pdfrwt>
<totfact> 0.19747988E+02</totfact>
</mgrwt>
</event>
<event>
 9    1  0.4342579E-036  0.1000613E+04  0.7818608E-02  0.8680454E-01
         -1   -1    0    0    0  501 -0.00000000000E+00  0.00000000000E+00  0.23900809199E+03  0.23900809199E+03  0.00000000000E+00 0.  1.
          1   -1    0    0  501    0  0.00000000000E+00 -0.00000000000E+00 -0.10472724043E+04  0.10472724043E+04  0.00000000000E+00 0.  1.
         36    2    1    2    0    0  0.14210854715E-13 -0.14210854715E-13 -0.80826431228E+03  0.12862804962E+04  0.10006129704E+04 0.  0.
         25    2    3    3    0    0 -0.98162940651E+02 -0.84733886741E+02 -0.22043261559E+03  0.28463635973E+03  0.12494608750E+03 0.  0.
         35    2    3    3    0    0  0.98162940651E+02  0.84733886741E+02 -0.58783169668E+03  0.10016441365E+04  0.80058046324E+03 0.  0.
         22    1    5    5    0    0 -0.33160800976E+02 -0.30335956967E+03 -0.25975336723E+02  0.30627011828E+03  0.00000000000E+00 0.  1.
         22    1    5    5    0    0  0.13132374163E+03  0.38809345641E+03 -0.56185635996E+03  0.69537401824E+03  0.00000000000E+00 0.  1.
          5    1    4    4  502    0 -0.33912149355E+02 -0.97860213897E+02 -0.84914727661E+02  0.13401214987E+03  0.47000000000E+01 0.  1.
         -5    1    4    4    0  502 -0.64250791296E+02  0.13126327156E+02 -0.13551788793E+03  0.15062420986E+03  0.47000000000E+01 0.  1.
<mgrwt>
<rscale>  0 0.10006130E+04</rscale>
<asrwt>0</asrwt>
<pdfrwt beam="1">  1        1 0.16111883E+00 0.10006130E+04</pdfrwt>
<pdfrwt beam="2">  1       -1 0.36770475E-01 0.10006130E+04</pdfrwt>
<totfact> 0.11010661E+02</totfact>
</mgrwt>
</event>
<event>
 9    1  0.4342579E-036  0.1000155E+04  0.7818608E-02  0.8680891E-01
         -2   -1    0    0    0  501 -0.00000000000E+00  0.00000000000E+00  0.15511029469E+03  0.15511029469E+03  0.00000000000E+00 0.  1.
          2   -1    0    0  501    0  0.00000000000E+00 -0.00000000000E+00 -0.16122547276E+04  0.16122547276E+04  0.00000000000E+00 0.  1.
         36    2    1    2    0    0 -0.35527136788E-14  0.00000000000E+00 -0.14571444329E+04  0.17673650223E+04  0.10001545999E+04 0.  0.
         25    2    3    3    0    0  0.44457616746E+01  0.13436786860E+03 -0.34615845431E+03  0.39180805422E+03  0.12495353918E+03 0.  0.
         35    2    3    3    0    0 -0.44457616746E+01 -0.13436786860E+03 -0.11109859786E+04  0.13755569681E+04  0.79987038880E+03 0.  0.
         22    1    5    5    0    0  0.46795351213E+02 -0.67941301258E+02  0.11785271151E+03  0.14385787056E+03  0.00000000000E+00 0. -1.
         22    1    5    5    0    0 -0.51241112888E+02 -0.66426567338E+02 -0.12288386901E+04  0.12316990975E+04  0.00000000000E+00 0. -1.
          5    1    4    4  502    0 -0.21806560759E+02  0.11061238049E+03 -0.33634556483E+03  0.35476901470E+03  0.47000000000E+01 0.  1.
         -5    1    4    4    0  502  0.26252322433E+02  0.23755488108E+02 -0.98128894739E+01  0.37039039516E+02  0.47000000000E+01 0.  1.
<mgrwt>
<rscale>  0 0.10001546E+04</rscale>
<asrwt>0</asrwt>
<pdfrwt beam="1">  1        2 0.24803918E+00 0.10001546E+04</pdfrwt>
<pdfrwt beam="2">  1       -2 0.23863123E-01 0.10001546E+04</pdfrwt>
<totfact> 0.20393730E+02</totfact>
</mgrwt>
</event>
<event>
 9    1  0.4342579E-036  0.9996631E+03  0.7818608E-02  0.8681359E-01
          1   -1    0    0  501    0  0.00000000000E+00  0.00000000000E+00  0.32157761471E+03  0.32157761471E+03  0.00000000000E+00 0.  1.
         -1   -1    0    0    0  501 -0.00000000000E+00 -0.00000000000E+00 -0.77689354563E+03  0.77689354563E+03  0.00000000000E+00 0.  1.
         36    2    1    2    0    0  0.14210854715E-13  0.28421709430E-13 -0.45531593092E+03  0.10984711603E+04  0.99966308982E+03 0.  0.
         25    2    3    3    0    0 -0.96843272700E+02 -0.55394660631E+02  0.61921621078E+01  0.16801754068E+03  0.12547654446E+03 0.  0.
         35    2    3    3    0    0  0.96843272700E+02  0.55394660631E+02 -0.46150809303E+03  0.93045361966E+03  0.80019187106E+03 0.  0.
         22    1    5    5    0    0  0.29681331049E+03  0.31283963094E+03 -0.98089168434E+02  0.44225361607E+03  0.00000000000E+00 0. -1.
         22    1    5    5    0    0 -0.19997003779E+03 -0.25744497031E+03 -0.36341892459E+03  0.48820000359E+03  0.00000000000E+00 0. -1.
          5    1    4    4  502    0 -0.53740912851E+02 -0.68348798939E+02 -0.46377628667E+02  0.98654034237E+02  0.47000000000E+01 0.  1.
         -5    1    4    4    0  502 -0.43102359849E+02  0.12954138308E+02  0.52569790775E+02  0.69363506442E+02  0.47000000000E+01 0.  1.
<mgrwt>
<rscale>  0 0.99966309E+03</rscale>
<asrwt>0</asrwt>
<pdfrwt beam="1">  1        1 0.49473480E-01 0.99966309E+03</pdfrwt>
<pdfrwt beam="2">  1       -1 0.11952208E+00 0.99966309E+03</pdfrwt>
<totfact> 0.60164384E+01</totfact>
</mgrwt>
</event>
<event>
 9    1  0.4342579E-036  0.1012737E+04  0.7818608E-02  0.8669003E-01
          1   -1    0    0  501    0  0.00000000000E+00  0.00000000000E+00  0.43987390630E+03  0.43987390630E+03  0.00000000000E+00 0. -1.
         -1   -1    0    0    0  501 -0.00000000000E+00 -0.00000000000E+00 -0.58291465656E+03  0.58291465656E+03  0.00000000000E+00 0. -1.
         36    2    1    2    0    0  0.00000000000E+00  0.00000000000E+00 -0.14304075026E+03  0.10227885629E+04  0.10127367812E+04 0.  0.
         25    2    3    3    0    0  0.71156780802E+02  0.27419932906E+02  0.10640028029E+03  0.18049153387E+03  0.12426195709E+03 0.  0.
         35    2    3    3    0    0 -0.71156780802E+02 -0.27419932906E+02 -0.24944103056E+03  0.84229702899E+03  0.80089220070E+03 0.  0.
         22    1    5    5    0    0  0.17926420120E+03 -0.35161111714E+03 -0.13168083636E+03  0.41605994062E+03  0.00000000000E+00 0.  1.
         22    1    5    5    0    0 -0.25042098200E+03  0.32419118423E+03 -0.11776019420E+03  0.42623708836E+03  0.00000000000E+00 0.  1.
          5    1    4    4  502    0  0.98553874307E+02  0.40205929324E+02  0.53121081006E+02  0.11905176244E+03  0.47000000000E+01 0. -1.
         -5    1    4    4    0  502 -0.27397093505E+02 -0.12785996418E+02  0.53279199287E+02  0.61439771432E+02  0.47000000000E+01 0. -1.
<mgrwt>
<rscale>  0 0.10127368E+04</rscale>
<asrwt>0</asrwt>
<pdfrwt beam="1">  1        1 0.67672909E-01 0.10127368E+04</pdfrwt>
<pdfrwt beam="2">  1       -1 0.89679178E-01 0.10127368E+04</pdfrwt>
<totfact> 0.76392161E+01</totfact>
</mgrwt>
</event>
<event>
 9    1  0.4342579E-036  0.1000798E+04  0.7818608E-02  0.8680278E-01
         -2   -1    0    0    0  501 -0.00000000000E+00  0.00000000000E+00  0.30512643942E+03  0.30512643942E+03  0.00000000000E+00 0.  1.
          2   -1    0    0  501    0  0.00000000000E+00 -0.00000000000E+00 -0.82064120572E+03  0.82064120572E+03  0.00000000000E+00 0.  1.
         36    2    1    2    0    0  0.56843418861E-13 -0.71054273576E-14 -0.51551476629E+03  0.11257676451E+04  0.10007983396E+04 0.  0.
         25    2    3    3    0    0  0.10071172868E+03  0.51950191505E+02 -0.19397341488E+01  0.16816009146E+03  0.12422712707E+03 0.  0.
         35    2    3    3    0    0 -0.10071172868E+03 -0.51950191505E+02 -0.51357503215E+03  0.95760755368E+03  0.80025698281E+03 0.  0.
         22    1    5    5    0    0  0.29050882252E+03 -0.12313285317E+03 -0.96319267939E+01  0.31567364398E+03  0.00000000000E+00 0.  1.
         22    1    5    5    0    0 -0.39122055119E+03  0.71182661666E+02 -0.50394310535E+03  0.64193390970E+03  0.00000000000E+00 0.  1.
          5    1    4    4  502    0  0.34908214546E+02  0.29107408815E+01 -0.58522561773E+02  0.68366922497E+02  0.47000000000E+01 0.  1.
         -5    1    4    4    0  502  0.65803514129E+02  0.49039450623E+02  0.56582827624E+02  0.99793168960E+02  0.47000000000E+01 0.  1.
<mgrwt>
<rscale>  0 0.10007983E+04</rscale>
<asrwt>0</asrwt>
<pdfrwt beam="1">  1        2 0.12625249E+00 0.10007983E+04</pdfrwt>
<pdfrwt beam="2">  1       -2 0.46942530E-01 0.10007983E+04</pdfrwt>
<totfact> 0.17331817E+02</totfact>
</mgrwt>
</event>
<event>
 9    1  0.4342579E-036  0.9990090E+03  0.7818608E-02  0.8681982E-01
         -2   -1    0    0    0  501 -0.00000000000E+00  0.00000000000E+00  0.44699266380E+03  0.44699266380E+03  0.00000000000E+00 0.  1.
          2   -1    0    0  501    0  0.00000000000E+00 -0.00000000000E+00 -0.55818529117E+03  0.55818529117E+03  0.00000000000E+00 0.  1.
         36    2    1    2    0    0  0.14210854715E-13  0.00000000000E+00 -0.11119262736E+03  0.10051779550E+04  0.99900896932E+03 0.  0.
         25    2    3    3    0    0  0.44930536044E+02  0.41751227899E+02 -0.14391199450E+03  0.20204423801E+03  0.12786435724E+03 0.  0.
         35    2    3    3    0    0 -0.44930536044E+02 -0.41751227899E+02  0.32719367134E+02  0.80313371696E+03  0.80011954871E+03 0.  0.
         22    1    5    5    0    0 -0.18538513037E+03  0.25278005319E+03 -0.22621471795E+03  0.38657276220E+03  0.00000000000E+00 0. -1.
         22    1    5    5    0    0  0.14045459433E+03 -0.29453128109E+03  0.25893408509E+03  0.41656095476E+03  0.00000000000E+00 0. -1.
          5    1    4    4  502    0  0.24506512083E+02 -0.29360791578E+02  0.17816557115E+01  0.38573170905E+02  0.47000000000E+01 0. -1.
         -5    1    4    4    0  502  0.20424023960E+02  0.71112019477E+02 -0.14569365021E+03  0.16347106710E+03  0.47000000000E+01 0. -1.
<mgrwt>
<rscale>  0 0.99900897E+03</rscale>
<asrwt>0</asrwt>
<pdfrwt beam="1">  1        2 0.85874660E-01 0.99900897E+03</pdfrwt>
<pdfrwt beam="2">  1       -2 0.68768103E-01 0.99900897E+03</pdfrwt>
<totfact> 0.12644118E+02</totfact>
</mgrwt>
</event>
<event>
 9    1  0.4342579E-036  0.9996444E+03  0.7818608E-02  0.8681377E-01
          2   -1    0    0  501    0  0.00000000000E+00  0.00000000000E+00  0.33670739210E+03  0.33670739210E+03  0.00000000000E+00 0.  1.
         -2   -1    0    0    0  501 -0.00000000000E+00 -0.00000000000E+00 -0.74195648266E+03  0.74195648266E+03  0.00000000000E+00 0.  1.
         36    2    1    2    0    0  0.00000000000E+00 -0.42632564146E-13 -0.40524909056E+03  0.10786638748E+04  0.99964440144E+03 0.  0.
         25    2    3    3    0    0  0.47429115738E+02 -0.77789162496E+02  0.40377990003E+02  0.16175567623E+03  0.12741209477E+03 0.  0.
         35    2    3    3    0    0 -0.47429115738E+02  0.77789162496E+02 -0.44562708056E+03  0.91690819854E+03  0.79613847715E+03 0.  0.
         22    1    5    5    0    0 -0.18084803198E+03 -0.31821983051E+03 -0.11379195584E+03  0.38329946571E+03  0.00000000000E+00 0. -1.
         22    1    5    5    0    0  0.13341891624E+03  0.39600899300E+03 -0.33183512472E+03  0.53360873283E+03  0.00000000000E+00 0. -1.
          5    1    4    4  502    0  0.77582422899E+02 -0.37949428870E+02 -0.14155221432E+02  0.87645032878E+02  0.47000000000E+01 0.  1.
         -5    1    4    4    0  502 -0.30153307162E+02 -0.39839733626E+02  0.54533211435E+02  0.74110643349E+02  0.47000000000E+01 0.  1.
<mgrwt>
<rscale>  0 0.99964440E+03</rscale>
<asrwt>0</asrwt>
<pdfrwt beam="1">  1        2 0.51801137E-01 0.99964440E+03</pdfrwt>
<pdfrwt beam="2">  1       -2 0.11414715E+00 0.99964440E+03</pdfrwt>
<totfact> 0.68009576E+01</totfact>
</mgrwt>
</event>
<event>
 9    1  0.4342579E-036  0.9992316E+03  0.7818608E-02  0.8681770E-01
         -2   -1    0    0    0  501 -0.00000000000E+00  0.00000000000E+00  0.36893907362E+03  0.36893907362E+03  0.00000000000E+00 0.  1.
          2   -1    0    0  501    0  0.00000000000E+00 -0.00000000000E+00 -0.67657763615E+03  0.67657763615E+03  0.00000000000E+00 0.  1.
         36    2    1    2    0    0 -0.21316282073E-13 -0.28421709430E-13 -0.30763856253E+03  0.10455167098E+04  0.99923155737E+03 0.  0.
         25    2    3    3    0    0  0.11499215394E+02  0.13517675482E+03 -0.89066721076E+02  0.20517527410E+03  0.12553495649E+03 0.  0.
         35    2    3    3    0    0 -0.11499215394E+02 -0.13517675482E+03 -0.21857184146E+03  0.84034143567E+03  0.79999693226E+03 0.  0.
         22    1    5    5    0    0 -0.22402176239E+03  0.12455845688E+03  0.18452117221E+03  0.31583005271E+03  0.00000000000E+00 0.  1.
         22    1    5    5    0    0  0.21252254699E+03 -0.25973521170E+03 -0.40309301367E+03  0.52451138295E+03  0.00000000000E+00 0.  1.
          5    1    4    4  502    0 -0.51688805308E+02  0.81694584533E+02 -0.23846324804E+02  0.99681868677E+02  0.47000000000E+01 0.  1.
         -5    1    4    4    0  502  0.63188020702E+02  0.53482170287E+02 -0.65220396272E+02  0.10549340543E+03  0.47000000000E+01 0.  1.
<mgrwt>
<rscale>  0 0.99923156E+03</rscale>
<asrwt>0</asrwt>
<pdfrwt beam="1">  1        2 0.10408887E+00 0.99923156E+03</pdfrwt>
<pdfrwt beam="2">  1       -2 0.56759858E-01 0.99923156E+03</pdfrwt>
<totfact> 0.15066126E+02</totfact>
</mgrwt>
</event>
<event>
 9    1  0.4342579E-036  0.9990730E+03  0.7818608E-02  0.8681921E-01
          2   -1    0    0  501    0  0.00000000000E+00  0.00000000000E+00  0.33775269029E+04  0.33775269029E+04  0.00000000000E+00 0. -1.
         -2   -1    0    0    0  501 -0.00000000000E+00 -0.00000000000E+00 -0.73881490948E+02  0.73881490948E+02  0.00000000000E+00 0. -1.
         36    2    1    2    0    0  0.00000000000E+00 -0.14210854715E-13  0.33036454119E+04  0.34514083938E+04  0.99907301695E+03 0.  0.
         25    2    3    3    0    0 -0.62861183840E+02 -0.71276062643E+01  0.19562496256E+03  0.24055708738E+03  0.12488496751E+03 0.  0.
         35    2    3    3    0    0  0.62861183840E+02  0.71276062643E+01  0.31080204494E+04  0.32108513064E+04  0.80359981779E+03 0.  0.
         22    1    5    5    0    0  0.17788301347E+02 -0.29158209813E+03  0.45511516304E+03  0.54080158584E+03  0.00000000000E+00 0. -1.
         22    1    5    5    0    0  0.45072882493E+02  0.29870970440E+03  0.26529052863E+04  0.26700497206E+04  0.00000000000E+00 0. -1.
          5    1    4    4  502    0 -0.12856587917E+02 -0.14943019997E+02 -0.14147084868E+02  0.24714686115E+02  0.47000000000E+01 0.  1.
         -5    1    4    4    0  502 -0.50004595923E+02  0.78154137322E+01  0.20977204742E+03  0.21584240127E+03  0.47000000000E+01 0.  1.
<mgrwt>
<rscale>  0 0.99907302E+03</rscale>
<asrwt>0</asrwt>
<pdfrwt beam="1">  1        2 0.51961941E+00 0.99907302E+03</pdfrwt>
<pdfrwt beam="2">  1       -2 0.11366386E-01 0.99907302E+03</pdfrwt>
<totfact> 0.57762100E+01</totfact>
</mgrwt>
</event>
<event>
 9    1  0.4342579E-036  0.9995195E+03  0.7818608E-02  0.8681496E-01
          2   -1    0    0  501    0  0.00000000000E+00  0.00000000000E+00  0.47535003930E+03  0.47535003930E+03  0.00000000000E+00 0.  1.
         -2   -1    0    0    0  501 -0.00000000000E+00 -0.00000000000E+00 -0.52542289052E+03  0.52542289052E+03  0.00000000000E+00 0.  1.
         36    2    1    2    0    0 -0.14210854715E-13  0.14210854715E-13 -0.50072851211E+02  0.10007729298E+04  0.99951946786E+03 0.  0.
         25    2    3    3    0    0  0.11742014026E+03  0.62122317198E+02  0.34772765238E+02  0.18571685503E+03  0.12503972731E+03 0.  0.
         35    2    3    3    0    0 -0.11742014026E+03 -0.62122317198E+02 -0.84845616450E+02  0.81505607479E+03  0.79966927839E+03 0.  0.
         22    1    5    5    0    0 -0.13841324588E+03  0.18887276519E+03  0.28420741431E+03  0.36824584508E+03  0.00000000000E+00 0. -1.
         22    1    5    5    0    0  0.20993105618E+02 -0.25099508239E+03 -0.36905303076E+03  0.44681022972E+03  0.00000000000E+00 0. -1.
          5    1    4    4  502    0  0.13446221624E+03  0.21973140510E+02  0.13593050898E+02  0.13700280118E+03  0.47000000000E+01 0. -1.
         -5    1    4    4    0  502 -0.17042075976E+02  0.40149176688E+02  0.21179714340E+02  0.48714053843E+02  0.47000000000E+01 0. -1.
<mgrwt>
<rscale>  0 0.99951947E+03</rscale>
<asrwt>0</asrwt>
<pdfrwt beam="1">  1        2 0.73130775E-01 0.99951947E+03</pdfrwt>
<pdfrwt beam="2">  1       -2 0.80834291E-01 0.99951947E+03</pdfrwt>
<totfact> 0.10616251E+02</totfact>
</mgrwt>
</event>
<event>
 9    1  0.4342579E-036  0.1000934E+04  0.7818608E-02  0.8680149E-01
         -2   -1    0    0    0  501 -0.00000000000E+00  0.00000000000E+00  0.21533809101E+03  0.21533809101E+03  0.00000000000E+00 0. -1.
          2   -1    0    0  501    0  0.00000000000E+00 -0.00000000000E+00 -0.11631349936E+04  0.11631349936E+04  0.00000000000E+00 0. -1.
         36    2    1    2    0    0 -0.71054273576E-14  0.00000000000E+00 -0.94779690254E+03  0.13784730846E+04  0.10009341019E+04 0.  0.
         25    2    3    3    0    0 -0.48887821770E+02  0.13303163196E+03 -0.18421650500E+03  0.26429164752E+03  0.12580508741E+03 0.  0.
         35    2    3    3    0    0  0.48887821770E+02 -0.13303163196E+03 -0.76358039754E+03  0.11141814370E+04  0.79891039356E+03 0.  0.
         22    1    5    5    0    0  0.14400355454E+03 -0.10116359054E+03  0.12759743513E+03  0.21737571443E+03  0.00000000000E+00 0. -1.
         22    1    5    5    0    0 -0.95115732769E+02 -0.31868041416E+02 -0.89117783267E+03  0.89680572262E+03  0.00000000000E+00 0. -1.
          5    1    4    4  502    0 -0.54528861026E+02  0.15019300479E+03 -0.12716882366E+03  0.20426780236E+03  0.47000000000E+01 0.  1.
         -5    1    4    4    0  502  0.56410392562E+01 -0.17161372830E+02 -0.57047681342E+02  0.60023845160E+02  0.47000000000E+01 0.  1.
<mgrwt>
<rscale>  0 0.10009341E+04</rscale>
<asrwt>0</asrwt>
<pdfrwt beam="1">  1        2 0.17894384E+00 0.10009341E+04</pdfrwt>
<pdfrwt beam="2">  1       -2 0.33128938E-01 0.10009341E+04</pdfrwt>
<totfact> 0.20439918E+02</totfact>
</mgrwt>
</event>
<event>
 9    1  0.4342579E-036  0.1000313E+04  0.7818608E-02  0.8680740E-01
         -2   -1    0    0    0  501 -0.00000000000E+00  0.00000000000E+00  0.10278868224E+04  0.10278868224E+04  0.00000000000E+00 0. -1.
          2   -1    0    0  501    0  0.00000000000E+00 -0.00000000000E+00 -0.24336971698E+03  0.24336971698E+03  0.00000000000E+00 0. -1.
         36    2    1    2    0    0  0.00000000000E+00  0.00000000000E+00  0.78451710547E+03  0.12712565394E+04  0.10003130011E+04 0.  0.
         25    2    3    3    0    0 -0.13865927541E+03 -0.93118084675E+01  0.16786693752E+03  0.25124327626E+03  0.12502308074E+03 0.  0.
         35    2    3    3    0    0  0.13865927541E+03  0.93118084675E+01  0.61665016795E+03  0.10200132632E+04  0.80053514787E+03 0.  0.
         22    1    5    5    0    0 -0.18801670843E+02 -0.10577729958E+03 -0.17464052759E+03  0.20504061502E+03  0.00000000000E+00 0. -1.
         22    1    5    5    0    0  0.15746094625E+03  0.11508910804E+03  0.79129069554E+03  0.81497264815E+03  0.00000000000E+00 0. -1.
          5    1    4    4  502    0 -0.69825985813E+01  0.40164895943E+02  0.65173483454E+02  0.77017196097E+02  0.47000000000E+01 0.  1.
         -5    1    4    4    0  502 -0.13167667683E+03 -0.49476704411E+02  0.10269345407E+03  0.17422608016E+03  0.47000000000E+01 0.  1.
<mgrwt>
<rscale>  0 0.10003130E+04</rscale>
<asrwt>0</asrwt>
<pdfrwt beam="1">  1        2 0.37441495E-01 0.10003130E+04</pdfrwt>
<pdfrwt beam="2">  1       -2 0.15813643E+00 0.10003130E+04</pdfrwt>
<totfact> 0.40532431E+01</totfact>
</mgrwt>
</event>
<event>
 9    1  0.4342579E-036  0.9997126E+03  0.7818608E-02  0.8681312E-01
          2   -1    0    0  501    0  0.00000000000E+00  0.00000000000E+00  0.46405953492E+03  0.46405953492E+03  0.00000000000E+00 0. -1.
         -2   -1    0    0    0  501 -0.00000000000E+00 -0.00000000000E+00 -0.53841436963E+03  0.53841436963E+03  0.00000000000E+00 0. -1.
         36    2    1    2    0    0 -0.28421709430E-13 -0.35527136788E-14 -0.74354834716E+02  0.10024739046E+04  0.99971260263E+03 0.  0.
         25    2    3    3    0    0 -0.13190300692E+03 -0.23151436320E+02  0.22360393784E+02  0.18450602730E+03  0.12493236034E+03 0.  0.
         35    2    3    3    0    0  0.13190300692E+03  0.23151436320E+02 -0.96715228500E+02  0.81796787725E+03  0.80111373759E+03 0.  0.
         22    1    5    5    0    0  0.83046849274E+02  0.22614735430E+01  0.35426116558E+03  0.36387204739E+03  0.00000000000E+00 0.  1.
         22    1    5    5    0    0  0.48856157648E+02  0.20889962777E+02 -0.45097639408E+03  0.45409582986E+03  0.00000000000E+00 0.  1.
          5    1    4    4  502    0 -0.36345795453E+02 -0.50996535482E+02  0.50922439583E+02  0.80850778175E+02  0.47000000000E+01 0.  1.
         -5    1    4    4    0  502 -0.95557211468E+02  0.27845099162E+02 -0.28562045799E+02  0.10365524912E+03  0.47000000000E+01 0.  1.
<mgrwt>
<rscale>  0 0.99971260E+03</rscale>
<asrwt>0</asrwt>
<pdfrwt beam="1">  1        2 0.71393775E-01 0.99971260E+03</pdfrwt>
<pdfrwt beam="2">  1       -2 0.82832980E-01 0.99971260E+03</pdfrwt>
<totfact> 0.10309231E+02</totfact>
</mgrwt>
</event>
<event>
 9    1  0.4342579E-036  0.1000099E+04  0.7818608E-02  0.8680944E-01
          1   -1    0    0  501    0  0.00000000000E+00  0.00000000000E+00  0.12934234418E+04  0.12934234418E+04  0.00000000000E+00 0.  1.
         -1   -1    0    0    0  501 -0.00000000000E+00 -0.00000000000E+00 -0.19332359252E+03  0.19332359252E+03  0.00000000000E+00 0.  1.
         36    2    1    2    0    0  0.00000000000E+00 -0.56843418861E-13  0.11000998492E+04  0.14867470343E+04  0.10000985280E+04 0.  0.
         25    2    3    3    0    0  0.10754944492E+03 -0.69210615987E+02  0.29211613628E+03  0.34240984696E+03  0.12472238672E+03 0.  0.
         35    2    3    3    0    0 -0.10754944492E+03  0.69210615987E+02  0.80798371295E+03  0.11443371873E+04  0.80019555449E+03 0.  0.
         22    1    5    5    0    0  0.15273426172E+02 -0.33891877660E+03  0.54973148187E+03  0.64599064764E+03  0.00000000000E+00 0. -1.
         22    1    5    5    0    0 -0.12282287109E+03  0.40812939258E+03  0.25825223108E+03  0.49834653968E+03  0.00000000000E+00 0. -1.
          5    1    4    4  502    0  0.99108679342E+02 -0.89568176601E+02  0.16046725836E+03  0.20884640190E+03  0.47000000000E+01 0.  1.
         -5    1    4    4    0  502  0.84407655769E+01  0.20357560614E+02  0.13164887792E+03  0.13356344506E+03  0.47000000000E+01 0.  1.
<mgrwt>
<rscale>  0 0.10000985E+04</rscale>
<asrwt>0</asrwt>
<pdfrwt beam="1">  1        1 0.19898822E+00 0.10000985E+04</pdfrwt>
<pdfrwt beam="2">  1       -1 0.29742092E-01 0.10000985E+04</pdfrwt>
<totfact> 0.10373410E+02</totfact>
</mgrwt>
</event>
<event>
 9    1  0.4342579E-036  0.1001179E+04  0.7818608E-02  0.8679916E-01
          2   -1    0    0  501    0  0.00000000000E+00  0.00000000000E+00  0.24228367956E+04  0.24228367956E+04  0.00000000000E+00 0.  1.
         -2   -1    0    0    0  501 -0.00000000000E+00 -0.00000000000E+00 -0.10342836043E+03  0.10342836043E+03  0.00000000000E+00 0.  1.
         36    2    1    2    0    0 -0.14210854715E-13  0.00000000000E+00  0.23194084351E+04  0.25262651560E+04  0.10011793793E+04 0.  0.
         25    2    3    3    0    0  0.10721517745E+03  0.52310602522E+02  0.22639974611E+03  0.28443533123E+03  0.12415763851E+03 0.  0.
         35    2    3    3    0    0 -0.10721517745E+03 -0.52310602522E+02  0.20930086890E+04  0.22418298248E+04  0.79428212714E+03 0.  0.
         22    1    5    5    0    0 -0.44754279030E+03  0.87798457766E+01  0.13507170646E+04  0.14229575620E+04  0.00000000000E+00 0. -1.
         22    1    5    5    0    0  0.34032761285E+03 -0.61090448299E+02  0.74229162447E+03  0.81887226275E+03  0.00000000000E+00 0. -1.
          5    1    4    4  502    0  0.11899300180E+03  0.11673081499E+02  0.20356407240E+03  0.23612712017E+03  0.47000000000E+01 0.  1.
         -5    1    4    4    0  502 -0.11777824357E+02  0.40637521023E+02  0.22835673710E+02  0.48308211054E+02  0.47000000000E+01 0.  1.
<mgrwt>
<rscale>  0 0.10011794E+04</rscale>
<asrwt>0</asrwt>
<pdfrwt beam="1">  1        2 0.37274408E+00 0.10011794E+04</pdfrwt>
<pdfrwt beam="2">  1       -2 0.15912057E-01 0.10011794E+04</pdfrwt>
<totfact> 0.14038959E+02</totfact>
</mgrwt>
</event>
<event>
 9    1  0.4342579E-036  0.9996679E+03  0.7818608E-02  0.8681354E-01
         -2   -1    0    0    0  501 -0.00000000000E+00  0.00000000000E+00  0.47773804351E+03  0.47773804351E+03  0.00000000000E+00 0. -1.
          2   -1    0    0  501    0  0.00000000000E+00 -0.00000000000E+00 -0.52295185899E+03  0.52295185899E+03  0.00000000000E+00 0. -1.
         36    2    1    2    0    0  0.56843418861E-13 -0.42632564146E-13 -0.45213815487E+02  0.10006899025E+04  0.99966794080E+03 0.  0.
         25    2    3    3    0    0  0.13978480094E+03  0.70873968307E+01 -0.97127554133E+01  0.18785069308E+03  0.12491406449E+03 0.  0.
         35    2    3    3    0    0 -0.13978480094E+03 -0.70873968307E+01 -0.35501060074E+02  0.81283920942E+03  0.79991076585E+03 0.  0.
         22    1    5    5    0    0 -0.30588333189E+03 -0.30858867174E+03  0.94894264999E+02  0.44474318722E+03  0.00000000000E+00 0. -1.
         22    1    5    5    0    0  0.16609853095E+03  0.30150127491E+03 -0.13039532507E+03  0.36809602219E+03  0.00000000000E+00 0. -1.
          5    1    4    4  502    0  0.12212177495E+03  0.34589507634E+02 -0.49347548852E+02  0.13626236653E+03  0.47000000000E+01 0.  1.
         -5    1    4    4    0  502  0.17663025994E+02 -0.27502110804E+02  0.39634793439E+02  0.51588326556E+02  0.47000000000E+01 0.  1.
<mgrwt>
<rscale>  0 0.99966794E+03</rscale>
<asrwt>0</asrwt>
<pdfrwt beam="1">  1        2 0.80454132E-01 0.99966794E+03</pdfrwt>
<pdfrwt beam="2">  1       -2 0.73498161E-01 0.99966794E+03</pdfrwt>
<totfact> 0.11793644E+02</totfact>
</mgrwt>
</event>
<event>
 9    1  0.4342579E-036  0.9914565E+03  0.7818608E-02  0.8689217E-01
          2   -1    0    0  501    0  0.00000000000E+00  0.00000000000E+00  0.18104346183E+04  0.18104346183E+04  0.00000000000E+00 0. -1.
         -2   -1    0    0    0  501 -0.00000000000E+00 -0.00000000000E+00 -0.13573896469E+03  0.13573896469E+03  0.00000000000E+00 0. -1.
         36    2    1    2    0    0 -0.17763568394E-13  0.14210854715E-13  0.16746956536E+04  0.19461735830E+04  0.99145654614E+03 0.  0.
         25    2    3    3    0    0  0.29004419526E+02 -0.12315977098E+03  0.37664991719E+03  0.41633412175E+03  0.12433565570E+03 0.  0.
         35    2    3    3    0    0 -0.29004419526E+02  0.12315977098E+03  0.12980457364E+04  0.15298394612E+04  0.79967271915E+03 0.  0.
         22    1    5    5    0    0  0.24271441441E+03 -0.11197732610E+03  0.10731320051E+04  0.11059211134E+04  0.00000000000E+00 0. -1.
         22    1    5    5    0    0 -0.27171883393E+03  0.23513709708E+03  0.22491373127E+03  0.42391834786E+03  0.00000000000E+00 0. -1.
          5    1    4    4  502    0  0.41711760475E+02 -0.30974469509E+02  0.36537527808E+02  0.63689635434E+02  0.47000000000E+01 0.  1.
         -5    1    4    4    0  502 -0.12707340949E+02 -0.92185301475E+02  0.34011238938E+03  0.35264448632E+03  0.47000000000E+01 0.  1.
<mgrwt>
<rscale>  0 0.99145655E+03</rscale>
<asrwt>0</asrwt>
<pdfrwt beam="1">  1        2 0.27852839E+00 0.99145655E+03</pdfrwt>
<pdfrwt beam="2">  1       -2 0.20882919E-01 0.99145655E+03</pdfrwt>
<totfact> 0.19917757E+02</totfact>
</mgrwt>
</event>
<event>
 9    1  0.4342579E-036  0.9941240E+03  0.7818608E-02  0.8686654E-01
         -1   -1    0    0    0  501 -0.00000000000E+00  0.00000000000E+00  0.63368904367E+03  0.63368904367E+03  0.00000000000E+00 0. -1.
          1   -1    0    0  501    0  0.00000000000E+00 -0.00000000000E+00 -0.38989257061E+03  0.38989257061E+03  0.00000000000E+00 0. -1.
         36    2    1    2    0    0  0.28421709430E-13 -0.28421709430E-13  0.24379647306E+03  0.10235816143E+04  0.99412403694E+03 0.  0.
         25    2    3    3    0    0 -0.10980322409E+03  0.67595445939E+02  0.67826143710E+02  0.19268159791E+03  0.12609488519E+03 0.  0.
         35    2    3    3    0    0  0.10980322409E+03 -0.67595445939E+02  0.17597032935E+03  0.83090001637E+03  0.80175020303E+03 0.  0.
         22    1    5    5    0    0 -0.11535003628E+02 -0.40234801328E+03  0.24071049042E+03  0.46899735639E+03  0.00000000000E+00 0.  1.
         22    1    5    5    0    0  0.12133822771E+03  0.33475256735E+03 -0.64740161065E+02  0.36190265998E+03  0.00000000000E+00 0.  1.
          5    1    4    4  502    0  0.19264770717E+02  0.44120152928E+02  0.25959325465E+02  0.54897138940E+02  0.47000000000E+01 0. -1.
         -5    1    4    4    0  502 -0.12906799480E+03  0.23475293011E+02  0.41866818244E+02  0.13778445897E+03  0.47000000000E+01 0. -1.
<mgrwt>
<rscale>  0 0.99412404E+03</rscale>
<asrwt>0</asrwt>
<pdfrwt beam="1">  1        1 0.59983472E-01 0.99412404E+03</pdfrwt>
<pdfrwt beam="2">  1       -1 0.97490622E-01 0.99412404E+03</pdfrwt>
<totfact> 0.75067742E+01</totfact>
</mgrwt>
</event>
<event>
 9    1  0.4342579E-036  0.9999902E+03  0.7818608E-02  0.8681047E-01
         -2   -1    0    0    0  501 -0.00000000000E+00  0.00000000000E+00  0.42050489065E+03  0.42050489065E+03  0.00000000000E+00 0.  1.
          2   -1    0    0  501    0  0.00000000000E+00 -0.00000000000E+00 -0.59451177236E+03  0.59451177236E+03  0.00000000000E+00 0.  1.
         36    2    1    2    0    0  0.14210854715E-13 -0.28421709430E-13 -0.17400688171E+03  0.10150166630E+04  0.99999021561E+03 0.  0.
         25    2    3    3    0    0  0.75138224427E+02 -0.88759863967E+02 -0.13924350603E+03  0.22018651558E+03  0.12477692676E+03 0.  0.
         35    2    3    3    0    0 -0.75138224427E+02  0.88759863967E+02 -0.34763375686E+02  0.79483014744E+03  0.78550773692E+03 0.  0.
         22    1    5    5    0    0  0.11979143868E+03  0.39619990032E+03  0.61079509637E+02  0.41839581295E+03  0.00000000000E+00 0. -1.
         22    1    5    5    0    0 -0.19492966311E+03 -0.30744003635E+03 -0.95842885323E+02  0.37643433449E+03  0.00000000000E+00 0. -1.
          5    1    4    4  502    0  0.47361555819E+02  0.24636225836E+02 -0.39799798375E+02  0.66754584440E+02  0.47000000000E+01 0. -1.
         -5    1    4    4    0  502  0.27776668608E+02 -0.11339608980E+03 -0.99443707653E+02  0.15343193114E+03  0.47000000000E+01 0. -1.
<mgrwt>
<rscale>  0 0.99999022E+03</rscale>
<asrwt>0</asrwt>
<pdfrwt beam="1">  1        2 0.91463349E-01 0.99999022E+03</pdfrwt>
<pdfrwt beam="2">  1       -2 0.64693060E-01 0.99999022E+03</pdfrwt>
<totfact> 0.13382708E+02</totfact>
</mgrwt>
</event>
<event>
 9    1  0.4342579E-036  0.9987609E+03  0.7818608E-02  0.8682219E-01
         -2   -1    0    0    0  501 -0.00000000000E+00  0.00000000000E+00  0.18320364903E+03  0.18320364903E+03  0.00000000000E+00 0. -1.
          2   -1    0    0  501    0  0.00000000000E+00 -0.00000000000E+00 -0.13612218775E+04  0.13612218775E+04  0.00000000000E+00 0. -1.
         36    2    1    2    0    0  0.35527136788E-13  0.17763568394E-13 -0.11780182285E+04  0.15444255265E+04  0.99876086247E+03 0.  0.
         25    2    3    3    0    0 -0.18058515664E+00  0.95089847556E+01 -0.43458662393E+03  0.45228364846E+03  0.12491801935E+03 0.  0.
         35    2    3    3    0    0  0.18058515664E+00 -0.95089847556E+01 -0.74343160452E+03  0.10921418781E+04  0.79999554863E+03 0.  0.
         22    1    5    5    0    0 -0.36680253373E+03  0.13599011202E+03 -0.47207317813E+03  0.61309909054E+03  0.00000000000E+00 0.  1.
         22    1    5    5    0    0  0.36698311888E+03 -0.14549909677E+03 -0.27135842640E+03  0.47904278753E+03  0.00000000000E+00 0.  1.
          5    1    4    4  502    0  0.26619227274E+02 -0.15092355329E+02 -0.40208308052E+03  0.40327317800E+03  0.47000000000E+01 0.  1.
         -5    1    4    4    0  502 -0.26799812431E+02  0.24601340085E+02 -0.32503543411E+02  0.49010470458E+02  0.47000000000E+01 0.  1.
<mgrwt>
<rscale>  0 0.99876086E+03</rscale>
<asrwt>0</asrwt>
<pdfrwt beam="1">  1        2 0.20941875E+00 0.99876086E+03</pdfrwt>
<pdfrwt beam="2">  1       -2 0.28185177E-01 0.99876086E+03</pdfrwt>
<totfact> 0.21038444E+02</totfact>
</mgrwt>
</event>
<event>
 9    1  0.4342579E-036  0.9999726E+03  0.7818608E-02  0.8681064E-01
          3   -1    0    0  501    0  0.00000000000E+00  0.00000000000E+00  0.51071892781E+04  0.51071892781E+04  0.00000000000E+00 0. -1.
         -3   -1    0    0    0  501 -0.00000000000E+00 -0.00000000000E+00 -0.48947920516E+02  0.48947920516E+02  0.00000000000E+00 0. -1.
         36    2    1    2    0    0  0.14210854715E-13 -0.28421709430E-13  0.50582413576E+04  0.51561371987E+04  0.99997258932E+03 0.  0.
         25    2    3    3    0    0 -0.12717149812E+03 -0.40871754028E+02  0.11783699162E+04  0.11924833778E+04  0.12497142282E+03 0.  0.
         35    2    3    3    0    0  0.12717149812E+03  0.40871754028E+02  0.38798714414E+04  0.39636538209E+04  0.79956620741E+03 0.  0.
         22    1    5    5    0    0  0.23662963054E+03 -0.18391914047E+03  0.34743417292E+04  0.34872439380E+04  0.00000000000E+00 0.  1.
         22    1    5    5    0    0 -0.10945813242E+03  0.22479089450E+03  0.40552971221E+03  0.47640988286E+03  0.00000000000E+00 0.  1.
          5    1    4    4  502    0 -0.99249303758E+02 -0.62223173151E+02  0.11027125876E+04  0.11089270888E+04  0.47000000000E+01 0. -1.
         -5    1    4    4    0  502 -0.27922194365E+02  0.21351419123E+02  0.75657328661E+02  0.83556288912E+02  0.47000000000E+01 0. -1.
<mgrwt>
<rscale>  0 0.99997259E+03</rscale>
<asrwt>0</asrwt>
<pdfrwt beam="1">  1        3 0.78572100E+00 0.99997259E+03</pdfrwt>
<pdfrwt beam="2">  1       -3 0.75304534E-02 0.99997259E+03</pdfrwt>
<totfact> 0.37009021E-01</totfact>
</mgrwt>
</event>
<event>
 9    1  0.4342579E-036  0.9998053E+03  0.7818608E-02  0.8681223E-01
          2   -1    0    0  501    0  0.00000000000E+00  0.00000000000E+00  0.61774748227E+03  0.61774748227E+03  0.00000000000E+00 0.  1.
         -2   -1    0    0    0  501 -0.00000000000E+00 -0.00000000000E+00 -0.40453852018E+03  0.40453852018E+03  0.00000000000E+00 0.  1.
         36    2    1    2    0    0 -0.14210854715E-13  0.00000000000E+00  0.21320896209E+03  0.10222860024E+04  0.99980528568E+03 0.  0.
         25    2    3    3    0    0 -0.52762316893E+02  0.25168749828E+02  0.16906407170E+03  0.21804445389E+03  0.12467315460E+03 0.  0.
         35    2    3    3    0    0  0.52762316893E+02 -0.25168749828E+02  0.44144890387E+02  0.80424154856E+03  0.80089847611E+03 0.  0.
         22    1    5    5    0    0 -0.26346892467E+03  0.11899373434E+03  0.26523800275E+03  0.39233478202E+03  0.00000000000E+00 0. -1.
         22    1    5    5    0    0  0.31623124157E+03 -0.14416248417E+03 -0.22109311236E+03  0.41190676654E+03  0.00000000000E+00 0. -1.
          5    1    4    4  502    0 -0.47365478433E+02  0.74195908822E+02  0.10838244045E+03  0.13970456267E+03  0.47000000000E+01 0. -1.
         -5    1    4    4    0  502 -0.53968384605E+01 -0.49027158994E+02  0.60681631254E+02  0.78339891218E+02  0.47000000000E+01 0. -1.
<mgrwt>
<rscale>  0 0.99980529E+03</rscale>
<asrwt>0</asrwt>
<pdfrwt beam="1">  1        2 0.95038074E-01 0.99980529E+03</pdfrwt>
<pdfrwt beam="2">  1       -2 0.62236696E-01 0.99980529E+03</pdfrwt>
<totfact> 0.13877716E+02</totfact>
</mgrwt>
</event>
<event>
 9    1  0.4342579E-036  0.9995419E+03  0.7818608E-02  0.8681474E-01
          1   -1    0    0  501    0  0.00000000000E+00  0.00000000000E+00  0.25840697070E+04  0.25840697070E+04  0.00000000000E+00 0. -1.
         -1   -1    0    0    0  501 -0.00000000000E+00 -0.00000000000E+00 -0.96657996783E+02  0.96657996783E+02  0.00000000000E+00 0. -1.
         36    2    1    2    0    0 -0.28421709430E-13 -0.14210854715E-13  0.24874117102E+04  0.26807277038E+04  0.99954189792E+03 0.  0.
         25    2    3    3    0    0  0.90151024323E+02  0.70405114094E+02  0.25205906308E+03  0.30375623906E+03  0.12509993689E+03 0.  0.
         35    2    3    3    0    0 -0.90151024323E+02 -0.70405114094E+02  0.22353526471E+04  0.23769714647E+04  0.80006737202E+03 0.  0.
         22    1    5    5    0    0 -0.32880827973E+03 -0.15285365780E+03  0.19973077189E+04  0.20299549870E+04  0.00000000000E+00 0. -1.
         22    1    5    5    0    0  0.23865725541E+03  0.82448543706E+02  0.23804492828E+03  0.34701647770E+03  0.00000000000E+00 0. -1.
          5    1    4    4  502    0  0.11861800527E+03  0.68532877342E+02  0.22849765244E+03  0.26645872780E+03  0.47000000000E+01 0.  1.
         -5    1    4    4    0  502 -0.28466980946E+02  0.18722367518E+01  0.23561410640E+02  0.37297511258E+02  0.47000000000E+01 0.  1.
<mgrwt>
<rscale>  0 0.99954190E+03</rscale>
<asrwt>0</asrwt>
<pdfrwt beam="1">  1        1 0.39754913E+00 0.99954190E+03</pdfrwt>
<pdfrwt beam="2">  1       -1 0.14870463E-01 0.99954190E+03</pdfrwt>
<totfact> 0.40193594E+01</totfact>
</mgrwt>
</event>
<event>
 9    1  0.4342579E-036  0.9998908E+03  0.7818608E-02  0.8681142E-01
         -1   -1    0    0    0  501 -0.00000000000E+00  0.00000000000E+00  0.31960994965E+03  0.31960994965E+03  0.00000000000E+00 0.  1.
          1   -1    0    0  501    0  0.00000000000E+00 -0.00000000000E+00 -0.78203268017E+03  0.78203268017E+03  0.00000000000E+00 0.  1.
         36    2    1    2    0    0  0.28421709430E-13  0.14210854715E-13 -0.46242273052E+03  0.11016426298E+04  0.99989084512E+03 0.  0.
         25    2    3    3    0    0  0.12579949827E+03  0.48104144175E+02 -0.99774912147E+02  0.20954506264E+03  0.12575602463E+03 0.  0.
         35    2    3    3    0    0 -0.12579949827E+03 -0.48104144175E+02 -0.36264781837E+03  0.89209756719E+03  0.80385639686E+03 0.  0.
         22    1    5    5    0    0  0.23895002889E+03  0.69689307475E+02 -0.43580892252E+03  0.50187959993E+03  0.00000000000E+00 0.  1.
         22    1    5    5    0    0 -0.36474952716E+03 -0.11779345165E+03  0.73161104145E+02  0.39021796726E+03  0.00000000000E+00 0.  1.
          5    1    4    4  502    0  0.97047039747E+02  0.26458597918E+02 -0.12850170372E+03  0.16325735263E+03  0.47000000000E+01 0.  1.
         -5    1    4    4    0  502  0.28752458519E+02  0.21645546258E+02  0.28726791577E+02  0.46287710010E+02  0.47000000000E+01 0.  1.
<mgrwt>
<rscale>  0 0.99989085E+03</rscale>
<asrwt>0</asrwt>
<pdfrwt beam="1">  1        1 0.12031272E+00 0.99989085E+03</pdfrwt>
<pdfrwt beam="2">  1       -1 0.49170762E-01 0.99989085E+03</pdfrwt>
<totfact> 0.10838518E+02</totfact>
</mgrwt>
</event>
<event>
 9    1  0.4342579E-036  0.1009181E+04  0.7818608E-02  0.8672344E-01
         -1   -1    0    0    0  501 -0.00000000000E+00  0.00000000000E+00  0.72330722373E+03  0.72330722373E+03  0.00000000000E+00 0.  1.
          1   -1    0    0  501    0  0.00000000000E+00 -0.00000000000E+00 -0.35201020708E+03  0.35201020708E+03  0.00000000000E+00 0.  1.
         36    2    1    2    0    0  0.35527136788E-14 -0.28421709430E-13  0.37129701665E+03  0.10753174308E+04  0.10091809067E+04 0.  0.
         25    2    3    3    0    0  0.15540187299E+02  0.52819755562E+02  0.21761353573E+03  0.25703299471E+03  0.12521535625E+03 0.  0.
         35    2    3    3    0    0 -0.15540187299E+02 -0.52819755562E+02  0.15368348093E+03  0.81828443609E+03  0.80183500924E+03 0.  0.
         22    1    5    5    0    0 -0.78947430513E+02 -0.21705469304E+03 -0.27247441492E+03  0.35719426555E+03  0.00000000000E+00 0. -1.
         22    1    5    5    0    0  0.63407243214E+02  0.16423493748E+03  0.42615789584E+03  0.46109017054E+03  0.00000000000E+00 0. -1.
          5    1    4    4  502    0  0.43380908337E+02 -0.80942621435E+00  0.15960953478E+02  0.46469349197E+02  0.47000000000E+01 0.  1.
         -5    1    4    4    0  502 -0.27840721038E+02  0.53629181776E+02  0.20165258225E+03  0.21056364552E+03  0.47000000000E+01 0.  1.
<mgrwt>
<rscale>  0 0.10091809E+04</rscale>
<asrwt>0</asrwt>
<pdfrwt beam="1">  1        1 0.54155416E-01 0.10091809E+04</pdfrwt>
<pdfrwt beam="2">  1       -1 0.11127803E+00 0.10091809E+04</pdfrwt>
<totfact> 0.63419393E+01</totfact>
</mgrwt>
</event>
<event>
 9    1  0.4342579E-036  0.9970985E+03  0.7818608E-02  0.8683806E-01
          1   -1    0    0  501    0  0.00000000000E+00  0.00000000000E+00  0.76583874644E+03  0.76583874644E+03  0.00000000000E+00 0.  1.
         -1   -1    0    0    0  501 -0.00000000000E+00 -0.00000000000E+00 -0.32454787908E+03  0.32454787908E+03  0.00000000000E+00 0.  1.
         36    2    1    2    0    0  0.00000000000E+00  0.28421709430E-13  0.44129086735E+03  0.10903866255E+04  0.99709847232E+03 0.  0.
         25    2    3    3    0    0 -0.72094073600E+02  0.94325352885E+02  0.23471145100E+01  0.17050123698E+03  0.12235332124E+03 0.  0.
         35    2    3    3    0    0  0.72094073600E+02 -0.94325352885E+02  0.43894375284E+03  0.91988538854E+03  0.79963909500E+03 0.  0.
         22    1    5    5    0    0  0.11774064620E+03 -0.30856142153E+03  0.57423050454E+03  0.66243013441E+03  0.00000000000E+00 0. -1.
         22    1    5    5    0    0 -0.45646572597E+02  0.21423606864E+03 -0.13528675170E+03  0.25745525414E+03  0.00000000000E+00 0. -1.
          5    1    4    4  502    0 -0.33772765820E+02  0.11790087185E+01 -0.47131569537E+02  0.58184745593E+02  0.47000000000E+01 0.  1.
         -5    1    4    4    0  502 -0.38321307780E+02  0.93146344167E+02  0.49478684047E+02  0.11231649138E+03  0.47000000000E+01 0.  1.
<mgrwt>
<rscale>  0 0.99709847E+03</rscale>
<asrwt>0</asrwt>
<pdfrwt beam="1">  1        1 0.11782135E+00 0.99709847E+03</pdfrwt>
<pdfrwt beam="2">  1       -1 0.49930443E-01 0.99709847E+03</pdfrwt>
<totfact> 0.10898024E+02</totfact>
</mgrwt>
</event>
<event>
 9    1  0.4342579E-036  0.9929170E+03  0.7818608E-02  0.8687812E-01
          2   -1    0    0  501    0  0.00000000000E+00  0.00000000000E+00  0.80106826554E+03  0.80106826554E+03  0.00000000000E+00 0.  1.
         -2   -1    0    0    0  501 -0.00000000000E+00 -0.00000000000E+00 -0.30767796379E+03  0.30767796379E+03  0.00000000000E+00 0.  1.
         36    2    1    2    0    0 -0.35527136788E-14 -0.14210854715E-13  0.49339030175E+03  0.11087462293E+04  0.99291702131E+03 0.  0.
         25    2    3    3    0    0 -0.52522012668E+01 -0.99510808742E+02  0.19010660626E+03  0.24799173208E+03  0.12421509876E+03 0.  0.
         35    2    3    3    0    0  0.52522012668E+01  0.99510808742E+02  0.30328369549E+03  0.86075449726E+03  0.79936682313E+03 0.  0.
         22    1    5    5    0    0  0.15109237904E+03  0.86436414205E+02  0.54832839093E+03  0.57529486788E+03  0.00000000000E+00 0. -1.
         22    1    5    5    0    0 -0.14584017778E+03  0.13074394537E+02 -0.24504469543E+03  0.28545962938E+03  0.00000000000E+00 0. -1.
          5    1    4    4  502    0 -0.35803541929E+02 -0.11417731682E+03  0.17112844000E+03  0.20886691042E+03  0.47000000000E+01 0. -1.
         -5    1    4    4    0  502  0.30551340662E+02  0.14666508074E+02  0.18978166254E+02  0.39124821657E+02  0.47000000000E+01 0. -1.
<mgrwt>
<rscale>  0 0.99291702E+03</rscale>
<asrwt>0</asrwt>
<pdfrwt beam="1">  1        2 0.12324127E+00 0.99291702E+03</pdfrwt>
<pdfrwt beam="2">  1       -2 0.47335072E-01 0.99291702E+03</pdfrwt>
<totfact> 0.17594802E+02</totfact>
</mgrwt>
</event>
<event>
 9    1  0.4342579E-036  0.1000378E+04  0.7818608E-02  0.8680678E-01
         -2   -1    0    0    0  501 -0.00000000000E+00  0.00000000000E+00  0.82235889847E+02  0.82235889847E+02  0.00000000000E+00 0. -1.
          2   -1    0    0  501    0  0.00000000000E+00 -0.00000000000E+00 -0.30423317740E+04  0.30423317740E+04  0.00000000000E+00 0. -1.
         36    2    1    2    0    0  0.28421709430E-13  0.00000000000E+00 -0.29600958841E+04  0.31245676638E+04  0.10003776500E+04 0.  0.
         25    2    3    3    0    0  0.13452564006E+03 -0.21768312735E+02 -0.67770620344E+03  0.70238979699E+03  0.12447779503E+03 0.  0.
         35    2    3    3    0    0 -0.13452564006E+03  0.21768312735E+02 -0.22823896807E+04  0.24221778668E+04  0.79941976258E+03 0.  0.
         22    1    5    5    0    0 -0.32059412138E+02 -0.38545108104E+03 -0.97099337936E+03  0.10451930370E+04  0.00000000000E+00 0.  1.
         22    1    5    5    0    0 -0.10246622792E+03  0.40721939377E+03 -0.13113963013E+04  0.13769848298E+04  0.00000000000E+00 0.  1.
          5    1    4    4  502    0  0.14486307797E+03 -0.11864698923E+02 -0.42417412982E+03  0.44841037549E+03  0.47000000000E+01 0.  1.
         -5    1    4    4    0  502 -0.10337437911E+02 -0.99036138120E+01 -0.25353207362E+03  0.25397942149E+03  0.47000000000E+01 0.  1.
<mgrwt>
<rscale>  0 0.10003776E+04</rscale>
<asrwt>0</asrwt>
<pdfrwt beam="1">  1        2 0.46805101E+00 0.10003776E+04</pdfrwt>
<pdfrwt beam="2">  1       -2 0.12651676E-01 0.10003776E+04</pdfrwt>
<totfact> 0.83216646E+01</totfact>
</mgrwt>
</event>
<event>
 9    1  0.4342579E-036  0.9999127E+03  0.7818608E-02  0.8681121E-01
         -2   -1    0    0    0  501 -0.00000000000E+00  0.00000000000E+00  0.19711354289E+03  0.19711354289E+03  0.00000000000E+00 0. -1.
          2   -1    0    0  501    0  0.00000000000E+00 -0.00000000000E+00 -0.12680832169E+04  0.12680832169E+04  0.00000000000E+00 0. -1.
         36    2    1    2    0    0  0.14210854715E-13  0.28421709430E-13 -0.10709696740E+04  0.14651967598E+04  0.99991274732E+03 0.  0.
         25    2    3    3    0    0  0.12199304567E+03  0.68335437375E+02 -0.20476222521E+03  0.27774546027E+03  0.12515165453E+03 0.  0.
         35    2    3    3    0    0 -0.12199304567E+03 -0.68335437375E+02 -0.86620744881E+03  0.11874512995E+04  0.80010824842E+03 0.  0.
         22    1    5    5    0    0 -0.15375930380E+03 -0.26074588300E+03 -0.32390763688E+01  0.30272236558E+03  0.00000000000E+00 0. -1.
         22    1    5    5    0    0  0.31766258126E+02  0.19241044562E+03 -0.86296837244E+03  0.88472893395E+03  0.00000000000E+00 0. -1.
          5    1    4    4  502    0  0.10524003295E+03  0.63588952894E+02 -0.22134287126E+03  0.25324647307E+03  0.47000000000E+01 0.  1.
         -5    1    4    4    0  502  0.16753012719E+02  0.47464844815E+01  0.16580646049E+02  0.24498987193E+02  0.47000000000E+01 0.  1.
<mgrwt>
<rscale>  0 0.99991275E+03</rscale>
<asrwt>0</asrwt>
<pdfrwt beam="1">  1        2 0.19508972E+00 0.99991275E+03</pdfrwt>
<pdfrwt beam="2">  1       -2 0.30325161E-01 0.99991275E+03</pdfrwt>
<totfact> 0.20854596E+02</totfact>
</mgrwt>
</event>
<event>
 9    1  0.4342579E-036  0.1000592E+04  0.7818608E-02  0.8680474E-01
          2   -1    0    0  501    0  0.00000000000E+00  0.00000000000E+00  0.60560647922E+03  0.60560647922E+03  0.00000000000E+00 0. -1.
         -2   -1    0    0    0  501 -0.00000000000E+00 -0.00000000000E+00 -0.41329851499E+03  0.41329851499E+03  0.00000000000E+00 0. -1.
         36    2    1    2    0    0  0.71054273576E-14  0.00000000000E+00  0.19230796422E+03  0.10189049942E+04  0.10005923416E+04 0.  0.
         25    2    3    3    0    0  0.97529645997E+01  0.13276052658E+03 -0.51199249899E+01  0.18414893708E+03  0.12713826984E+03 0.  0.
         35    2    3    3    0    0 -0.97529645997E+01 -0.13276052658E+03  0.19742788921E+03  0.83475605713E+03  0.80007463761E+03 0.  0.
         22    1    5    5    0    0 -0.14630424221E+03  0.11902103761E+02 -0.28077284590E+03  0.31682800122E+03  0.00000000000E+00 0. -1.
         22    1    5    5    0    0  0.13655127761E+03 -0.14466263034E+03  0.47820073512E+03  0.51792805591E+03  0.00000000000E+00 0. -1.
          5    1    4    4  502    0 -0.20803343300E+02  0.24785711107E+02  0.49447561049E+02  0.59281210018E+02  0.47000000000E+01 0.  1.
         -5    1    4    4    0  502  0.30556307899E+02  0.10797481547E+03 -0.54567486039E+02  0.12486772706E+03  0.47000000000E+01 0.  1.
<mgrwt>
<rscale>  0 0.10005923E+04</rscale>
<asrwt>0</asrwt>
<pdfrwt beam="1">  1        2 0.93170227E-01 0.10005923E+04</pdfrwt>
<pdfrwt beam="2">  1       -2 0.63584387E-01 0.10005923E+04</pdfrwt>
<totfact> 0.13581201E+02</totfact>
</mgrwt>
</event>
<event>
 9    1  0.4342579E-036  0.9999159E+03  0.7818608E-02  0.8681118E-01
          1   -1    0    0  501    0  0.00000000000E+00  0.00000000000E+00  0.92175051193E+03  0.92175051193E+03  0.00000000000E+00 0. -1.
         -1   -1    0    0    0  501 -0.00000000000E+00 -0.00000000000E+00 -0.27117746404E+03  0.27117746404E+03  0.00000000000E+00 0. -1.
         36    2    1    2    0    0  0.00000000000E+00  0.00000000000E+00  0.65057304789E+03  0.11929279760E+04  0.99991592906E+03 0.  0.
         25    2    3    3    0    0  0.10896977273E+03  0.69290060537E+02  0.18488578864E+03  0.25787498328E+03  0.12506489636E+03 0.  0.
         35    2    3    3    0    0 -0.10896977273E+03 -0.69290060537E+02  0.46568725925E+03  0.93505299268E+03  0.80048981994E+03 0.  0.
         22    1    5    5    0    0  0.25756088662E+01 -0.41729514137E+03  0.36896477503E+03  0.55702502097E+03  0.00000000000E+00 0.  1.
         22    1    5    5    0    0 -0.11154538160E+03  0.34800508083E+03  0.96722484217E+02  0.37802797171E+03  0.00000000000E+00 0.  1.
          5    1    4    4  502    0 -0.15830089271E+02  0.20106706800E+02 -0.38249463616E+01  0.26298129199E+02  0.47000000000E+01 0. -1.
         -5    1    4    4    0  502  0.12479986200E+03  0.49183353737E+02  0.18871073501E+03  0.23157685408E+03  0.47000000000E+01 0. -1.
<mgrwt>
<rscale>  0 0.99991593E+03</rscale>
<asrwt>0</asrwt>
<pdfrwt beam="1">  1        1 0.14180777E+00 0.99991593E+03</pdfrwt>
<pdfrwt beam="2">  1       -1 0.41719610E-01 0.99991593E+03</pdfrwt>
<totfact> 0.11091760E+02</totfact>
</mgrwt>
</event>
<event>
 9    1  0.4342579E-036  0.9991346E+03  0.7818608E-02  0.8681863E-01
         -2   -1    0    0    0  501 -0.00000000000E+00  0.00000000000E+00  0.87605096533E+02  0.87605096533E+02  0.00000000000E+00 0. -1.
          2   -1    0    0  501    0  0.00000000000E+00 -0.00000000000E+00 -0.28487779840E+04  0.28487779840E+04  0.00000000000E+00 0. -1.
         36    2    1    2    0    0  0.00000000000E+00  0.14210854715E-13 -0.27611728875E+04  0.29363830806E+04  0.99913456610E+03 0.  0.
         25    2    3    3    0    0 -0.52192626662E+02 -0.33663243039E+02 -0.87926620265E+03  0.89068334812E+03  0.12786902395E+03 0.  0.
         35    2    3    3    0    0  0.52192626662E+02  0.33663243039E+02 -0.18819066849E+04  0.20456997324E+04  0.79966076597E+03 0.  0.
         22    1    5    5    0    0 -0.18120605415E+03 -0.95175563631E+02 -0.73085233435E+02  0.21733723409E+03  0.00000000000E+00 0. -1.
         22    1    5    5    0    0  0.23339868081E+03  0.12883880667E+03 -0.18088214514E+04  0.18283624984E+04  0.00000000000E+00 0. -1.
          5    1    4    4  502    0  0.22653329733E+02  0.19190014357E+02 -0.69308101465E+02  0.75545568551E+02  0.47000000000E+01 0. -1.
         -5    1    4    4    0  502 -0.74845956395E+02 -0.52853257396E+02 -0.80995810119E+03  0.81513777957E+03  0.47000000000E+01 0. -1.
<mgrwt>
<rscale>  0 0.99913457E+03</rscale>
<asrwt>0</asrwt>
<pdfrwt beam="1">  1        2 0.43827349E+00 0.99913457E+03</pdfrwt>
<pdfrwt beam="2">  1       -2 0.13477708E-01 0.99913457E+03</pdfrwt>
<totfact> 0.10058622E+02</totfact>
</mgrwt>
</event>
<event>
 9    1  0.4342579E-036  0.1000772E+04  0.7818608E-02  0.8680303E-01
          1   -1    0    0  501    0  0.00000000000E+00  0.00000000000E+00  0.92242046303E+03  0.92242046303E+03  0.00000000000E+00 0. -1.
         -1   -1    0    0    0  501 -0.00000000000E+00 -0.00000000000E+00 -0.27144449110E+03  0.27144449110E+03  0.00000000000E+00 0. -1.
         36    2    1    2    0    0  0.00000000000E+00  0.00000000000E+00  0.65097597194E+03  0.11938649541E+04  0.10007716086E+04 0.  0.
         25    2    3    3    0    0 -0.55358092708E+02  0.12222026203E+03  0.69503485971E+02  0.19616873947E+03  0.12509647840E+03 0.  0.
         35    2    3    3    0    0  0.55358092708E+02 -0.12222026203E+03  0.58147248596E+03  0.99769621465E+03  0.79955310888E+03 0.  0.
         22    1    5    5    0    0 -0.87259418156E+02 -0.29641181621E+03  0.68382501965E+03  0.75039378218E+03  0.00000000000E+00 0. -1.
         22    1    5    5    0    0  0.14261751086E+03  0.17419155418E+03 -0.10235253368E+03  0.24730243247E+03  0.00000000000E+00 0. -1.
          5    1    4    4  502    0 -0.93554555733E+02  0.10606003129E+03  0.49789502829E+02  0.15000756557E+03  0.47000000000E+01 0. -1.
         -5    1    4    4    0  502  0.38196463025E+02  0.16160230735E+02  0.19713983142E+02  0.46161173906E+02  0.47000000000E+01 0. -1.
<mgrwt>
<rscale>  0 0.10007716E+04</rscale>
<asrwt>0</asrwt>
<pdfrwt beam="1">  1        1 0.14191084E+00 0.10007716E+04</pdfrwt>
<pdfrwt beam="2">  1       -1 0.41760691E-01 0.10007716E+04</pdfrwt>
<totfact> 0.11057309E+02</totfact>
</mgrwt>
</event>
<event>
 9    1  0.4342579E-036  0.9999013E+03  0.7818608E-02  0.8681132E-01
         -1   -1    0    0    0  501 -0.00000000000E+00  0.00000000000E+00  0.14721930169E+04  0.14721930169E+04  0.00000000000E+00 0. -1.
          1   -1    0    0  501    0  0.00000000000E+00 -0.00000000000E+00 -0.16978118650E+03  0.16978118650E+03  0.00000000000E+00 0. -1.
         36    2    1    2    0    0 -0.14210854715E-13  0.00000000000E+00  0.13024118304E+04  0.16419742034E+04  0.99990134947E+03 0.  0.
         25    2    3    3    0    0  0.59912796357E+02 -0.86550968572E+02  0.39683143503E+03  0.42886711763E+03  0.12398065748E+03 0.  0.
         35    2    3    3    0    0 -0.59912796357E+02  0.86550968572E+02  0.90558039538E+03  0.12131070858E+04  0.80029515539E+03 0.  0.
         22    1    5    5    0    0 -0.37099012243E+03  0.14957850245E+03  0.77052862998E+03  0.86817150895E+03  0.00000000000E+00 0. -1.
         22    1    5    5    0    0  0.31107732607E+03 -0.63027533878E+02  0.13505176541E+03  0.34493557683E+03  0.00000000000E+00 0. -1.
          5    1    4    4  502    0  0.20983129358E+02 -0.83181790357E+02  0.37319720753E+03  0.38295919844E+03  0.47000000000E+01 0.  1.
         -5    1    4    4    0  502  0.38929666998E+02 -0.33691782159E+01  0.23634227495E+02  0.45907919183E+02  0.47000000000E+01 0.  1.
<mgrwt>
<rscale>  0 0.99990135E+03</rscale>
<asrwt>0</asrwt>
<pdfrwt beam="1">  1        1 0.26120184E-01 0.99990135E+03</pdfrwt>
<pdfrwt beam="2">  1       -1 0.22649122E+00 0.99990135E+03</pdfrwt>
<totfact> 0.16939925E+01</totfact>
</mgrwt>
</event>
<event>
 9    1  0.4342579E-036  0.1000439E+04  0.7818608E-02  0.8680620E-01
          1   -1    0    0  501    0  0.00000000000E+00  0.00000000000E+00  0.12048813428E+03  0.12048813428E+03  0.00000000000E+00 0.  1.
         -1   -1    0    0    0  501 -0.00000000000E+00 -0.00000000000E+00 -0.20767140734E+04  0.20767140734E+04  0.00000000000E+00 0.  1.
         36    2    1    2    0    0  0.14210854715E-13  0.00000000000E+00 -0.19562259392E+04  0.21972022077E+04  0.10004387121E+04 0.  0.
         25    2    3    3    0    0 -0.11655635238E+03  0.30371565645E+02 -0.20742170123E+03  0.27055665074E+03  0.12517716981E+03 0.  0.
         35    2    3    3    0    0  0.11655635238E+03 -0.30371565645E+02 -0.17488042379E+04  0.19266455570E+04  0.79946170912E+03 0.  0.
         22    1    5    5    0    0 -0.18971519578E+03 -0.78567494190E+02 -0.15381874205E+04  0.15518328671E+04  0.00000000000E+00 0. -1.
         22    1    5    5    0    0  0.30627154816E+03  0.48195928545E+02 -0.21061681740E+03  0.37481268991E+03  0.00000000000E+00 0. -1.
          5    1    4    4  502    0 -0.31198276238E+02 -0.77257390276E+01 -0.16434990438E+03  0.16752910360E+03  0.47000000000E+01 0.  1.
         -5    1    4    4    0  502 -0.85358076145E+02  0.38097304673E+02 -0.43071796847E+02  0.10302754714E+03  0.47000000000E+01 0.  1.
<mgrwt>
<rscale>  0 0.10004387E+04</rscale>
<asrwt>0</asrwt>
<pdfrwt beam="1">  1        1 0.18536636E-01 0.10004387E+04</pdfrwt>
<pdfrwt beam="2">  1       -1 0.31949447E+00 0.10004387E+04</pdfrwt>
<totfact> 0.23716032E+00</totfact>
</mgrwt>
</event>
<event>
 9    1  0.4342579E-036  0.9994802E+03  0.7818608E-02  0.8681533E-01
         -2   -1    0    0    0  501 -0.00000000000E+00  0.00000000000E+00  0.28809574647E+03  0.28809574647E+03  0.00000000000E+00 0.  1.
          2   -1    0    0  501    0  0.00000000000E+00 -0.00000000000E+00 -0.86686508651E+03  0.86686508651E+03  0.00000000000E+00 0.  1.
         36    2    1    2    0    0 -0.35527136788E-14  0.00000000000E+00 -0.57876934004E+03  0.11549608330E+04  0.99948015325E+03 0.  0.
         25    2    3    3    0    0  0.11169987609E+02 -0.64151454394E+02 -0.25371750264E+03  0.29020358581E+03  0.12492146471E+03 0.  0.
         35    2    3    3    0    0 -0.11169987609E+02  0.64151454394E+02 -0.32505183740E+03  0.86475724717E+03  0.79869031659E+03 0.  0.
         22    1    5    5    0    0  0.29916948406E+03  0.13873411685E+03  0.89374072629E+02  0.34166834830E+03  0.00000000000E+00 0. -1.
         22    1    5    5    0    0 -0.31033947167E+03 -0.74582662460E+02 -0.41442591003E+03  0.52308889887E+03  0.00000000000E+00 0. -1.
          5    1    4    4  502    0  0.17584816303E+02  0.34630192687E+02 -0.99212262761E+02  0.10664726481E+03  0.47000000000E+01 0. -1.
         -5    1    4    4    0  502 -0.64148286936E+01 -0.98781647081E+02 -0.15450523988E+03  0.18355632100E+03  0.47000000000E+01 0. -1.
<mgrwt>
<rscale>  0 0.99948015E+03</rscale>
<asrwt>0</asrwt>
<pdfrwt beam="1">  1        2 0.13336386E+00 0.99948015E+03</pdfrwt>
<pdfrwt beam="2">  1       -2 0.44322424E-01 0.99948015E+03</pdfrwt>
<totfact> 0.18045075E+02</totfact>
</mgrwt>
</event>
<event>
 9    1  0.4342579E-036  0.9987978E+03  0.7818608E-02  0.8682184E-01
          2   -1    0    0  501    0  0.00000000000E+00  0.00000000000E+00  0.14148528583E+04  0.14148528583E+04  0.00000000000E+00 0. -1.
         -2   -1    0    0    0  501 -0.00000000000E+00 -0.00000000000E+00 -0.17627223752E+03  0.17627223752E+03  0.00000000000E+00 0. -1.
         36    2    1    2    0    0 -0.42632564146E-13  0.00000000000E+00  0.12385806207E+04  0.15911250958E+04  0.99879783558E+03 0.  0.
         25    2    3    3    0    0 -0.11111813642E+03  0.78242899835E+02  0.27359741204E+03  0.33016321631E+03  0.12523184065E+03 0.  0.
         35    2    3    3    0    0  0.11111813642E+03 -0.78242899835E+02  0.96498320869E+03  0.12609618795E+04  0.80022689082E+03 0.  0.
         22    1    5    5    0    0  0.44379531913E+03 -0.15413036575E+03  0.58402781048E+03  0.74953247984E+03  0.00000000000E+00 0.  1.
         22    1    5    5    0    0 -0.33267718270E+03  0.75887465913E+02  0.38095539821E+03  0.51142939962E+03  0.00000000000E+00 0.  1.
          5    1    4    4  502    0 -0.73837717814E+02  0.10964445719E+03  0.22606546021E+03  0.26191906740E+03  0.47000000000E+01 0.  1.
         -5    1    4    4    0  502 -0.37280418611E+02 -0.31401557358E+02  0.47531951832E+02  0.68244148916E+02  0.47000000000E+01 0.  1.
<mgrwt>
<rscale>  0 0.99879784E+03</rscale>
<asrwt>0</asrwt>
<pdfrwt beam="1">  1        2 0.21766966E+00 0.99879784E+03</pdfrwt>
<pdfrwt beam="2">  1       -2 0.27118807E-01 0.99879784E+03</pdfrwt>
<totfact> 0.21012856E+02</totfact>
</mgrwt>
</event>
<event>
 9    1  0.4342579E-036  0.1000517E+04  0.7818608E-02  0.8680546E-01
          2   -1    0    0  501    0  0.00000000000E+00  0.00000000000E+00  0.10824587695E+04  0.10824587695E+04  0.00000000000E+00 0.  1.
         -2   -1    0    0    0  501 -0.00000000000E+00 -0.00000000000E+00 -0.23119452240E+03  0.23119452240E+03  0.00000000000E+00 0.  1.
         36    2    1    2    0    0  0.28421709430E-13 -0.14210854715E-13  0.85126424713E+03  0.13136532919E+04  0.10005169429E+04 0.  0.
         25    2    3    3    0    0 -0.88213639908E+02  0.11671083501E+03  0.12272750913E+03  0.22047682550E+03  0.11020400995E+03 0.  0.
         35    2    3    3    0    0  0.88213639908E+02 -0.11671083501E+03  0.72853673800E+03  0.10931764664E+04  0.80178921351E+03 0.  0.
         22    1    5    5    0    0 -0.17708350876E+02  0.16502953437E+03 -0.11209440152E+03  0.20028351844E+03  0.00000000000E+00 0. -1.
         22    1    5    5    0    0  0.10592199078E+03 -0.28174036938E+03  0.84063113952E+03  0.89289294801E+03  0.00000000000E+00 0. -1.
          5    1    4    4  502    0 -0.10689757071E+03  0.74764303975E+02  0.62859147917E+02  0.14487979242E+03  0.47000000000E+01 0.  1.
         -5    1    4    4    0  502  0.18683930806E+02  0.41946531035E+02  0.59868361213E+02  0.75597033080E+02  0.47000000000E+01 0.  1.
<mgrwt>
<rscale>  0 0.10005169E+04</rscale>
<asrwt>0</asrwt>
<pdfrwt beam="1">  1        2 0.16653212E+00 0.10005169E+04</pdfrwt>
<pdfrwt beam="2">  1       -2 0.35568388E-01 0.10005169E+04</pdfrwt>
<totfact> 0.20030339E+02</totfact>
</mgrwt>
</event>
<event>
 9    1  0.4342579E-036  0.9999218E+03  0.7818608E-02  0.8681112E-01
          1   -1    0    0  501    0  0.00000000000E+00  0.00000000000E+00  0.18926455585E+03  0.18926455585E+03  0.00000000000E+00 0.  1.
         -1   -1    0    0    0  501 -0.00000000000E+00 -0.00000000000E+00 -0.13206957147E+04  0.13206957147E+04  0.00000000000E+00 0.  1.
         36    2    1    2    0    0 -0.28421709430E-13 -0.35527136788E-14 -0.11314311588E+04  0.15099602705E+04  0.99992177263E+03 0.  0.
         25    2    3    3    0    0  0.13318859319E+03 -0.20051360044E+02 -0.28054376045E+03  0.33448071893E+03  0.12260216723E+03 0.  0.
         35    2    3    3    0    0 -0.13318859319E+03  0.20051360044E+02 -0.85088739836E+03  0.11754795516E+04  0.79975093192E+03 0.  0.
         22    1    5    5    0    0 -0.23808382416E+03  0.63980160722E+02  0.63073042602E+02  0.25447117124E+03  0.00000000000E+00 0.  1.
         22    1    5    5    0    0  0.10489523097E+03 -0.43928800678E+02 -0.91396044097E+03  0.92100838034E+03  0.00000000000E+00 0.  1.
          5    1    4    4  502    0 -0.12297169467E+02  0.15489165619E+02 -0.89004689221E+02  0.91296546111E+02  0.47000000000E+01 0.  1.
         -5    1    4    4    0  502  0.14548576266E+03 -0.35540525662E+02 -0.19153907123E+03  0.24318417282E+03  0.47000000000E+01 0.  1.
<mgrwt>
<rscale>  0 0.99992177E+03</rscale>
<asrwt>0</asrwt>
<pdfrwt beam="1">  1        1 0.29117625E-01 0.99992177E+03</pdfrwt>
<pdfrwt beam="2">  1       -1 0.20318395E+00 0.99992177E+03</pdfrwt>
<totfact> 0.23390366E+01</totfact>
</mgrwt>
</event>
<event>
 9    1  0.4342579E-036  0.9992822E+03  0.7818608E-02  0.8681722E-01
          2   -1    0    0  501    0  0.00000000000E+00  0.00000000000E+00  0.57018596045E+03  0.57018596045E+03  0.00000000000E+00 0.  1.
         -2   -1    0    0    0  501 -0.00000000000E+00 -0.00000000000E+00 -0.43782423148E+03  0.43782423148E+03  0.00000000000E+00 0.  1.
         36    2    1    2    0    0  0.00000000000E+00  0.19539925233E-13  0.13236172897E+03  0.10080101919E+04  0.99928220225E+03 0.  0.
         25    2    3    3    0    0  0.95360373088E+02  0.95914589538E+01  0.12566969437E+03  0.20195378497E+03  0.12572534486E+03 0.  0.
         35    2    3    3    0    0 -0.95360373088E+02 -0.95914589538E+01  0.66920346008E+01  0.80605640696E+03  0.80031028423E+03 0.  0.
         22    1    5    5    0    0 -0.17442782620E+03 -0.28549633114E+03  0.25963700498E+03  0.42349096331E+03  0.00000000000E+00 0.  1.
         22    1    5    5    0    0  0.79067453116E+02  0.27590487219E+03 -0.25294497038E+03  0.38256544365E+03  0.00000000000E+00 0.  1.
          5    1    4    4  502    0 -0.53960146550E+01 -0.64445082998E+01 -0.21072081531E+02  0.23168324959E+02  0.47000000000E+01 0.  1.
         -5    1    4    4    0  502  0.10075638774E+03  0.16035967254E+02  0.14674177590E+03  0.17878546001E+03  0.47000000000E+01 0.  1.
<mgrwt>
<rscale>  0 0.99928220E+03</rscale>
<asrwt>0</asrwt>
<pdfrwt beam="1">  1        2 0.87720917E-01 0.99928220E+03</pdfrwt>
<pdfrwt beam="2">  1       -2 0.67357574E-01 0.99928220E+03</pdfrwt>
<totfact> 0.12896397E+02</totfact>
</mgrwt>
</event>
<event>
 9    1  0.4342579E-036  0.1000114E+04  0.7818608E-02  0.8680930E-01
          1   -1    0    0  501    0  0.00000000000E+00  0.00000000000E+00  0.19485494218E+03  0.19485494218E+03  0.00000000000E+00 0.  1.
         -1   -1    0    0    0  501 -0.00000000000E+00 -0.00000000000E+00 -0.12832978214E+04  0.12832978214E+04  0.00000000000E+00 0.  1.
         36    2    1    2    0    0  0.00000000000E+00 -0.71054273576E-14 -0.10884428792E+04  0.14781527635E+04  0.10001138391E+04 0.  0.
         25    2    3    3    0    0 -0.45002329867E+02 -0.17037568280E+02 -0.66923542824E+01  0.13410848225E+03  0.12499923591E+03 0.  0.
         35    2    3    3    0    0  0.45002329867E+02  0.17037568280E+02 -0.10817505249E+04  0.13440442813E+04  0.79621312694E+03 0.  0.
         22    1    5    5    0    0  0.80966877023E+02 -0.11831625046E+03 -0.11698409342E+04  0.11785933063E+04  0.00000000000E+00 0.  1.
         22    1    5    5    0    0 -0.35964547156E+02  0.13535381874E+03  0.88090409335E+02  0.16545097496E+03  0.00000000000E+00 0.  1.
          5    1    4    4  502    0 -0.79695292078E+02 -0.29141478926E+02  0.21374949734E+02  0.87633006621E+02  0.47000000000E+01 0. -1.
         -5    1    4    4    0  502  0.34692962211E+02  0.12103910646E+02 -0.28067304016E+02  0.46475475626E+02  0.47000000000E+01 0. -1.
<mgrwt>
<rscale>  0 0.10001138E+04</rscale>
<asrwt>0</asrwt>
<pdfrwt beam="1">  1        1 0.29977684E-01 0.10001138E+04</pdfrwt>
<pdfrwt beam="2">  1       -1 0.19743043E+00 0.10001138E+04</pdfrwt>
<totfact> 0.25199147E+01</totfact>
</mgrwt>
</event>
<event>
 9    1  0.4342579E-036  0.9994339E+03  0.7818608E-02  0.8681577E-01
          2   -1    0    0  501    0  0.00000000000E+00  0.00000000000E+00  0.15242863513E+04  0.15242863513E+04  0.00000000000E+00 0.  1.
         -2   -1    0    0    0  501 -0.00000000000E+00 -0.00000000000E+00 -0.16382554708E+03  0.16382554708E+03  0.00000000000E+00 0.  1.
         36    2    1    2    0    0 -0.14210854715E-13 -0.14210854715E-13  0.13604608042E+04  0.16881118983E+04  0.99943393058E+03 0.  0.
         25    2    3    3    0    0  0.67956286641E+02 -0.11491879769E+03  0.18981515723E+03  0.26333642692E+03  0.12446643273E+03 0.  0.
         35    2    3    3    0    0 -0.67956286641E+02  0.11491879769E+03  0.11706456470E+04  0.14247754714E+04  0.80109270765E+03 0.  0.
         22    1    5    5    0    0  0.21868108626E+03  0.21428064646E+03  0.10576037592E+04  0.11010283032E+04  0.00000000000E+00 0. -1.
         22    1    5    5    0    0 -0.28663737290E+03 -0.99361848772E+02  0.11304188772E+03  0.32374716820E+03  0.00000000000E+00 0. -1.
          5    1    4    4  502    0 -0.25273898108E+02 -0.68086845395E+02  0.10998010282E+03  0.13187987511E+03  0.47000000000E+01 0. -1.
         -5    1    4    4    0  502  0.93230184749E+02 -0.46831952292E+02  0.79835054403E+02  0.13145655182E+03  0.47000000000E+01 0. -1.
<mgrwt>
<rscale>  0 0.99943393E+03</rscale>
<asrwt>0</asrwt>
<pdfrwt beam="1">  1        2 0.23450558E+00 0.99943393E+03</pdfrwt>
<pdfrwt beam="2">  1       -2 0.25203931E-01 0.99943393E+03</pdfrwt>
<totfact> 0.20755640E+02</totfact>
</mgrwt>
</event>
<event>
 9    1  0.4342579E-036  0.1001336E+04  0.7818608E-02  0.8679766E-01
          2   -1    0    0  501    0  0.00000000000E+00  0.00000000000E+00  0.24392557735E+04  0.24392557735E+04  0.00000000000E+00 0.  1.
         -2   -1    0    0    0  501 -0.00000000000E+00 -0.00000000000E+00 -0.10276436994E+03  0.10276436994E+03  0.00000000000E+00 0.  1.
         36    2    1    2    0    0 -0.71054273576E-14 -0.35527136788E-14  0.23364914036E+04  0.25420201434E+04  0.10013362725E+04 0.  0.
         25    2    3    3    0    0 -0.41930887096E+02 -0.13305333476E+02  0.78458061372E+03  0.79565141091E+03  0.12473651055E+03 0.  0.
         35    2    3    3    0    0  0.41930887096E+02  0.13305333476E+02  0.15519107898E+04  0.17463687325E+04  0.79965081074E+03 0.  0.
         22    1    5    5    0    0  0.68827233055E+02  0.10598872349E+03  0.16221133774E+04  0.16270287664E+04  0.00000000000E+00 0. -1.
         22    1    5    5    0    0 -0.26896345960E+02 -0.92683390015E+02 -0.70202587575E+02  0.11933996612E+03  0.00000000000E+00 0. -1.
          5    1    4    4  502    0 -0.56643901198E+01  0.14518740326E+02  0.87870294975E+01  0.18498135675E+02  0.47000000000E+01 0. -1.
         -5    1    4    4    0  502 -0.36266496976E+02 -0.27824073802E+02  0.77579358422E+03  0.77715327523E+03  0.47000000000E+01 0. -1.
<mgrwt>
<rscale>  0 0.10013363E+04</rscale>
<asrwt>0</asrwt>
<pdfrwt beam="1">  1        2 0.37527008E+00 0.10013363E+04</pdfrwt>
<pdfrwt beam="2">  1       -2 0.15809905E-01 0.10013363E+04</pdfrwt>
<totfact> 0.13873314E+02</totfact>
</mgrwt>
</event>
<event>
 9    1  0.4342579E-036  0.1000006E+04  0.7818608E-02  0.8681033E-01
         -1   -1    0    0    0  501 -0.00000000000E+00  0.00000000000E+00  0.44717826647E+03  0.44717826647E+03  0.00000000000E+00 0.  1.
          1   -1    0    0  501    0  0.00000000000E+00 -0.00000000000E+00 -0.55906737961E+03  0.55906737961E+03  0.00000000000E+00 0.  1.
         36    2    1    2    0    0  0.00000000000E+00 -0.10658141036E-13 -0.11188911314E+03  0.10062456461E+04  0.10000055633E+04 0.  0.
         25    2    3    3    0    0 -0.11144273383E+03 -0.28057931949E+02 -0.10622952538E+03  0.19746733785E+03  0.12042386385E+03 0.  0.
         35    2    3    3    0    0  0.11144273383E+03  0.28057931949E+02 -0.56595877644E+01  0.80877830823E+03  0.80055205356E+03 0.  0.
         22    1    5    5    0    0  0.72021847286E+02 -0.47613436501E+02 -0.39800527357E+03  0.40726205766E+03  0.00000000000E+00 0. -1.
         22    1    5    5    0    0  0.39420886546E+02  0.75671368451E+02  0.39234568581E+03  0.40151625057E+03  0.00000000000E+00 0. -1.
          5    1    4    4  502    0 -0.58255101063E+02 -0.32765300123E+02 -0.12404358210E+03  0.14098270090E+03  0.47000000000E+01 0.  1.
         -5    1    4    4    0  502 -0.53187632768E+02  0.47073681740E+01  0.17814056720E+02  0.56484636951E+02  0.47000000000E+01 0.  1.
<mgrwt>
<rscale>  0 0.10000056E+04</rscale>
<asrwt>0</asrwt>
<pdfrwt beam="1">  1        1 0.86010366E-01 0.10000056E+04</pdfrwt>
<pdfrwt beam="2">  1       -1 0.68796657E-01 0.10000056E+04</pdfrwt>
<totfact> 0.94855972E+01</totfact>
</mgrwt>
</event>
<event>
 9    1  0.4342579E-036  0.1000939E+04  0.7818608E-02  0.8680144E-01
          2   -1    0    0  501    0  0.00000000000E+00  0.00000000000E+00  0.82139948731E+03  0.82139948731E+03  0.00000000000E+00 0. -1.
         -2   -1    0    0    0  501 -0.00000000000E+00 -0.00000000000E+00 -0.30493069158E+03  0.30493069158E+03  0.00000000000E+00 0. -1.
         36    2    1    2    0    0 -0.42632564146E-13  0.71054273576E-14  0.51646879573E+03  0.11263301789E+04  0.10009393862E+04 0.  0.
         25    2    3    3    0    0  0.53786262694E+02  0.58871970311E+01 -0.48983099489E+02  0.14500407011E+03  0.12529650900E+03 0.  0.
         35    2    3    3    0    0 -0.53786262694E+02 -0.58871970311E+01  0.56545189522E+03  0.98132610878E+03  0.80021088771E+03 0.  0.
         22    1    5    5    0    0  0.33734526111E+03 -0.16849060722E+03  0.23772656142E+03  0.44576319713E+03  0.00000000000E+00 0.  1.
         22    1    5    5    0    0 -0.39113152380E+03  0.16260341019E+03  0.32772533380E+03  0.53556291165E+03  0.00000000000E+00 0.  1.
          5    1    4    4  502    0  0.51295045726E+02  0.57322355053E+02 -0.51871381320E+01  0.77240083551E+02  0.47000000000E+01 0.  1.
         -5    1    4    4    0  502  0.24912169670E+01 -0.51435158022E+02 -0.43795961357E+02  0.67763986556E+02  0.47000000000E+01 0.  1.
<mgrwt>
<rscale>  0 0.10009394E+04</rscale>
<asrwt>0</asrwt>
<pdfrwt beam="1">  1        2 0.12636915E+00 0.10009394E+04</pdfrwt>
<pdfrwt beam="2">  1       -2 0.46912414E-01 0.10009394E+04</pdfrwt>
<totfact> 0.17332825E+02</totfact>
</mgrwt>
</event>
<event>
 9    1  0.4342579E-036  0.9996062E+03  0.7818608E-02  0.8681413E-01
         -1   -1    0    0    0  501 -0.00000000000E+00  0.00000000000E+00  0.34445576624E+03  0.34445576624E+03  0.00000000000E+00 0. -1.
          1   -1    0    0  501    0  0.00000000000E+00 -0.00000000000E+00 -0.72521110285E+03  0.72521110285E+03  0.00000000000E+00 0. -1.
         36    2    1    2    0    0  0.14210854715E-13  0.00000000000E+00 -0.38075533661E+03  0.10696668691E+04  0.99960621469E+03 0.  0.
         25    2    3    3    0    0  0.15716897223E+02  0.13829135216E+03 -0.90478005672E+02  0.20721030331E+03  0.12400935992E+03 0.  0.
         35    2    3    3    0    0 -0.15716897223E+02 -0.13829135216E+03 -0.29027733094E+03  0.86245656577E+03  0.80012429037E+03 0.  0.
         22    1    5    5    0    0 -0.25641245050E+03  0.11559073533E+03 -0.40605523824E+03  0.49395285136E+03  0.00000000000E+00 0. -1.
         22    1    5    5    0    0  0.24069555327E+03 -0.25388208749E+03  0.11577790730E+03  0.36850371441E+03  0.00000000000E+00 0. -1.
          5    1    4    4  502    0  0.56219141735E+02  0.55369723998E+02 -0.16942016306E+01  0.79065533276E+02  0.47000000000E+01 0. -1.
         -5    1    4    4    0  502 -0.40502244513E+02  0.82921628163E+02 -0.88783804041E+02  0.12814477004E+03  0.47000000000E+01 0. -1.
<mgrwt>
<rscale>  0 0.99960621E+03</rscale>
<asrwt>0</asrwt>
<pdfrwt beam="1">  1        1 0.11157094E+00 0.99960621E+03</pdfrwt>
<pdfrwt beam="2">  1       -1 0.52993195E-01 0.99960621E+03</pdfrwt>
<totfact> 0.10629262E+02</totfact>
</mgrwt>
</event>
<event>
 9    1  0.4342579E-036  0.1001594E+04  0.7818608E-02  0.8679521E-01
         -2   -1    0    0    0  501 -0.00000000000E+00  0.00000000000E+00  0.57246441969E+03  0.57246441969E+03  0.00000000000E+00 0. -1.
          2   -1    0    0  501    0  0.00000000000E+00 -0.00000000000E+00 -0.43810202254E+03  0.43810202254E+03  0.00000000000E+00 0. -1.
         36    2    1    2    0    0 -0.28421709430E-13  0.71054273576E-14  0.13436239715E+03  0.10105664422E+04  0.10015943692E+04 0.  0.
         25    2    3    3    0    0  0.12892048240E+03 -0.46205099288E+02  0.65449477741E+02  0.19571679935E+03  0.12355577456E+03 0.  0.
         35    2    3    3    0    0 -0.12892048240E+03  0.46205099288E+02  0.68912919407E+02  0.81484964288E+03  0.80029716234E+03 0.  0.
         22    1    5    5    0    0 -0.19387080333E+02 -0.27172622475E+02 -0.36235013733E+03  0.36388436669E+03  0.00000000000E+00 0.  1.
         22    1    5    5    0    0 -0.10953340207E+03  0.73377721764E+02  0.43126305674E+03  0.45096527619E+03  0.00000000000E+00 0.  1.
          5    1    4    4  502    0  0.14476325167E+03 -0.12972640422E+02  0.40355057991E+02  0.15091490695E+03  0.47000000000E+01 0. -1.
         -5    1    4    4    0  502 -0.15842769266E+02 -0.33232458866E+02  0.25094419750E+02  0.44801892403E+02  0.47000000000E+01 0. -1.
<mgrwt>
<rscale>  0 0.10015944E+04</rscale>
<asrwt>0</asrwt>
<pdfrwt beam="1">  1        2 0.67400311E-01 0.10015944E+04</pdfrwt>
<pdfrwt beam="2">  1       -2 0.88071449E-01 0.10015944E+04</pdfrwt>
<totfact> 0.95321707E+01</totfact>
</mgrwt>
</event>
<event>
 9    1  0.4342579E-036  0.1000101E+04  0.7818608E-02  0.8680941E-01
          2   -1    0    0  501    0  0.00000000000E+00  0.00000000000E+00  0.64195846788E+03  0.64195846788E+03  0.00000000000E+00 0. -1.
         -2   -1    0    0    0  501 -0.00000000000E+00 -0.00000000000E+00 -0.38951231744E+03  0.38951231744E+03  0.00000000000E+00 0. -1.
         36    2    1    2    0    0 -0.28421709430E-13  0.71054273576E-14  0.25244615043E+03  0.10314707853E+04  0.10001014559E+04 0.  0.
         25    2    3    3    0    0  0.12279334962E+03 -0.39497867771E+02  0.99893456250E+02  0.20503489863E+03  0.12418662886E+03 0.  0.
         35    2    3    3    0    0 -0.12279334962E+03  0.39497867771E+02  0.15255269418E+03  0.82643588669E+03  0.80192621982E+03 0.  0.
         22    1    5    5    0    0  0.13642837995E+03 -0.15622548887E+03  0.37792061286E+03  0.43109522829E+03  0.00000000000E+00 0. -1.
         22    1    5    5    0    0 -0.25922172957E+03  0.19572335664E+03 -0.22536791868E+03  0.39534065840E+03  0.00000000000E+00 0. -1.
          5    1    4    4  502    0  0.79105340669E+02 -0.33400354461E+02  0.12675598624E+03  0.15317443863E+03  0.47000000000E+01 0. -1.
         -5    1    4    4    0  502  0.43688008948E+02 -0.60975133103E+01 -0.26862529994E+02  0.51860460006E+02  0.47000000000E+01 0. -1.
<mgrwt>
<rscale>  0 0.10001015E+04</rscale>
<asrwt>0</asrwt>
<pdfrwt beam="1">  1        2 0.98762841E-01 0.10001015E+04</pdfrwt>
<pdfrwt beam="2">  1       -2 0.59924972E-01 0.10001015E+04</pdfrwt>
<totfact> 0.14346470E+02</totfact>
</mgrwt>
</event>
<event>
 9    1  0.4342579E-036  0.1000804E+04  0.7818608E-02  0.8680272E-01
          1   -1    0    0  501    0  0.00000000000E+00  0.00000000000E+00  0.37900307690E+03  0.37900307690E+03  0.00000000000E+00 0.  1.
         -1   -1    0    0    0  501 -0.00000000000E+00 -0.00000000000E+00 -0.66068689471E+03  0.66068689471E+03  0.00000000000E+00 0.  1.
         36    2    1    2    0    0  0.00000000000E+00  0.00000000000E+00 -0.28168381781E+03  0.10396899716E+04  0.10008044084E+04 0.  0.
         25    2    3    3    0    0  0.69791047613E+02 -0.11010068804E+03 -0.10995220711E+03  0.21028851280E+03  0.12303990789E+03 0.  0.
         35    2    3    3    0    0 -0.69791047613E+02  0.11010068804E+03 -0.17173161071E+03  0.82940145881E+03  0.80088830802E+03 0.  0.
         22    1    5    5    0    0  0.26842264864E+03 -0.20928929854E+03 -0.23554930136E+02  0.34118552654E+03  0.00000000000E+00 0. -1.
         22    1    5    5    0    0 -0.33821369625E+03  0.31938998658E+03 -0.14817668057E+03  0.48821593227E+03  0.00000000000E+00 0. -1.
          5    1    4    4  502    0  0.56286994053E+02 -0.47255046631E+02 -0.12409671101E+03  0.14430297577E+03  0.47000000000E+01 0.  1.
         -5    1    4    4    0  502  0.13504053560E+02 -0.62845641407E+02  0.14144503907E+02  0.65985537031E+02  0.47000000000E+01 0.  1.
<mgrwt>
<rscale>  0 0.10008044E+04</rscale>
<asrwt>0</asrwt>
<pdfrwt beam="1">  1        1 0.58308167E-01 0.10008044E+04</pdfrwt>
<pdfrwt beam="2">  1       -1 0.10164414E+00 0.10008044E+04</pdfrwt>
<totfact> 0.70945433E+01</totfact>
</mgrwt>
</event>
<event>
 9    1  0.4342579E-036  0.9976690E+03  0.7818608E-02  0.8683261E-01
          2   -1    0    0  501    0  0.00000000000E+00  0.00000000000E+00  0.17670400402E+03  0.17670400402E+03  0.00000000000E+00 0.  1.
         -2   -1    0    0    0  501 -0.00000000000E+00 -0.00000000000E+00 -0.14082072744E+04  0.14082072744E+04  0.00000000000E+00 0.  1.
         36    2    1    2    0    0  0.00000000000E+00  0.00000000000E+00 -0.12315032704E+04  0.15849112784E+04  0.99766901101E+03 0.  0.
         25    2    3    3    0    0  0.12150082511E+03 -0.14325397162E+02 -0.13171876282E+03  0.21909158323E+03  0.12523426790E+03 0.  0.
         35    2    3    3    0    0 -0.12150082511E+03  0.14325397162E+02 -0.10997845076E+04  0.13658196952E+04  0.80060590130E+03 0.  0.
         22    1    5    5    0    0  0.25697017988E+03  0.11370361422E+03 -0.86497265498E+03  0.90947230805E+03  0.00000000000E+00 0.  1.
         22    1    5    5    0    0 -0.37847100500E+03 -0.99378217061E+02 -0.23481185261E+03  0.45634738717E+03  0.00000000000E+00 0.  1.
          5    1    4    4  502    0 -0.26117153097E+02 -0.46476041959E+01 -0.23337878556E+02  0.35643407331E+02  0.47000000000E+01 0. -1.
         -5    1    4    4    0  502  0.14761797821E+03 -0.96777929660E+01 -0.10838088426E+03  0.18344817590E+03  0.47000000000E+01 0. -1.
<mgrwt>
<rscale>  0 0.99766901E+03</rscale>
<asrwt>0</asrwt>
<pdfrwt beam="1">  1        2 0.27185231E-01 0.99766901E+03</pdfrwt>
<pdfrwt beam="2">  1       -2 0.21664728E+00 0.99766901E+03</pdfrwt>
<totfact> 0.22343907E+01</totfact>
</mgrwt>
</event>
<event>
 9    1  0.4342579E-036  0.1000741E+04  0.7818608E-02  0.8680332E-01
         -2   -1    0    0    0  501 -0.00000000000E+00  0.00000000000E+00  0.84432852151E+02  0.84432852151E+02  0.00000000000E+00 0.  1.
          2   -1    0    0  501    0  0.00000000000E+00 -0.00000000000E+00 -0.29653245352E+04  0.29653245352E+04  0.00000000000E+00 0.  1.
         36    2    1    2    0    0  0.00000000000E+00  0.00000000000E+00 -0.28808916831E+04  0.30497573874E+04  0.10007413413E+04 0.  0.
         25    2    3    3    0    0 -0.10170595417E+03  0.75794480612E+02 -0.36746474910E+03  0.40863634463E+03  0.12595402304E+03 0.  0.
         35    2    3    3    0    0  0.10170595417E+03 -0.75794480612E+02 -0.25134269340E+04  0.26411210427E+04  0.80132172414E+03 0.  0.
         22    1    5    5    0    0  0.28625296509E+03 -0.21648909579E+02 -0.24014997576E+04  0.24185968083E+04  0.00000000000E+00 0.  1.
         22    1    5    5    0    0 -0.18454701092E+03 -0.54145571034E+02 -0.11192717635E+03  0.22252423443E+03  0.00000000000E+00 0.  1.
          5    1    4    4  502    0  0.22914896158E+02  0.32885237578E+02 -0.46137908323E+02  0.61297046429E+02  0.47000000000E+01 0.  1.
         -5    1    4    4    0  502 -0.12462085033E+03  0.42909243034E+02 -0.32132684078E+03  0.34733929820E+03  0.47000000000E+01 0.  1.
<mgrwt>
<rscale>  0 0.10007413E+04</rscale>
<asrwt>0</asrwt>
<pdfrwt beam="1">  1        2 0.45620371E+00 0.10007413E+04</pdfrwt>
<pdfrwt beam="2">  1       -2 0.12989671E-01 0.10007413E+04</pdfrwt>
<totfact> 0.89687231E+01</totfact>
</mgrwt>
</event>
<event>
 9    1  0.4342579E-036  0.9994711E+03  0.7818608E-02  0.8681542E-01
         -2   -1    0    0    0  501 -0.00000000000E+00  0.00000000000E+00  0.48585788135E+03  0.48585788135E+03  0.00000000000E+00 0.  1.
          2   -1    0    0  501    0  0.00000000000E+00 -0.00000000000E+00 -0.51400960530E+03  0.51400960530E+03  0.00000000000E+00 0.  1.
         36    2    1    2    0    0  0.00000000000E+00  0.00000000000E+00 -0.28151723952E+02  0.99986748665E+03  0.99947109578E+03 0.  0.
         25    2    3    3    0    0  0.55440364437E+02 -0.11326831535E+03 -0.68384008815E+02  0.18997980742E+03  0.12454962583E+03 0.  0.
         35    2    3    3    0    0 -0.55440364437E+02  0.11326831535E+03  0.40232284863E+02  0.80988767923E+03  0.79899691548E+03 0.  0.
         22    1    5    5    0    0  0.46715560346E+02 -0.17828840342E+03  0.33534090422E+03  0.38265208796E+03  0.00000000000E+00 0.  1.
         22    1    5    5    0    0 -0.10215592478E+03  0.29155671877E+03 -0.29510861936E+03  0.42723559127E+03  0.00000000000E+00 0.  1.
          5    1    4    4  502    0  0.69460189668E+01 -0.11166202005E+03 -0.78411572494E+01  0.11225073562E+03  0.47000000000E+01 0. -1.
         -5    1    4    4    0  502  0.48494345470E+02 -0.16062953005E+01 -0.60542851566E+02  0.77729071800E+02  0.47000000000E+01 0. -1.
<mgrwt>
<rscale>  0 0.99947110E+03</rscale>
<asrwt>0</asrwt>
<pdfrwt beam="1">  1        2 0.79078401E-01 0.99947110E+03</pdfrwt>
<pdfrwt beam="2">  1       -2 0.74747367E-01 0.99947110E+03</pdfrwt>
<totfact> 0.11589254E+02</totfact>
</mgrwt>
</event>
