<event>
 9    1  0.4488205E-036  0.9996297E+03  0.7818608E-02  0.8681391E-01
          2   -1    0    0  501    0  0.00000000000E+00  0.00000000000E+00  0.12109706569E+04  0.12109706569E+04  0.00000000000E+00 0.  1.
         -2   -1    0    0    0  501 -0.00000000000E+00 -0.00000000000E+00 -0.20629308465E+03  0.20629308465E+03  0.00000000000E+00 0.  1.
         36    2    1    2    0    0 -0.71054273576E-14  0.14210854715E-13  0.10046775722E+04  0.14172637415E+04  0.99962967589E+03 0.  0.
         25    2    3    3    0    0  0.49872910484E+02  0.77716412950E+02  0.36141908487E+02  0.15961762146E+03  0.12507757389E+03 0.  0.
         35    2    3    3    0    0 -0.49872910484E+02 -0.77716412950E+02  0.96853566372E+03  0.12576461201E+04  0.79692238225E+03 0.  0.
         22    1    5    5    0    0  0.15293779130E+03 -0.68828174067E+02 -0.82696521792E+02  0.18699197916E+03  0.00000000000E+00 0. -1.
         22    1    5    5    0    0 -0.20281070178E+03 -0.88882388835E+01  0.10512321855E+04  0.10706541409E+04  0.00000000000E+00 0. -1.
          5    1    4    4  502    0  0.36728782765E+02  0.66477100969E+02 -0.36786479269E+02  0.84519485881E+02  0.47000000000E+01 0. -1.
         -5    1    4    4    0  502  0.13144127719E+02  0.11239311981E+02  0.72928387756E+02  0.75098135583E+02  0.47000000000E+01 0. -1.
<mgrwt>
<rscale>  0 0.99962968E+03</rscale>
<asrwt>0</asrwt>
<pdfrwt beam="1">  1        2 0.18630317E+00 0.99962968E+03</pdfrwt>
<pdfrwt beam="2">  1       -2 0.31737398E-01 0.99962968E+03</pdfrwt>
<totfact> 0.20723700E+02</totfact>
</mgrwt>
</event>
<event>
 9    1  0.4488205E-036  0.9923399E+03  0.7818608E-02  0.8688367E-01
         -2   -1    0    0    0  501 -0.00000000000E+00  0.00000000000E+00  0.12357873289E+03  0.12357873289E+03  0.00000000000E+00 0. -1.
          2   -1    0    0  501    0  0.00000000000E+00 -0.00000000000E+00 -0.19921277658E+04  0.19921277658E+04  0.00000000000E+00 0. -1.
         36    2    1    2    0    0  0.28421709430E-13 -0.10658141036E-13 -0.18685490329E+04  0.21157064987E+04  0.99233991163E+03 0.  0.
         25    2    3    3    0    0 -0.10318314402E+03  0.28723691465E+02 -0.50111494030E+03  0.52757393068E+03  0.12548409173E+03 0.  0.
         35    2    3    3    0    0  0.10318314402E+03 -0.28723691465E+02 -0.13674340926E+04  0.15881325680E+04  0.80051061472E+03 0.  0.
         22    1    5    5    0    0  0.21522316874E+03 -0.36845567600E+03 -0.55214657308E+03  0.69781547396E+03  0.00000000000E+00 0.  1.
         22    1    5    5    0    0 -0.11204002472E+03  0.33973198454E+03 -0.81528751949E+03  0.89031709401E+03  0.00000000000E+00 0.  1.
          5    1    4    4  502    0 -0.58673607924E+02  0.54729165101E+02 -0.12980945348E+03  0.15267762767E+03  0.47000000000E+01 0.  1.
         -5    1    4    4    0  502 -0.44509536095E+02 -0.26005473636E+02 -0.37130548682E+03  0.37489630301E+03  0.47000000000E+01 0.  1.
<mgrwt>
<rscale>  0 0.99233991E+03</rscale>
<asrwt>0</asrwt>
<pdfrwt beam="1">  1        2 0.30648122E+00 0.99233991E+03</pdfrwt>
<pdfrwt beam="2">  1       -2 0.19012111E-01 0.99233991E+03</pdfrwt>
<totfact> 0.18485105E+02</totfact>
</mgrwt>
</event>
<event>
 9    1  0.4488205E-036  0.1000022E+04  0.7818608E-02  0.8681017E-01
          3   -1    0    0  501    0  0.00000000000E+00  0.00000000000E+00  0.10489146226E+04  0.10489146226E+04  0.00000000000E+00 0. -1.
         -3   -1    0    0    0  501 -0.00000000000E+00 -0.00000000000E+00 -0.23835196349E+03  0.23835196349E+03  0.00000000000E+00 0. -1.
         36    2    1    2    0    0  0.17763568394E-13  0.00000000000E+00  0.81056265914E+03  0.12872665861E+04  0.10000217194E+04 0.  0.
         25    2    3    3    0    0  0.15677815219E+02 -0.13340642503E+03  0.10602675236E+03  0.21306571073E+03  0.12693406456E+03 0.  0.
         35    2    3    3    0    0 -0.15677815219E+02  0.13340642503E+03  0.70453590678E+03  0.10742008754E+04  0.79968344275E+03 0.  0.
         22    1    5    5    0    0  0.14141030773E+03  0.98962226764E+02 -0.13517289941E+03  0.21923072365E+03  0.00000000000E+00 0.  1.
         22    1    5    5    0    0 -0.15708812295E+03  0.34444198261E+02  0.83970880619E+03  0.85497015173E+03  0.00000000000E+00 0.  1.
          5    1    4    4  502    0 -0.11249103457E+02 -0.13880877596E+03  0.11813941046E+03  0.18268395911E+03  0.47000000000E+01 0.  1.
         -5    1    4    4    0  502  0.26926918677E+02  0.54023509360E+01 -0.12112658102E+02  0.30381751617E+02  0.47000000000E+01 0.  1.
<mgrwt>
<rscale>  0 0.10000217E+04</rscale>
<asrwt>0</asrwt>
<pdfrwt beam="1">  1        3 0.16137148E+00 0.10000217E+04</pdfrwt>
<pdfrwt beam="2">  1       -3 0.36669533E-01 0.10000217E+04</pdfrwt>
<totfact> 0.81322804E+00</totfact>
</mgrwt>
</event>
<event>
 9    1  0.4488205E-036  0.1000117E+04  0.7818608E-02  0.8680927E-01
          1   -1    0    0  501    0  0.00000000000E+00  0.00000000000E+00  0.58913176714E+03  0.58913176714E+03  0.00000000000E+00 0.  1.
         -1   -1    0    0    0  501 -0.00000000000E+00 -0.00000000000E+00 -0.42445244898E+03  0.42445244898E+03  0.00000000000E+00 0.  1.
         36    2    1    2    0    0  0.00000000000E+00  0.14210854715E-13  0.16467931816E+03  0.10135842161E+04  0.10001168358E+04 0.  0.
         25    2    3    3    0    0 -0.96318695935E+02  0.58899373870E+02  0.11442343072E+03  0.20354996644E+03  0.12487369584E+03 0.  0.
         35    2    3    3    0    0  0.96318695935E+02 -0.58899373870E+02  0.50255887443E+02  0.81003424968E+03  0.80055193710E+03 0.  0.
         22    1    5    5    0    0  0.29051484243E+03 -0.10697722196E+03 -0.28423762739E+03  0.42027851303E+03  0.00000000000E+00 0. -1.
         22    1    5    5    0    0 -0.19419614649E+03  0.48077848088E+02  0.33449351483E+03  0.38975573665E+03  0.00000000000E+00 0. -1.
          5    1    4    4  502    0 -0.20930917189E+02  0.37654914682E+02 -0.20134251113E+02  0.47785708762E+02  0.47000000000E+01 0.  1.
         -5    1    4    4    0  502 -0.75387778745E+02  0.21244459188E+02  0.13455768183E+03  0.15576425768E+03  0.47000000000E+01 0.  1.
<mgrwt>
<rscale>  0 0.10001168E+04</rscale>
<asrwt>0</asrwt>
<pdfrwt beam="1">  1        1 0.90635657E-01 0.10001168E+04</pdfrwt>
<pdfrwt beam="2">  1       -1 0.65300376E-01 0.10001168E+04</pdfrwt>
<totfact> 0.97445301E+01</totfact>
</mgrwt>
</event>
<event>
 9    1  0.4488205E-036  0.9998642E+03  0.7818608E-02  0.8681167E-01
          1   -1    0    0  501    0  0.00000000000E+00  0.00000000000E+00  0.13638427126E+04  0.13638427126E+04  0.00000000000E+00 0.  1.
         -1   -1    0    0    0  501 -0.00000000000E+00 -0.00000000000E+00 -0.18325582256E+03  0.18325582256E+03  0.00000000000E+00 0.  1.
         36    2    1    2    0    0  0.00000000000E+00  0.00000000000E+00  0.11805868901E+04  0.15470985352E+04  0.99986422707E+03 0.  0.
         25    2    3    3    0    0  0.11279155385E+03  0.78315609506E+02  0.28869336753E+03  0.34302881902E+03  0.12437701120E+03 0.  0.
         35    2    3    3    0    0 -0.11279155385E+03 -0.78315609506E+02  0.89189352252E+03  0.12040697161E+04  0.79715403562E+03 0.  0.
         22    1    5    5    0    0  0.13038710195E+02  0.27012095422E+03  0.76674742363E+03  0.81304178830E+03  0.00000000000E+00 0.  1.
         22    1    5    5    0    0 -0.12583026405E+03 -0.34843656373E+03  0.12514609889E+03  0.39102792785E+03  0.00000000000E+00 0.  1.
          5    1    4    4  502    0  0.40493607507E+02  0.78659231121E+02  0.23974843964E+03  0.25559423155E+03  0.47000000000E+01 0.  1.
         -5    1    4    4    0  502  0.72297946344E+02 -0.34362161453E+00  0.48944927882E+02  0.87434587474E+02  0.47000000000E+01 0.  1.
<mgrwt>
<rscale>  0 0.99986423E+03</rscale>
<asrwt>0</asrwt>
<pdfrwt beam="1">  1        1 0.20982195E+00 0.99986423E+03</pdfrwt>
<pdfrwt beam="2">  1       -1 0.28193204E-01 0.99986423E+03</pdfrwt>
<totfact> 0.10099898E+02</totfact>
</mgrwt>
</event>
<event>
 9    1  0.4488205E-036  0.1003130E+04  0.7818608E-02  0.8678063E-01
          1   -1    0    0  501    0  0.00000000000E+00  0.00000000000E+00  0.22502423124E+04  0.22502423124E+04  0.00000000000E+00 0. -1.
         -1   -1    0    0    0  501 -0.00000000000E+00 -0.00000000000E+00 -0.11179571761E+03  0.11179571761E+03  0.00000000000E+00 0. -1.
         36    2    1    2    0    0  0.14210854715E-13  0.00000000000E+00  0.21384465948E+04  0.23620380300E+04  0.10031300097E+04 0.  0.
         25    2    3    3    0    0  0.71043531778E+02 -0.73884153965E+02  0.18773815446E+03  0.25127706367E+03  0.13186544836E+03 0.  0.
         35    2    3    3    0    0 -0.71043531778E+02  0.73884153965E+02  0.19507084403E+04  0.21107609663E+04  0.79971394025E+03 0.  0.
         22    1    5    5    0    0  0.16194167106E+03  0.21971505896E+03  0.19942365828E+03  0.33803787870E+03  0.00000000000E+00 0.  1.
         22    1    5    5    0    0 -0.23298520284E+03 -0.14583090499E+03  0.17512847820E+04  0.17727230876E+04  0.00000000000E+00 0.  1.
          5    1    4    4  502    0  0.10149289520E+03 -0.21316255410E+02  0.13760096366E+03  0.17236967750E+03  0.47000000000E+01 0.  1.
         -5    1    4    4    0  502 -0.30449363420E+02 -0.52567898555E+02  0.50137190802E+02  0.78907386173E+02  0.47000000000E+01 0.  1.
<mgrwt>
<rscale>  0 0.10031300E+04</rscale>
<asrwt>0</asrwt>
<pdfrwt beam="1">  1        1 0.34619109E+00 0.10031300E+04</pdfrwt>
<pdfrwt beam="2">  1       -1 0.17199343E-01 0.10031300E+04</pdfrwt>
<totfact> 0.54455945E+01</totfact>
</mgrwt>
</event>
<event>
 9    1  0.4488205E-036  0.1000254E+04  0.7818608E-02  0.8680796E-01
          1   -1    0    0  501    0  0.00000000000E+00  0.00000000000E+00  0.22456866337E+04  0.22456866337E+04  0.00000000000E+00 0. -1.
         -1   -1    0    0    0  501 -0.00000000000E+00 -0.00000000000E+00 -0.11138100909E+03  0.11138100909E+03  0.00000000000E+00 0. -1.
         36    2    1    2    0    0 -0.71054273576E-14  0.35527136788E-13  0.21343056246E+04  0.23570676428E+04  0.10002536546E+04 0.  0.
         25    2    3    3    0    0  0.48449056062E+02 -0.16038606725E+02  0.92529284060E+02  0.16337380579E+03  0.12459849144E+03 0.  0.
         35    2    3    3    0    0 -0.48449056062E+02  0.16038606725E+02  0.20417763405E+04  0.21936938370E+04  0.80052325247E+03 0.  0.
         22    1    5    5    0    0  0.12353953739E+02 -0.37707510869E+03  0.71315067763E+03  0.80679746329E+03  0.00000000000E+00 0. -1.
         22    1    5    5    0    0 -0.60803009801E+02  0.39311371542E+03  0.13286256629E+04  0.13868963737E+04  0.00000000000E+00 0. -1.
          5    1    4    4  502    0  0.15253802883E+02  0.53212380919E+02  0.24676365142E+02  0.60788559632E+02  0.47000000000E+01 0. -1.
         -5    1    4    4    0  502  0.33195253178E+02 -0.69250987644E+02  0.67852918918E+02  0.10258524616E+03  0.47000000000E+01 0.  1.
<mgrwt>
<rscale>  0 0.10002537E+04</rscale>
<asrwt>0</asrwt>
<pdfrwt beam="1">  1        1 0.34549022E+00 0.10002537E+04</pdfrwt>
<pdfrwt beam="2">  1       -1 0.17135541E-01 0.10002537E+04</pdfrwt>
<totfact> 0.55202033E+01</totfact>
</mgrwt>
</event>
<event>
 9    1  0.4488205E-036  0.9873522E+03  0.7818608E-02  0.8693177E-01
         -2   -1    0    0    0  501 -0.00000000000E+00  0.00000000000E+00  0.20893217800E+03  0.20893217800E+03  0.00000000000E+00 0.  1.
          2   -1    0    0  501    0  0.00000000000E+00 -0.00000000000E+00 -0.11664843234E+04  0.11664843234E+04  0.00000000000E+00 0.  1.
         36    2    1    2    0    0  0.21316282073E-13 -0.14210854715E-13 -0.95755214539E+03  0.13754165014E+04  0.98735223764E+03 0.  0.
         25    2    3    3    0    0  0.33818241273E+02 -0.88266786665E+02 -0.58306556184E+02  0.16705132495E+03  0.12478698491E+03 0.  0.
         35    2    3    3    0    0 -0.33818241273E+02  0.88266786665E+02 -0.89924558921E+03  0.12083651764E+04  0.80160406116E+03 0.  0.
         22    1    5    5    0    0  0.24674776698E+03  0.27014681753E+03 -0.76513104399E+03  0.84810923707E+03  0.00000000000E+00 0.  1.
         22    1    5    5    0    0 -0.28056600826E+03 -0.18188003086E+03 -0.13411454522E+03  0.36025593937E+03  0.00000000000E+00 0.  1.
          5    1    4    4  502    0  0.59582654574E+02 -0.61153669248E+02 -0.85226928148E+02  0.12072938031E+03  0.47000000000E+01 0.  1.
         -5    1    4    4    0  502 -0.25764413301E+02 -0.27113117417E+02  0.26920371964E+02  0.46321944643E+02  0.47000000000E+01 0.  1.
<mgrwt>
<rscale>  0 0.98735224E+03</rscale>
<asrwt>0</asrwt>
<pdfrwt beam="1">  1        2 0.17945912E+00 0.98735224E+03</pdfrwt>
<pdfrwt beam="2">  1       -2 0.32143412E-01 0.98735224E+03</pdfrwt>
<totfact> 0.21513276E+02</totfact>
</mgrwt>
</event>
<event>
 9    1  0.4488205E-036  0.1000040E+04  0.7818608E-02  0.8681000E-01
          2   -1    0    0  501    0  0.00000000000E+00  0.00000000000E+00  0.86012040269E+03  0.86012040269E+03  0.00000000000E+00 0. -1.
         -2   -1    0    0    0  501 -0.00000000000E+00 -0.00000000000E+00 -0.29068011250E+03  0.29068011250E+03  0.00000000000E+00 0. -1.
         36    2    1    2    0    0  0.00000000000E+00  0.71054273576E-14  0.56944029019E+03  0.11508005152E+04  0.10000397900E+04 0.  0.
         25    2    3    3    0    0 -0.76681859040E+02 -0.59325615472E+02  0.22210100136E+03  0.27273317516E+03  0.12511951833E+03 0.  0.
         35    2    3    3    0    0  0.76681859040E+02  0.59325615472E+02  0.34733928883E+03  0.87806734003E+03  0.80059854853E+03 0.  0.
         22    1    5    5    0    0  0.50609739409E+02  0.40171153320E+03  0.34921996295E+03  0.53468503266E+03  0.00000000000E+00 0.  1.
         22    1    5    5    0    0  0.26072119631E+02 -0.34238591773E+03 -0.18806741164E+01  0.34338230737E+03  0.00000000000E+00 0.  1.
          5    1    4    4  502    0 -0.21325276145E+02 -0.80167506600E+02  0.18486968223E+03  0.20268321570E+03  0.47000000000E+01 0. -1.
         -5    1    4    4    0  502 -0.55356582895E+02  0.20841891128E+02  0.37231319131E+02  0.70049959457E+02  0.47000000000E+01 0. -1.
<mgrwt>
<rscale>  0 0.10000398E+04</rscale>
<asrwt>0</asrwt>
<pdfrwt beam="1">  1        2 0.13232621E+00 0.10000398E+04</pdfrwt>
<pdfrwt beam="2">  1       -2 0.44720018E-01 0.10000398E+04</pdfrwt>
<totfact> 0.17918926E+02</totfact>
</mgrwt>
</event>
<event>
 9    1  0.4488205E-036  0.1001661E+04  0.7818608E-02  0.8679458E-01
          3   -1    0    0  501    0  0.00000000000E+00  0.00000000000E+00  0.13008370716E+04  0.13008370716E+04  0.00000000000E+00 0.  1.
         -3   -1    0    0    0  501 -0.00000000000E+00 -0.00000000000E+00 -0.19282288789E+03  0.19282288789E+03  0.00000000000E+00 0.  1.
         36    2    1    2    0    0  0.00000000000E+00  0.00000000000E+00  0.11080141837E+04  0.14936599595E+04  0.10016609423E+04 0.  0.
         25    2    3    3    0    0  0.88380128361E+02 -0.66795933596E+02  0.76915619108E+02  0.18407308232E+03  0.12527626806E+03 0.  0.
         35    2    3    3    0    0 -0.88380128361E+02  0.66795933596E+02  0.10310985646E+04  0.13095868772E+04  0.79973795402E+03 0.  0.
         22    1    5    5    0    0  0.32320141233E+03 -0.10833280262E+03  0.30846876963E+03  0.45972614771E+03  0.00000000000E+00 0. -1.
         22    1    5    5    0    0 -0.41158154069E+03  0.17512873621E+03  0.72262979499E+03  0.84986072947E+03  0.00000000000E+00 0. -1.
          5    1    4    4  502    0 -0.14327052402E+02 -0.16576094046E+01  0.59158559490E+02  0.61072393603E+02  0.47000000000E+01 0. -1.
         -5    1    4    4    0  502  0.10270718076E+03 -0.65138324191E+02  0.17757059618E+02  0.12300068872E+03  0.47000000000E+01 0. -1.
<mgrwt>
<rscale>  0 0.10016609E+04</rscale>
<asrwt>0</asrwt>
<pdfrwt beam="1">  1        3 0.20012877E+00 0.10016609E+04</pdfrwt>
<pdfrwt beam="2">  1       -3 0.29665061E-01 0.10016609E+04</pdfrwt>
<totfact> 0.65178313E+00</totfact>
</mgrwt>
</event>
<event>
 9    1  0.4488205E-036  0.1000081E+04  0.7818608E-02  0.8680961E-01
         -2   -1    0    0    0  501 -0.00000000000E+00  0.00000000000E+00  0.96882773092E+02  0.96882773092E+02  0.00000000000E+00 0.  1.
          2   -1    0    0  501    0  0.00000000000E+00 -0.00000000000E+00 -0.25808556249E+04  0.25808556249E+04  0.00000000000E+00 0.  1.
         36    2    1    2    0    0  0.28421709430E-13  0.00000000000E+00 -0.24839728518E+04  0.26777383980E+04  0.10000808965E+04 0.  0.
         25    2    3    3    0    0 -0.11052447527E+03  0.74991483924E+02 -0.35697169446E+03  0.40108388977E+03  0.12490041511E+03 0.  0.
         35    2    3    3    0    0  0.11052447527E+03 -0.74991483924E+02 -0.21270011573E+04  0.22766545082E+04  0.80073868655E+03 0.  0.
         22    1    5    5    0    0 -0.15715255775E+03 -0.23703329756E+03 -0.18064571582E+04  0.18287069680E+04  0.00000000000E+00 0. -1.
         22    1    5    5    0    0  0.26767703302E+03  0.16204181363E+03 -0.32054399919E+03  0.44794754021E+03  0.00000000000E+00 0. -1.
          5    1    4    4  502    0 -0.38346192277E+02  0.35026766329E+02 -0.29018146095E+03  0.29482990877E+03  0.47000000000E+01 0.  1.
         -5    1    4    4    0  502 -0.72178282988E+02  0.39964717595E+02 -0.66790233502E+02  0.10625398100E+03  0.47000000000E+01 0.  1.
<mgrwt>
<rscale>  0 0.10000809E+04</rscale>
<asrwt>0</asrwt>
<pdfrwt beam="1">  1        2 0.39705466E+00 0.10000809E+04</pdfrwt>
<pdfrwt beam="2">  1       -2 0.14905044E-01 0.10000809E+04</pdfrwt>
<totfact> 0.12557558E+02</totfact>
</mgrwt>
</event>
<event>
 9    1  0.4488205E-036  0.9992886E+03  0.7818608E-02  0.8681716E-01
         -2   -1    0    0    0  501 -0.00000000000E+00  0.00000000000E+00  0.43776831115E+03  0.43776831115E+03  0.00000000000E+00 0.  1.
          2   -1    0    0  501    0  0.00000000000E+00 -0.00000000000E+00 -0.57026610354E+03  0.57026610354E+03  0.00000000000E+00 0.  1.
         36    2    1    2    0    0 -0.21316282073E-13 -0.71054273576E-14 -0.13249779238E+03  0.10080344147E+04  0.99928860507E+03 0.  0.
         25    2    3    3    0    0  0.34989483591E+02  0.21542172858E+02  0.10706568131E+03  0.16978982860E+03  0.12520861235E+03 0.  0.
         35    2    3    3    0    0 -0.34989483591E+02 -0.21542172858E+02 -0.23956347369E+03  0.83824458610E+03  0.80223126280E+03 0.  0.
         22    1    5    5    0    0 -0.31506096540E+03  0.81036781591E+02 -0.38696699896E+03  0.50554310417E+03  0.00000000000E+00 0.  1.
         22    1    5    5    0    0  0.28007148181E+03 -0.10257895445E+03  0.14740352527E+03  0.33270148193E+03  0.00000000000E+00 0.  1.
          5    1    4    4  502    0  0.51709964613E+02  0.17618957801E+02  0.12980379863E+03  0.14090941861E+03  0.47000000000E+01 0.  1.
         -5    1    4    4    0  502 -0.16720481022E+02  0.39232150570E+01 -0.22738117317E+02  0.28880409989E+02  0.47000000000E+01 0.  1.
<mgrwt>
<rscale>  0 0.99928861E+03</rscale>
<asrwt>0</asrwt>
<pdfrwt beam="1">  1        2 0.87733246E-01 0.99928861E+03</pdfrwt>
<pdfrwt beam="2">  1       -2 0.67348971E-01 0.99928861E+03</pdfrwt>
<totfact> 0.12897808E+02</totfact>
</mgrwt>
</event>
<event>
 9    1  0.4488205E-036  0.1000468E+04  0.7818608E-02  0.8680592E-01
         -1   -1    0    0    0  501 -0.00000000000E+00  0.00000000000E+00  0.13168015059E+03  0.13168015059E+03  0.00000000000E+00 0.  1.
          1   -1    0    0  501    0  0.00000000000E+00 -0.00000000000E+00 -0.19003188439E+04  0.19003188439E+04  0.00000000000E+00 0.  1.
         36    2    1    2    0    0  0.28421709430E-13 -0.14210854715E-13 -0.17686386933E+04  0.20319989945E+04  0.10004684334E+04 0.  0.
         25    2    3    3    0    0  0.11482089832E+02  0.78657502417E+02 -0.96823515165E+02  0.17671069576E+03  0.12463160046E+03 0.  0.
         35    2    3    3    0    0 -0.11482089832E+02 -0.78657502417E+02 -0.16718151781E+04  0.18552882987E+04  0.80050599029E+03 0.  0.
         22    1    5    5    0    0  0.35498715938E+03  0.86952670063E+02 -0.10766551235E+04  0.11369973198E+04  0.00000000000E+00 0. -1.
         22    1    5    5    0    0 -0.36646924921E+03 -0.16561017248E+03 -0.59516005460E+03  0.71829097895E+03  0.00000000000E+00 0. -1.
          5    1    4    4  502    0 -0.20250064807E+02  0.11646261556E+02  0.24672192738E+02  0.34300256959E+02  0.47000000000E+01 0.  1.
         -5    1    4    4    0  502  0.31732154638E+02  0.67011240861E+02 -0.12149570790E+03  0.14241043880E+03  0.47000000000E+01 0.  1.
<mgrwt>
<rscale>  0 0.10004684E+04</rscale>
<asrwt>0</asrwt>
<pdfrwt beam="1">  1        1 0.29235675E+00 0.10004684E+04</pdfrwt>
<pdfrwt beam="2">  1       -1 0.20258484E-01 0.10004684E+04</pdfrwt>
<totfact> 0.73239574E+01</totfact>
</mgrwt>
</event>
<event>
 9    1  0.4488205E-036  0.9999945E+03  0.7818608E-02  0.8681043E-01
         -2   -1    0    0    0  501 -0.00000000000E+00  0.00000000000E+00  0.24851280203E+03  0.24851280203E+03  0.00000000000E+00 0. -1.
          2   -1    0    0  501    0  0.00000000000E+00 -0.00000000000E+00 -0.10059733556E+04  0.10059733556E+04  0.00000000000E+00 0. -1.
         36    2    1    2    0    0  0.00000000000E+00 -0.14210854715E-13 -0.75746055358E+03  0.12544861576E+04  0.99999451472E+03 0.  0.
         25    2    3    3    0    0  0.59462472657E+02 -0.99146703673E+02 -0.24085470372E+03  0.29520987030E+03  0.12558672188E+03 0.  0.
         35    2    3    3    0    0 -0.59462472657E+02  0.99146703673E+02 -0.51660584986E+03  0.95927628734E+03  0.79997721019E+03 0.  0.
         22    1    5    5    0    0 -0.23850633293E+03 -0.28080561992E+03 -0.34761596015E+03  0.50653126535E+03  0.00000000000E+00 0.  1.
         22    1    5    5    0    0  0.17904386028E+03  0.37995232359E+03 -0.16898988971E+03  0.45274502198E+03  0.00000000000E+00 0.  1.
          5    1    4    4  502    0 -0.12298016155E+02  0.22314178719E+02 -0.18499985806E+02  0.31835565772E+02  0.47000000000E+01 0.  1.
         -5    1    4    4    0  502  0.71760488812E+02 -0.12146088239E+03 -0.22235471791E+03  0.26337430452E+03  0.47000000000E+01 0.  1.
<mgrwt>
<rscale>  0 0.99999451E+03</rscale>
<asrwt>0</asrwt>
<pdfrwt beam="1">  1        2 0.15476513E+00 0.99999451E+03</pdfrwt>
<pdfrwt beam="2">  1       -2 0.38232740E-01 0.99999451E+03</pdfrwt>
<totfact> 0.19492050E+02</totfact>
</mgrwt>
</event>
<event>
 9    1  0.4488205E-036  0.1000036E+04  0.7818608E-02  0.8681004E-01
          3   -1    0    0  501    0  0.00000000000E+00  0.00000000000E+00  0.90116117135E+03  0.90116117135E+03  0.00000000000E+00 0. -1.
         -3   -1    0    0    0  501 -0.00000000000E+00 -0.00000000000E+00 -0.27743987237E+03  0.27743987237E+03  0.00000000000E+00 0. -1.
         36    2    1    2    0    0  0.14210854715E-13  0.14210854715E-13  0.62372129899E+03  0.11786010437E+04  0.10000360801E+04 0.  0.
         25    2    3    3    0    0  0.87867497982E+02 -0.43092761419E+02 -0.82970302347E+00  0.15868314309E+03  0.12490783885E+03 0.  0.
         35    2    3    3    0    0 -0.87867497982E+02  0.43092761419E+02  0.62455100201E+03  0.10199179006E+04  0.80036921894E+03 0.  0.
         22    1    5    5    0    0 -0.15462020667E+03 -0.35957124709E+03  0.23993898838E+03  0.45909651294E+03  0.00000000000E+00 0. -1.
         22    1    5    5    0    0  0.66752708690E+02  0.40266400851E+03  0.38461201363E+03  0.56082138769E+03  0.00000000000E+00 0. -1.
          5    1    4    4  502    0 -0.31012290580E+02  0.15547255677E+01 -0.33555668056E+01  0.31583685143E+02  0.47000000000E+01 0. -1.
         -5    1    4    4    0  502  0.11887978856E+03 -0.44647486987E+02  0.25258637822E+01  0.12709945795E+03  0.47000000000E+01 0. -1.
<mgrwt>
<rscale>  0 0.10000361E+04</rscale>
<asrwt>0</asrwt>
<pdfrwt beam="1">  1        3 0.13864018E+00 0.10000361E+04</pdfrwt>
<pdfrwt beam="2">  1       -3 0.42683058E-01 0.10000361E+04</pdfrwt>
<totfact> 0.90455138E+00</totfact>
</mgrwt>
</event>
<event>
 9    1  0.4488205E-036  0.1000405E+04  0.7818608E-02  0.8680652E-01
         -2   -1    0    0    0  501 -0.00000000000E+00  0.00000000000E+00  0.23169890882E+03  0.23169890882E+03  0.00000000000E+00 0.  1.
          2   -1    0    0  501    0  0.00000000000E+00 -0.00000000000E+00 -0.10798611394E+04  0.10798611394E+04  0.00000000000E+00 0.  1.
         36    2    1    2    0    0  0.00000000000E+00  0.14210854715E-13 -0.84816223055E+03  0.13115600482E+04  0.10004052133E+04 0.  0.
         25    2    3    3    0    0 -0.11868311942E+03 -0.78589334259E+02 -0.18294211171E+03  0.26330880404E+03  0.12490694037E+03 0.  0.
         35    2    3    3    0    0  0.11868311942E+03  0.78589334259E+02 -0.66522011884E+03  0.10482512442E+04  0.79752799203E+03 0.  0.
         22    1    5    5    0    0  0.44510940572E+03 -0.70340346540E+02 -0.34859474974E+03  0.56972664231E+03  0.00000000000E+00 0. -1.
         22    1    5    5    0    0 -0.32642628631E+03  0.14892968080E+03 -0.31662536910E+03  0.47852460185E+03  0.00000000000E+00 0. -1.
          5    1    4    4  502    0 -0.35361534744E+01  0.29958941032E+02 -0.37196533757E+02  0.48121872913E+02  0.47000000000E+01 0. -1.
         -5    1    4    4    0  502 -0.11514696594E+03 -0.10854827529E+03 -0.14574557796E+03  0.21518693113E+03  0.47000000000E+01 0. -1.
<mgrwt>
<rscale>  0 0.10004052E+04</rscale>
<asrwt>0</asrwt>
<pdfrwt beam="1">  1        2 0.16613249E+00 0.10004052E+04</pdfrwt>
<pdfrwt beam="2">  1       -2 0.35645985E-01 0.10004052E+04</pdfrwt>
<totfact> 0.20021760E+02</totfact>
</mgrwt>
</event>
<event>
 9    1  0.4488205E-036  0.9994835E+03  0.7818608E-02  0.8681530E-01
         -2   -1    0    0    0  501 -0.00000000000E+00  0.00000000000E+00  0.60942979970E+03  0.60942979970E+03  0.00000000000E+00 0. -1.
          2   -1    0    0  501    0  0.00000000000E+00 -0.00000000000E+00 -0.40979590335E+03  0.40979590335E+03  0.00000000000E+00 0. -1.
         36    2    1    2    0    0  0.14210854715E-13  0.14210854715E-13  0.19963389635E+03  0.10192257031E+04  0.99948353723E+03 0.  0.
         25    2    3    3    0    0 -0.71424238444E+02  0.59696577308E+02  0.14376073676E+03  0.21159687794E+03  0.12426176459E+03 0.  0.
         35    2    3    3    0    0  0.71424238444E+02 -0.59696577308E+02  0.55873159592E+02  0.80762882511E+03  0.80029832314E+03 0.  0.
         22    1    5    5    0    0 -0.12317458330E+03  0.14037384752E+03  0.35338358679E+03  0.39969582742E+03  0.00000000000E+00 0. -1.
         22    1    5    5    0    0  0.19459882175E+03 -0.20007042483E+03 -0.29751042720E+03  0.40793299770E+03  0.00000000000E+00 0. -1.
          5    1    4    4  502    0 -0.68110171396E+02 -0.10068536453E+02  0.11858856354E+03  0.13720680842E+03  0.47000000000E+01 0. -1.
         -5    1    4    4    0  502 -0.33140670474E+01  0.69765113761E+02  0.25172173221E+02  0.74390069519E+02  0.47000000000E+01 0. -1.
<mgrwt>
<rscale>  0 0.99948354E+03</rscale>
<asrwt>0</asrwt>
<pdfrwt beam="1">  1        2 0.63045523E-01 0.99948354E+03</pdfrwt>
<pdfrwt beam="2">  1       -2 0.93758431E-01 0.99948354E+03</pdfrwt>
<totfact> 0.88692686E+01</totfact>
</mgrwt>
</event>
<event>
 9    1  0.4488205E-036  0.1000383E+04  0.7818608E-02  0.8680673E-01
          2   -1    0    0  501    0  0.00000000000E+00  0.00000000000E+00  0.13628104488E+04  0.13628104488E+04  0.00000000000E+00 0. -1.
         -2   -1    0    0    0  501 -0.00000000000E+00 -0.00000000000E+00 -0.18358498695E+03  0.18358498695E+03  0.00000000000E+00 0. -1.
         36    2    1    2    0    0  0.42632564146E-13  0.14210854715E-13  0.11792254618E+04  0.15463954357E+04  0.10003830036E+04 0.  0.
         25    2    3    3    0    0  0.33169371650E+02  0.12161954765E+03  0.33297386589E+03  0.37511551070E+03  0.11810389248E+03 0.  0.
         35    2    3    3    0    0 -0.33169371650E+02 -0.12161954765E+03  0.84625159594E+03  0.11712799250E+04  0.79991460642E+03 0.  0.
         22    1    5    5    0    0 -0.31591049005E+03  0.50472026314E+02  0.76683154029E+03  0.83088956808E+03  0.00000000000E+00 0.  1.
         22    1    5    5    0    0  0.28274111840E+03 -0.17209157397E+03  0.79420055646E+02  0.34039035694E+03  0.00000000000E+00 0.  1.
          5    1    4    4  502    0 -0.25381135857E+02 -0.76177156765E+00  0.16210007898E+02  0.30489944398E+02  0.47000000000E+01 0. -1.
         -5    1    4    4    0  502  0.58550507507E+02  0.12238131922E+03  0.31676385799E+03  0.34462556631E+03  0.47000000000E+01 0. -1.
<mgrwt>
<rscale>  0 0.10003830E+04</rscale>
<asrwt>0</asrwt>
<pdfrwt beam="1">  1        2 0.20966314E+00 0.10003830E+04</pdfrwt>
<pdfrwt beam="2">  1       -2 0.28243845E-01 0.10003830E+04</pdfrwt>
<totfact> 0.20915515E+02</totfact>
</mgrwt>
</event>
<event>
 9    1  0.4488205E-036  0.1000550E+04  0.7818608E-02  0.8680514E-01
         -4   -1    0    0    0  501 -0.00000000000E+00  0.00000000000E+00  0.70944240898E+03  0.70944240898E+03  0.00000000000E+00 0. -1.
          4   -1    0    0  501    0  0.00000000000E+00 -0.00000000000E+00 -0.35277727453E+03  0.35277727453E+03  0.00000000000E+00 0. -1.
         36    2    1    2    0    0 -0.28421709430E-13  0.00000000000E+00  0.35666513444E+03  0.10622196835E+04  0.10005501676E+04 0.  0.
         25    2    3    3    0    0 -0.13110624129E+03 -0.24674110898E+02  0.11690983546E+03  0.21702725984E+03  0.12504104780E+03 0.  0.
         35    2    3    3    0    0  0.13110624129E+03  0.24674110898E+02  0.23975529899E+03  0.84519242367E+03  0.79941852079E+03 0.  0.
         22    1    5    5    0    0 -0.30134842297E+03 -0.10845737190E+03  0.22694564730E+03  0.39252796126E+03  0.00000000000E+00 0.  1.
         22    1    5    5    0    0  0.43245466426E+03  0.13313148279E+03  0.12809651692E+02  0.45266446241E+03  0.00000000000E+00 0.  1.
          5    1    4    4  502    0 -0.10459126684E+03 -0.60442428093E+02  0.12226041195E+03  0.17193696095E+03  0.47000000000E+01 0.  1.
         -5    1    4    4    0  502 -0.26514974452E+02  0.35768317195E+02 -0.53505764904E+01  0.45090298889E+02  0.47000000000E+01 0.  1.
<mgrwt>
<rscale>  0 0.10005502E+04</rscale>
<asrwt>0</asrwt>
<pdfrwt beam="1">  1        4 0.54273427E-01 0.10005502E+04</pdfrwt>
<pdfrwt beam="2">  1       -4 0.10914499E+00 0.10005502E+04</pdfrwt>
<totfact> 0.47965171E+00</totfact>
</mgrwt>
</event>
<event>
 9    1  0.4488205E-036  0.9998015E+03  0.7818608E-02  0.8681227E-01
         -2   -1    0    0    0  501 -0.00000000000E+00  0.00000000000E+00  0.94862760704E+02  0.94862760704E+02  0.00000000000E+00 0. -1.
          2   -1    0    0  501    0  0.00000000000E+00 -0.00000000000E+00 -0.26343399860E+04  0.26343399860E+04  0.00000000000E+00 0. -1.
         36    2    1    2    0    0  0.28421709430E-13  0.00000000000E+00 -0.25394772253E+04  0.27292027467E+04  0.99980150771E+03 0.  0.
         25    2    3    3    0    0  0.13248100013E+03 -0.38543214303E+02 -0.55159582422E+03  0.58204234098E+03  0.12441277519E+03 0.  0.
         35    2    3    3    0    0 -0.13248100013E+03  0.38543214303E+02 -0.19878814011E+04  0.21471604058E+04  0.79974280142E+03 0.  0.
         22    1    5    5    0    0  0.28714179421E+03  0.18811308961E+02 -0.33447942073E+03  0.44122642511E+03  0.00000000000E+00 0. -1.
         22    1    5    5    0    0 -0.41962279433E+03  0.19731905342E+02 -0.16534019804E+04  0.17059339806E+04  0.00000000000E+00 0. -1.
          5    1    4    4  502    0  0.12067630897E+03 -0.66768175785E+02 -0.32136820971E+03  0.34974330166E+03  0.47000000000E+01 0.  1.
         -5    1    4    4    0  502  0.11804691156E+02  0.28224961482E+02 -0.23022761451E+03  0.23229903932E+03  0.47000000000E+01 0.  1.
<mgrwt>
<rscale>  0 0.99980151E+03</rscale>
<asrwt>0</asrwt>
<pdfrwt beam="1">  1        2 0.40528299E+00 0.99980151E+03</pdfrwt>
<pdfrwt beam="2">  1       -2 0.14594274E-01 0.99980151E+03</pdfrwt>
<totfact> 0.12051954E+02</totfact>
</mgrwt>
</event>
<event>
 9    1  0.4488205E-036  0.1000555E+04  0.7818608E-02  0.8680510E-01
         -2   -1    0    0    0  501 -0.00000000000E+00  0.00000000000E+00  0.29850517090E+03  0.29850517090E+03  0.00000000000E+00 0. -1.
          2   -1    0    0  501    0  0.00000000000E+00 -0.00000000000E+00 -0.83843557273E+03  0.83843557273E+03  0.00000000000E+00 0. -1.
         36    2    1    2    0    0 -0.28421709430E-13 -0.71054273576E-14 -0.53993040183E+03  0.11369407436E+04  0.10005545541E+04 0.  0.
         25    2    3    3    0    0 -0.13463931215E+03 -0.19290672231E+02 -0.67898648315E+02  0.19720278498E+03  0.12561384298E+03 0.  0.
         35    2    3    3    0    0  0.13463931215E+03  0.19290672231E+02 -0.47203175352E+03  0.93973795865E+03  0.80112020333E+03 0.  0.
         22    1    5    5    0    0 -0.22474208634E+03 -0.73950906006E+02  0.10074560289E+03  0.25715251967E+03  0.00000000000E+00 0. -1.
         22    1    5    5    0    0  0.35938139849E+03  0.93241578237E+02 -0.57277735641E+03  0.68258543898E+03  0.00000000000E+00 0. -1.
          5    1    4    4  502    0 -0.23063795655E+02  0.24834313852E+00  0.36271733328E+02  0.43240362891E+02  0.47000000000E+01 0. -1.
         -5    1    4    4    0  502 -0.11157551650E+03 -0.19539015369E+02 -0.10417038164E+03  0.15396242209E+03  0.47000000000E+01 0. -1.
<mgrwt>
<rscale>  0 0.10005546E+04</rscale>
<asrwt>0</asrwt>
<pdfrwt beam="1">  1        2 0.12899009E+00 0.10005546E+04</pdfrwt>
<pdfrwt beam="2">  1       -2 0.45923873E-01 0.10005546E+04</pdfrwt>
<totfact> 0.17595273E+02</totfact>
</mgrwt>
</event>
<event>
 9    1  0.4488205E-036  0.9992177E+03  0.7818608E-02  0.8681783E-01
         -2   -1    0    0    0  501 -0.00000000000E+00  0.00000000000E+00  0.18159140463E+03  0.18159140463E+03  0.00000000000E+00 0. -1.
          2   -1    0    0  501    0  0.00000000000E+00 -0.00000000000E+00 -0.13745640984E+04  0.13745640984E+04  0.00000000000E+00 0. -1.
         36    2    1    2    0    0 -0.46185277824E-13  0.00000000000E+00 -0.11929726937E+04  0.15561555030E+04  0.99921774479E+03 0.  0.
         25    2    3    3    0    0  0.12818188860E+01 -0.13387494395E+03 -0.15968176991E+03  0.24294753151E+03  0.12490433039E+03 0.  0.
         35    2    3    3    0    0 -0.12818188860E+01  0.13387494395E+03 -0.10332909238E+04  0.13132079715E+04  0.79931276696E+03 0.  0.
         22    1    5    5    0    0 -0.39490687710E+03  0.11720205028E+03 -0.59739432006E+03  0.72564987137E+03  0.00000000000E+00 0. -1.
         22    1    5    5    0    0  0.39362505822E+03  0.16672893669E+02 -0.43589660377E+03  0.58755810012E+03  0.00000000000E+00 0. -1.
          5    1    4    4  502    0  0.12054095965E+02 -0.92558955717E+02 -0.17413183141E+03  0.19762703819E+03  0.47000000000E+01 0. -1.
         -5    1    4    4    0  502 -0.10772277079E+02 -0.41315988229E+02  0.14450061508E+02  0.45320493316E+02  0.47000000000E+01 0. -1.
<mgrwt>
<rscale>  0 0.99921774E+03</rscale>
<asrwt>0</asrwt>
<pdfrwt beam="1">  1        2 0.21147140E+00 0.99921774E+03</pdfrwt>
<pdfrwt beam="2">  1       -2 0.27937139E-01 0.99921774E+03</pdfrwt>
<totfact> 0.21003493E+02</totfact>
</mgrwt>
</event>
<event>
 9    1  0.4488205E-036  0.1004266E+04  0.7818608E-02  0.8676986E-01
          1   -1    0    0  501    0  0.00000000000E+00  0.00000000000E+00  0.75019043953E+03  0.75019043953E+03  0.00000000000E+00 0.  1.
         -1   -1    0    0    0  501 -0.00000000000E+00 -0.00000000000E+00 -0.33609775829E+03  0.33609775829E+03  0.00000000000E+00 0.  1.
         36    2    1    2    0    0  0.00000000000E+00  0.35527136788E-14  0.41409268125E+03  0.10862881978E+04  0.10042655526E+04 0.  0.
         25    2    3    3    0    0 -0.14463453750E+03  0.28053573318E+01  0.53456266743E+02  0.19892404592E+03  0.12564308226E+03 0.  0.
         35    2    3    3    0    0  0.14463453750E+03 -0.28053573318E+01  0.36063641450E+03  0.88736415191E+03  0.79776531333E+03 0.  0.
         22    1    5    5    0    0 -0.47472208024E+02 -0.37264990535E+03  0.26513052539E+03  0.45979969333E+03  0.00000000000E+00 0. -1.
         22    1    5    5    0    0  0.19210674553E+03  0.36984454802E+03  0.95505889110E+02  0.42756445857E+03  0.00000000000E+00 0. -1.
          5    1    4    4  502    0 -0.21410955398E+02 -0.23746591042E+02  0.64661615915E+02  0.72287925478E+02  0.47000000000E+01 0.  1.
         -5    1    4    4    0  502 -0.12322358211E+03  0.26551948374E+02 -0.11205349172E+02  0.12663612044E+03  0.47000000000E+01 0.  1.
<mgrwt>
<rscale>  0 0.10042656E+04</rscale>
<asrwt>0</asrwt>
<pdfrwt beam="1">  1        1 0.11541391E+00 0.10042656E+04</pdfrwt>
<pdfrwt beam="2">  1       -1 0.51707348E-01 0.10042656E+04</pdfrwt>
<totfact> 0.10547236E+02</totfact>
</mgrwt>
</event>
<event>
 9    1  0.4488205E-036  0.9984261E+03  0.7818608E-02  0.8682538E-01
         -1   -1    0    0    0  501 -0.00000000000E+00  0.00000000000E+00  0.33851172983E+03  0.33851172983E+03  0.00000000000E+00 0.  1.
          1   -1    0    0  501    0  0.00000000000E+00 -0.00000000000E+00 -0.73620393129E+03  0.73620393129E+03  0.00000000000E+00 0.  1.
         36    2    1    2    0    0  0.00000000000E+00  0.42632564146E-13 -0.39769220145E+03  0.10747156611E+04  0.99842609399E+03 0.  0.
         25    2    3    3    0    0 -0.85668969783E+02  0.72553427515E+02 -0.16128156010E+03  0.23323949414E+03  0.12564134580E+03 0.  0.
         35    2    3    3    0    0  0.85668969783E+02 -0.72553427515E+02 -0.23641064136E+03  0.84147616698E+03  0.79974306875E+03 0.  0.
         22    1    5    5    0    0  0.42137411189E+02 -0.31212631675E+03 -0.42817293252E+03  0.53153594344E+03  0.00000000000E+00 0. -1.
         22    1    5    5    0    0  0.43531558594E+02  0.23957288923E+03  0.19176229117E+03  0.30994022353E+03  0.00000000000E+00 0. -1.
          5    1    4    4  502    0 -0.79016285418E+02  0.89046766076E+02 -0.17399590218E+03  0.21087807825E+03  0.47000000000E+01 0.  1.
         -5    1    4    4    0  502 -0.66526843651E+01 -0.16493338561E+02  0.12714342085E+02  0.22361415895E+02  0.47000000000E+01 0.  1.
<mgrwt>
<rscale>  0 0.99842609E+03</rscale>
<asrwt>0</asrwt>
<pdfrwt beam="1">  1        1 0.11326214E+00 0.99842609E+03</pdfrwt>
<pdfrwt beam="2">  1       -1 0.52078728E-01 0.99842609E+03</pdfrwt>
<totfact> 0.10726207E+02</totfact>
</mgrwt>
</event>
<event>
 9    1  0.4488205E-036  0.9990875E+03  0.7818608E-02  0.8681907E-01
          1   -1    0    0  501    0  0.00000000000E+00  0.00000000000E+00  0.11879400201E+04  0.11879400201E+04  0.00000000000E+00 0. -1.
         -1   -1    0    0    0  501 -0.00000000000E+00 -0.00000000000E+00 -0.21006445677E+03  0.21006445677E+03  0.00000000000E+00 0. -1.
         36    2    1    2    0    0  0.21316282073E-13  0.00000000000E+00  0.97787556332E+03  0.13980044769E+04  0.99908753369E+03 0.  0.
         25    2    3    3    0    0 -0.79120824488E-01  0.35268248847E+02  0.37012653098E+03  0.39237659918E+03  0.12538696507E+03 0.  0.
         35    2    3    3    0    0  0.79120824488E-01 -0.35268248847E+02  0.60774903234E+03  0.10056278777E+04  0.80042781462E+03 0.  0.
         22    1    5    5    0    0 -0.33076907809E+03 -0.22113154878E+03  0.43236955347E+03  0.58758044186E+03  0.00000000000E+00 0.  1.
         22    1    5    5    0    0  0.33084819892E+03  0.18586329993E+03  0.17537947887E+03  0.41804743582E+03  0.00000000000E+00 0.  1.
          5    1    4    4  502    0 -0.11050938248E+02  0.24215369778E+02  0.57465665000E+01  0.27633682277E+02  0.47000000000E+01 0. -1.
         -5    1    4    4    0  502  0.10971817423E+02  0.11052879069E+02  0.36437996448E+03  0.36474291690E+03  0.47000000000E+01 0. -1.
<mgrwt>
<rscale>  0 0.99908753E+03</rscale>
<asrwt>0</asrwt>
<pdfrwt beam="1">  1        1 0.18276000E+00 0.99908753E+03</pdfrwt>
<pdfrwt beam="2">  1       -1 0.32317610E-01 0.99908753E+03</pdfrwt>
<totfact> 0.10765574E+02</totfact>
</mgrwt>
</event>
<event>
 9    1  0.4488205E-036  0.1000874E+04  0.7818608E-02  0.8680206E-01
         -1   -1    0    0    0  501 -0.00000000000E+00  0.00000000000E+00  0.18692871614E+03  0.18692871614E+03  0.00000000000E+00 0. -1.
          1   -1    0    0  501    0  0.00000000000E+00 -0.00000000000E+00 -0.13397470925E+04  0.13397470925E+04  0.00000000000E+00 0. -1.
         36    2    1    2    0    0 -0.42632564146E-13 -0.71054273576E-14 -0.11528183764E+04  0.15266758087E+04  0.10008740259E+04 0.  0.
         25    2    3    3    0    0 -0.10299977302E+03 -0.23303190414E+02 -0.75074468309E+02  0.18024746309E+03  0.12530355236E+03 0.  0.
         35    2    3    3    0    0  0.10299977302E+03  0.23303190414E+02 -0.10777439081E+04  0.13464283456E+04  0.80011584563E+03 0.  0.
         22    1    5    5    0    0 -0.27073566270E+03 -0.14477919835E+03 -0.78474427421E+03  0.84266386610E+03  0.00000000000E+00 0.  1.
         22    1    5    5    0    0  0.37373543572E+03  0.16808238876E+03 -0.29299963387E+03  0.50376447946E+03  0.00000000000E+00 0.  1.
          5    1    4    4  502    0 -0.62223501767E+02  0.40126041893E+02 -0.64450378809E+00  0.74191433436E+02  0.47000000000E+01 0.  1.
         -5    1    4    4    0  502 -0.40776271251E+02 -0.63429232308E+02 -0.74429964521E+02  0.10605602966E+03  0.47000000000E+01 0.  1.
<mgrwt>
<rscale>  0 0.10008740E+04</rscale>
<asrwt>0</asrwt>
<pdfrwt beam="1">  1        1 0.20611494E+00 0.10008740E+04</pdfrwt>
<pdfrwt beam="2">  1       -1 0.28758264E-01 0.10008740E+04</pdfrwt>
<totfact> 0.10163886E+02</totfact>
</mgrwt>
</event>
<event>
 9    1  0.4488205E-036  0.1000247E+04  0.7818608E-02  0.8680803E-01
         -2   -1    0    0    0  501 -0.00000000000E+00  0.00000000000E+00  0.30199696683E+03  0.30199696683E+03  0.00000000000E+00 0. -1.
          2   -1    0    0  501    0  0.00000000000E+00 -0.00000000000E+00 -0.82823196561E+03  0.82823196561E+03  0.00000000000E+00 0. -1.
         36    2    1    2    0    0  0.28421709430E-13  0.00000000000E+00 -0.52623499878E+03  0.11302289324E+04  0.10002470524E+04 0.  0.
         25    2    3    3    0    0  0.36692375826E+02  0.12017835720E+03 -0.17338388380E+03  0.24757839211E+03  0.12427357360E+03 0.  0.
         35    2    3    3    0    0 -0.36692375826E+02 -0.12017835720E+03 -0.35285111498E+03  0.88265054032E+03  0.79923644750E+03 0.  0.
         22    1    5    5    0    0 -0.30415142446E+03 -0.11789750147E+03  0.11321392444E+03  0.34529017151E+03  0.00000000000E+00 0. -1.
         22    1    5    5    0    0  0.26745904864E+03 -0.22808557300E+01 -0.46606503942E+03  0.53736036881E+03  0.00000000000E+00 0. -1.
          5    1    4    4  502    0 -0.19139849052E+02  0.25857475179E+02 -0.12232357692E+03  0.12657049543E+03  0.47000000000E+01 0.  1.
         -5    1    4    4    0  502  0.55832224878E+02  0.94320882020E+02 -0.51060306889E+02  0.12100789668E+03  0.47000000000E+01 0.  1.
<mgrwt>
<rscale>  0 0.10002471E+04</rscale>
<asrwt>0</asrwt>
<pdfrwt beam="1">  1        2 0.12742030E+00 0.10002471E+04</pdfrwt>
<pdfrwt beam="2">  1       -2 0.46461073E-01 0.10002471E+04</pdfrwt>
<totfact> 0.17476272E+02</totfact>
</mgrwt>
</event>
<event>
 9    1  0.4488205E-036  0.9994464E+03  0.7818608E-02  0.8681565E-01
          2   -1    0    0  501    0  0.00000000000E+00  0.00000000000E+00  0.19518305387E+03  0.19518305387E+03  0.00000000000E+00 0.  1.
         -2   -1    0    0    0  501 -0.00000000000E+00 -0.00000000000E+00 -0.12794311343E+04  0.12794311343E+04  0.00000000000E+00 0.  1.
         36    2    1    2    0    0  0.14210854715E-13 -0.28421709430E-13 -0.10842480804E+04  0.14746141882E+04  0.99944639879E+03 0.  0.
         25    2    3    3    0    0  0.74525099498E+02 -0.11198095048E+03 -0.16216123895E+03  0.24653903719E+03  0.12802931585E+03 0.  0.
         35    2    3    3    0    0 -0.74525099498E+02  0.11198095048E+03 -0.92208684149E+03  0.12280751510E+04  0.79989418644E+03 0.  0.
         22    1    5    5    0    0  0.32451546975E+03  0.20443118687E+03 -0.57504300054E+03  0.69121404264E+03  0.00000000000E+00 0. -1.
         22    1    5    5    0    0 -0.39904056925E+03 -0.92450236391E+02 -0.34704384095E+03  0.53686110835E+03  0.00000000000E+00 0. -1.
          5    1    4    4  502    0  0.58390678267E+02  0.11035950587E+02 -0.36559048221E+02  0.69927945206E+02  0.47000000000E+01 0.  1.
         -5    1    4    4    0  502  0.16134421231E+02 -0.12301690107E+03 -0.12560219073E+03  0.17661109199E+03  0.47000000000E+01 0.  1.
<mgrwt>
<rscale>  0 0.99944640E+03</rscale>
<asrwt>0</asrwt>
<pdfrwt beam="1">  1        2 0.30028161E-01 0.99944640E+03</pdfrwt>
<pdfrwt beam="2">  1       -2 0.19683556E+00 0.99944640E+03</pdfrwt>
<totfact> 0.27087012E+01</totfact>
</mgrwt>
</event>
<event>
 9    1  0.4488205E-036  0.1000016E+04  0.7818608E-02  0.8681023E-01
         -2   -1    0    0    0  501 -0.00000000000E+00  0.00000000000E+00  0.10222821179E+04  0.10222821179E+04  0.00000000000E+00 0.  1.
          2   -1    0    0  501    0  0.00000000000E+00 -0.00000000000E+00 -0.24455847877E+03  0.24455847877E+03  0.00000000000E+00 0.  1.
         36    2    1    2    0    0  0.14210854715E-13  0.00000000000E+00  0.77772363908E+03  0.12668405966E+04  0.10000155191E+04 0.  0.
         25    2    3    3    0    0 -0.89473330847E+02  0.10244038965E+03  0.12585147768E+03  0.22374699831E+03  0.12539782476E+03 0.  0.
         35    2    3    3    0    0  0.89473330847E+02 -0.10244038965E+03  0.65187216140E+03  0.10430935983E+04  0.80287447941E+03 0.  0.
         22    1    5    5    0    0  0.15014030621E+03  0.14079959620E+03 -0.11535226243E+03  0.23595080480E+03  0.00000000000E+00 0. -1.
         22    1    5    5    0    0 -0.60666975361E+02 -0.24323998585E+03  0.76722442383E+03  0.80714279352E+03  0.00000000000E+00 0. -1.
          5    1    4    4  502    0 -0.29848463930E+02  0.71860345252E+02  0.13506197742E+03  0.15594443807E+03  0.47000000000E+01 0.  1.
         -5    1    4    4    0  502 -0.59624866917E+02  0.30580044398E+02 -0.92104997397E+01  0.67802560244E+02  0.47000000000E+01 0.  1.
<mgrwt>
<rscale>  0 0.10000155E+04</rscale>
<asrwt>0</asrwt>
<pdfrwt beam="1">  1        2 0.37624382E-01 0.10000155E+04</pdfrwt>
<pdfrwt beam="2">  1       -2 0.15727417E+00 0.10000155E+04</pdfrwt>
<totfact> 0.40946307E+01</totfact>
</mgrwt>
</event>
<event>
 9    1  0.4488205E-036  0.9980947E+03  0.7818608E-02  0.8682854E-01
         -1   -1    0    0    0  501 -0.00000000000E+00  0.00000000000E+00  0.32394801948E+03  0.32394801948E+03  0.00000000000E+00 0.  1.
          1   -1    0    0  501    0  0.00000000000E+00 -0.00000000000E+00 -0.76879084188E+03  0.76879084188E+03  0.00000000000E+00 0.  1.
         36    2    1    2    0    0 -0.88817841970E-15  0.00000000000E+00 -0.44484282241E+03  0.10927388614E+04  0.99809472621E+03 0.  0.
         25    2    3    3    0    0 -0.76346437096E+01  0.85998967313E+02 -0.21454380096E+03  0.26258055532E+03  0.12435994268E+03 0.  0.
         35    2    3    3    0    0  0.76346437096E+01 -0.85998967313E+02 -0.23029902145E+03  0.83015830604E+03  0.79288780016E+03 0.  0.
         22    1    5    5    0    0  0.52838727845E+02 -0.25621370046E+03  0.22306065769E+03  0.34379274057E+03  0.00000000000E+00 0.  1.
         22    1    5    5    0    0 -0.45204084135E+02  0.17021473315E+03 -0.45335967914E+03  0.48636556546E+03  0.00000000000E+00 0.  1.
          5    1    4    4  502    0  0.88534600715E+00  0.11604585431E+03 -0.18955422006E+03  0.22230680710E+03  0.47000000000E+01 0.  1.
         -5    1    4    4    0  502 -0.85199897168E+01 -0.30046886996E+02 -0.24989580898E+02  0.40273748229E+02  0.47000000000E+01 0.  1.
<mgrwt>
<rscale>  0 0.99809473E+03</rscale>
<asrwt>0</asrwt>
<pdfrwt beam="1">  1        1 0.11827551E+00 0.99809473E+03</pdfrwt>
<pdfrwt beam="2">  1       -1 0.49838157E-01 0.99809473E+03</pdfrwt>
<totfact> 0.10867453E+02</totfact>
</mgrwt>
</event>
<event>
 9    1  0.4488205E-036  0.9999257E+03  0.7818608E-02  0.8681109E-01
          2   -1    0    0  501    0  0.00000000000E+00  0.00000000000E+00  0.23350500786E+04  0.23350500786E+04  0.00000000000E+00 0. -1.
         -2   -1    0    0    0  501 -0.00000000000E+00 -0.00000000000E+00 -0.10704817761E+03  0.10704817761E+03  0.00000000000E+00 0. -1.
         36    2    1    2    0    0 -0.10658141036E-13  0.00000000000E+00  0.22280019010E+04  0.24420982562E+04  0.99992570831E+03 0.  0.
         25    2    3    3    0    0  0.25295310332E+02 -0.11393979693E+03  0.59353479351E+03  0.61814646813E+03  0.12727676500E+03 0.  0.
         35    2    3    3    0    0 -0.25295310332E+02  0.11393979693E+03  0.16344671075E+04  0.18239517881E+04  0.80105884287E+03 0.  0.
         22    1    5    5    0    0  0.19891975957E+03  0.56766295087E+02  0.37406618321E+02  0.21021593208E+03  0.00000000000E+00 0.  1.
         22    1    5    5    0    0 -0.22421506990E+03  0.57173501844E+02  0.15970604892E+04  0.16137358560E+04  0.00000000000E+00 0.  1.
          5    1    4    4  502    0  0.24682603935E+02 -0.88896965432E+02  0.16697749156E+03  0.19082838910E+03  0.47000000000E+01 0.  1.
         -5    1    4    4    0  502  0.61270639717E+00 -0.25042831499E+02  0.42655730195E+03  0.42731807903E+03  0.47000000000E+01 0.  1.
<mgrwt>
<rscale>  0 0.99992571E+03</rscale>
<asrwt>0</asrwt>
<pdfrwt beam="1">  1        2 0.35923844E+00 0.99992571E+03</pdfrwt>
<pdfrwt beam="2">  1       -2 0.16468952E-01 0.99992571E+03</pdfrwt>
<totfact> 0.14944303E+02</totfact>
</mgrwt>
</event>
<event>
 9    1  0.4488205E-036  0.1000100E+04  0.7818608E-02  0.8680942E-01
          2   -1    0    0  501    0  0.00000000000E+00  0.00000000000E+00  0.11968537916E+04  0.11968537916E+04  0.00000000000E+00 0. -1.
         -2   -1    0    0    0  501 -0.00000000000E+00 -0.00000000000E+00 -0.20892295752E+03  0.20892295752E+03  0.00000000000E+00 0. -1.
         36    2    1    2    0    0  0.14210854715E-13 -0.21316282073E-13  0.98793083404E+03  0.14057767491E+04  0.10001004626E+04 0.  0.
         25    2    3    3    0    0 -0.79084769451E+02  0.11281415732E+02  0.21455524009E+02  0.15129297301E+03  0.12667893697E+03 0.  0.
         35    2    3    3    0    0  0.79084769451E+02 -0.11281415732E+02  0.96647531003E+03  0.12544837761E+04  0.79578473748E+03 0.  0.
         22    1    5    5    0    0  0.43724719109E+02 -0.33640249733E+03  0.83631184592E+03  0.90249431848E+03  0.00000000000E+00 0.  1.
         22    1    5    5    0    0  0.35360050342E+02  0.32512108159E+03  0.13016346411E+03  0.35198945758E+03  0.00000000000E+00 0.  1.
          5    1    4    4  502    0 -0.38280956811E+02  0.32229243949E+02 -0.46963590016E+02  0.68788259224E+02  0.47000000000E+01 0.  1.
         -5    1    4    4    0  502 -0.40803812639E+02 -0.20947828217E+02  0.68419114024E+02  0.82504713785E+02  0.47000000000E+01 0.  1.
<mgrwt>
<rscale>  0 0.10001005E+04</rscale>
<asrwt>0</asrwt>
<pdfrwt beam="1">  1        2 0.18413135E+00 0.10001005E+04</pdfrwt>
<pdfrwt beam="2">  1       -2 0.32141994E-01 0.10001005E+04</pdfrwt>
<totfact> 0.20638938E+02</totfact>
</mgrwt>
</event>
<event>
 9    1  0.4488205E-036  0.9999504E+03  0.7818608E-02  0.8681085E-01
         -1   -1    0    0    0  501 -0.00000000000E+00  0.00000000000E+00  0.18064699019E+03  0.18064699019E+03  0.00000000000E+00 0. -1.
          1   -1    0    0  501    0  0.00000000000E+00 -0.00000000000E+00 -0.13837773274E+04  0.13837773274E+04  0.00000000000E+00 0. -1.
         36    2    1    2    0    0  0.00000000000E+00 -0.13322676296E-14 -0.12031303372E+04  0.15644243176E+04  0.99995041733E+03 0.  0.
         25    2    3    3    0    0 -0.14192878457E+03  0.36824487234E+01 -0.17501516197E+03  0.25408109079E+03  0.11734374062E+03 0.  0.
         35    2    3    3    0    0  0.14192878457E+03 -0.36824487234E+01 -0.10281151752E+04  0.13103432268E+04  0.79988825351E+03 0.  0.
         22    1    5    5    0    0 -0.77877852705E+02 -0.32735662340E+03 -0.77353784203E+03  0.84355682196E+03  0.00000000000E+00 0.  1.
         22    1    5    5    0    0  0.21980663727E+03  0.32367417467E+03 -0.25457733318E+03  0.46678640480E+03  0.00000000000E+00 0.  1.
          5    1    4    4  502    0 -0.37034760903E+02  0.76267035065E+01 -0.13722804615E+03  0.14241968534E+03  0.47000000000E+01 0. -1.
         -5    1    4    4    0  502 -0.10489402367E+03 -0.39442547831E+01 -0.37787115818E+02  0.11166140546E+03  0.47000000000E+01 0. -1.
<mgrwt>
<rscale>  0 0.99995042E+03</rscale>
<asrwt>0</asrwt>
<pdfrwt beam="1">  1        1 0.21288881E+00 0.99995042E+03</pdfrwt>
<pdfrwt beam="2">  1       -1 0.27791846E-01 0.99995042E+03</pdfrwt>
<totfact> 0.10011728E+02</totfact>
</mgrwt>
</event>
<event>
 9    1  0.4488205E-036  0.9994154E+03  0.7818608E-02  0.8681595E-01
         -4   -1    0    0    0  501 -0.00000000000E+00  0.00000000000E+00  0.13796585985E+03  0.13796585985E+03  0.00000000000E+00 0.  1.
          4   -1    0    0  501    0  0.00000000000E+00 -0.00000000000E+00 -0.18099245283E+04  0.18099245283E+04  0.00000000000E+00 0.  1.
         36    2    1    2    0    0  0.00000000000E+00  0.00000000000E+00 -0.16719586684E+04  0.19478903881E+04  0.99941541674E+03 0.  0.
         25    2    3    3    0    0 -0.83178309763E+02 -0.65561629033E+02 -0.13736772799E+03  0.21397709716E+03  0.12529703507E+03 0.  0.
         35    2    3    3    0    0  0.83178309763E+02  0.65561629033E+02 -0.15345909405E+04  0.17339132910E+04  0.80016809965E+03 0.  0.
         22    1    5    5    0    0  0.19546790846E+03 -0.51244833089E+02 -0.15572531667E+04  0.15703092566E+04  0.00000000000E+00 0. -1.
         22    1    5    5    0    0 -0.11228959870E+03  0.11680646212E+03  0.22662226242E+02  0.16360403439E+03  0.00000000000E+00 0. -1.
          5    1    4    4  502    0 -0.83699703187E+02 -0.44734023544E+02 -0.23176865623E+02  0.97806085067E+02  0.47000000000E+01 0. -1.
         -5    1    4    4    0  502  0.52139342375E+00 -0.20827605489E+02 -0.11419086237E+03  0.11617101209E+03  0.47000000000E+01 0. -1.
<mgrwt>
<rscale>  0 0.99941542E+03</rscale>
<asrwt>0</asrwt>
<pdfrwt beam="1">  1        4 0.27844993E+00 0.99941542E+03</pdfrwt>
<pdfrwt beam="2">  1       -4 0.21225517E-01 0.99941542E+03</pdfrwt>
<totfact> 0.13600417E+00</totfact>
</mgrwt>
</event>
<event>
 9    1  0.4488205E-036  0.9986905E+03  0.7818608E-02  0.8682286E-01
          2   -1    0    0  501    0  0.00000000000E+00  0.00000000000E+00  0.12426481329E+04  0.12426481329E+04  0.00000000000E+00 0. -1.
         -2   -1    0    0    0  501 -0.00000000000E+00 -0.00000000000E+00 -0.20065670752E+03  0.20065670752E+03  0.00000000000E+00 0. -1.
         36    2    1    2    0    0  0.14210854715E-13  0.14210854715E-13  0.10419914254E+04  0.14433048405E+04  0.99869050854E+03 0.  0.
         25    2    3    3    0    0  0.51689337022E+02  0.10545532733E+03  0.85279284951E+02  0.19123663117E+03  0.12452421064E+03 0.  0.
         35    2    3    3    0    0 -0.51689337022E+02 -0.10545532733E+03  0.95671214047E+03  0.12520682093E+04  0.79911455210E+03 0.  0.
         22    1    5    5    0    0  0.33085317244E+03 -0.17771888108E+03  0.26953012152E+03  0.46227081761E+03  0.00000000000E+00 0. -1.
         22    1    5    5    0    0 -0.38254250946E+03  0.72263553757E+02  0.68718201895E+03  0.78979739169E+03  0.00000000000E+00 0. -1.
          5    1    4    4  502    0 -0.38545183167E+02  0.49029606285E+02  0.17395406752E+02  0.64917822005E+02  0.47000000000E+01 0.  1.
         -5    1    4    4    0  502  0.90234520189E+02  0.56425721041E+02  0.67883878199E+02  0.12631880916E+03  0.47000000000E+01 0.  1.
<mgrwt>
<rscale>  0 0.99869051E+03</rscale>
<asrwt>0</asrwt>
<pdfrwt beam="1">  1        2 0.19117663E+00 0.99869051E+03</pdfrwt>
<pdfrwt beam="2">  1       -2 0.30870263E-01 0.99869051E+03</pdfrwt>
<totfact> 0.20889026E+02</totfact>
</mgrwt>
</event>
<event>
 9    1  0.4488205E-036  0.1006323E+04  0.7818608E-02  0.8675040E-01
          1   -1    0    0  501    0  0.00000000000E+00  0.00000000000E+00  0.14461617221E+04  0.14461617221E+04  0.00000000000E+00 0. -1.
         -1   -1    0    0    0  501 -0.00000000000E+00 -0.00000000000E+00 -0.17506432615E+03  0.17506432615E+03  0.00000000000E+00 0. -1.
         36    2    1    2    0    0 -0.35527136788E-14  0.00000000000E+00  0.12710973959E+04  0.16212260483E+04  0.10063226667E+04 0.  0.
         25    2    3    3    0    0  0.31722461555E+02  0.77164787636E+02  0.47844428564E+02  0.15774250664E+03  0.12503155617E+03 0.  0.
         35    2    3    3    0    0 -0.31722461555E+02 -0.77164787636E+02  0.12232529674E+04  0.14634835416E+04  0.79904664152E+03 0.  0.
         22    1    5    5    0    0 -0.81929718489E+02  0.56417864081E+02  0.12983969891E+04  0.13022020563E+04  0.00000000000E+00 0.  1.
         22    1    5    5    0    0  0.50207256934E+02 -0.13358265172E+03 -0.75144021741E+02  0.16128148527E+03  0.00000000000E+00 0.  1.
          5    1    4    4  502    0 -0.26884779639E+02 -0.72361877491E+01  0.47057253287E+02  0.54878309707E+02  0.47000000000E+01 0. -1.
         -5    1    4    4    0  502  0.58607241194E+02  0.84400975385E+02  0.78717527633E+00  0.10286419694E+03  0.47000000000E+01 0. -1.
<mgrwt>
<rscale>  0 0.10063227E+04</rscale>
<asrwt>0</asrwt>
<pdfrwt beam="1">  1        1 0.22248641E+00 0.10063227E+04</pdfrwt>
<pdfrwt beam="2">  1       -1 0.26932974E-01 0.10063227E+04</pdfrwt>
<totfact> 0.95184164E+01</totfact>
</mgrwt>
</event>
<event>
 9    1  0.4488205E-036  0.1002288E+04  0.7818608E-02  0.8678862E-01
          2   -1    0    0  501    0  0.00000000000E+00  0.00000000000E+00  0.56259144128E+03  0.56259144128E+03  0.00000000000E+00 0. -1.
         -2   -1    0    0    0  501 -0.00000000000E+00 -0.00000000000E+00 -0.44640802373E+03  0.44640802373E+03  0.00000000000E+00 0. -1.
         36    2    1    2    0    0 -0.10658141036E-13  0.00000000000E+00  0.11618341755E+03  0.10089994650E+04  0.10022880493E+04 0.  0.
         25    2    3    3    0    0  0.30373073492E+01 -0.23968596464E+02  0.16389489261E+03  0.20779052201E+03  0.12542586002E+03 0.  0.
         35    2    3    3    0    0 -0.30373073492E+01  0.23968596464E+02 -0.47711475058E+02  0.80120894300E+03  0.79942208290E+03 0.  0.
         22    1    5    5    0    0 -0.97553630036E+02 -0.30078359465E+02  0.36260060025E+03  0.37669697868E+03  0.00000000000E+00 0. -1.
         22    1    5    5    0    0  0.94516322687E+02  0.54046955930E+02 -0.41031207531E+03  0.42451196432E+03  0.00000000000E+00 0. -1.
          5    1    4    4  502    0 -0.12684691753E+02 -0.59480267975E+02  0.15651386269E+03  0.16798060274E+03  0.47000000000E+01 0. -1.
         -5    1    4    4    0  502  0.15721999102E+02  0.35511671510E+02  0.73810299146E+01  0.39809919264E+02  0.47000000000E+01 0. -1.
<mgrwt>
<rscale>  0 0.10022880E+04</rscale>
<asrwt>0</asrwt>
<pdfrwt beam="1">  1        2 0.86552529E-01 0.10022880E+04</pdfrwt>
<pdfrwt beam="2">  1       -2 0.68678158E-01 0.10022880E+04</pdfrwt>
<totfact> 0.12562697E+02</totfact>
</mgrwt>
</event>
<event>
 9    1  0.4488205E-036  0.9992107E+03  0.7818608E-02  0.8681790E-01
         -1   -1    0    0    0  501 -0.00000000000E+00  0.00000000000E+00  0.11919782720E+04  0.11919782720E+04  0.00000000000E+00 0. -1.
          1   -1    0    0  501    0  0.00000000000E+00 -0.00000000000E+00 -0.20940441668E+03  0.20940441668E+03  0.00000000000E+00 0. -1.
         36    2    1    2    0    0 -0.17763568394E-14  0.00000000000E+00  0.98257385529E+03  0.14013826886E+04  0.99921071799E+03 0.  0.
         25    2    3    3    0    0 -0.71198641224E+01 -0.55810959814E+02  0.36230462219E+03  0.38742011934E+03  0.12515651766E+03 0.  0.
         35    2    3    3    0    0  0.71198641224E+01  0.55810959814E+02  0.62026923310E+03  0.10139625693E+04  0.80013787232E+03 0.  0.
         22    1    5    5    0    0 -0.34633345981E+02 -0.18911926429E+03  0.72074792731E+03  0.74595116428E+03  0.00000000000E+00 0. -1.
         22    1    5    5    0    0  0.41753210104E+02  0.24493022410E+03 -0.10047869420E+03  0.26801140502E+03  0.00000000000E+00 0. -1.
          5    1    4    4  502    0  0.47528374676E+01  0.14451047847E+02  0.27117821058E+03  0.27164523581E+03  0.47000000000E+01 0. -1.
         -5    1    4    4    0  502 -0.11872701590E+02 -0.70262007661E+02  0.91126411607E+02  0.11577488353E+03  0.47000000000E+01 0. -1.
<mgrwt>
<rscale>  0 0.99921072E+03</rscale>
<asrwt>0</asrwt>
<pdfrwt beam="1">  1        1 0.32216065E-01 0.99921072E+03</pdfrwt>
<pdfrwt beam="2">  1       -1 0.18338127E+00 0.99921072E+03</pdfrwt>
<totfact> 0.30145573E+01</totfact>
</mgrwt>
</event>
<event>
 9    1  0.4488205E-036  0.9998384E+03  0.7818608E-02  0.8681192E-01
         -2   -1    0    0    0  501 -0.00000000000E+00  0.00000000000E+00  0.59733010963E+03  0.59733010963E+03  0.00000000000E+00 0.  1.
          2   -1    0    0  501    0  0.00000000000E+00 -0.00000000000E+00 -0.41839379468E+03  0.41839379468E+03  0.00000000000E+00 0.  1.
         36    2    1    2    0    0 -0.71054273576E-14  0.00000000000E+00  0.17893631494E+03  0.10157239043E+04  0.99983840944E+03 0.  0.
         25    2    3    3    0    0 -0.24740651498E+02 -0.42485715900E+02 -0.10021049604E+03  0.16718563824E+03  0.12446589181E+03 0.  0.
         35    2    3    3    0    0  0.24740651498E+02  0.42485715900E+02  0.27914681098E+03  0.84853826607E+03  0.79979816893E+03 0.  0.
         22    1    5    5    0    0  0.72858712691E+02 -0.21416436659E+03  0.47234043038E+03  0.52371771987E+03  0.00000000000E+00 0.  1.
         22    1    5    5    0    0 -0.48118061193E+02  0.25665008249E+03 -0.19319361940E+03  0.32482054620E+03  0.00000000000E+00 0.  1.
          5    1    4    4  502    0 -0.26223615330E+02  0.41568828736E+02 -0.42039503125E+02  0.64846398100E+02  0.47000000000E+01 0.  1.
         -5    1    4    4    0  502  0.14829638317E+01 -0.84054544636E+02 -0.58170992911E+02  0.10233924014E+03  0.47000000000E+01 0.  1.
<mgrwt>
<rscale>  0 0.99983841E+03</rscale>
<asrwt>0</asrwt>
<pdfrwt beam="1">  1        2 0.64368276E-01 0.99983841E+03</pdfrwt>
<pdfrwt beam="2">  1       -2 0.91896940E-01 0.99983841E+03</pdfrwt>
<totfact> 0.90855839E+01</totfact>
</mgrwt>
</event>
<event>
 9    1  0.4488205E-036  0.9999723E+03  0.7818608E-02  0.8681064E-01
         -2   -1    0    0    0  501 -0.00000000000E+00  0.00000000000E+00  0.21564265766E+03  0.21564265766E+03  0.00000000000E+00 0. -1.
          2   -1    0    0  501    0  0.00000000000E+00 -0.00000000000E+00 -0.11592611253E+04  0.11592611253E+04  0.00000000000E+00 0. -1.
         36    2    1    2    0    0 -0.71054273576E-14 -0.71054273576E-14 -0.94361846768E+03  0.13749037830E+04  0.99997229960E+03 0.  0.
         25    2    3    3    0    0  0.17305741241E+00 -0.53818187024E+02  0.35640703806E+01  0.13607719655E+03  0.12493147570E+03 0.  0.
         35    2    3    3    0    0 -0.17305741241E+00  0.53818187024E+02 -0.94718253806E+03  0.12388265864E+04  0.79664303403E+03 0.  0.
         22    1    5    5    0    0  0.15543275811E+03 -0.32411370274E+03 -0.61415258236E+03  0.71161255541E+03  0.00000000000E+00 0. -1.
         22    1    5    5    0    0 -0.15560581552E+03  0.37793188977E+03 -0.33302995570E+03  0.52721403103E+03  0.00000000000E+00 0. -1.
          5    1    4    4  502    0  0.58177443400E+02 -0.38731964677E+02 -0.17800991568E+02  0.72275482074E+02  0.47000000000E+01 0. -1.
         -5    1    4    4    0  502 -0.58004385987E+02 -0.15086222348E+02  0.21365061949E+02  0.63801714480E+02  0.47000000000E+01 0. -1.
<mgrwt>
<rscale>  0 0.99997230E+03</rscale>
<asrwt>0</asrwt>
<pdfrwt beam="1">  1        2 0.17834787E+00 0.99997230E+03</pdfrwt>
<pdfrwt beam="2">  1       -2 0.33175794E-01 0.99997230E+03</pdfrwt>
<totfact> 0.20495442E+02</totfact>
</mgrwt>
</event>
<event>
 9    1  0.4488205E-036  0.9983657E+03  0.7818608E-02  0.8682596E-01
          1   -1    0    0  501    0  0.00000000000E+00  0.00000000000E+00  0.68908625680E+03  0.68908625680E+03  0.00000000000E+00 0.  1.
         -1   -1    0    0    0  501 -0.00000000000E+00 -0.00000000000E+00 -0.36161442605E+03  0.36161442605E+03  0.00000000000E+00 0.  1.
         36    2    1    2    0    0  0.00000000000E+00 -0.28421709430E-13  0.32747183074E+03  0.10507006828E+04  0.99836572708E+03 0.  0.
         25    2    3    3    0    0 -0.75194566743E+02 -0.73277908895E+02 -0.34305293550E+02  0.16643455971E+03  0.12449793050E+03 0.  0.
         35    2    3    3    0    0  0.75194566743E+02  0.73277908895E+02  0.36177712429E+03  0.88426612314E+03  0.80001250870E+03 0.  0.
         22    1    5    5    0    0  0.34618761487E+02 -0.33598283446E+03  0.32929479559E+03  0.47171812145E+03  0.00000000000E+00 0. -1.
         22    1    5    5    0    0  0.40575805257E+02  0.40926074335E+03  0.32482328701E+02  0.41254800169E+03  0.00000000000E+00 0. -1.
          5    1    4    4  502    0 -0.10403545209E+03 -0.55482231904E+02 -0.50779461180E+02  0.12846126664E+03  0.47000000000E+01 0. -1.
         -5    1    4    4    0  502  0.28840885348E+02 -0.17795676991E+02  0.16474167630E+02  0.37973293067E+02  0.47000000000E+01 0. -1.
<mgrwt>
<rscale>  0 0.99836573E+03</rscale>
<asrwt>0</asrwt>
<pdfrwt beam="1">  1        1 0.10601327E+00 0.99836573E+03</pdfrwt>
<pdfrwt beam="2">  1       -1 0.55632989E-01 0.99836573E+03</pdfrwt>
<totfact> 0.10498109E+02</totfact>
</mgrwt>
</event>
<event>
 9    1  0.4488205E-036  0.1013210E+04  0.7818608E-02  0.8668559E-01
         -1   -1    0    0    0  501 -0.00000000000E+00  0.00000000000E+00  0.28508955769E+03  0.28508955769E+03  0.00000000000E+00 0.  1.
          1   -1    0    0  501    0  0.00000000000E+00 -0.00000000000E+00 -0.90023862665E+03  0.90023862665E+03  0.00000000000E+00 0.  1.
         36    2    1    2    0    0 -0.71054273576E-14 -0.14210854715E-13 -0.61514906896E+03  0.11853281843E+04  0.10132100116E+04 0.  0.
         25    2    3    3    0    0 -0.99710118051E+01  0.14040647323E+02 -0.30109829792E+03  0.32610332043E+03  0.12404285440E+03 0.  0.
         35    2    3    3    0    0  0.99710118051E+01 -0.14040647323E+02 -0.31405077104E+03  0.85922486391E+03  0.79958921899E+03 0.  0.
         22    1    5    5    0    0 -0.80399839029E+02 -0.21095827292E+03  0.19985553227E+03  0.30151245547E+03  0.00000000000E+00 0. -1.
         22    1    5    5    0    0  0.90370850834E+02  0.19691762559E+03 -0.51390630330E+03  0.55771240844E+03  0.00000000000E+00 0. -1.
          5    1    4    4  502    0 -0.48847134345E+02  0.51398590224E+02 -0.17541720786E+03  0.18926474691E+03  0.47000000000E+01 0.  1.
         -5    1    4    4    0  502  0.38876122540E+02 -0.37357942901E+02 -0.12568109006E+03  0.13683857351E+03  0.47000000000E+01 0.  1.
<mgrwt>
<rscale>  0 0.10132100E+04</rscale>
<asrwt>0</asrwt>
<pdfrwt beam="1">  1        1 0.13849825E+00 0.10132100E+04</pdfrwt>
<pdfrwt beam="2">  1       -1 0.43859933E-01 0.10132100E+04</pdfrwt>
<totfact> 0.10548606E+02</totfact>
</mgrwt>
</event>
<event>
 9    1  0.4488205E-036  0.9998956E+03  0.7818608E-02  0.8681137E-01
          1   -1    0    0  501    0  0.00000000000E+00  0.00000000000E+00  0.76274491530E+03  0.76274491530E+03  0.00000000000E+00 0.  1.
         -1   -1    0    0    0  501 -0.00000000000E+00 -0.00000000000E+00 -0.32769511565E+03  0.32769511565E+03  0.00000000000E+00 0.  1.
         36    2    1    2    0    0  0.00000000000E+00  0.35527136788E-13  0.43504979964E+03  0.10904400309E+04  0.99989556101E+03 0.  0.
         25    2    3    3    0    0  0.55268152172E+02 -0.23871470700E+02 -0.52882381326E+02  0.15070698063E+03  0.12763867751E+03 0.  0.
         35    2    3    3    0    0 -0.55268152172E+02  0.23871470700E+02  0.48793218097E+03  0.93973305032E+03  0.80087201030E+03 0.  0.
         22    1    5    5    0    0  0.71757319302E+02  0.33564430867E+03  0.49576694315E+03  0.60298513808E+03  0.00000000000E+00 0. -1.
         22    1    5    5    0    0 -0.12702547147E+03 -0.31177283797E+03 -0.78347621793E+01  0.33674791224E+03  0.00000000000E+00 0. -1.
          5    1    4    4  502    0  0.73451084868E+02 -0.48288060704E+02 -0.72624857530E+02  0.11411949266E+03  0.47000000000E+01 0. -1.
         -5    1    4    4    0  502 -0.18182932696E+02  0.24416590004E+02  0.19742476204E+02  0.36587487964E+02  0.47000000000E+01 0. -1.
<mgrwt>
<rscale>  0 0.99989556E+03</rscale>
<asrwt>0</asrwt>
<pdfrwt beam="1">  1        1 0.11734537E+00 0.99989556E+03</pdfrwt>
<pdfrwt beam="2">  1       -1 0.50414633E-01 0.99989556E+03</pdfrwt>
<totfact> 0.10771767E+02</totfact>
</mgrwt>
</event>
<event>
 9    1  0.4488205E-036  0.1000277E+04  0.7818608E-02  0.8680775E-01
         -1   -1    0    0    0  501 -0.00000000000E+00  0.00000000000E+00  0.24236439479E+03  0.24236439479E+03  0.00000000000E+00 0. -1.
          1   -1    0    0  501    0  0.00000000000E+00 -0.00000000000E+00 -0.10320755228E+04  0.10320755228E+04  0.00000000000E+00 0. -1.
         36    2    1    2    0    0  0.71054273576E-14  0.14210854715E-13 -0.78971112797E+03  0.12744399175E+04  0.10002766806E+04 0.  0.
         25    2    3    3    0    0  0.15135887357E+02 -0.12075666771E+03 -0.21802172910E+03  0.27955372443E+03  0.12572009624E+03 0.  0.
         35    2    3    3    0    0 -0.15135887357E+02  0.12075666771E+03 -0.57168939887E+03  0.99488619312E+03  0.80508291536E+03 0.  0.
         22    1    5    5    0    0 -0.22882328361E+03 -0.15143497455E+03  0.54205081146E+02  0.27969776092E+03  0.00000000000E+00 0. -1.
         22    1    5    5    0    0  0.21368739626E+03  0.27219164227E+03 -0.62589448002E+03  0.71518843220E+03  0.00000000000E+00 0. -1.
          5    1    4    4  502    0  0.36850114948E+02 -0.94145347729E+01 -0.13103617907E+03  0.13652521622E+03  0.47000000000E+01 0.  1.
         -5    1    4    4    0  502 -0.21714227591E+02 -0.11134213294E+03 -0.86985550025E+02  0.14302850821E+03  0.47000000000E+01 0.  1.
<mgrwt>
<rscale>  0 0.10002767E+04</rscale>
<asrwt>0</asrwt>
<pdfrwt beam="1">  1        1 0.15878085E+00 0.10002767E+04</pdfrwt>
<pdfrwt beam="2">  1       -1 0.37286831E-01 0.10002767E+04</pdfrwt>
<totfact> 0.11042660E+02</totfact>
</mgrwt>
</event>
<event>
 9    1  0.4488205E-036  0.1002409E+04  0.7818608E-02  0.8678747E-01
         -2   -1    0    0    0  501 -0.00000000000E+00  0.00000000000E+00  0.14314239667E+03  0.14314239667E+03  0.00000000000E+00 0. -1.
          2   -1    0    0  501    0  0.00000000000E+00 -0.00000000000E+00 -0.17549379554E+04  0.17549379554E+04  0.00000000000E+00 0. -1.
         36    2    1    2    0    0  0.14210854715E-13  0.35527136788E-14 -0.16117955587E+04  0.18980803520E+04  0.10024091479E+04 0.  0.
         25    2    3    3    0    0  0.11943939605E+03  0.19018277128E+02 -0.45084758140E+03  0.48318214778E+03  0.12479576146E+03 0.  0.
         35    2    3    3    0    0 -0.11943939605E+03 -0.19018277128E+02 -0.11609479773E+04  0.14148982043E+04  0.79969322759E+03 0.  0.
         22    1    5    5    0    0 -0.89080010226E+02 -0.18595587648E+03 -0.12184274765E+04  0.12357509263E+04  0.00000000000E+00 0. -1.
         22    1    5    5    0    0 -0.30359385828E+02  0.16693759935E+03  0.57479499225E+02  0.17914727801E+03  0.00000000000E+00 0. -1.
          5    1    4    4  502    0 -0.12333120034E+02 -0.24511873739E+02 -0.13984625005E+03  0.14259032737E+03  0.47000000000E+01 0.  1.
         -5    1    4    4    0  502  0.13177251609E+03  0.43530150868E+02 -0.31100133135E+03  0.34059182041E+03  0.47000000000E+01 0.  1.
<mgrwt>
<rscale>  0 0.10024091E+04</rscale>
<asrwt>0</asrwt>
<pdfrwt beam="1">  1        2 0.26999044E+00 0.10024091E+04</pdfrwt>
<pdfrwt beam="2">  1       -2 0.22021908E-01 0.10024091E+04</pdfrwt>
<totfact> 0.19514045E+02</totfact>
</mgrwt>
</event>
<event>
 9    1  0.4488205E-036  0.9996323E+03  0.7818608E-02  0.8681388E-01
          2   -1    0    0  501    0  0.00000000000E+00  0.00000000000E+00  0.53625927752E+03  0.53625927752E+03  0.00000000000E+00 0. -1.
         -2   -1    0    0    0  501 -0.00000000000E+00 -0.00000000000E+00 -0.46584965649E+03  0.46584965649E+03  0.00000000000E+00 0. -1.
         36    2    1    2    0    0 -0.53290705182E-14  0.39079850467E-13  0.70409621035E+02  0.10021089340E+04  0.99963233286E+03 0.  0.
         25    2    3    3    0    0 -0.31382849986E+01  0.23630721735E+02 -0.11866895737E+03  0.17399528223E+03  0.12499510772E+03 0.  0.
         35    2    3    3    0    0  0.31382849986E+01 -0.23630721735E+02  0.18907857841E+03  0.82811365178E+03  0.80588662454E+03 0.  0.
         22    1    5    5    0    0  0.11296620449E+03 -0.29674752299E+03  0.36610139934E+03  0.48461396013E+03  0.00000000000E+00 0.  1.
         22    1    5    5    0    0 -0.10982791950E+03  0.27311680126E+03 -0.17702282093E+03  0.34349969165E+03  0.00000000000E+00 0.  1.
          5    1    4    4  502    0 -0.89684648367E+01  0.15652210295E+02 -0.14462786671E+03  0.14582432883E+03  0.47000000000E+01 0. -1.
         -5    1    4    4    0  502  0.58301798381E+01  0.79785114401E+01  0.25958909340E+02  0.28170953407E+02  0.47000000000E+01 0. -1.
<mgrwt>
<rscale>  0 0.99963233E+03</rscale>
<asrwt>0</asrwt>
<pdfrwt beam="1">  1        2 0.82501427E-01 0.99963233E+03</pdfrwt>
<pdfrwt beam="2">  1       -2 0.71669178E-01 0.99963233E+03</pdfrwt>
<totfact> 0.12108719E+02</totfact>
</mgrwt>
</event>
<event>
 9    1  0.4488205E-036  0.9998969E+03  0.7818608E-02  0.8681136E-01
          1   -1    0    0  501    0  0.00000000000E+00  0.00000000000E+00  0.13224600202E+04  0.13224600202E+04  0.00000000000E+00 0. -1.
         -1   -1    0    0    0  501 -0.00000000000E+00 -0.00000000000E+00 -0.18900267032E+03  0.18900267032E+03  0.00000000000E+00 0. -1.
         36    2    1    2    0    0  0.00000000000E+00 -0.28421709430E-13  0.11334573499E+04  0.15114626905E+04  0.99989694511E+03 0.  0.
         25    2    3    3    0    0 -0.95920332506E+02  0.97556995228E+02  0.21290942669E+03  0.28226990662E+03  0.12501119430E+03 0.  0.
         35    2    3    3    0    0  0.95920332506E+02 -0.97556995228E+02  0.92054792319E+03  0.12291927839E+04  0.80298713788E+03 0.  0.
         22    1    5    5    0    0  0.68447174935E+01  0.24412830770E+03  0.82926388915E+03  0.86447907935E+03  0.00000000000E+00 0.  1.
         22    1    5    5    0    0  0.89075615013E+02 -0.34168530292E+03  0.91284034042E+02  0.36471370456E+03  0.00000000000E+00 0.  1.
          5    1    4    4  502    0  0.26582669318E+01  0.29134106586E+00 -0.14776087239E+02  0.15734484955E+02  0.47000000000E+01 0. -1.
         -5    1    4    4    0  502 -0.98578599438E+02  0.97265654162E+02  0.22768551393E+03  0.26653542166E+03  0.47000000000E+01 0. -1.
<mgrwt>
<rscale>  0 0.99989695E+03</rscale>
<asrwt>0</asrwt>
<pdfrwt beam="1">  1        1 0.20345538E+00 0.99989695E+03</pdfrwt>
<pdfrwt beam="2">  1       -1 0.29077335E-01 0.99989695E+03</pdfrwt>
<totfact> 0.10268213E+02</totfact>
</mgrwt>
</event>
<event>
 9    1  0.4488205E-036  0.9993315E+03  0.7818608E-02  0.8681675E-01
         -2   -1    0    0    0  501 -0.00000000000E+00  0.00000000000E+00  0.64916448164E+02  0.64916448164E+02  0.00000000000E+00 0.  1.
          2   -1    0    0  501    0  0.00000000000E+00 -0.00000000000E+00 -0.38459569531E+04  0.38459569531E+04  0.00000000000E+00 0.  1.
         36    2    1    2    0    0  0.14210854715E-13  0.71054273576E-14 -0.37810405050E+04  0.39108734013E+04  0.99933150694E+03 0.  0.
         25    2    3    3    0    0 -0.11465913769E+03 -0.33428682534E+02 -0.98125733295E+03  0.99649853973E+03  0.12601266423E+03 0.  0.
         35    2    3    3    0    0  0.11465913769E+03  0.33428682534E+02 -0.27997831720E+04  0.29143748616E+04  0.80033169919E+03 0.  0.
         22    1    5    5    0    0 -0.20762758231E+03  0.24859836317E+03 -0.61090183443E+03  0.69145600758E+03  0.00000000000E+00 0. -1.
         22    1    5    5    0    0  0.32228672001E+03 -0.21516968063E+03 -0.21888813376E+04  0.22229188540E+04  0.00000000000E+00 0. -1.
          5    1    4    4  502    0  0.62571174073E+01 -0.29529202053E+02 -0.60093280236E+02  0.67412295775E+02  0.47000000000E+01 0. -1.
         -5    1    4    4    0  502 -0.12091625510E+03 -0.38994804808E+01 -0.92116405272E+03  0.92908624396E+03  0.47000000000E+01 0. -1.
<mgrwt>
<rscale>  0 0.99933151E+03</rscale>
<asrwt>0</asrwt>
<pdfrwt beam="1">  1        2 0.59168579E+00 0.99933151E+03</pdfrwt>
<pdfrwt beam="2">  1       -2 0.99871441E-02 0.99933151E+03</pdfrwt>
<totfact> 0.30753852E+01</totfact>
</mgrwt>
</event>
<event>
 9    1  0.4488205E-036  0.1004323E+04  0.7818608E-02  0.8676932E-01
          2   -1    0    0  501    0  0.00000000000E+00  0.00000000000E+00  0.12781026936E+04  0.12781026936E+04  0.00000000000E+00 0.  1.
         -2   -1    0    0    0  501 -0.00000000000E+00 -0.00000000000E+00 -0.19729739268E+03  0.19729739268E+03  0.00000000000E+00 0.  1.
         36    2    1    2    0    0 -0.10658141036E-13  0.00000000000E+00  0.10808053009E+04  0.14754000863E+04  0.10043233125E+04 0.  0.
         25    2    3    3    0    0  0.19887920677E+02  0.41172260178E+02 -0.99497272744E+01  0.12171889954E+03  0.11236462538E+03 0.  0.
         35    2    3    3    0    0 -0.19887920677E+02 -0.41172260178E+02  0.10907550282E+04  0.13536811868E+04  0.80038461967E+03 0.  0.
         22    1    5    5    0    0  0.20746055077E+03 -0.32309172199E+03  0.80666357631E+03  0.89338360533E+03  0.00000000000E+00 0.  1.
         22    1    5    5    0    0 -0.22734847144E+03  0.28191946181E+03  0.28409145191E+03  0.46029758142E+03  0.00000000000E+00 0.  1.
          5    1    4    4  502    0  0.24001325365E+02  0.91418580901E+00 -0.55470606787E+02  0.60629840609E+02  0.47000000000E+01 0. -1.
         -5    1    4    4    0  502 -0.41134046878E+01  0.40258074369E+02  0.45520879513E+02  0.61089058935E+02  0.47000000000E+01 0. -1.
<mgrwt>
<rscale>  0 0.10043233E+04</rscale>
<asrwt>0</asrwt>
<pdfrwt beam="1">  1        2 0.19663118E+00 0.10043233E+04</pdfrwt>
<pdfrwt beam="2">  1       -2 0.30353446E-01 0.10043233E+04</pdfrwt>
<totfact> 0.20540915E+02</totfact>
</mgrwt>
</event>
<event>
 9    1  0.4488205E-036  0.9999036E+03  0.7818608E-02  0.8681130E-01
         -2   -1    0    0    0  501 -0.00000000000E+00  0.00000000000E+00  0.20338906881E+03  0.20338906881E+03  0.00000000000E+00 0. -1.
          2   -1    0    0  501    0  0.00000000000E+00 -0.00000000000E+00 -0.12289342636E+04  0.12289342636E+04  0.00000000000E+00 0. -1.
         36    2    1    2    0    0  0.00000000000E+00  0.14210854715E-13 -0.10255451948E+04  0.14323233324E+04  0.99990358634E+03 0.  0.
         25    2    3    3    0    0  0.11789381224E+03 -0.46652382506E+02 -0.10800961580E+03  0.20827798444E+03  0.12505297252E+03 0.  0.
         35    2    3    3    0    0 -0.11789381224E+03  0.46652382506E+02 -0.91753557895E+03  0.12240453479E+04  0.80021252140E+03 0.  0.
         22    1    5    5    0    0  0.25552728917E+03  0.27254294324E+03 -0.43570831870E+03  0.57394737599E+03  0.00000000000E+00 0.  1.
         22    1    5    5    0    0 -0.37342110141E+03 -0.22589056074E+03 -0.48182726025E+03  0.65009797195E+03  0.00000000000E+00 0.  1.
          5    1    4    4  502    0  0.16956001390E+01 -0.87837091906E+01 -0.82786045062E+02  0.83400526761E+02  0.47000000000E+01 0. -1.
         -5    1    4    4    0  502  0.11619821210E+03 -0.37868673315E+02 -0.25223570742E+02  0.12487745767E+03  0.47000000000E+01 0. -1.
<mgrwt>
<rscale>  0 0.99990359E+03</rscale>
<asrwt>0</asrwt>
<pdfrwt beam="1">  1        2 0.18906681E+00 0.99990359E+03</pdfrwt>
<pdfrwt beam="2">  1       -2 0.31290626E-01 0.99990359E+03</pdfrwt>
<totfact> 0.20758542E+02</totfact>
</mgrwt>
</event>
<event>
 9    1  0.4488205E-036  0.9999882E+03  0.7818608E-02  0.8681049E-01
         -2   -1    0    0    0  501 -0.00000000000E+00  0.00000000000E+00  0.79370325310E+02  0.79370325310E+02  0.00000000000E+00 0.  1.
          2   -1    0    0  501    0  0.00000000000E+00 -0.00000000000E+00 -0.31497171644E+04  0.31497171644E+04  0.00000000000E+00 0.  1.
         36    2    1    2    0    0  0.71054273576E-14  0.00000000000E+00 -0.30703468391E+04  0.32290874897E+04  0.99998815188E+03 0.  0.
         25    2    3    3    0    0  0.87879388062E+01  0.13775221070E+03 -0.43747311177E+03  0.47448008042E+03  0.12122592038E+03 0.  0.
         35    2    3    3    0    0 -0.87879388062E+01 -0.13775221070E+03 -0.26328737274E+04  0.27546074093E+04  0.79798810511E+03 0.  0.
         22    1    5    5    0    0  0.20040176760E+03 -0.20572119570E+03 -0.24549700465E+04  0.24717119589E+04  0.00000000000E+00 0. -1.
         22    1    5    5    0    0 -0.20918970641E+03  0.67968985000E+02 -0.17790368090E+03  0.28289545042E+03  0.00000000000E+00 0. -1.
          5    1    4    4  502    0 -0.32086835096E+02  0.91605676469E+02 -0.37177743340E+03  0.38426776463E+03  0.47000000000E+01 0. -1.
         -5    1    4    4    0  502  0.40874773902E+02  0.46146534236E+02 -0.65695678361E+02  0.90212315783E+02  0.47000000000E+01 0. -1.
<mgrwt>
<rscale>  0 0.99998815E+03</rscale>
<asrwt>0</asrwt>
<pdfrwt beam="1">  1        2 0.48457179E+00 0.99998815E+03</pdfrwt>
<pdfrwt beam="2">  1       -2 0.12210821E-01 0.99998815E+03</pdfrwt>
<totfact> 0.74535565E+01</totfact>
</mgrwt>
</event>
<event>
 9    1  0.4488205E-036  0.1000202E+04  0.7818608E-02  0.8680845E-01
          2   -1    0    0  501    0  0.00000000000E+00  0.00000000000E+00  0.74516073391E+03  0.74516073391E+03  0.00000000000E+00 0.  1.
         -2   -1    0    0    0  501 -0.00000000000E+00 -0.00000000000E+00 -0.33563387748E+03  0.33563387748E+03  0.00000000000E+00 0.  1.
         36    2    1    2    0    0  0.14210854715E-13  0.00000000000E+00  0.40952685643E+03  0.10807946114E+04  0.10002023525E+04 0.  0.
         25    2    3    3    0    0 -0.37826582411E+01 -0.13238870625E+03  0.12782467857E+03  0.22218124247E+03  0.12443583893E+03 0.  0.
         35    2    3    3    0    0  0.37826582411E+01  0.13238870625E+03  0.28170217786E+03  0.85861336892E+03  0.80019980145E+03 0.  0.
         22    1    5    5    0    0 -0.30953445574E+03  0.25664620380E+03 -0.25042812512E+02  0.40287218280E+03  0.00000000000E+00 0. -1.
         22    1    5    5    0    0  0.31331711398E+03 -0.12425749755E+03  0.30674499037E+03  0.45574118612E+03  0.00000000000E+00 0. -1.
          5    1    4    4  502    0  0.14594090344E+02  0.13308068080E+02 -0.82573548476E+01  0.21917254802E+02  0.47000000000E+01 0. -1.
         -5    1    4    4    0  502 -0.18376748585E+02 -0.14569677433E+03  0.13608203341E+03  0.20026398767E+03  0.47000000000E+01 0. -1.
<mgrwt>
<rscale>  0 0.10002024E+04</rscale>
<asrwt>0</asrwt>
<pdfrwt beam="1">  1        2 0.11464011E+00 0.10002024E+04</pdfrwt>
<pdfrwt beam="2">  1       -2 0.51635982E-01 0.10002024E+04</pdfrwt>
<totfact> 0.16215789E+02</totfact>
</mgrwt>
</event>
<event>
 9    1  0.4488205E-036  0.9981919E+03  0.7818608E-02  0.8682762E-01
          1   -1    0    0  501    0  0.00000000000E+00  0.00000000000E+00  0.13116996427E+04  0.13116996427E+04  0.00000000000E+00 0.  1.
         -1   -1    0    0    0  501 -0.00000000000E+00 -0.00000000000E+00 -0.18990382228E+03  0.18990382228E+03  0.00000000000E+00 0.  1.
         36    2    1    2    0    0 -0.28421709430E-13  0.14210854715E-13  0.11217958205E+04  0.15016034650E+04  0.99819191709E+03 0.  0.
         25    2    3    3    0    0 -0.96726719676E+02  0.99017550729E+01  0.33913183230E+03  0.37430971071E+03  0.12507300589E+03 0.  0.
         35    2    3    3    0    0  0.96726719676E+02 -0.99017550729E+01  0.78266398816E+03  0.11272937543E+04  0.80546519917E+03 0.  0.
         22    1    5    5    0    0  0.19192484716E+03 -0.25599724758E+03  0.80125366841E+03  0.86277295905E+03  0.00000000000E+00 0. -1.
         22    1    5    5    0    0 -0.95198127482E+02  0.24609549251E+03 -0.18589680255E+02  0.26452079525E+03  0.00000000000E+00 0. -1.
          5    1    4    4  502    0 -0.12395269348E+01 -0.46863752645E+02  0.10772384449E+03  0.11757663208E+03  0.47000000000E+01 0. -1.
         -5    1    4    4    0  502 -0.95487192742E+02  0.56765507718E+02  0.23140798781E+03  0.25673307864E+03  0.47000000000E+01 0. -1.
<mgrwt>
<rscale>  0 0.99819192E+03</rscale>
<asrwt>0</asrwt>
<pdfrwt beam="1">  1        1 0.20179994E+00 0.99819192E+03</pdfrwt>
<pdfrwt beam="2">  1       -1 0.29215973E-01 0.99819192E+03</pdfrwt>
<totfact> 0.10372347E+02</totfact>
</mgrwt>
</event>
<event>
 9    1  0.4488205E-036  0.9997110E+03  0.7818608E-02  0.8681313E-01
          1   -1    0    0  501    0  0.00000000000E+00  0.00000000000E+00  0.18112798596E+04  0.18112798596E+04  0.00000000000E+00 0.  1.
         -1   -1    0    0    0  501 -0.00000000000E+00 -0.00000000000E+00 -0.13794418596E+03  0.13794418596E+03  0.00000000000E+00 0.  1.
         36    2    1    2    0    0  0.71054273576E-14  0.14210854715E-13  0.16733356736E+04  0.19492240456E+04  0.99971100980E+03 0.  0.
         25    2    3    3    0    0  0.28314034685E+02 -0.54031672356E+02  0.65517554171E+02  0.15189697293E+03  0.12271525701E+03 0.  0.
         35    2    3    3    0    0 -0.28314034685E+02  0.54031672356E+02  0.16078181195E+04  0.17973270726E+04  0.80098963448E+03 0.  0.
         22    1    5    5    0    0 -0.24342398843E+03 -0.18521856116E+03  0.23069584940E+03  0.38312103632E+03  0.00000000000E+00 0. -1.
         22    1    5    5    0    0  0.21510995374E+03  0.23925023351E+03  0.13771222701E+04  0.14142060363E+04  0.00000000000E+00 0. -1.
          5    1    4    4  502    0  0.24760503420E+02  0.30274670301E+02 -0.76317410807E+01  0.40124452188E+02  0.47000000000E+01 0.  1.
         -5    1    4    4    0  502  0.35535312654E+01 -0.84306342658E+02  0.73149295252E+02  0.11177252074E+03  0.47000000000E+01 0.  1.
<mgrwt>
<rscale>  0 0.99971101E+03</rscale>
<asrwt>0</asrwt>
<pdfrwt beam="1">  1        1 0.27865842E+00 0.99971101E+03</pdfrwt>
<pdfrwt beam="2">  1       -1 0.21222184E-01 0.99971101E+03</pdfrwt>
<totfact> 0.78304795E+01</totfact>
</mgrwt>
</event>
<event>
 9    1  0.4488205E-036  0.9989598E+03  0.7818608E-02  0.8682029E-01
          1   -1    0    0  501    0  0.00000000000E+00  0.00000000000E+00  0.69965207891E+03  0.69965207891E+03  0.00000000000E+00 0.  1.
         -1   -1    0    0    0  501 -0.00000000000E+00 -0.00000000000E+00 -0.35657746266E+03  0.35657746266E+03  0.00000000000E+00 0.  1.
         36    2    1    2    0    0  0.00000000000E+00 -0.35527136788E-14  0.34307461625E+03  0.10562295416E+04  0.99895978507E+03 0.  0.
         25    2    3    3    0    0 -0.11903930367E+03  0.67280758940E+01 -0.95634411220E+01  0.17342354076E+03  0.12557325455E+03 0.  0.
         35    2    3    3    0    0  0.11903930367E+03 -0.67280758940E+01  0.35263805737E+03  0.88280600082E+03  0.80048561059E+03 0.  0.
         22    1    5    5    0    0 -0.13374577664E+03  0.23402645824E+03 -0.12014309583E+03  0.29511130002E+03  0.00000000000E+00 0.  1.
         22    1    5    5    0    0  0.25278508031E+03 -0.24075453413E+03  0.47278115320E+03  0.58769470080E+03  0.00000000000E+00 0.  1.
          5    1    4    4  502    0  0.18412387521E+02 -0.24715824795E+02 -0.85943716601E+01  0.32339468668E+02  0.47000000000E+01 0.  1.
         -5    1    4    4    0  502 -0.13745169119E+03  0.31443900689E+02 -0.96906946188E+00  0.14108407209E+03  0.47000000000E+01 0.  1.
<mgrwt>
<rscale>  0 0.99895979E+03</rscale>
<asrwt>0</asrwt>
<pdfrwt beam="1">  1        1 0.10763878E+00 0.99895979E+03</pdfrwt>
<pdfrwt beam="2">  1       -1 0.54858071E-01 0.99895979E+03</pdfrwt>
<totfact> 0.10530617E+02</totfact>
</mgrwt>
</event>
<event>
 9    1  0.4488205E-036  0.9997692E+03  0.7818608E-02  0.8681258E-01
         -2   -1    0    0    0  501 -0.00000000000E+00  0.00000000000E+00  0.87565013157E+02  0.87565013157E+02  0.00000000000E+00 0. -1.
          2   -1    0    0  501    0  0.00000000000E+00 -0.00000000000E+00 -0.28537036594E+04  0.28537036594E+04  0.00000000000E+00 0. -1.
         36    2    1    2    0    0 -0.28421709430E-13  0.00000000000E+00 -0.27661386462E+04  0.29412686725E+04  0.99976917032E+03 0.  0.
         25    2    3    3    0    0 -0.12462325265E+03  0.46998333143E+02 -0.55296308566E+03  0.58231733361E+03  0.12484191805E+03 0.  0.
         35    2    3    3    0    0  0.12462325265E+03 -0.46998333143E+02 -0.22131755606E+04  0.23589513389E+04  0.80545984327E+03 0.  0.
         22    1    5    5    0    0  0.10428637383E+03 -0.18138214220E+03 -0.84024595423E+02  0.22546676454E+03  0.00000000000E+00 0.  1.
         22    1    5    5    0    0  0.20336878824E+02  0.13438380906E+03 -0.21291509651E+04  0.21334845744E+04  0.00000000000E+00 0.  1.
          5    1    4    4  502    0 -0.76419418357E+02  0.61118605962E+02 -0.49867711067E+03  0.50820897493E+03  0.47000000000E+01 0. -1.
         -5    1    4    4    0  502 -0.48203834294E+02 -0.14120272819E+02 -0.54285974985E+02  0.74108358672E+02  0.47000000000E+01 0. -1.
<mgrwt>
<rscale>  0 0.99976917E+03</rscale>
<asrwt>0</asrwt>
<pdfrwt beam="1">  1        2 0.43903133E+00 0.99976917E+03</pdfrwt>
<pdfrwt beam="2">  1       -2 0.13471540E-01 0.99976917E+03</pdfrwt>
<totfact> 0.99923243E+01</totfact>
</mgrwt>
</event>
<event>
 9    1  0.4488205E-036  0.1001325E+04  0.7818608E-02  0.8679777E-01
         -2   -1    0    0    0  501 -0.00000000000E+00  0.00000000000E+00  0.89756586451E+03  0.89756586451E+03  0.00000000000E+00 0.  1.
          2   -1    0    0  501    0  0.00000000000E+00 -0.00000000000E+00 -0.27926973822E+03  0.27926973822E+03  0.00000000000E+00 0.  1.
         36    2    1    2    0    0 -0.28421709430E-13  0.71054273576E-14  0.61829612629E+03  0.11768356027E+04  0.10013250901E+04 0.  0.
         25    2    3    3    0    0 -0.12968779233E+03  0.20983608835E+02  0.17430277906E+03  0.25141942779E+03  0.12478395154E+03 0.  0.
         35    2    3    3    0    0  0.12968779233E+03 -0.20983608835E+02  0.44399334723E+03  0.92541617495E+03  0.80125262505E+03 0.  0.
         22    1    5    5    0    0 -0.38686046680E+02 -0.17202731107E+03  0.61632651235E+03  0.64105255306E+03  0.00000000000E+00 0. -1.
         22    1    5    5    0    0  0.16837383901E+03  0.15104370224E+03 -0.17233316513E+03  0.28436362188E+03  0.00000000000E+00 0. -1.
          5    1    4    4  502    0  0.97480374219E+01  0.36368936406E+02  0.57108494448E+02  0.68565252913E+02  0.47000000000E+01 0. -1.
         -5    1    4    4    0  502 -0.13943582975E+03 -0.15385327571E+02  0.11719428461E+03  0.18285417487E+03  0.47000000000E+01 0. -1.
<mgrwt>
<rscale>  0 0.10013251E+04</rscale>
<asrwt>0</asrwt>
<pdfrwt beam="1">  1        2 0.42964575E-01 0.10013251E+04</pdfrwt>
<pdfrwt beam="2">  1       -2 0.13808705E+00 0.10013251E+04</pdfrwt>
<totfact> 0.50672763E+01</totfact>
</mgrwt>
</event>
<event>
 9    1  0.4488205E-036  0.9998286E+03  0.7818608E-02  0.8681201E-01
         -2   -1    0    0    0  501 -0.00000000000E+00  0.00000000000E+00  0.21118379945E+04  0.21118379945E+04  0.00000000000E+00 0.  1.
          2   -1    0    0  501    0  0.00000000000E+00 -0.00000000000E+00 -0.11833970734E+03  0.11833970734E+03  0.00000000000E+00 0.  1.
         36    2    1    2    0    0  0.00000000000E+00  0.00000000000E+00  0.19934982871E+04  0.22301777018E+04  0.99982856572E+03 0.  0.
         25    2    3    3    0    0 -0.12722150543E+03  0.31718520930E+02  0.27122965140E+03  0.32660213905E+03  0.12614300385E+03 0.  0.
         35    2    3    3    0    0  0.12722150543E+03 -0.31718520930E+02  0.17222686357E+04  0.19035755627E+04  0.80012454872E+03 0.  0.
         22    1    5    5    0    0  0.43394177671E+03  0.34951784759E+02  0.62064591857E+03  0.75810846788E+03  0.00000000000E+00 0. -1.
         22    1    5    5    0    0 -0.30672027128E+03 -0.66670305689E+02  0.11016227172E+04  0.11454670949E+04  0.00000000000E+00 0. -1.
          5    1    4    4  502    0 -0.14487116462E+03  0.51725139096E+02  0.21766691877E+03  0.26657854730E+03  0.47000000000E+01 0. -1.
         -5    1    4    4    0  502  0.17649659189E+02 -0.20006618166E+02  0.53562732632E+02  0.60023591753E+02  0.47000000000E+01 0. -1.
<mgrwt>
<rscale>  0 0.99982857E+03</rscale>
<asrwt>0</asrwt>
<pdfrwt beam="1">  1        2 0.18206110E-01 0.99982857E+03</pdfrwt>
<pdfrwt beam="2">  1       -2 0.32489812E+00 0.99982857E+03</pdfrwt>
<totfact> 0.81338411E+00</totfact>
</mgrwt>
</event>
<event>
 9    1  0.4488205E-036  0.1000979E+04  0.7818608E-02  0.8680106E-01
          1   -1    0    0  501    0  0.00000000000E+00  0.00000000000E+00  0.33398508974E+03  0.33398508974E+03  0.00000000000E+00 0. -1.
         -1   -1    0    0    0  501 -0.00000000000E+00 -0.00000000000E+00 -0.75000294668E+03  0.75000294668E+03  0.00000000000E+00 0. -1.
         36    2    1    2    0    0 -0.28421709430E-13 -0.14210854715E-13 -0.41601785694E+03  0.10839880364E+04  0.10009791236E+04 0.  0.
         25    2    3    3    0    0 -0.43418755070E+02 -0.11046710656E+03  0.58459450259E+01  0.17168080374E+03  0.12390299986E+03 0.  0.
         35    2    3    3    0    0  0.43418755070E+02  0.11046710656E+03 -0.42186380196E+03  0.91230723269E+03  0.80015451601E+03 0.  0.
         22    1    5    5    0    0 -0.31956118301E+03  0.21214876984E+03 -0.57162116752E+02  0.38780659848E+03  0.00000000000E+00 0. -1.
         22    1    5    5    0    0  0.36297993808E+03 -0.10168166327E+03 -0.36470168521E+03  0.52450063421E+03  0.00000000000E+00 0. -1.
          5    1    4    4  502    0 -0.73841738484E-01 -0.12537229355E+03  0.60070015293E+01  0.12560410626E+03  0.47000000000E+01 0.  1.
         -5    1    4    4    0  502 -0.43344913331E+02  0.14905186986E+02 -0.16105650341E+00  0.46076697473E+02  0.47000000000E+01 0.  1.
<mgrwt>
<rscale>  0 0.10009791E+04</rscale>
<asrwt>0</asrwt>
<pdfrwt beam="1">  1        1 0.51382322E-01 0.10009791E+04</pdfrwt>
<pdfrwt beam="2">  1       -1 0.11538507E+00 0.10009791E+04</pdfrwt>
<totfact> 0.62386321E+01</totfact>
</mgrwt>
</event>
<event>
 9    1  0.4488205E-036  0.1001446E+04  0.7818608E-02  0.8679662E-01
         -1   -1    0    0    0  501 -0.00000000000E+00  0.00000000000E+00  0.63909409808E+03  0.63909409808E+03  0.00000000000E+00 0.  1.
          1   -1    0    0  501    0  0.00000000000E+00 -0.00000000000E+00 -0.39231055166E+03  0.39231055166E+03  0.00000000000E+00 0.  1.
         36    2    1    2    0    0 -0.14210854715E-13 -0.28421709430E-13  0.24678354642E+03  0.10314046497E+04  0.10014456714E+04 0.  0.
         25    2    3    3    0    0 -0.29164121133E+01 -0.12283547482E+03 -0.32097671830E+02  0.17380334605E+03  0.11866036923E+03 0.  0.
         35    2    3    3    0    0  0.29164121133E+01  0.12283547482E+03  0.27888121825E+03  0.85760130370E+03  0.80162846935E+03 0.  0.
         22    1    5    5    0    0  0.18218342283E+03  0.36081127239E+03  0.36799091059E+03  0.54661950579E+03  0.00000000000E+00 0.  1.
         22    1    5    5    0    0 -0.17926701072E+03 -0.23797579756E+03 -0.89109692341E+02  0.31098179790E+03  0.00000000000E+00 0.  1.
          5    1    4    4  502    0 -0.52696740217E+02 -0.40179985228E+02 -0.38859016246E+02  0.76964217569E+02  0.47000000000E+01 0.  1.
         -5    1    4    4    0  502  0.49780328104E+02 -0.82655489593E+02  0.67613444165E+01  0.96839128478E+02  0.47000000000E+01 0.  1.
<mgrwt>
<rscale>  0 0.10014457E+04</rscale>
<asrwt>0</asrwt>
<pdfrwt beam="1">  1        1 0.60355469E-01 0.10014457E+04</pdfrwt>
<pdfrwt beam="2">  1       -1 0.98322169E-01 0.10014457E+04</pdfrwt>
<totfact> 0.72998278E+01</totfact>
</mgrwt>
</event>
<event>
 9    1  0.4488205E-036  0.9993793E+03  0.7818608E-02  0.8681629E-01
          2   -1    0    0  501    0  0.00000000000E+00  0.00000000000E+00  0.63080775337E+03  0.63080775337E+03  0.00000000000E+00 0. -1.
         -2   -1    0    0    0  501 -0.00000000000E+00 -0.00000000000E+00 -0.39582545347E+03  0.39582545347E+03  0.00000000000E+00 0. -1.
         36    2    1    2    0    0  0.00000000000E+00 -0.21316282073E-13  0.23498229990E+03  0.10266332068E+04  0.99937933745E+03 0.  0.
         25    2    3    3    0    0 -0.13052779854E+03 -0.16755439399E+02 -0.12915886643E+01  0.18193301739E+03  0.12561729051E+03 0.  0.
         35    2    3    3    0    0  0.13052779854E+03  0.16755439399E+02  0.23627388857E+03  0.84470018945E+03  0.80023422115E+03 0.  0.
         22    1    5    5    0    0  0.65535627699E+02  0.40858067253E+03  0.12114546102E+03  0.43117201578E+03  0.00000000000E+00 0. -1.
         22    1    5    5    0    0  0.64992170845E+02 -0.39182523313E+03  0.11512842754E+03  0.41352817367E+03  0.00000000000E+00 0. -1.
          5    1    4    4  502    0 -0.29613348278E+02  0.36884483545E+02  0.38141938663E+02  0.60945163939E+02  0.47000000000E+01 0.  1.
         -5    1    4    4    0  502 -0.10091445027E+03 -0.53639922943E+02 -0.39433527327E+02  0.12098785345E+03  0.47000000000E+01 0.  1.
<mgrwt>
<rscale>  0 0.99937934E+03</rscale>
<asrwt>0</asrwt>
<pdfrwt beam="1">  1        2 0.97047347E-01 0.99937934E+03</pdfrwt>
<pdfrwt beam="2">  1       -2 0.60896224E-01 0.99937934E+03</pdfrwt>
<totfact> 0.14167892E+02</totfact>
</mgrwt>
</event>
<event>
 9    1  0.4488205E-036  0.1000263E+04  0.7818608E-02  0.8680788E-01
         -1   -1    0    0    0  501 -0.00000000000E+00  0.00000000000E+00  0.20075813376E+03  0.20075813376E+03  0.00000000000E+00 0. -1.
          1   -1    0    0  501    0  0.00000000000E+00 -0.00000000000E+00 -0.12459346566E+04  0.12459346566E+04  0.00000000000E+00 0. -1.
         36    2    1    2    0    0 -0.71054273576E-14 -0.28421709430E-13 -0.10451765228E+04  0.14466927903E+04  0.10002629983E+04 0.  0.
         25    2    3    3    0    0 -0.49622477169E+01  0.13897681094E+03 -0.16868234499E+03  0.25190304562E+03  0.12514884339E+03 0.  0.
         35    2    3    3    0    0  0.49622477169E+01 -0.13897681094E+03 -0.87649417785E+03  0.11947897447E+04  0.79996331942E+03 0.  0.
         22    1    5    5    0    0  0.11068941215E+03 -0.34780152845E+03 -0.88836790034E+03  0.96042468498E+03  0.00000000000E+00 0. -1.
         22    1    5    5    0    0 -0.10572716444E+03  0.20882471752E+03  0.11873722494E+02  0.23436505975E+03  0.00000000000E+00 0. -1.
          5    1    4    4  502    0  0.53599368519E+02  0.71498160117E+02 -0.12108245921E+03  0.15055872985E+03  0.47000000000E+01 0. -1.
         -5    1    4    4    0  502 -0.58561616236E+02  0.67478650821E+02 -0.47599885772E+02  0.10134431577E+03  0.47000000000E+01 0. -1.
<mgrwt>
<rscale>  0 0.10002630E+04</rscale>
<asrwt>0</asrwt>
<pdfrwt beam="1">  1        1 0.19168226E+00 0.10002630E+04</pdfrwt>
<pdfrwt beam="2">  1       -1 0.30885866E-01 0.10002630E+04</pdfrwt>
<totfact> 0.10537507E+02</totfact>
</mgrwt>
</event>
<event>
 9    1  0.4488205E-036  0.9999306E+03  0.7818608E-02  0.8681104E-01
         -1   -1    0    0    0  501 -0.00000000000E+00  0.00000000000E+00  0.21131962918E+03  0.21131962918E+03  0.00000000000E+00 0. -1.
          1   -1    0    0  501    0  0.00000000000E+00 -0.00000000000E+00 -0.11828779151E+04  0.11828779151E+04  0.00000000000E+00 0. -1.
         36    2    1    2    0    0  0.14210854715E-13 -0.71054273576E-14 -0.97155828587E+03  0.13941975442E+04  0.99993064234E+03 0.  0.
         25    2    3    3    0    0 -0.12020582414E+03  0.38540334084E+01 -0.27283535485E+03  0.32309053006E+03  0.12443498716E+03 0.  0.
         35    2    3    3    0    0  0.12020582414E+03 -0.38540334084E+01 -0.69872293103E+03  0.10711070142E+04  0.80286499969E+03 0.  0.
         22    1    5    5    0    0  0.37799441233E+03  0.24739595416E+03 -0.38086755125E+03  0.59088461267E+03  0.00000000000E+00 0.  1.
         22    1    5    5    0    0 -0.25778858819E+03 -0.25124998757E+03 -0.31785537977E+03  0.48022240150E+03  0.00000000000E+00 0.  1.
          5    1    4    4  502    0 -0.89320465010E+02  0.52858432911E+02 -0.22496679211E+03  0.24779892444E+03  0.47000000000E+01 0. -1.
         -5    1    4    4    0  502 -0.30885359135E+02 -0.49004399503E+02 -0.47868562740E+02  0.75291605630E+02  0.47000000000E+01 0. -1.
<mgrwt>
<rscale>  0 0.99993064E+03</rscale>
<asrwt>0</asrwt>
<pdfrwt beam="1">  1        1 0.18198122E+00 0.99993064E+03</pdfrwt>
<pdfrwt beam="2">  1       -1 0.32510712E-01 0.99993064E+03</pdfrwt>
<totfact> 0.10748129E+02</totfact>
</mgrwt>
</event>
<event>
 9    1  0.4488205E-036  0.9992758E+03  0.7818608E-02  0.8681728E-01
          2   -1    0    0  501    0  0.00000000000E+00  0.00000000000E+00  0.55981562251E+03  0.55981562251E+03  0.00000000000E+00 0.  1.
         -2   -1    0    0    0  501 -0.00000000000E+00 -0.00000000000E+00 -0.44592899813E+03  0.44592899813E+03  0.00000000000E+00 0.  1.
         36    2    1    2    0    0  0.00000000000E+00  0.00000000000E+00  0.11388662439E+03  0.10057446206E+04  0.99927577712E+03 0.  0.
         25    2    3    3    0    0 -0.92102901381E+02  0.51774418439E+02 -0.71188709429E+02  0.17748216708E+03  0.12356598412E+03 0.  0.
         35    2    3    3    0    0  0.92102901381E+02 -0.51774418439E+02  0.18507533382E+03  0.82826245356E+03  0.80037633520E+03 0.  0.
         22    1    5    5    0    0  0.42482474410E+02 -0.55295818741E+02  0.50232227987E+03  0.50713909438E+03  0.00000000000E+00 0.  1.
         22    1    5    5    0    0  0.49620426971E+02  0.35214003017E+01 -0.31724694605E+03  0.32112335918E+03  0.00000000000E+00 0.  1.
          5    1    4    4  502    0 -0.85823783911E+02  0.51238136244E+02  0.56663423863E+01  0.10022607409E+03  0.47000000000E+01 0. -1.
         -5    1    4    4    0  502 -0.62791174698E+01  0.53628219555E+00 -0.76855051815E+02  0.77256092991E+02  0.47000000000E+01 0. -1.
<mgrwt>
<rscale>  0 0.99927578E+03</rscale>
<asrwt>0</asrwt>
<pdfrwt beam="1">  1        2 0.86125480E-01 0.99927578E+03</pdfrwt>
<pdfrwt beam="2">  1       -2 0.68604461E-01 0.99927578E+03</pdfrwt>
<totfact> 0.12666039E+02</totfact>
</mgrwt>
</event>
<event>
 9    1  0.4488205E-036  0.9998534E+03  0.7818608E-02  0.8681178E-01
         -1   -1    0    0    0  501 -0.00000000000E+00  0.00000000000E+00  0.96525529204E+02  0.96525529204E+02  0.00000000000E+00 0. -1.
          1   -1    0    0  501    0  0.00000000000E+00 -0.00000000000E+00 -0.25892289424E+04  0.25892289424E+04  0.00000000000E+00 0. -1.
         36    2    1    2    0    0  0.14210854715E-13  0.35527136788E-13 -0.24927034132E+04  0.26857544716E+04  0.99985337704E+03 0.  0.
         25    2    3    3    0    0 -0.10246659941E+03  0.12296508449E+02 -0.74097242165E+03  0.75824723902E+03  0.12348334993E+03 0.  0.
         35    2    3    3    0    0  0.10246659941E+03 -0.12296508449E+02 -0.17517309915E+04  0.19275072326E+04  0.79754125713E+03 0.  0.
         22    1    5    5    0    0  0.50854656118E+01 -0.40136845959E+03 -0.93915341298E+03  0.10213381592E+04  0.00000000000E+00 0.  1.
         22    1    5    5    0    0  0.97381133799E+02  0.38907195114E+03 -0.81257757853E+03  0.90616907336E+03  0.00000000000E+00 0.  1.
          5    1    4    4  502    0 -0.95151102493E+01  0.45652601685E+02 -0.41426663579E+03  0.41690962197E+03  0.47000000000E+01 0. -1.
         -5    1    4    4    0  502 -0.92951489161E+02 -0.33356093236E+02 -0.32670578586E+03  0.34133761704E+03  0.47000000000E+01 0. -1.
<mgrwt>
<rscale>  0 0.99985338E+03</rscale>
<asrwt>0</asrwt>
<pdfrwt beam="1">  1        1 0.39834287E+00 0.99985338E+03</pdfrwt>
<pdfrwt beam="2">  1       -1 0.14850083E-01 0.99985338E+03</pdfrwt>
<totfact> 0.39947165E+01</totfact>
</mgrwt>
</event>
<event>
 9    1  0.4488205E-036  0.1000332E+04  0.7818608E-02  0.8680722E-01
          2   -1    0    0  501    0  0.00000000000E+00  0.00000000000E+00  0.10525373879E+03  0.10525373879E+03  0.00000000000E+00 0. -1.
         -2   -1    0    0    0  501 -0.00000000000E+00 -0.00000000000E+00 -0.23767896163E+04  0.23767896163E+04  0.00000000000E+00 0. -1.
         36    2    1    2    0    0  0.28421709430E-13 -0.14210854715E-13 -0.22715358776E+04  0.24820433551E+04  0.10003319318E+04 0.  0.
         25    2    3    3    0    0 -0.82554467506E+02  0.54792895910E+02 -0.66973657696E+03  0.68937159181E+03  0.12987920361E+03 0.  0.
         35    2    3    3    0    0  0.82554467506E+02 -0.54792895910E+02 -0.16017993006E+04  0.17926717633E+04  0.79880758013E+03 0.  0.
         22    1    5    5    0    0  0.29678779621E+03 -0.26374800971E+03 -0.13314031536E+04  0.13893453013E+04  0.00000000000E+00 0.  1.
         22    1    5    5    0    0 -0.21423332871E+03  0.20895511380E+03 -0.27039614695E+03  0.40332646206E+03  0.00000000000E+00 0.  1.
          5    1    4    4  502    0  0.28132410636E+02 -0.91161395961E+01 -0.21193155445E+03  0.21403646956E+03  0.47000000000E+01 0. -1.
         -5    1    4    4    0  502 -0.11068687814E+03  0.63909035506E+02 -0.45780502251E+03  0.47533512225E+03  0.47000000000E+01 0. -1.
<mgrwt>
<rscale>  0 0.10003319E+04</rscale>
<asrwt>0</asrwt>
<pdfrwt beam="1">  1        2 0.16192882E-01 0.10003319E+04</pdfrwt>
<pdfrwt beam="2">  1       -2 0.36565996E+00 0.10003319E+04</pdfrwt>
<totfact> 0.58524719E+00</totfact>
</mgrwt>
</event>
<event>
 9    1  0.4488205E-036  0.9998983E+03  0.7818608E-02  0.8681135E-01
         -2   -1    0    0    0  501 -0.00000000000E+00  0.00000000000E+00  0.30288736644E+03  0.30288736644E+03  0.00000000000E+00 0.  1.
          2   -1    0    0  501    0  0.00000000000E+00 -0.00000000000E+00 -0.82522152860E+03  0.82522152860E+03  0.00000000000E+00 0.  1.
         36    2    1    2    0    0  0.00000000000E+00  0.17763568394E-13 -0.52233416216E+03  0.11281088950E+04  0.99989834589E+03 0.  0.
         25    2    3    3    0    0 -0.12237870742E+03 -0.17465750286E+02 -0.35486802045E+02  0.18083565381E+03  0.12712442765E+03 0.  0.
         35    2    3    3    0    0  0.12237870742E+03  0.17465750286E+02 -0.48684736011E+03  0.94727324124E+03  0.80313426091E+03 0.  0.
         22    1    5    5    0    0  0.22358773568E+03 -0.34714114853E+03 -0.14589714180E+03  0.43793199077E+03  0.00000000000E+00 0. -1.
         22    1    5    5    0    0 -0.10120902826E+03  0.36460689882E+03 -0.34095021831E+03  0.50934125047E+03  0.00000000000E+00 0. -1.
          5    1    4    4  502    0 -0.13938029581E+03 -0.76673218715E+01  0.39357761009E+00  0.13967068264E+03  0.47000000000E+01 0.  1.
         -5    1    4    4    0  502  0.17001588388E+02 -0.97984284149E+01 -0.35880379656E+02  0.41164971169E+02  0.47000000000E+01 0.  1.
<mgrwt>
<rscale>  0 0.99989835E+03</rscale>
<asrwt>0</asrwt>
<pdfrwt beam="1">  1        2 0.12695716E+00 0.99989835E+03</pdfrwt>
<pdfrwt beam="2">  1       -2 0.46598057E-01 0.99989835E+03</pdfrwt>
<totfact> 0.17458351E+02</totfact>
</mgrwt>
</event>
<event>
 9    1  0.4488205E-036  0.1001641E+04  0.7818608E-02  0.8679477E-01
          1   -1    0    0  501    0  0.00000000000E+00  0.00000000000E+00  0.28472160735E+04  0.28472160735E+04  0.00000000000E+00 0. -1.
         -1   -1    0    0    0  501 -0.00000000000E+00 -0.00000000000E+00 -0.88093445799E+02  0.88093445799E+02  0.00000000000E+00 0. -1.
         36    2    1    2    0    0  0.14210854715E-13  0.00000000000E+00  0.27591226277E+04  0.29353095193E+04  0.10016408036E+04 0.  0.
         25    2    3    3    0    0 -0.97293434981E+02 -0.10003407226E+03  0.59308475724E+03  0.62209878051E+03  0.12563652069E+03 0.  0.
         35    2    3    3    0    0  0.97293434981E+02  0.10003407226E+03  0.21660378704E+04  0.23132107387E+04  0.79984438342E+03 0.  0.
         22    1    5    5    0    0  0.36560205439E+03 -0.77911226526E+02  0.17372275849E+04  0.17769903497E+04  0.00000000000E+00 0. -1.
         22    1    5    5    0    0 -0.26830861941E+03  0.17794529879E+03  0.42881028555E+03  0.53622038902E+03  0.00000000000E+00 0. -1.
          5    1    4    4  502    0 -0.10104640271E+03 -0.12559919968E+03  0.49861500041E+03  0.52404631770E+03  0.47000000000E+01 0.  1.
         -5    1    4    4    0  502  0.37529677258E+01  0.25565127416E+02  0.94469756832E+02  0.98052462806E+02  0.47000000000E+01 0.  1.
<mgrwt>
<rscale>  0 0.10016408E+04</rscale>
<asrwt>0</asrwt>
<pdfrwt beam="1">  1        1 0.43803317E+00 0.10016408E+04</pdfrwt>
<pdfrwt beam="2">  1       -1 0.13552840E-01 0.10016408E+04</pdfrwt>
<totfact> 0.30382685E+01</totfact>
</mgrwt>
</event>
<event>
 9    1  0.4488205E-036  0.1001775E+04  0.7818608E-02  0.8679350E-01
         -2   -1    0    0    0  501 -0.00000000000E+00  0.00000000000E+00  0.22183321221E+03  0.22183321221E+03  0.00000000000E+00 0.  1.
          2   -1    0    0  501    0  0.00000000000E+00 -0.00000000000E+00 -0.11309763601E+04  0.11309763601E+04  0.00000000000E+00 0.  1.
         36    2    1    2    0    0 -0.14210854715E-13 -0.14210854715E-13 -0.90914314787E+03  0.13528095723E+04  0.10017746631E+04 0.  0.
         25    2    3    3    0    0  0.11511602332E+03  0.51233341864E+02 -0.26008310868E+03  0.31497321024E+03  0.12525312613E+03 0.  0.
         35    2    3    3    0    0 -0.11511602332E+03 -0.51233341864E+02 -0.64906003919E+03  0.10378363620E+04  0.79996801546E+03 0.  0.
         22    1    5    5    0    0  0.92844914971E+02 -0.39260238359E+03 -0.39248324358E+03  0.56284980797E+03  0.00000000000E+00 0.  1.
         22    1    5    5    0    0 -0.20796093829E+03  0.34136904173E+03 -0.25657679561E+03  0.47498655407E+03  0.00000000000E+00 0.  1.
          5    1    4    4  502    0  0.17361536580E+02  0.56270280877E+02 -0.17666323285E+03  0.18627870330E+03  0.47000000000E+01 0. -1.
         -5    1    4    4    0  502  0.97754486743E+02 -0.50369390129E+01 -0.83419875826E+02  0.12869450694E+03  0.47000000000E+01 0. -1.
<mgrwt>
<rscale>  0 0.10017747E+04</rscale>
<asrwt>0</asrwt>
<pdfrwt beam="1">  1        2 0.17399636E+00 0.10017747E+04</pdfrwt>
<pdfrwt beam="2">  1       -2 0.34128186E-01 0.10017747E+04</pdfrwt>
<totfact> 0.20220791E+02</totfact>
</mgrwt>
</event>
<event>
 9    1  0.4488205E-036  0.1000070E+04  0.7818608E-02  0.8680971E-01
          3   -1    0    0  501    0  0.00000000000E+00  0.00000000000E+00  0.69942600858E+03  0.69942600858E+03  0.00000000000E+00 0. -1.
         -3   -1    0    0    0  501 -0.00000000000E+00 -0.00000000000E+00 -0.35748615015E+03  0.35748615015E+03  0.00000000000E+00 0. -1.
         36    2    1    2    0    0 -0.14210854715E-13  0.14210854715E-13  0.34193985843E+03  0.10569121587E+04  0.10000702198E+04 0.  0.
         25    2    3    3    0    0 -0.10809385883E+03 -0.88443525897E+02  0.47504441257E+02  0.19305144588E+03  0.12452168176E+03 0.  0.
         35    2    3    3    0    0  0.10809385883E+03  0.88443525897E+02  0.29443541717E+03  0.86386071285E+03  0.80003535967E+03 0.  0.
         22    1    5    5    0    0  0.40315612385E+03 -0.87226888394E+02  0.31625639949E+03  0.51977062295E+03  0.00000000000E+00 0.  1.
         22    1    5    5    0    0 -0.29506226502E+03  0.17567041429E+03 -0.21820982321E+02  0.34409008990E+03  0.00000000000E+00 0.  1.
          5    1    4    4  502    0 -0.97017026826E+02 -0.17746900488E+02  0.66279085254E+02  0.11892124753E+03  0.47000000000E+01 0. -1.
         -5    1    4    4    0  502 -0.11076832004E+02 -0.70696625409E+02 -0.18774643997E+02  0.74130198358E+02  0.47000000000E+01 0. -1.
<mgrwt>
<rscale>  0 0.10000702E+04</rscale>
<asrwt>0</asrwt>
<pdfrwt beam="1">  1        3 0.10760400E+00 0.10000702E+04</pdfrwt>
<pdfrwt beam="2">  1       -3 0.54997869E-01 0.10000702E+04</pdfrwt>
<totfact> 0.99929572E+00</totfact>
</mgrwt>
</event>
<event>
 9    1  0.4488205E-036  0.1000520E+04  0.7818608E-02  0.8680543E-01
          2   -1    0    0  501    0  0.00000000000E+00  0.00000000000E+00  0.26394785391E+04  0.26394785391E+04  0.00000000000E+00 0. -1.
         -2   -1    0    0    0  501 -0.00000000000E+00 -0.00000000000E+00 -0.94814290092E+02  0.94814290092E+02  0.00000000000E+00 0. -1.
         36    2    1    2    0    0  0.28421709430E-13  0.28421709430E-13  0.25446642490E+04  0.27342928291E+04  0.10005204324E+04 0.  0.
         25    2    3    3    0    0  0.11241771067E+03 -0.63969916153E+02  0.32349694183E+03  0.36995070337E+03  0.12443214902E+03 0.  0.
         35    2    3    3    0    0 -0.11241771067E+03  0.63969916153E+02  0.22211673071E+04  0.23643421258E+04  0.79987473368E+03 0.  0.
         22    1    5    5    0    0  0.90566633822E+02  0.38434015309E+03  0.78197719226E+03  0.87601826331E+03  0.00000000000E+00 0. -1.
         22    1    5    5    0    0 -0.20298434449E+03 -0.32037023694E+03  0.14391901149E+04  0.14883238625E+04  0.00000000000E+00 0. -1.
          5    1    4    4  502    0  0.44170186861E+02 -0.60526578838E+02  0.27741942062E+03  0.28739884671E+03  0.47000000000E+01 0.  1.
         -5    1    4    4    0  502  0.68247523806E+02 -0.34433373153E+01  0.46077521202E+02  0.82551856658E+02  0.47000000000E+01 0.  1.
<mgrwt>
<rscale>  0 0.10005204E+04</rscale>
<asrwt>0</asrwt>
<pdfrwt beam="1">  1        2 0.40607357E+00 0.10005204E+04</pdfrwt>
<pdfrwt beam="2">  1       -2 0.14586816E-01 0.10005204E+04</pdfrwt>
<totfact> 0.11973385E+02</totfact>
</mgrwt>
</event>
<event>
 9    1  0.4488205E-036  0.9998422E+03  0.7818608E-02  0.8681188E-01
         -1   -1    0    0    0  501 -0.00000000000E+00  0.00000000000E+00  0.62174527972E+03  0.62174527972E+03  0.00000000000E+00 0. -1.
          1   -1    0    0  501    0  0.00000000000E+00 -0.00000000000E+00 -0.40196702717E+03  0.40196702717E+03  0.00000000000E+00 0. -1.
         36    2    1    2    0    0 -0.14210854715E-13  0.14210854715E-13  0.21977825255E+03  0.10237123069E+04  0.99984219104E+03 0.  0.
         25    2    3    3    0    0 -0.92831070092E+02 -0.85588568501E+02 -0.22469350333E+02  0.17890510344E+03  0.12473633673E+03 0.  0.
         35    2    3    3    0    0  0.92831070092E+02  0.85588568501E+02  0.24224760288E+03  0.84480720344E+03  0.79941997677E+03 0.  0.
         22    1    5    5    0    0 -0.16328422935E+02  0.93438521768E+02  0.52923093056E+03  0.53766416340E+03  0.00000000000E+00 0.  1.
         22    1    5    5    0    0  0.10915949303E+03 -0.78499532673E+01 -0.28698332768E+03  0.30714304004E+03  0.00000000000E+00 0.  1.
          5    1    4    4  502    0 -0.12051590318E+03 -0.79177002384E+02 -0.33411912361E+02  0.14809296578E+03  0.47000000000E+01 0.  1.
         -5    1    4    4    0  502  0.27684833093E+02 -0.64115661169E+01  0.10942562028E+02  0.30812137660E+02  0.47000000000E+01 0.  1.
<mgrwt>
<rscale>  0 0.99984219E+03</rscale>
<asrwt>0</asrwt>
<pdfrwt beam="1">  1        1 0.61841081E-01 0.99984219E+03</pdfrwt>
<pdfrwt beam="2">  1       -1 0.95653121E-01 0.99984219E+03</pdfrwt>
<totfact> 0.75105377E+01</totfact>
</mgrwt>
</event>
<event>
 9    1  0.4488205E-036  0.1000667E+04  0.7818608E-02  0.8680403E-01
         -2   -1    0    0    0  501 -0.00000000000E+00  0.00000000000E+00  0.17213191173E+03  0.17213191173E+03  0.00000000000E+00 0.  1.
          2   -1    0    0  501    0  0.00000000000E+00 -0.00000000000E+00 -0.14543124597E+04  0.14543124597E+04  0.00000000000E+00 0.  1.
         36    2    1    2    0    0 -0.71054273576E-14  0.00000000000E+00 -0.12821805480E+04  0.16264443715E+04  0.10006669455E+04 0.  0.
         25    2    3    3    0    0  0.24055363381E+02  0.72332458697E+02 -0.43468518170E+03  0.45871925508E+03  0.12514592563E+03 0.  0.
         35    2    3    3    0    0 -0.24055363381E+02 -0.72332458697E+02 -0.84749536632E+03  0.11677251164E+04  0.79970176093E+03 0.  0.
         22    1    5    5    0    0  0.36050902000E+03 -0.70785552822E+02 -0.62065020807E+03  0.72123784479E+03  0.00000000000E+00 0.  1.
         22    1    5    5    0    0 -0.38456438338E+03 -0.15469058744E+01 -0.22684515825E+03  0.44648727160E+03  0.00000000000E+00 0.  1.
          5    1    4    4  502    0 -0.24364353291E+02 -0.24349170679E+02 -0.67660849509E+02  0.76069602209E+02  0.47000000000E+01 0. -1.
         -5    1    4    4    0  502  0.48419716672E+02  0.96681629376E+02 -0.36702433219E+03  0.38264965287E+03  0.47000000000E+01 0. -1.
<mgrwt>
<rscale>  0 0.10006669E+04</rscale>
<asrwt>0</asrwt>
<pdfrwt beam="1">  1        2 0.22374037E+00 0.10006669E+04</pdfrwt>
<pdfrwt beam="2">  1       -2 0.26481833E-01 0.10006669E+04</pdfrwt>
<totfact> 0.20820981E+02</totfact>
</mgrwt>
</event>
<event>
 9    1  0.4488205E-036  0.1000768E+04  0.7818608E-02  0.8680307E-01
         -1   -1    0    0    0  501 -0.00000000000E+00  0.00000000000E+00  0.22550389330E+03  0.22550389330E+03  0.00000000000E+00 0.  1.
          1   -1    0    0  501    0  0.00000000000E+00 -0.00000000000E+00 -0.11103316767E+04  0.11103316767E+04  0.00000000000E+00 0.  1.
         36    2    1    2    0    0  0.00000000000E+00 -0.28421709430E-13 -0.88482778341E+03  0.13358355700E+04  0.10007679370E+04 0.  0.
         25    2    3    3    0    0  0.76546024493E+02 -0.10668168183E+03 -0.96196099972E+02  0.20529825380E+03  0.12511358143E+03 0.  0.
         35    2    3    3    0    0 -0.76546024493E+02  0.10668168183E+03 -0.78863168344E+03  0.11305373162E+04  0.79933373262E+03 0.  0.
         22    1    5    5    0    0  0.11108622979E+03  0.37717445044E+03 -0.67705044137E+03  0.78294189866E+03  0.00000000000E+00 0.  1.
         22    1    5    5    0    0 -0.18763225428E+03 -0.27049276862E+03 -0.11158124207E+03  0.34759541755E+03  0.00000000000E+00 0.  1.
          5    1    4    4  502    0 -0.12597433600E+02  0.20451547032E+02 -0.44243052738E+01  0.24872184996E+02  0.47000000000E+01 0. -1.
         -5    1    4    4    0  502  0.89143458094E+02 -0.12713322886E+03 -0.91771794698E+02  0.18042606880E+03  0.47000000000E+01 0. -1.
<mgrwt>
<rscale>  0 0.10007679E+04</rscale>
<asrwt>0</asrwt>
<pdfrwt beam="1">  1        1 0.17082026E+00 0.10007679E+04</pdfrwt>
<pdfrwt beam="2">  1       -1 0.34692906E-01 0.10007679E+04</pdfrwt>
<totfact> 0.10895987E+02</totfact>
</mgrwt>
</event>
<event>
 9    1  0.4488205E-036  0.1002119E+04  0.7818608E-02  0.8679023E-01
         -1   -1    0    0    0  501 -0.00000000000E+00  0.00000000000E+00  0.15810300952E+04  0.15810300952E+04  0.00000000000E+00 0. -1.
          1   -1    0    0  501    0  0.00000000000E+00 -0.00000000000E+00 -0.15879548327E+03  0.15879548327E+03  0.00000000000E+00 0. -1.
         36    2    1    2    0    0 -0.28421709430E-13 -0.71054273576E-14  0.14222346120E+04  0.17398255785E+04  0.10021186318E+04 0.  0.
         25    2    3    3    0    0  0.11385606438E+03  0.28434502419E+02  0.12966010256E+03  0.21529687644E+03  0.12557578782E+03 0.  0.
         35    2    3    3    0    0 -0.11385606438E+03 -0.28434502419E+02  0.12925745094E+04  0.15245287021E+04  0.79979195841E+03 0.  0.
         22    1    5    5    0    0  0.16858007824E+03  0.52613422229E+02 -0.21590916778E+02  0.17791453754E+03  0.00000000000E+00 0. -1.
         22    1    5    5    0    0 -0.28243614262E+03 -0.81047924649E+02  0.13141654262E+04  0.13466141645E+04  0.00000000000E+00 0. -1.
          5    1    4    4  502    0  0.71552488499E+01 -0.18801630507E+02 -0.17747021130E+02  0.27235007891E+02  0.47000000000E+01 0. -1.
         -5    1    4    4    0  502  0.10670081553E+03  0.47236132926E+02  0.14740712369E+03  0.18806186855E+03  0.47000000000E+01 0. -1.
<mgrwt>
<rscale>  0 0.10021186E+04</rscale>
<asrwt>0</asrwt>
<pdfrwt beam="1">  1        1 0.24430075E-01 0.10021186E+04</pdfrwt>
<pdfrwt beam="2">  1       -1 0.24323539E+00 0.10021186E+04</pdfrwt>
<totfact> 0.13059714E+01</totfact>
</mgrwt>
</event>
<event>
 9    1  0.4488205E-036  0.9998336E+03  0.7818608E-02  0.8681196E-01
          1   -1    0    0  501    0  0.00000000000E+00  0.00000000000E+00  0.17243648250E+04  0.17243648250E+04  0.00000000000E+00 0. -1.
         -1   -1    0    0    0  501 -0.00000000000E+00 -0.00000000000E+00 -0.14493266152E+03  0.14493266152E+03  0.00000000000E+00 0. -1.
         36    2    1    2    0    0  0.28421709430E-13 -0.14210854715E-13  0.15794321634E+04  0.18692974865E+04  0.99983355316E+03 0.  0.
         25    2    3    3    0    0 -0.49559158780E+02  0.12202750764E+03  0.19768203890E+03  0.26767453468E+03  0.12338818893E+03 0.  0.
         35    2    3    3    0    0  0.49559158780E+02 -0.12202750764E+03  0.13817501245E+04  0.16016229518E+04  0.79913443814E+03 0.  0.
         22    1    5    5    0    0 -0.23625805803E+03  0.14302349844E+03  0.15995491310E+03  0.31915382704E+03  0.00000000000E+00 0. -1.
         22    1    5    5    0    0  0.28581721681E+03 -0.26505100608E+03  0.12217952114E+04  0.12824691248E+04  0.00000000000E+00 0. -1.
          5    1    4    4  502    0  0.40714682654E+02  0.25931000124E+02  0.50524065283E+02  0.70034800805E+02  0.47000000000E+01 0. -1.
         -5    1    4    4    0  502 -0.90273841434E+02  0.96096507520E+02  0.14715797362E+03  0.19763973387E+03  0.47000000000E+01 0. -1.
<mgrwt>
<rscale>  0 0.99983355E+03</rscale>
<asrwt>0</asrwt>
<pdfrwt beam="1">  1        1 0.26528688E+00 0.99983355E+03</pdfrwt>
<pdfrwt beam="2">  1       -1 0.22297334E-01 0.99983355E+03</pdfrwt>
<totfact> 0.83024320E+01</totfact>
</mgrwt>
</event>
<event>
 9    1  0.4488205E-036  0.9989708E+03  0.7818608E-02  0.8682019E-01
         -2   -1    0    0    0  501 -0.00000000000E+00  0.00000000000E+00  0.22664359065E+03  0.22664359065E+03  0.00000000000E+00 0.  1.
          2   -1    0    0  501    0  0.00000000000E+00 -0.00000000000E+00 -0.11007841443E+04  0.11007841443E+04  0.00000000000E+00 0.  1.
         36    2    1    2    0    0 -0.71054273576E-14  0.21316282073E-13 -0.87414055360E+03  0.13274277349E+04  0.99897081236E+03 0.  0.
         25    2    3    3    0    0  0.57226462684E+02  0.62818745823E+02 -0.30842391039E+03  0.34345098960E+03  0.12494883313E+03 0.  0.
         35    2    3    3    0    0 -0.57226462684E+02 -0.62818745823E+02 -0.56571664321E+03  0.98397674530E+03  0.80059593556E+03 0.  0.
         22    1    5    5    0    0 -0.42918963768E+02 -0.40476078769E+03 -0.48346516187E+03  0.63199042354E+03  0.00000000000E+00 0. -1.
         22    1    5    5    0    0 -0.14307498916E+02  0.34194204187E+03 -0.82251481336E+02  0.35198632176E+03  0.00000000000E+00 0. -1.
          5    1    4    4  502    0  0.16354450929E+02  0.24581759094E+02 -0.27794368567E+03  0.27954697879E+03  0.47000000000E+01 0.  1.
         -5    1    4    4    0  502  0.40872011755E+02  0.38236986729E+02 -0.30480224719E+02  0.63904010813E+02  0.47000000000E+01 0.  1.
<mgrwt>
<rscale>  0 0.99897081E+03</rscale>
<asrwt>0</asrwt>
<pdfrwt beam="1">  1        2 0.16935141E+00 0.99897081E+03</pdfrwt>
<pdfrwt beam="2">  1       -2 0.34868245E-01 0.99897081E+03</pdfrwt>
<totfact> 0.20261874E+02</totfact>
</mgrwt>
</event>
<event>
 9    1  0.4488205E-036  0.9999916E+03  0.7818608E-02  0.8681046E-01
         -2   -1    0    0    0  501 -0.00000000000E+00  0.00000000000E+00  0.39684980763E+03  0.39684980763E+03  0.00000000000E+00 0.  1.
          2   -1    0    0  501    0  0.00000000000E+00 -0.00000000000E+00 -0.62995064319E+03  0.62995064319E+03  0.00000000000E+00 0.  1.
         36    2    1    2    0    0 -0.28421709430E-13  0.15987211555E-13 -0.23310083556E+03  0.10268004508E+04  0.99999158310E+03 0.  0.
         25    2    3    3    0    0  0.98217457559E+02 -0.86943252601E+01 -0.14486072713E+03  0.21507506846E+03  0.12470122112E+03 0.  0.
         35    2    3    3    0    0 -0.98217457559E+02  0.86943252601E+01 -0.88240108431E+02  0.81172538235E+03  0.80086797873E+03 0.  0.
         22    1    5    5    0    0 -0.22978207052E+03 -0.32618934866E+03 -0.18402855497E+03  0.43939253539E+03  0.00000000000E+00 0.  1.
         22    1    5    5    0    0  0.13156461296E+03  0.33488367392E+03  0.95788446540E+02  0.37233284697E+03  0.00000000000E+00 0.  1.
          5    1    4    4  502    0  0.46916326084E+02 -0.21066371266E+02 -0.15299272361E+03  0.16147382800E+03  0.47000000000E+01 0.  1.
         -5    1    4    4    0  502  0.51301131475E+02  0.12372046006E+02  0.81319964753E+01  0.53601240468E+02  0.47000000000E+01 0.  1.
<mgrwt>
<rscale>  0 0.99999158E+03</rscale>
<asrwt>0</asrwt>
<pdfrwt beam="1">  1        2 0.96915483E-01 0.99999158E+03</pdfrwt>
<pdfrwt beam="2">  1       -2 0.61053817E-01 0.99999158E+03</pdfrwt>
<totfact> 0.14114174E+02</totfact>
</mgrwt>
</event>
<event>
 9    1  0.4488205E-036  0.9998099E+03  0.7818608E-02  0.8681219E-01
         -1   -1    0    0    0  501 -0.00000000000E+00  0.00000000000E+00  0.90822181234E+02  0.90822181234E+02  0.00000000000E+00 0. -1.
          1   -1    0    0  501    0  0.00000000000E+00 -0.00000000000E+00 -0.27515850185E+04  0.27515850185E+04  0.00000000000E+00 0. -1.
         36    2    1    2    0    0  0.00000000000E+00  0.00000000000E+00 -0.26607628373E+04  0.28424071998E+04  0.99980988840E+03 0.  0.
         25    2    3    3    0    0 -0.11542597048E+03  0.54591913957E+02 -0.33895701777E+03  0.38336857379E+03  0.12560323140E+03 0.  0.
         35    2    3    3    0    0  0.11542597048E+03 -0.54591913957E+02 -0.23218058195E+04  0.24590386260E+04  0.79986578171E+03 0.  0.
         22    1    5    5    0    0  0.24544247136E+03  0.58542457288E+02 -0.22628670162E+04  0.22768918198E+04  0.00000000000E+00 0.  1.
         22    1    5    5    0    0 -0.13001650088E+03 -0.11313437125E+03 -0.58938803291E+02  0.18214680615E+03  0.00000000000E+00 0.  1.
          5    1    4    4  502    0 -0.10168214034E+03  0.91505548671E+02 -0.28728928127E+03  0.31822907509E+03  0.47000000000E+01 0.  1.
         -5    1    4    4    0  502 -0.13743830141E+02 -0.36913634713E+02 -0.51667736505E+02  0.65139498695E+02  0.47000000000E+01 0.  1.
<mgrwt>
<rscale>  0 0.99980989E+03</rscale>
<asrwt>0</asrwt>
<pdfrwt beam="1">  1        1 0.42332081E+00 0.99980989E+03</pdfrwt>
<pdfrwt beam="2">  1       -1 0.13972642E-01 0.99980989E+03</pdfrwt>
<totfact> 0.33850429E+01</totfact>
</mgrwt>
</event>
<event>
 9    1  0.4488205E-036  0.9999393E+03  0.7818608E-02  0.8681096E-01
          1   -1    0    0  501    0  0.00000000000E+00  0.00000000000E+00  0.71853827221E+03  0.71853827221E+03  0.00000000000E+00 0. -1.
         -1   -1    0    0    0  501 -0.00000000000E+00 -0.00000000000E+00 -0.34788633200E+03  0.34788633200E+03  0.00000000000E+00 0. -1.
         36    2    1    2    0    0  0.35527136788E-14  0.56843418861E-13  0.37065194021E+03  0.10664246042E+04  0.99993928600E+03 0.  0.
         25    2    3    3    0    0  0.18181641072E+02 -0.12919421657E+03  0.16004330821E+02  0.18144546819E+03  0.12507838205E+03 0.  0.
         35    2    3    3    0    0 -0.18181641072E+02  0.12919421657E+03  0.35464760939E+03  0.88497913602E+03  0.80024460428E+03 0.  0.
         22    1    5    5    0    0  0.75208026967E+02  0.46035464223E+03  0.19267096155E+03  0.50468281462E+03  0.00000000000E+00 0. -1.
         22    1    5    5    0    0 -0.93389668039E+02 -0.33116042567E+03  0.16197664784E+03  0.38029632140E+03  0.00000000000E+00 0. -1.
          5    1    4    4  502    0  0.37273636204E+02 -0.14184637217E+03 -0.92514133425E+01  0.14702855472E+03  0.47000000000E+01 0.  1.
         -5    1    4    4    0  502 -0.19091995132E+02  0.12652155606E+02  0.25255744164E+02  0.34416913471E+02  0.47000000000E+01 0.  1.
<mgrwt>
<rscale>  0 0.99993929E+03</rscale>
<asrwt>0</asrwt>
<pdfrwt beam="1">  1        1 0.11054435E+00 0.99993929E+03</pdfrwt>
<pdfrwt beam="2">  1       -1 0.53520974E-01 0.99993929E+03</pdfrwt>
<totfact> 0.10584712E+02</totfact>
</mgrwt>
</event>
<event>
 9    1  0.4488205E-036  0.9994787E+03  0.7818608E-02  0.8681535E-01
          1   -1    0    0  501    0  0.00000000000E+00  0.00000000000E+00  0.21651705083E+04  0.21651705083E+04  0.00000000000E+00 0.  1.
         -1   -1    0    0    0  501 -0.00000000000E+00 -0.00000000000E+00 -0.11534399865E+03  0.11534399865E+03  0.00000000000E+00 0.  1.
         36    2    1    2    0    0  0.00000000000E+00  0.00000000000E+00  0.20498265096E+04  0.22805145069E+04  0.99947871248E+03 0.  0.
         25    2    3    3    0    0  0.20211514019E+02  0.42550097716E+02  0.68628912107E+03  0.69904083924E+03  0.12428322943E+03 0.  0.
         35    2    3    3    0    0 -0.20211514019E+02 -0.42550097716E+02  0.13635373886E+04  0.15814736677E+04  0.79975354669E+03 0.  0.
         22    1    5    5    0    0  0.10524452491E+03 -0.40061181198E+03  0.81916514026E+03  0.91793123977E+03  0.00000000000E+00 0.  1.
         22    1    5    5    0    0 -0.12545603893E+03  0.35806171426E+03  0.54437224831E+03  0.66354242792E+03  0.00000000000E+00 0.  1.
          5    1    4    4  502    0  0.49475992546E+02  0.67570082485E+02  0.32400782498E+03  0.33468903557E+03  0.47000000000E+01 0. -1.
         -5    1    4    4    0  502 -0.29264478527E+02 -0.25019984769E+02  0.36228129609E+03  0.36435180367E+03  0.47000000000E+01 0. -1.
<mgrwt>
<rscale>  0 0.99947871E+03</rscale>
<asrwt>0</asrwt>
<pdfrwt beam="1">  1        1 0.33310313E+00 0.99947871E+03</pdfrwt>
<pdfrwt beam="2">  1       -1 0.17745232E-01 0.99947871E+03</pdfrwt>
<totfact> 0.59389019E+01</totfact>
</mgrwt>
</event>
<event>
 9    1  0.4488205E-036  0.1000372E+04  0.7818608E-02  0.8680683E-01
         -2   -1    0    0    0  501 -0.00000000000E+00  0.00000000000E+00  0.39458086756E+03  0.39458086756E+03  0.00000000000E+00 0.  1.
          2   -1    0    0  501    0  0.00000000000E+00 -0.00000000000E+00 -0.63405559288E+03  0.63405559288E+03  0.00000000000E+00 0.  1.
         36    2    1    2    0    0  0.00000000000E+00  0.14210854715E-13 -0.23947472532E+03  0.10286364604E+04  0.10003723425E+04 0.  0.
         25    2    3    3    0    0  0.47207320415E+02  0.87817677699E+02 -0.14637175593E+03  0.21720435806E+03  0.12574802825E+03 0.  0.
         35    2    3    3    0    0 -0.47207320415E+02 -0.87817677699E+02 -0.93102969383E+02  0.81143210237E+03  0.79988337790E+03 0.  0.
         22    1    5    5    0    0 -0.65172286816E+02 -0.29956770833E+03 -0.35832291927E+03  0.47157560721E+03  0.00000000000E+00 0. -1.
         22    1    5    5    0    0  0.17964966401E+02  0.21175003063E+03  0.26521994988E+03  0.33985649517E+03  0.00000000000E+00 0. -1.
          5    1    4    4  502    0 -0.19563694965E+02  0.23472923922E+02 -0.11518037852E+03  0.11925739355E+03  0.47000000000E+01 0. -1.
         -5    1    4    4    0  502  0.66771015380E+02  0.64344753777E+02 -0.31191377409E+02  0.97946964517E+02  0.47000000000E+01 0. -1.
<mgrwt>
<rscale>  0 0.10003723E+04</rscale>
<asrwt>0</asrwt>
<pdfrwt beam="1">  1        2 0.97547012E-01 0.10003723E+04</pdfrwt>
<pdfrwt beam="2">  1       -2 0.60704750E-01 0.10003723E+04</pdfrwt>
<totfact> 0.14173617E+02</totfact>
</mgrwt>
</event>
<event>
 9    1  0.4488205E-036  0.1000098E+04  0.7818608E-02  0.8680944E-01
         -2   -1    0    0    0  501 -0.00000000000E+00  0.00000000000E+00  0.54644588811E+03  0.54644588811E+03  0.00000000000E+00 0.  1.
          2   -1    0    0  501    0  0.00000000000E+00 -0.00000000000E+00 -0.45759178296E+03  0.45759178296E+03  0.00000000000E+00 0.  1.
         36    2    1    2    0    0  0.14210854715E-13  0.71054273576E-14  0.88854105147E+02  0.10040376711E+04  0.10000982916E+04 0.  0.
         25    2    3    3    0    0  0.76451461173E+02 -0.36508061296E+02 -0.95775074889E+02  0.17851247430E+03  0.12456393562E+03 0.  0.
         35    2    3    3    0    0 -0.76451461173E+02  0.36508061296E+02  0.18462918004E+03  0.82552519677E+03  0.80014139496E+03 0.  0.
         22    1    5    5    0    0  0.29686447957E+03 -0.31370708501E+01  0.31048025401E+03  0.42957694139E+03  0.00000000000E+00 0. -1.
         22    1    5    5    0    0 -0.37331594075E+03  0.39645132146E+02 -0.12585107397E+03  0.39594825538E+03  0.00000000000E+00 0. -1.
          5    1    4    4  502    0  0.70323412427E+02  0.24276970712E+02 -0.90154542981E+02  0.11698155950E+03  0.47000000000E+01 0. -1.
         -5    1    4    4    0  502  0.61280487467E+01 -0.60785032009E+02 -0.56205319084E+01  0.61530914804E+02  0.47000000000E+01 0. -1.
<mgrwt>
<rscale>  0 0.10000983E+04</rscale>
<asrwt>0</asrwt>
<pdfrwt beam="1">  1        2 0.70398736E-01 0.10000983E+04</pdfrwt>
<pdfrwt beam="2">  1       -2 0.84068598E-01 0.10000983E+04</pdfrwt>
<totfact> 0.10118146E+02</totfact>
</mgrwt>
</event>
<event>
 9    1  0.4488205E-036  0.1000480E+04  0.7818608E-02  0.8680581E-01
          1   -1    0    0  501    0  0.00000000000E+00  0.00000000000E+00  0.63890030394E+03  0.63890030394E+03  0.00000000000E+00 0. -1.
         -1   -1    0    0    0  501 -0.00000000000E+00 -0.00000000000E+00 -0.39167292064E+03  0.39167292064E+03  0.00000000000E+00 0. -1.
         36    2    1    2    0    0  0.14210854715E-13 -0.28421709430E-13  0.24722738331E+03  0.10305732246E+04  0.10004797810E+04 0.  0.
         25    2    3    3    0    0 -0.60326186381E+02 -0.12888310257E+03  0.36934883784E+02  0.19143069476E+03  0.12260270129E+03 0.  0.
         35    2    3    3    0    0  0.60326186381E+02  0.12888310257E+03  0.21029249952E+03  0.83914252982E+03  0.79980444304E+03 0.  0.
         22    1    5    5    0    0  0.36278785261E+03 -0.14889486364E+03  0.38653816702E+02  0.39405434138E+03  0.00000000000E+00 0. -1.
         22    1    5    5    0    0 -0.30246166623E+03  0.27777796621E+03  0.17163868282E+03  0.44508818844E+03  0.00000000000E+00 0. -1.
          5    1    4    4  502    0 -0.15386519410E+02 -0.12952186919E+03 -0.38271823881E+01  0.13057333917E+03  0.47000000000E+01 0.  1.
         -5    1    4    4    0  502 -0.44939666971E+02  0.63876661662E+00  0.40762066173E+02  0.60857355586E+02  0.47000000000E+01 0.  1.
<mgrwt>
<rscale>  0 0.10004798E+04</rscale>
<asrwt>0</asrwt>
<pdfrwt beam="1">  1        1 0.98292355E-01 0.10004798E+04</pdfrwt>
<pdfrwt beam="2">  1       -1 0.60257372E-01 0.10004798E+04</pdfrwt>
<totfact> 0.10103747E+02</totfact>
</mgrwt>
</event>
<event>
 9    1  0.4488205E-036  0.1004257E+04  0.7818608E-02  0.8676994E-01
         -1   -1    0    0    0  501 -0.00000000000E+00  0.00000000000E+00  0.36229180166E+03  0.36229180166E+03  0.00000000000E+00 0. -1.
          1   -1    0    0  501    0  0.00000000000E+00 -0.00000000000E+00 -0.69593975821E+03  0.69593975821E+03  0.00000000000E+00 0. -1.
         36    2    1    2    0    0 -0.14210854715E-13 -0.37303493627E-13 -0.33364795656E+03  0.10582315599E+04  0.10042574747E+04 0.  0.
         25    2    3    3    0    0  0.10829783347E+03 -0.58450357338E+01 -0.17896045221E+03  0.24351681977E+03  0.12454321691E+03 0.  0.
         35    2    3    3    0    0 -0.10829783347E+03  0.58450357338E+01 -0.15468750435E+03  0.81471474011E+03  0.79250823249E+03 0.  0.
         22    1    5    5    0    0 -0.48324142780E+02  0.37714804044E+03 -0.21029476232E+03  0.43451093685E+03  0.00000000000E+00 0.  1.
         22    1    5    5    0    0 -0.59973690686E+02 -0.37130300470E+03  0.55607257971E+02  0.38020380326E+03  0.00000000000E+00 0.  1.
          5    1    4    4  502    0 -0.22640219226E+02 -0.19068840920E+02 -0.15922500809E+02  0.33938418535E+02  0.47000000000E+01 0. -1.
         -5    1    4    4    0  502  0.13093805269E+03  0.13223805186E+02 -0.16303795140E+03  0.20957840123E+03  0.47000000000E+01 0. -1.
<mgrwt>
<rscale>  0 0.10042575E+04</rscale>
<asrwt>0</asrwt>
<pdfrwt beam="1">  1        1 0.10706765E+00 0.10042575E+04</pdfrwt>
<pdfrwt beam="2">  1       -1 0.55737201E-01 0.10042575E+04</pdfrwt>
<totfact> 0.10298177E+02</totfact>
</mgrwt>
</event>
<event>
 9    1  0.4488205E-036  0.9994726E+03  0.7818608E-02  0.8681540E-01
          2   -1    0    0  501    0  0.00000000000E+00  0.00000000000E+00  0.14844326072E+04  0.14844326072E+04  0.00000000000E+00 0. -1.
         -2   -1    0    0    0  501 -0.00000000000E+00 -0.00000000000E+00 -0.16823693282E+03  0.16823693282E+03  0.00000000000E+00 0. -1.
         36    2    1    2    0    0 -0.71054273576E-14  0.00000000000E+00  0.13161956743E+04  0.16526695400E+04  0.99947263857E+03 0.  0.
         25    2    3    3    0    0  0.72416960045E+01  0.71205186076E+01  0.22453695335E+02  0.12769717761E+03  0.12529667509E+03 0.  0.
         35    2    3    3    0    0 -0.72416960045E+01 -0.71205186076E+01  0.12937419790E+04  0.15249723624E+04  0.80726033831E+03 0.  0.
         22    1    5    5    0    0 -0.23613851029E+03  0.18657655867E+03  0.13821357752E+03  0.33117246458E+03  0.00000000000E+00 0. -1.
         22    1    5    5    0    0  0.22889681428E+03 -0.19369707728E+03  0.11555284015E+04  0.11937998978E+04  0.00000000000E+00 0. -1.
          5    1    4    4  502    0 -0.52015867100E+02  0.31993672083E+02  0.12128280863E+02  0.62437414106E+02  0.47000000000E+01 0. -1.
         -5    1    4    4    0  502  0.59257563105E+02 -0.24873153475E+02  0.10325414473E+02  0.65259763507E+02  0.47000000000E+01 0. -1.
<mgrwt>
<rscale>  0 0.99947264E+03</rscale>
<asrwt>0</asrwt>
<pdfrwt beam="1">  1        2 0.22837424E+00 0.99947264E+03</pdfrwt>
<pdfrwt beam="2">  1       -2 0.25882606E-01 0.99947264E+03</pdfrwt>
<totfact> 0.20852718E+02</totfact>
</mgrwt>
</event>
<event>
 9    1  0.4488205E-036  0.9991337E+03  0.7818608E-02  0.8681863E-01
          2   -1    0    0  501    0  0.00000000000E+00  0.00000000000E+00  0.18262052563E+04  0.18262052563E+04  0.00000000000E+00 0.  1.
         -2   -1    0    0    0  501 -0.00000000000E+00 -0.00000000000E+00 -0.13665882028E+03  0.13665882028E+03  0.00000000000E+00 0.  1.
         36    2    1    2    0    0  0.00000000000E+00 -0.21316282073E-13  0.16895464360E+04  0.19628640766E+04  0.99913373661E+03 0.  0.
         25    2    3    3    0    0 -0.13529041592E+03  0.36271836535E+02  0.29289126158E+03  0.34775468469E+03  0.12461495435E+03 0.  0.
         35    2    3    3    0    0  0.13529041592E+03 -0.36271836535E+02  0.13966551744E+04  0.16151093919E+04  0.79894526013E+03 0.  0.
         22    1    5    5    0    0 -0.66079708875E+02 -0.39399218416E+03  0.64623498554E+03  0.75974734329E+03  0.00000000000E+00 0. -1.
         22    1    5    5    0    0  0.20137012480E+03  0.35772034762E+03  0.75042018891E+03  0.85536204860E+03  0.00000000000E+00 0. -1.
          5    1    4    4  502    0 -0.30562703322E+02 -0.26499085570E+02  0.16864660401E+03  0.17349365237E+03  0.47000000000E+01 0. -1.
         -5    1    4    4    0  502 -0.10472771260E+03  0.62770922105E+02  0.12424465757E+03  0.17426103231E+03  0.47000000000E+01 0. -1.
<mgrwt>
<rscale>  0 0.99913374E+03</rscale>
<asrwt>0</asrwt>
<pdfrwt beam="1">  1        2 0.28095464E+00 0.99913374E+03</pdfrwt>
<pdfrwt beam="2">  1       -2 0.21024435E-01 0.99913374E+03</pdfrwt>
<totfact> 0.19285858E+02</totfact>
</mgrwt>
</event>
<event>
 9    1  0.4488205E-036  0.1001599E+04  0.7818608E-02  0.8679517E-01
          2   -1    0    0  501    0  0.00000000000E+00  0.00000000000E+00  0.12631609056E+04  0.12631609056E+04  0.00000000000E+00 0.  1.
         -2   -1    0    0    0  501 -0.00000000000E+00 -0.00000000000E+00 -0.19854954029E+03  0.19854954029E+03  0.00000000000E+00 0.  1.
         36    2    1    2    0    0  0.00000000000E+00  0.14210854715E-13  0.10646113653E+04  0.14617104458E+04  0.10015987562E+04 0.  0.
         25    2    3    3    0    0 -0.13559139834E+03 -0.40581439028E+02  0.20058027825E+03  0.27580020734E+03  0.12570372248E+03 0.  0.
         35    2    3    3    0    0  0.13559139834E+03  0.40581439028E+02  0.86403108701E+03  0.11859102385E+04  0.79987592411E+03 0.  0.
         22    1    5    5    0    0  0.45709931745E+01  0.21156795459E+03  0.93535639716E+03  0.95899608086E+03  0.00000000000E+00 0. -1.
         22    1    5    5    0    0  0.13102040517E+03 -0.17098651556E+03 -0.71325310152E+02  0.22691415765E+03  0.00000000000E+00 0. -1.
          5    1    4    4  502    0 -0.49217447161E+02 -0.55585622446E+02  0.23272678255E+02  0.77947585472E+02  0.47000000000E+01 0. -1.
         -5    1    4    4    0  502 -0.86373951183E+02  0.15004183418E+02  0.17730760000E+03  0.19785262187E+03  0.47000000000E+01 0. -1.
<mgrwt>
<rscale>  0 0.10015988E+04</rscale>
<asrwt>0</asrwt>
<pdfrwt beam="1">  1        2 0.19433244E+00 0.10015988E+04</pdfrwt>
<pdfrwt beam="2">  1       -2 0.30546084E-01 0.10015988E+04</pdfrwt>
<totfact> 0.20716352E+02</totfact>
</mgrwt>
</event>
<event>
 9    1  0.4488205E-036  0.9992072E+03  0.7818608E-02  0.8681793E-01
          1   -1    0    0  501    0  0.00000000000E+00  0.00000000000E+00  0.34352016759E+03  0.34352016759E+03  0.00000000000E+00 0.  1.
         -1   -1    0    0    0  501 -0.00000000000E+00 -0.00000000000E+00 -0.72660578108E+03  0.72660578108E+03  0.00000000000E+00 0.  1.
         36    2    1    2    0    0  0.00000000000E+00  0.17763568394E-13 -0.38308561349E+03  0.10701259487E+04  0.99920716508E+03 0.  0.
         25    2    3    3    0    0 -0.13517325724E+03 -0.18441053667E+01 -0.39771574607E+02  0.18823530621E+03  0.12480201184E+03 0.  0.
         35    2    3    3    0    0  0.13517325724E+03  0.18441053667E+01 -0.34331403889E+03  0.88189064246E+03  0.80099398610E+03 0.  0.
         22    1    5    5    0    0 -0.14586103713E+02  0.36004633120E+03  0.48843369010E+01  0.36037476573E+03  0.00000000000E+00 0.  1.
         22    1    5    5    0    0  0.14975936095E+03 -0.35820222583E+03 -0.34819837579E+03  0.52151587673E+03  0.00000000000E+00 0.  1.
          5    1    4    4  502    0 -0.14574352316E+03 -0.30131666279E+02 -0.48245113144E+02  0.15652083823E+03  0.47000000000E+01 0. -1.
         -5    1    4    4    0  502  0.10570265924E+02  0.28287560913E+02  0.84735385375E+01  0.31714467983E+02  0.47000000000E+01 0. -1.
<mgrwt>
<rscale>  0 0.99920717E+03</rscale>
<asrwt>0</asrwt>
<pdfrwt beam="1">  1        1 0.52849257E-01 0.99920717E+03</pdfrwt>
<pdfrwt beam="2">  1       -1 0.11178550E+00 0.99920717E+03</pdfrwt>
<totfact> 0.64867943E+01</totfact>
</mgrwt>
</event>
<event>
 9    1  0.4488205E-036  0.9996247E+03  0.7818608E-02  0.8681395E-01
         -1   -1    0    0    0  501 -0.00000000000E+00  0.00000000000E+00  0.22658694307E+03  0.22658694307E+03  0.00000000000E+00 0. -1.
          1   -1    0    0  501    0  0.00000000000E+00 -0.00000000000E+00 -0.11025011780E+04  0.11025011780E+04  0.00000000000E+00 0. -1.
         36    2    1    2    0    0  0.00000000000E+00  0.14210854715E-13 -0.87591423493E+03  0.13290881211E+04  0.99962467287E+03 0.  0.
         25    2    3    3    0    0 -0.62683786183E+02 -0.88743337939E+02 -0.28067440598E+03  0.32587042936E+03  0.12493509308E+03 0.  0.
         35    2    3    3    0    0  0.62683786183E+02  0.88743337939E+02 -0.59523982895E+03  0.10032176917E+04  0.80020662701E+03 0.  0.
         22    1    5    5    0    0  0.39706441646E+03  0.19505272700E+03 -0.42408912588E+03  0.61282730342E+03  0.00000000000E+00 0. -1.
         22    1    5    5    0    0 -0.33438063028E+03 -0.10630938906E+03 -0.17115070307E+03  0.39039038829E+03  0.00000000000E+00 0. -1.
          5    1    4    4  502    0 -0.62623921386E+02 -0.36720521438E+02 -0.25950504293E+03  0.26950901568E+03  0.47000000000E+01 0. -1.
         -5    1    4    4    0  502 -0.59864797052E-01 -0.52022816501E+02 -0.21169363043E+02  0.56361413681E+02  0.47000000000E+01 0. -1.
<mgrwt>
<rscale>  0 0.99962467E+03</rscale>
<asrwt>0</asrwt>
<pdfrwt beam="1">  1        1 0.16961557E+00 0.99962467E+03</pdfrwt>
<pdfrwt beam="2">  1       -1 0.34859530E-01 0.99962467E+03</pdfrwt>
<totfact> 0.10956681E+02</totfact>
</mgrwt>
</event>
<event>
 9    1  0.4488205E-036  0.1000494E+04  0.7818608E-02  0.8680568E-01
          1   -1    0    0  501    0  0.00000000000E+00  0.00000000000E+00  0.20868833301E+03  0.20868833301E+03  0.00000000000E+00 0. -1.
         -1   -1    0    0    0  501 -0.00000000000E+00 -0.00000000000E+00 -0.11991419650E+04  0.11991419650E+04  0.00000000000E+00 0. -1.
         36    2    1    2    0    0 -0.28421709430E-13  0.00000000000E+00 -0.99045363202E+03  0.14078302980E+04  0.10004937536E+04 0.  0.
         25    2    3    3    0    0  0.98694667732E+02 -0.75146769318E+02 -0.94003281479E+02  0.19977482441E+03  0.12524252138E+03 0.  0.
         35    2    3    3    0    0 -0.98694667732E+02  0.75146769318E+02 -0.89645035055E+03  0.12080554736E+04  0.80024191469E+03 0.  0.
         22    1    5    5    0    0 -0.31287704901E+03 -0.25355848110E+03 -0.33911947309E+03  0.52648453744E+03  0.00000000000E+00 0.  1.
         22    1    5    5    0    0  0.21418238128E+03  0.32870525042E+03 -0.55733087745E+03  0.68157093619E+03  0.00000000000E+00 0.  1.
          5    1    4    4  502    0  0.95680965752E+02 -0.97967474393E+02 -0.42980979160E+02  0.14360336979E+03  0.47000000000E+01 0.  1.
         -5    1    4    4    0  502  0.30137019803E+01  0.22820705075E+02 -0.51022302319E+02  0.56171454616E+02  0.47000000000E+01 0. -1.
<mgrwt>
<rscale>  0 0.10004938E+04</rscale>
<asrwt>0</asrwt>
<pdfrwt beam="1">  1        1 0.32105897E-01 0.10004938E+04</pdfrwt>
<pdfrwt beam="2">  1       -1 0.18448338E+00 0.10004938E+04</pdfrwt>
<totfact> 0.29636005E+01</totfact>
</mgrwt>
</event>
<event>
 9    1  0.4488205E-036  0.1003262E+04  0.7818608E-02  0.8677938E-01
          3   -1    0    0  501    0  0.00000000000E+00  0.00000000000E+00  0.48355447479E+03  0.48355447479E+03  0.00000000000E+00 0. -1.
         -3   -1    0    0    0  501 -0.00000000000E+00 -0.00000000000E+00 -0.52038334819E+03  0.52038334819E+03  0.00000000000E+00 0. -1.
         36    2    1    2    0    0  0.00000000000E+00  0.21316282073E-13 -0.36828873396E+02  0.10039378230E+04  0.10032620727E+04 0.  0.
         25    2    3    3    0    0 -0.13984599526E+03 -0.80564300502E+01  0.30774214043E+02  0.18880378812E+03  0.12279254742E+03 0.  0.
         35    2    3    3    0    0  0.13984599526E+03  0.80564300502E+01 -0.67603087439E+02  0.81513403487E+03  0.80015717763E+03 0.  0.
         22    1    5    5    0    0  0.87642650305E+02 -0.39409082775E+03 -0.69217505222E+02  0.40960942091E+03  0.00000000000E+00 0.  1.
         22    1    5    5    0    0  0.52203344953E+02  0.40214725780E+03  0.16144177833E+01  0.40552461396E+03  0.00000000000E+00 0.  1.
          5    1    4    4  502    0 -0.93848672857E+02  0.50397037780E+02  0.39620503328E+02  0.11375108394E+03  0.47000000000E+01 0.  1.
         -5    1    4    4    0  502 -0.45997322402E+02 -0.58453467831E+02 -0.88462892856E+01  0.75052704173E+02  0.47000000000E+01 0.  1.
<mgrwt>
<rscale>  0 0.10032621E+04</rscale>
<asrwt>0</asrwt>
<pdfrwt beam="1">  1        3 0.74392996E-01 0.10032621E+04</pdfrwt>
<pdfrwt beam="2">  1       -3 0.80058976E-01 0.10032621E+04</pdfrwt>
<totfact> 0.97766778E+00</totfact>
</mgrwt>
</event>
<event>
 9    1  0.4488205E-036  0.1003983E+04  0.7818608E-02  0.8677254E-01
          2   -1    0    0  501    0  0.00000000000E+00  0.00000000000E+00  0.24145688420E+04  0.24145688420E+04  0.00000000000E+00 0. -1.
         -2   -1    0    0    0  501 -0.00000000000E+00 -0.00000000000E+00 -0.10436460445E+03  0.10436460445E+03  0.00000000000E+00 0. -1.
         36    2    1    2    0    0  0.00000000000E+00  0.24868995752E-13  0.23102042376E+04  0.25189334465E+04  0.10039831116E+04 0.  0.
         25    2    3    3    0    0  0.14142979342E+03  0.30561010194E+02  0.46172713326E+03  0.49963619227E+03  0.12453118978E+03 0.  0.
         35    2    3    3    0    0 -0.14142979342E+03 -0.30561010194E+02  0.18484771043E+04  0.20192972542E+04  0.79984838180E+03 0.  0.
         22    1    5    5    0    0 -0.88449564426E+02 -0.32248714909E+03  0.15931445295E+04  0.16278607983E+04  0.00000000000E+00 0.  1.
         22    1    5    5    0    0 -0.52980228989E+02  0.29192613890E+03  0.25533257477E+03  0.39143645586E+03  0.00000000000E+00 0.  1.
          5    1    4    4  502    0  0.97211666271E+02  0.32018341567E+01  0.42446890265E+03  0.43549546395E+03  0.47000000000E+01 0. -1.
         -5    1    4    4    0  502  0.44218127145E+02  0.27359176037E+02  0.37258230606E+02  0.64140728321E+02  0.47000000000E+01 0. -1.
<mgrwt>
<rscale>  0 0.10039831E+04</rscale>
<asrwt>0</asrwt>
<pdfrwt beam="1">  1        2 0.37147209E+00 0.10039831E+04</pdfrwt>
<pdfrwt beam="2">  1       -2 0.16056095E-01 0.10039831E+04</pdfrwt>
<totfact> 0.13985346E+02</totfact>
</mgrwt>
</event>
<event>
 9    1  0.4488205E-036  0.1001498E+04  0.7818608E-02  0.8679613E-01
         -2   -1    0    0    0  501 -0.00000000000E+00  0.00000000000E+00  0.21782115217E+03  0.21782115217E+03  0.00000000000E+00 0. -1.
          2   -1    0    0  501    0  0.00000000000E+00 -0.00000000000E+00 -0.11511708528E+04  0.11511708528E+04  0.00000000000E+00 0. -1.
         36    2    1    2    0    0 -0.21316282073E-13 -0.28421709430E-13 -0.93334970062E+03  0.13689920049E+04  0.10014976016E+04 0.  0.
         25    2    3    3    0    0  0.19150601447E+02 -0.12954150968E+03 -0.10058197512E+03  0.20686380769E+03  0.12461200965E+03 0.  0.
         35    2    3    3    0    0 -0.19150601447E+02  0.12954150968E+03 -0.83276772550E+03  0.11621281973E+04  0.79993256838E+03 0.  0.
         22    1    5    5    0    0 -0.32882261777E+03 -0.88101324142E+02 -0.13092918850E+03  0.36473087294E+03  0.00000000000E+00 0.  1.
         22    1    5    5    0    0  0.30967201633E+03  0.21764283382E+03 -0.70183853700E+03  0.79739732431E+03  0.00000000000E+00 0.  1.
          5    1    4    4  502    0 -0.13622301640E+02 -0.12660740834E+03 -0.11404103589E+03  0.17100424210E+03  0.47000000000E+01 0. -1.
         -5    1    4    4    0  502  0.32772903087E+02 -0.29341013386E+01  0.13459060776E+02  0.35859565591E+02  0.47000000000E+01 0. -1.
<mgrwt>
<rscale>  0 0.10014976E+04</rscale>
<asrwt>0</asrwt>
<pdfrwt beam="1">  1        2 0.17710321E+00 0.10014976E+04</pdfrwt>
<pdfrwt beam="2">  1       -2 0.33510946E-01 0.10014976E+04</pdfrwt>
<totfact> 0.20342510E+02</totfact>
</mgrwt>
</event>
<event>
 9    1  0.4488205E-036  0.1000468E+04  0.7818608E-02  0.8680592E-01
         -2   -1    0    0    0  501 -0.00000000000E+00  0.00000000000E+00  0.25321722043E+03  0.25321722043E+03  0.00000000000E+00 0.  1.
          2   -1    0    0  501    0  0.00000000000E+00 -0.00000000000E+00 -0.98821901816E+03  0.98821901816E+03  0.00000000000E+00 0.  1.
         36    2    1    2    0    0  0.71054273576E-14 -0.14210854715E-13 -0.73500179773E+03  0.12414362386E+04  0.10004680364E+04 0.  0.
         25    2    3    3    0    0 -0.50138512131E+02  0.11919553519E+03 -0.71419836345E+02  0.19388173021E+03  0.12557024439E+03 0.  0.
         35    2    3    3    0    0  0.50138512131E+02 -0.11919553519E+03 -0.66358196139E+03  0.10475545084E+04  0.80019246594E+03 0.  0.
         22    1    5    5    0    0  0.20178760486E+03  0.25645435195E+03 -0.52736280909E+03  0.62016014426E+03  0.00000000000E+00 0.  1.
         22    1    5    5    0    0 -0.15164909273E+03 -0.37564988714E+03 -0.13621915229E+03  0.42739436412E+03  0.00000000000E+00 0.  1.
          5    1    4    4  502    0  0.24097781474E+02  0.77670910332E+02 -0.71957373858E+02  0.10868959029E+03  0.47000000000E+01 0.  1.
         -5    1    4    4    0  502 -0.74236293604E+02  0.41524624856E+02  0.53753751277E+00  0.85192139920E+02  0.47000000000E+01 0.  1.
<mgrwt>
<rscale>  0 0.10004680E+04</rscale>
<asrwt>0</asrwt>
<pdfrwt beam="1">  1        2 0.15203370E+00 0.10004680E+04</pdfrwt>
<pdfrwt beam="2">  1       -2 0.38956495E-01 0.10004680E+04</pdfrwt>
<totfact> 0.19299218E+02</totfact>
</mgrwt>
</event>
<event>
 9    1  0.4488205E-036  0.1007033E+04  0.7818608E-02  0.8674369E-01
         -2   -1    0    0    0  501 -0.00000000000E+00  0.00000000000E+00  0.35939031471E+03  0.35939031471E+03  0.00000000000E+00 0.  1.
          2   -1    0    0  501    0  0.00000000000E+00 -0.00000000000E+00 -0.70544172827E+03  0.70544172827E+03  0.00000000000E+00 0.  1.
         36    2    1    2    0    0  0.14210854715E-13  0.28421709430E-13 -0.34605141356E+03  0.10648320430E+04  0.10070331171E+04 0.  0.
         25    2    3    3    0    0 -0.11375808302E+03  0.73767324525E+02 -0.53778724918E+01  0.18424899185E+03  0.12464449393E+03 0.  0.
         35    2    3    3    0    0  0.11375808302E+03 -0.73767324525E+02 -0.34067354107E+03  0.88058305113E+03  0.80061571851E+03 0.  0.
         22    1    5    5    0    0 -0.12416364231E+02  0.17934945221E+03  0.20090852557E+03  0.26960086750E+03  0.00000000000E+00 0.  1.
         22    1    5    5    0    0  0.12617444725E+03 -0.25311677673E+03 -0.54158206664E+03  0.61098218363E+03  0.00000000000E+00 0.  1.
          5    1    4    4  502    0 -0.26037543522E+02 -0.35306370437E+02 -0.11713644063E+01  0.44135649544E+02  0.47000000000E+01 0. -1.
         -5    1    4    4    0  502 -0.87720539499E+02  0.10907369496E+03 -0.42065080855E+01  0.14011334231E+03  0.47000000000E+01 0. -1.
<mgrwt>
<rscale>  0 0.10070331E+04</rscale>
<asrwt>0</asrwt>
<pdfrwt beam="1">  1        2 0.10852950E+00 0.10070331E+04</pdfrwt>
<pdfrwt beam="2">  1       -2 0.55290818E-01 0.10070331E+04</pdfrwt>
<totfact> 0.15103867E+02</totfact>
</mgrwt>
</event>
<event>
 9    1  0.4488205E-036  0.1003727E+04  0.7818608E-02  0.8677497E-01
         -1   -1    0    0    0  501 -0.00000000000E+00  0.00000000000E+00  0.20956624496E+03  0.20956624496E+03  0.00000000000E+00 0.  1.
          1   -1    0    0  501    0  0.00000000000E+00 -0.00000000000E+00 -0.12018493430E+04  0.12018493430E+04  0.00000000000E+00 0.  1.
         36    2    1    2    0    0  0.00000000000E+00  0.12434497876E-13 -0.99228309802E+03  0.14114155879E+04  0.10037271618E+04 0.  0.
         25    2    3    3    0    0  0.29873451160E+02  0.57244816931E+01 -0.38539336991E+03  0.40644175224E+03  0.12546575476E+03 0.  0.
         35    2    3    3    0    0 -0.29873451160E+02 -0.57244816931E+01 -0.60688972811E+03  0.10049738357E+04  0.80045741648E+03 0.  0.
         22    1    5    5    0    0  0.65639230442E+02  0.24152902993E+03  0.84777619897E+02  0.26425749887E+03  0.00000000000E+00 0. -1.
         22    1    5    5    0    0 -0.95512681602E+02 -0.24725351163E+03 -0.69166734800E+03  0.74071633683E+03  0.00000000000E+00 0. -1.
          5    1    4    4  502    0  0.41405896786E+01  0.84238655200E+01  0.73526552064E+01  0.12816299457E+02  0.47000000000E+01 0.  1.
         -5    1    4    4    0  502  0.25732861481E+02 -0.26993838269E+01 -0.39274602512E+03  0.39362545279E+03  0.47000000000E+01 0.  1.
<mgrwt>
<rscale>  0 0.10037272E+04</rscale>
<asrwt>0</asrwt>
<pdfrwt beam="1">  1        1 0.18489990E+00 0.10037272E+04</pdfrwt>
<pdfrwt beam="2">  1       -1 0.32240960E-01 0.10037272E+04</pdfrwt>
<totfact> 0.10549562E+02</totfact>
</mgrwt>
</event>
<event>
 9    1  0.4488205E-036  0.1000733E+04  0.7818608E-02  0.8680340E-01
         -2   -1    0    0    0  501 -0.00000000000E+00  0.00000000000E+00  0.76025591544E+02  0.76025591544E+02  0.00000000000E+00 0. -1.
          2   -1    0    0  501    0  0.00000000000E+00 -0.00000000000E+00 -0.32931904455E+04  0.32931904455E+04  0.00000000000E+00 0. -1.
         36    2    1    2    0    0  0.71054273576E-14  0.14210854715E-13 -0.32171648539E+04  0.33692160370E+04  0.10007332345E+04 0.  0.
         25    2    3    3    0    0  0.13428669654E+02  0.50675921092E+02 -0.10299364736E+04  0.10388327486E+04  0.12512378572E+03 0.  0.
         35    2    3    3    0    0 -0.13428669654E+02 -0.50675921092E+02 -0.21872283804E+04  0.23303832885E+04  0.80247735489E+03 0.  0.
         22    1    5    5    0    0 -0.11651137670E+03 -0.17479916278E+03 -0.92641183251E+02  0.22959102126E+03  0.00000000000E+00 0. -1.
         22    1    5    5    0    0  0.10308270704E+03  0.12412324169E+03 -0.20945871971E+04  0.21007922672E+04  0.00000000000E+00 0. -1.
          5    1    4    4  502    0  0.17953986672E+02 -0.15661222821E+02 -0.77329277698E+03  0.77367398074E+03  0.47000000000E+01 0.  1.
         -5    1    4    4    0  502 -0.45253170173E+01  0.66337143913E+02 -0.25664369657E+03  0.26515876781E+03  0.47000000000E+01 0.  1.
<mgrwt>
<rscale>  0 0.10007332E+04</rscale>
<asrwt>0</asrwt>
<pdfrwt beam="1">  1        2 0.50664454E+00 0.10007332E+04</pdfrwt>
<pdfrwt beam="2">  1       -2 0.11696248E-01 0.10007332E+04</pdfrwt>
<totfact> 0.63422681E+01</totfact>
</mgrwt>
</event>
<event>
 9    1  0.4488205E-036  0.9995019E+03  0.7818608E-02  0.8681512E-01
         -1   -1    0    0    0  501 -0.00000000000E+00  0.00000000000E+00  0.54579209168E+03  0.54579209168E+03  0.00000000000E+00 0.  1.
          1   -1    0    0  501    0  0.00000000000E+00 -0.00000000000E+00 -0.45759367573E+03  0.45759367573E+03  0.00000000000E+00 0.  1.
         36    2    1    2    0    0 -0.28421709430E-13 -0.71054273576E-14  0.88198415950E+02  0.10033857674E+04  0.99950189478E+03 0.  0.
         25    2    3    3    0    0 -0.84283668056E+02 -0.22976457268E+02  0.12628063623E+03  0.19781989404E+03  0.12471670739E+03 0.  0.
         35    2    3    3    0    0  0.84283668056E+02  0.22976457268E+02 -0.38082220275E+02  0.80556587337E+03  0.79990903642E+03 0.  0.
         22    1    5    5    0    0  0.25732675824E+03 -0.64837649098E+02 -0.34938349564E+03  0.43873660466E+03  0.00000000000E+00 0.  1.
         22    1    5    5    0    0 -0.17304309018E+03  0.87814106366E+02  0.31130127536E+03  0.36682926871E+03  0.00000000000E+00 0.  1.
          5    1    4    4  502    0 -0.61062260945E+02 -0.72392809549E+02  0.61741011820E+02  0.11315193824E+03  0.47000000000E+01 0. -1.
         -5    1    4    4    0  502 -0.23221407110E+02  0.49416352281E+02  0.64539624405E+02  0.84667955800E+02  0.47000000000E+01 0. -1.
<mgrwt>
<rscale>  0 0.99950189E+03</rscale>
<asrwt>0</asrwt>
<pdfrwt beam="1">  1        1 0.70399027E-01 0.99950189E+03</pdfrwt>
<pdfrwt beam="2">  1       -1 0.83968014E-01 0.99950189E+03</pdfrwt>
<totfact> 0.83422230E+01</totfact>
</mgrwt>
</event>
<event>
 9    1  0.4488205E-036  0.9996576E+03  0.7818608E-02  0.8681364E-01
         -1   -1    0    0    0  501 -0.00000000000E+00  0.00000000000E+00  0.11728554899E+04  0.11728554899E+04  0.00000000000E+00 0.  1.
          1   -1    0    0  501    0  0.00000000000E+00 -0.00000000000E+00 -0.21300903681E+03  0.21300903681E+03  0.00000000000E+00 0.  1.
         36    2    1    2    0    0 -0.14210854715E-13  0.00000000000E+00  0.95984645307E+03  0.13858645267E+04  0.99965757779E+03 0.  0.
         25    2    3    3    0    0 -0.51601488210E+02  0.73150323636E+02  0.29480163761E+02  0.15653335201E+03  0.12497970556E+03 0.  0.
         35    2    3    3    0    0  0.51601488210E+02 -0.73150323636E+02  0.93036628931E+03  0.12293311747E+04  0.79853617407E+03 0.  0.
         22    1    5    5    0    0  0.15496442130E+03  0.42276954991E+02 -0.98790646455E+02  0.18857599163E+03  0.00000000000E+00 0.  1.
         22    1    5    5    0    0 -0.10336293309E+03 -0.11542727863E+03  0.10291569358E+04  0.10407551830E+04  0.00000000000E+00 0.  1.
          5    1    4    4  502    0  0.26327938032E+02  0.54339889800E+01 -0.27312016661E+02  0.38609905612E+02  0.47000000000E+01 0. -1.
         -5    1    4    4    0  502 -0.77929426242E+02  0.67716334656E+02  0.56792180423E+02  0.11792344640E+03  0.47000000000E+01 0. -1.
<mgrwt>
<rscale>  0 0.99965758E+03</rscale>
<asrwt>0</asrwt>
<pdfrwt beam="1">  1        1 0.32770622E-01 0.99965758E+03</pdfrwt>
<pdfrwt beam="2">  1       -1 0.18043930E+00 0.99965758E+03</pdfrwt>
<totfact> 0.31208073E+01</totfact>
</mgrwt>
</event>
<event>
 9    1  0.4488205E-036  0.9998406E+03  0.7818608E-02  0.8681190E-01
         -2   -1    0    0    0  501 -0.00000000000E+00  0.00000000000E+00  0.36294971657E+03  0.36294971657E+03  0.00000000000E+00 0.  1.
          2   -1    0    0  501    0  0.00000000000E+00 -0.00000000000E+00 -0.68858111016E+03  0.68858111016E+03  0.00000000000E+00 0.  1.
         36    2    1    2    0    0  0.00000000000E+00 -0.14210854715E-13 -0.32563139359E+03  0.10515308267E+04  0.99984062483E+03 0.  0.
         25    2    3    3    0    0  0.64915489367E+02  0.11401215954E+03 -0.11900032949E+03  0.21644519367E+03  0.12439714692E+03 0.  0.
         35    2    3    3    0    0 -0.64915489367E+02 -0.11401215954E+03 -0.20663106410E+03  0.83508563305E+03  0.79841018568E+03 0.  0.
         22    1    5    5    0    0  0.21082264552E+03 -0.37439211588E+03 -0.11902468559E+03  0.44585033372E+03  0.00000000000E+00 0. -1.
         22    1    5    5    0    0 -0.27573813488E+03  0.26037995634E+03 -0.87606378513E+02  0.38923529934E+03  0.00000000000E+00 0. -1.
          5    1    4    4  502    0  0.88445824434E+02  0.42311114940E+02 -0.96282199970E+02  0.13749635027E+03  0.47000000000E+01 0. -1.
         -5    1    4    4    0  502 -0.23530335066E+02  0.71701044596E+02 -0.22718129521E+02  0.78948843395E+02  0.47000000000E+01 0. -1.
<mgrwt>
<rscale>  0 0.99984062E+03</rscale>
<asrwt>0</asrwt>
<pdfrwt beam="1">  1        2 0.10593556E+00 0.99984062E+03</pdfrwt>
<pdfrwt beam="2">  1       -2 0.55838418E-01 0.99984062E+03</pdfrwt>
<totfact> 0.15250928E+02</totfact>
</mgrwt>
</event>
<event>
 9    1  0.4488205E-036  0.1000196E+04  0.7818608E-02  0.8680851E-01
          2   -1    0    0  501    0  0.00000000000E+00  0.00000000000E+00  0.89937264705E+03  0.89937264705E+03  0.00000000000E+00 0. -1.
         -2   -1    0    0    0  501 -0.00000000000E+00 -0.00000000000E+00 -0.27808057703E+03  0.27808057703E+03  0.00000000000E+00 0. -1.
         36    2    1    2    0    0 -0.14210854715E-13 -0.17763568394E-13  0.62129207002E+03  0.11774532241E+04  0.10001961101E+04 0.  0.
         25    2    3    3    0    0 -0.91458157828E+02 -0.31866959857E+02  0.23729994701E+03  0.28462610429E+03  0.12377664007E+03 0.  0.
         35    2    3    3    0    0  0.91458157828E+02  0.31866959857E+02  0.38399212301E+03  0.89282711979E+03  0.80019386247E+03 0.  0.
         22    1    5    5    0    0  0.24929134327E+03  0.35625869757E+03  0.13801112211E+03  0.45619458924E+03  0.00000000000E+00 0. -1.
         22    1    5    5    0    0 -0.15783318544E+03 -0.32439173772E+03  0.24598100091E+03  0.43663253055E+03  0.00000000000E+00 0. -1.
          5    1    4    4  502    0 -0.43580434573E+02 -0.24889630879E+02  0.23001334288E+03  0.23547181553E+03  0.47000000000E+01 0. -1.
         -5    1    4    4    0  502 -0.47877723255E+02 -0.69773289785E+01  0.72866041224E+01  0.49154288759E+02  0.47000000000E+01 0. -1.
<mgrwt>
<rscale>  0 0.10001961E+04</rscale>
<asrwt>0</asrwt>
<pdfrwt beam="1">  1        2 0.13836502E+00 0.10001961E+04</pdfrwt>
<pdfrwt beam="2">  1       -2 0.42781628E-01 0.10001961E+04</pdfrwt>
<totfact> 0.18392218E+02</totfact>
</mgrwt>
</event>
<event>
 9    1  0.4488205E-036  0.1000594E+04  0.7818608E-02  0.8680473E-01
         -2   -1    0    0    0  501 -0.00000000000E+00  0.00000000000E+00  0.30428603607E+03  0.30428603607E+03  0.00000000000E+00 0.  1.
          2   -1    0    0  501    0  0.00000000000E+00 -0.00000000000E+00 -0.82257135023E+03  0.82257135023E+03  0.00000000000E+00 0.  1.
         36    2    1    2    0    0 -0.28421709430E-13 -0.14210854715E-13 -0.51828531416E+03  0.11268573863E+04  0.10005937748E+04 0.  0.
         25    2    3    3    0    0 -0.10131120495E+03 -0.80058666237E+02 -0.15684211687E+03  0.23865977204E+03  0.12524251225E+03 0.  0.
         35    2    3    3    0    0  0.10131120495E+03  0.80058666237E+02 -0.36144319728E+03  0.88819761426E+03  0.80098718269E+03 0.  0.
         22    1    5    5    0    0  0.44763178161E+03  0.85704896789E+02 -0.27089047682E+03  0.53018976949E+03  0.00000000000E+00 0. -1.
         22    1    5    5    0    0 -0.34632057666E+03 -0.56462305514E+01 -0.90552720459E+02  0.35800784477E+03  0.00000000000E+00 0. -1.
          5    1    4    4  502    0 -0.12299596981E+03 -0.76800857534E+02 -0.96391151155E+02  0.17418301963E+03  0.47000000000E+01 0. -1.
         -5    1    4    4    0  502  0.21684764857E+02 -0.32578087034E+01 -0.60450965720E+02  0.64476752407E+02  0.47000000000E+01 0. -1.
<mgrwt>
<rscale>  0 0.10005938E+04</rscale>
<asrwt>0</asrwt>
<pdfrwt beam="1">  1        2 0.12654944E+00 0.10005938E+04</pdfrwt>
<pdfrwt beam="2">  1       -2 0.46813236E-01 0.10005938E+04</pdfrwt>
<totfact> 0.17373113E+02</totfact>
</mgrwt>
</event>
<event>
 9    1  0.4488205E-036  0.1001255E+04  0.7818608E-02  0.8679844E-01
          1   -1    0    0  501    0  0.00000000000E+00  0.00000000000E+00  0.15856697774E+04  0.15856697774E+04  0.00000000000E+00 0. -1.
         -1   -1    0    0    0  501 -0.00000000000E+00 -0.00000000000E+00 -0.15805808565E+03  0.15805808565E+03  0.00000000000E+00 0. -1.
         36    2    1    2    0    0 -0.14210854715E-13  0.28421709430E-13  0.14276116918E+04  0.17437278631E+04  0.10012550714E+04 0.  0.
         25    2    3    3    0    0  0.61401105556E+02  0.10230369819E+03  0.40238002477E+03  0.43802493287E+03  0.12537948416E+03 0.  0.
         35    2    3    3    0    0 -0.61401105556E+02 -0.10230369819E+03  0.10252316670E+04  0.13057029302E+04  0.79970246249E+03 0.  0.
         22    1    5    5    0    0 -0.30846455647E+03 -0.34452952314E+03  0.59744074539E+03  0.75550408282E+03  0.00000000000E+00 0. -1.
         22    1    5    5    0    0  0.24706345092E+03  0.24222582495E+03  0.42779092163E+03  0.55019884741E+03  0.00000000000E+00 0. -1.
          5    1    4    4  502    0  0.61524291328E+02  0.10904140672E+03  0.20350601843E+03  0.23898128868E+03  0.47000000000E+01 0. -1.
         -5    1    4    4    0  502 -0.12318577270E+00 -0.67377085300E+01  0.19887400635E+03  0.19904364419E+03  0.47000000000E+01 0. -1.
<mgrwt>
<rscale>  0 0.10012551E+04</rscale>
<asrwt>0</asrwt>
<pdfrwt beam="1">  1        1 0.24394918E+00 0.10012551E+04</pdfrwt>
<pdfrwt beam="2">  1       -1 0.24316630E-01 0.10012551E+04</pdfrwt>
<totfact> 0.89989490E+01</totfact>
</mgrwt>
</event>
<event>
 9    1  0.4488205E-036  0.1000106E+04  0.7818608E-02  0.8680937E-01
         -2   -1    0    0    0  501 -0.00000000000E+00  0.00000000000E+00  0.25011163377E+03  0.25011163377E+03  0.00000000000E+00 0.  1.
          2   -1    0    0  501    0  0.00000000000E+00 -0.00000000000E+00 -0.99976526604E+03  0.99976526604E+03  0.00000000000E+00 0.  1.
         36    2    1    2    0    0 -0.42632564146E-13  0.71054273576E-14 -0.74965363227E+03  0.12498768998E+04  0.10001058426E+04 0.  0.
         25    2    3    3    0    0  0.99343136045E+02 -0.52970481136E+02 -0.76263649245E+02  0.19303289164E+03  0.13700592143E+03 0.  0.
         35    2    3    3    0    0 -0.99343136045E+02  0.52970481136E+02 -0.67338998302E+03  0.10568440082E+04  0.80671572306E+03 0.  0.
         22    1    5    5    0    0  0.23778664245E+03  0.23995624521E+03 -0.56173004941E+03  0.65548618243E+03  0.00000000000E+00 0. -1.
         22    1    5    5    0    0 -0.33712977849E+03 -0.18698576408E+03 -0.11165993361E+03  0.40135782575E+03  0.00000000000E+00 0. -1.
          5    1    4    4  502    0  0.12949493150E+03 -0.58799413807E+02 -0.77320917267E+02  0.16194728338E+03  0.47000000000E+01 0.  1.
         -5    1    4    4    0  502 -0.30151795451E+02  0.58289326712E+01  0.10572680211E+01  0.31085608256E+02  0.47000000000E+01 0.  1.
<mgrwt>
<rscale>  0 0.10001058E+04</rscale>
<asrwt>0</asrwt>
<pdfrwt beam="1">  1        2 0.15381004E+00 0.10001058E+04</pdfrwt>
<pdfrwt beam="2">  1       -2 0.38478713E-01 0.10001058E+04</pdfrwt>
<totfact> 0.19429617E+02</totfact>
</mgrwt>
</event>
<event>
 9    1  0.4488205E-036  0.1000099E+04  0.7818608E-02  0.8680943E-01
          2   -1    0    0  501    0  0.00000000000E+00  0.00000000000E+00  0.78676667576E+02  0.78676667576E+02  0.00000000000E+00 0.  1.
         -2   -1    0    0    0  501 -0.00000000000E+00 -0.00000000000E+00 -0.31781944943E+04  0.31781944943E+04  0.00000000000E+00 0.  1.
         36    2    1    2    0    0  0.14210854715E-13  0.14210854715E-13 -0.30995178267E+04  0.32568711619E+04  0.10000994985E+04 0.  0.
         25    2    3    3    0    0 -0.93684644135E+01 -0.10885145071E+03 -0.29775897459E+03  0.34087766185E+03  0.12490303019E+03 0.  0.
         35    2    3    3    0    0  0.93684644135E+01  0.10885145071E+03 -0.28017588521E+04  0.29159935000E+04  0.80076776924E+03 0.  0.
         22    1    5    5    0    0 -0.39475599616E+03  0.66569127334E+02 -0.13009282388E+04  0.13611311574E+04  0.00000000000E+00 0. -1.
         22    1    5    5    0    0  0.40412446058E+03  0.42282323372E+02 -0.15008306133E+04  0.15548623426E+04  0.00000000000E+00 0. -1.
          5    1    4    4  502    0 -0.49221485180E+02 -0.54130169307E+01 -0.13524609791E+03  0.14410292279E+03  0.47000000000E+01 0. -1.
         -5    1    4    4    0  502  0.39853020766E+02 -0.10343843378E+03 -0.16251287668E+03  0.19677473906E+03  0.47000000000E+01 0. -1.
<mgrwt>
<rscale>  0 0.10000995E+04</rscale>
<asrwt>0</asrwt>
<pdfrwt beam="1">  1        2 0.12104102E-01 0.10000995E+04</pdfrwt>
<pdfrwt beam="2">  1       -2 0.48895303E+00 0.10000995E+04</pdfrwt>
<totfact> 0.20690586E+00</totfact>
</mgrwt>
</event>
<event>
 9    1  0.4488205E-036  0.9985653E+03  0.7818608E-02  0.8682405E-01
          2   -1    0    0  501    0  0.00000000000E+00  0.00000000000E+00  0.22065110653E+04  0.22065110653E+04  0.00000000000E+00 0.  1.
         -2   -1    0    0    0  501 -0.00000000000E+00 -0.00000000000E+00 -0.11297617030E+03  0.11297617030E+03  0.00000000000E+00 0.  1.
         36    2    1    2    0    0  0.00000000000E+00 -0.31974423109E-13  0.20935348950E+04  0.23194872356E+04  0.99856531060E+03 0.  0.
         25    2    3    3    0    0  0.10499576784E+03  0.31643112258E+02  0.59137287462E+03  0.61345155961E+03  0.12072920664E+03 0.  0.
         35    2    3    3    0    0 -0.10499576784E+03 -0.31643112258E+02  0.15021620204E+04  0.17060356760E+04  0.80127498055E+03 0.  0.
         22    1    5    5    0    0 -0.53424560110E+02 -0.40962460938E+03  0.62108265768E+03  0.74591566005E+03  0.00000000000E+00 0. -1.
         22    1    5    5    0    0 -0.51571207731E+02  0.37798149712E+03  0.88107936272E+03  0.96012001596E+03  0.00000000000E+00 0. -1.
          5    1    4    4  502    0  0.46411673237E+02  0.61658950277E+02  0.16764358548E+03  0.18461400628E+03  0.47000000000E+01 0.  1.
         -5    1    4    4    0  502  0.58584094604E+02 -0.30015838018E+02  0.42372928914E+03  0.42883755333E+03  0.47000000000E+01 0.  1.
<mgrwt>
<rscale>  0 0.99856531E+03</rscale>
<asrwt>0</asrwt>
<pdfrwt beam="1">  1        2 0.33946321E+00 0.99856531E+03</pdfrwt>
<pdfrwt beam="2">  1       -2 0.17380951E-01 0.99856531E+03</pdfrwt>
<totfact> 0.16225538E+02</totfact>
</mgrwt>
</event>
<event>
 9    1  0.4488205E-036  0.9993367E+03  0.7818608E-02  0.8681670E-01
          2   -1    0    0  501    0  0.00000000000E+00  0.00000000000E+00  0.16066830821E+04  0.16066830821E+04  0.00000000000E+00 0. -1.
         -2   -1    0    0    0  501 -0.00000000000E+00 -0.00000000000E+00 -0.15539371094E+03  0.15539371094E+03  0.00000000000E+00 0. -1.
         36    2    1    2    0    0 -0.14210854715E-13  0.00000000000E+00  0.14512893712E+04  0.17620767930E+04  0.99933667287E+03 0.  0.
         25    2    3    3    0    0 -0.84453724883E+02  0.42391490622E+02  0.40594265237E+03  0.43539952020E+03  0.12591201315E+03 0.  0.
         35    2    3    3    0    0  0.84453724883E+02 -0.42391490622E+02  0.10453467188E+04  0.13266772728E+04  0.81141441549E+03 0.  0.
         22    1    5    5    0    0 -0.26497482916E+03 -0.46170385235E+02  0.91499458173E+03  0.95370773781E+03  0.00000000000E+00 0. -1.
         22    1    5    5    0    0  0.34942855404E+03  0.37788946125E+01  0.13035213706E+03  0.37296953503E+03  0.00000000000E+00 0. -1.
          5    1    4    4  502    0  0.19021488553E+02 -0.10751203858E+02  0.17849435025E+03  0.17988809990E+03  0.47000000000E+01 0. -1.
         -5    1    4    4    0  502 -0.10347521344E+03  0.53142694480E+02  0.22744830211E+03  0.25551142031E+03  0.47000000000E+01 0. -1.
<mgrwt>
<rscale>  0 0.99933667E+03</rscale>
<asrwt>0</asrwt>
<pdfrwt beam="1">  1        2 0.24718200E+00 0.99933667E+03</pdfrwt>
<pdfrwt beam="2">  1       -2 0.23906726E-01 0.99933667E+03</pdfrwt>
<totfact> 0.20475598E+02</totfact>
</mgrwt>
</event>
<event>
 9    1  0.4488205E-036  0.9997177E+03  0.7818608E-02  0.8681307E-01
          2   -1    0    0  501    0  0.00000000000E+00  0.00000000000E+00  0.75823707643E+03  0.75823707643E+03  0.00000000000E+00 0.  1.
         -2   -1    0    0    0  501 -0.00000000000E+00 -0.00000000000E+00 -0.32952606222E+03  0.32952606222E+03  0.00000000000E+00 0.  1.
         36    2    1    2    0    0 -0.17763568394E-13  0.00000000000E+00  0.42871101421E+03  0.10877631386E+04  0.99971771620E+03 0.  0.
         25    2    3    3    0    0 -0.23776425394E+02 -0.14217510534E+03  0.99574566237E+02  0.21608057786E+03  0.12647783562E+03 0.  0.
         35    2    3    3    0    0  0.23776425394E+02  0.14217510534E+03  0.32913644797E+03  0.87168256079E+03  0.79417920296E+03 0.  0.
         22    1    5    5    0    0  0.19912450424E+03  0.40668362746E+03  0.62345883227E+02  0.45708768326E+03  0.00000000000E+00 0.  1.
         22    1    5    5    0    0 -0.17534807885E+03 -0.26450852212E+03  0.26679056475E+03  0.41459487752E+03  0.00000000000E+00 0.  1.
          5    1    4    4  502    0  0.21133734643E+02 -0.26569201695E+02  0.84339326077E+02  0.91037185489E+02  0.47000000000E+01 0.  1.
         -5    1    4    4    0  502 -0.44910160037E+02 -0.11560590365E+03  0.15235240160E+02  0.12504339237E+03  0.47000000000E+01 0.  1.
<mgrwt>
<rscale>  0 0.99971772E+03</rscale>
<asrwt>0</asrwt>
<pdfrwt beam="1">  1        2 0.11665186E+00 0.99971772E+03</pdfrwt>
<pdfrwt beam="2">  1       -2 0.50696317E-01 0.99971772E+03</pdfrwt>
<totfact> 0.16461463E+02</totfact>
</mgrwt>
</event>
<event>
 9    1  0.4488205E-036  0.9997711E+03  0.7818608E-02  0.8681256E-01
          1   -1    0    0  501    0  0.00000000000E+00  0.00000000000E+00  0.22016173378E+04  0.22016173378E+04  0.00000000000E+00 0. -1.
         -1   -1    0    0    0  501 -0.00000000000E+00 -0.00000000000E+00 -0.11350090055E+03  0.11350090055E+03  0.00000000000E+00 0. -1.
         36    2    1    2    0    0 -0.14210854715E-13 -0.28421709430E-13  0.20881164372E+04  0.23151182383E+04  0.99977107479E+03 0.  0.
         25    2    3    3    0    0 -0.91806423582E+02 -0.10416459994E+03  0.43218422552E+03  0.47107978095E+03  0.12591374802E+03 0.  0.
         35    2    3    3    0    0  0.91806423582E+02  0.10416459994E+03  0.16559322117E+04  0.18440384574E+04  0.79942958363E+03 0.  0.
         22    1    5    5    0    0 -0.22030874030E+03  0.34738376282E+03  0.74849605182E+03  0.85408299322E+03  0.00000000000E+00 0. -1.
         22    1    5    5    0    0  0.31211516388E+03 -0.24321916288E+03  0.90743615989E+03  0.98995546415E+03  0.00000000000E+00 0. -1.
          5    1    4    4  502    0 -0.27361549278E+02 -0.81734391051E+02  0.10079742740E+03  0.13270786122E+03  0.47000000000E+01 0. -1.
         -5    1    4    4    0  502 -0.64444874304E+02 -0.22430208893E+02  0.33138679812E+03  0.33837191973E+03  0.47000000000E+01 0. -1.
<mgrwt>
<rscale>  0 0.99977107E+03</rscale>
<asrwt>0</asrwt>
<pdfrwt beam="1">  1        1 0.33871033E+00 0.99977107E+03</pdfrwt>
<pdfrwt beam="2">  1       -1 0.17461679E-01 0.99977107E+03</pdfrwt>
<totfact> 0.57484069E+01</totfact>
</mgrwt>
</event>
<event>
 9    1  0.4488205E-036  0.1000082E+04  0.7818608E-02  0.8680960E-01
         -2   -1    0    0    0  501 -0.00000000000E+00  0.00000000000E+00  0.14044013961E+03  0.14044013961E+03  0.00000000000E+00 0.  1.
          2   -1    0    0  501    0  0.00000000000E+00 -0.00000000000E+00 -0.17804091563E+04  0.17804091563E+04  0.00000000000E+00 0.  1.
         36    2    1    2    0    0  0.35527136788E-14  0.56843418861E-13 -0.16399690167E+04  0.19208492959E+04  0.10000818176E+04 0.  0.
         25    2    3    3    0    0 -0.31098304446E+02 -0.13454746786E+03 -0.35241784485E+03  0.39837557087E+03  0.12423619619E+03 0.  0.
         35    2    3    3    0    0  0.31098304446E+02  0.13454746786E+03 -0.12875511718E+04  0.15224737250E+04  0.80066728275E+03 0.  0.
         22    1    5    5    0    0 -0.50476150793E+01  0.45716478846E+03 -0.54047202548E+03  0.70790898607E+03  0.00000000000E+00 0.  1.
         22    1    5    5    0    0  0.36145919525E+02 -0.32261732060E+03 -0.74707914634E+03  0.81456473895E+03  0.00000000000E+00 0.  1.
          5    1    4    4  502    0  0.37830779811E+02 -0.39891886447E+02 -0.19161775680E+03  0.19940407525E+03  0.47000000000E+01 0.  1.
         -5    1    4    4    0  502 -0.68929084257E+02 -0.94655581418E+02 -0.16080008805E+03  0.19897149562E+03  0.47000000000E+01 0.  1.
<mgrwt>
<rscale>  0 0.10000818E+04</rscale>
<asrwt>0</asrwt>
<pdfrwt beam="1">  1        2 0.27390909E+00 0.10000818E+04</pdfrwt>
<pdfrwt beam="2">  1       -2 0.21606176E-01 0.10000818E+04</pdfrwt>
<totfact> 0.19518087E+02</totfact>
</mgrwt>
</event>
<event>
 9    1  0.4488205E-036  0.1002351E+04  0.7818608E-02  0.8678802E-01
          2   -1    0    0  501    0  0.00000000000E+00  0.00000000000E+00  0.51616703747E+03  0.51616703747E+03  0.00000000000E+00 0.  1.
         -2   -1    0    0    0  501 -0.00000000000E+00 -0.00000000000E+00 -0.48661957226E+03  0.48661957226E+03  0.00000000000E+00 0.  1.
         36    2    1    2    0    0  0.24868995752E-13 -0.71054273576E-14  0.29547465212E+02  0.10027866097E+04  0.10023512019E+04 0.  0.
         25    2    3    3    0    0  0.11099335217E+02 -0.20670214855E+02 -0.13292027235E+03  0.18646863519E+03  0.12865574253E+03 0.  0.
         35    2    3    3    0    0 -0.11099335217E+02  0.20670214855E+02  0.16246773756E+03  0.81631797453E+03  0.79964293079E+03 0.  0.
         22    1    5    5    0    0 -0.26695529482E+03  0.15806105568E+03 -0.18676106973E+03  0.36211617462E+03  0.00000000000E+00 0.  1.
         22    1    5    5    0    0  0.25585595960E+03 -0.13739084083E+03  0.34922880728E+03  0.45420179991E+03  0.00000000000E+00 0.  1.
          5    1    4    4  502    0 -0.17336711592E+02 -0.41553313122E+02 -0.14257576681E+03  0.14959003537E+03  0.47000000000E+01 0. -1.
         -5    1    4    4    0  502  0.28436046809E+02  0.20883098267E+02  0.96554944663E+01  0.36878599821E+02  0.47000000000E+01 0. -1.
<mgrwt>
<rscale>  0 0.10023512E+04</rscale>
<asrwt>0</asrwt>
<pdfrwt beam="1">  1        2 0.79410313E-01 0.10023512E+04</pdfrwt>
<pdfrwt beam="2">  1       -2 0.74864550E-01 0.10023512E+04</pdfrwt>
<totfact> 0.11492087E+02</totfact>
</mgrwt>
</event>
<event>
 9    1  0.4488205E-036  0.9992604E+03  0.7818608E-02  0.8681743E-01
          2   -1    0    0  501    0  0.00000000000E+00  0.00000000000E+00  0.17628532873E+04  0.17628532873E+04  0.00000000000E+00 0. -1.
         -2   -1    0    0    0  501 -0.00000000000E+00 -0.00000000000E+00 -0.14160584548E+03  0.14160584548E+03  0.00000000000E+00 0. -1.
         36    2    1    2    0    0  0.00000000000E+00  0.00000000000E+00  0.16212474418E+04  0.19044591327E+04  0.99926038690E+03 0.  0.
         25    2    3    3    0    0 -0.90062298371E+02 -0.97818737211E+02  0.38978689352E+03  0.43016243550E+03  0.12420215624E+03 0.  0.
         35    2    3    3    0    0  0.90062298371E+02  0.97818737211E+02  0.12314605482E+04  0.14742966972E+04  0.79960987154E+03 0.  0.
         22    1    5    5    0    0  0.15613044492E+03  0.26640858345E+03  0.12543350440E+04  0.12917842900E+04  0.00000000000E+00 0. -1.
         22    1    5    5    0    0 -0.66068146546E+02 -0.16858984624E+03 -0.22874495790E+02  0.18251240725E+03  0.00000000000E+00 0. -1.
          5    1    4    4  502    0 -0.50841083330E+02  0.22111681494E+02  0.11501499415E+03  0.12776651005E+03  0.47000000000E+01 0.  1.
         -5    1    4    4    0  502 -0.39221215041E+02 -0.11993041871E+03  0.27477189937E+03  0.30239592544E+03  0.47000000000E+01 0.  1.
<mgrwt>
<rscale>  0 0.99926039E+03</rscale>
<asrwt>0</asrwt>
<pdfrwt beam="1">  1        2 0.27120818E+00 0.99926039E+03</pdfrwt>
<pdfrwt beam="2">  1       -2 0.21785516E-01 0.99926039E+03</pdfrwt>
<totfact> 0.19682213E+02</totfact>
</mgrwt>
</event>
<event>
 9    1  0.4488205E-036  0.1000264E+04  0.7818608E-02  0.8680787E-01
          2   -1    0    0  501    0  0.00000000000E+00  0.00000000000E+00  0.31017107838E+03  0.31017107838E+03  0.00000000000E+00 0. -1.
         -2   -1    0    0    0  501 -0.00000000000E+00 -0.00000000000E+00 -0.80643212543E+03  0.80643212543E+03  0.00000000000E+00 0. -1.
         36    2    1    2    0    0  0.14210854715E-13  0.28421709430E-13 -0.49626104706E+03  0.11166032038E+04  0.10002638092E+04 0.  0.
         25    2    3    3    0    0  0.99327208549E+02  0.60553214416E+02 -0.20481153772E+03  0.26665528605E+03  0.12499875784E+03 0.  0.
         35    2    3    3    0    0 -0.99327208549E+02 -0.60553214416E+02 -0.29144950933E+03  0.84994791776E+03  0.78989623387E+03 0.  0.
         22    1    5    5    0    0  0.83719528982E+02 -0.18588267901E+03  0.21545958207E+03  0.29662124231E+03  0.00000000000E+00 0.  1.
         22    1    5    5    0    0 -0.18304673753E+03  0.12532946459E+03 -0.50690909140E+03  0.55332667544E+03  0.00000000000E+00 0.  1.
          5    1    4    4  502    0  0.23328639802E+02  0.75090179784E+02 -0.15679613185E+03  0.17547044622E+03  0.47000000000E+01 0.  1.
         -5    1    4    4    0  502  0.75998568747E+02 -0.14536965369E+02 -0.48015405879E+02  0.91184839834E+02  0.47000000000E+01 0.  1.
<mgrwt>
<rscale>  0 0.10002638E+04</rscale>
<asrwt>0</asrwt>
<pdfrwt beam="1">  1        2 0.47718628E-01 0.10002638E+04</pdfrwt>
<pdfrwt beam="2">  1       -2 0.12406648E+00 0.10002638E+04</pdfrwt>
<totfact> 0.60023245E+01</totfact>
</mgrwt>
</event>
<event>
 9    1  0.4488205E-036  0.9988988E+03  0.7818608E-02  0.8682087E-01
         -2   -1    0    0    0  501 -0.00000000000E+00  0.00000000000E+00  0.49567797567E+03  0.49567797567E+03  0.00000000000E+00 0. -1.
          2   -1    0    0  501    0  0.00000000000E+00 -0.00000000000E+00 -0.50324949959E+03  0.50324949959E+03  0.00000000000E+00 0. -1.
         36    2    1    2    0    0  0.00000000000E+00 -0.71054273576E-14 -0.75715239236E+01  0.99892747526E+03  0.99889878009E+03 0.  0.
         25    2    3    3    0    0 -0.72350027712E+02 -0.44558473483E+02 -0.11182602316E+03  0.18825014238E+03  0.12535179529E+03 0.  0.
         35    2    3    3    0    0  0.72350027712E+02  0.44558473483E+02  0.10425449923E+03  0.81067733288E+03  0.79944277680E+03 0.  0.
         22    1    5    5    0    0  0.43003197222E+03  0.59403196811E+02  0.12598939201E+03  0.45202827768E+03  0.00000000000E+00 0.  1.
         22    1    5    5    0    0 -0.35768194451E+03 -0.14844723327E+02 -0.21734892774E+02  0.35864905521E+03  0.00000000000E+00 0.  1.
          5    1    4    4  502    0 -0.10373099007E+03 -0.40139245299E+02 -0.10946184980E+03  0.15612579504E+03  0.47000000000E+01 0.  1.
         -5    1    4    4    0  502  0.31380962361E+02 -0.44192281838E+01 -0.23641733591E+01  0.32124347342E+02  0.47000000000E+01 0.  1.
<mgrwt>
<rscale>  0 0.99889878E+03</rscale>
<asrwt>0</asrwt>
<pdfrwt beam="1">  1        2 0.77423000E-01 0.99889878E+03</pdfrwt>
<pdfrwt beam="2">  1       -2 0.76258150E-01 0.99889878E+03</pdfrwt>
<totfact> 0.11355599E+02</totfact>
</mgrwt>
</event>
<event>
 9    1  0.4488205E-036  0.9990820E+03  0.7818608E-02  0.8681913E-01
         -1   -1    0    0    0  501 -0.00000000000E+00  0.00000000000E+00  0.39153470754E+03  0.39153470754E+03  0.00000000000E+00 0.  1.
          1   -1    0    0  501    0  0.00000000000E+00 -0.00000000000E+00 -0.63734116894E+03  0.63734116894E+03  0.00000000000E+00 0.  1.
         36    2    1    2    0    0  0.71054273576E-14  0.00000000000E+00 -0.24580646140E+03  0.10288758765E+04  0.99908195497E+03 0.  0.
         25    2    3    3    0    0 -0.77744699639E+01 -0.98259600937E+01 -0.18932708394E+03  0.22690709457E+03  0.12443911353E+03 0.  0.
         35    2    3    3    0    0  0.77744699639E+01  0.98259600937E+01 -0.56479377456E+02  0.80196878192E+03  0.79987937542E+03 0.  0.
         22    1    5    5    0    0 -0.90408688622E+02 -0.90194398989E+02  0.34969957444E+03  0.37228826593E+03  0.00000000000E+00 0.  1.
         22    1    5    5    0    0  0.98183158586E+02  0.10002035908E+03 -0.40617895189E+03  0.42968051599E+03  0.00000000000E+00 0.  1.
          5    1    4    4  502    0 -0.42226476282E+02  0.18758998190E+02 -0.18073813858E+02  0.49837014955E+02  0.47000000000E+01 0.  1.
         -5    1    4    4    0  502  0.34452006318E+02 -0.28584958284E+02 -0.17125327009E+03  0.17707007961E+03  0.47000000000E+01 0.  1.
<mgrwt>
<rscale>  0 0.99908195E+03</rscale>
<asrwt>0</asrwt>
<pdfrwt beam="1">  1        1 0.98052487E-01 0.99908195E+03</pdfrwt>
<pdfrwt beam="2">  1       -1 0.60236109E-01 0.99908195E+03</pdfrwt>
<totfact> 0.10148705E+02</totfact>
</mgrwt>
</event>
<event>
 9    1  0.4488205E-036  0.1000066E+04  0.7818608E-02  0.8680975E-01
          2   -1    0    0  501    0  0.00000000000E+00  0.00000000000E+00  0.26202557964E+04  0.26202557964E+04  0.00000000000E+00 0. -1.
         -2   -1    0    0    0  501 -0.00000000000E+00 -0.00000000000E+00 -0.95423094814E+02  0.95423094814E+02  0.00000000000E+00 0. -1.
         36    2    1    2    0    0  0.14210854715E-13  0.00000000000E+00  0.25248327016E+04  0.27156788912E+04  0.10000658324E+04 0.  0.
         25    2    3    3    0    0 -0.80236326735E+02  0.73276699340E+02  0.23239668356E+03  0.28517846540E+03  0.12454395130E+03 0.  0.
         35    2    3    3    0    0  0.80236326735E+02 -0.73276699340E+02  0.22924360180E+04  0.24305004258E+04  0.80016378345E+03 0.  0.
         22    1    5    5    0    0 -0.21138890207E+03  0.24792054210E+03  0.14104440185E+04  0.14475849517E+04  0.00000000000E+00 0. -1.
         22    1    5    5    0    0  0.29162522881E+03 -0.32119724144E+03  0.88199199950E+03  0.98291547407E+03  0.00000000000E+00 0. -1.
          5    1    4    4  502    0 -0.26600873008E+02  0.31944797080E+02  0.20936100178E+03  0.21349987253E+03  0.47000000000E+01 0.  1.
         -5    1    4    4    0  502 -0.53635453727E+02  0.41331902260E+02  0.23035681786E+02  0.71678592873E+02  0.47000000000E+01 0.  1.
<mgrwt>
<rscale>  0 0.10000658E+04</rscale>
<asrwt>0</asrwt>
<pdfrwt beam="1">  1        2 0.40311622E+00 0.10000658E+04</pdfrwt>
<pdfrwt beam="2">  1       -2 0.14680478E-01 0.10000658E+04</pdfrwt>
<totfact> 0.12177052E+02</totfact>
</mgrwt>
</event>
<event>
 9    1  0.4488205E-036  0.9998484E+03  0.7818608E-02  0.8681182E-01
         -2   -1    0    0    0  501 -0.00000000000E+00  0.00000000000E+00  0.28361965114E+03  0.28361965114E+03  0.00000000000E+00 0. -1.
          2   -1    0    0  501    0  0.00000000000E+00 -0.00000000000E+00 -0.88119497520E+03  0.88119497520E+03  0.00000000000E+00 0. -1.
         36    2    1    2    0    0 -0.10658141036E-13  0.28421709430E-13 -0.59757532406E+03  0.11648146263E+04  0.99984841141E+03 0.  0.
         25    2    3    3    0    0 -0.31382813579E+02  0.10867464957E+03 -0.17196385486E+02  0.16936313727E+03  0.12487231937E+03 0.  0.
         35    2    3    3    0    0  0.31382813579E+02 -0.10867464957E+03 -0.58037893857E+03  0.99545148907E+03  0.80080515377E+03 0.  0.
         22    1    5    5    0    0  0.21598707719E+03 -0.39915045340E+03 -0.24891536438E+03  0.51761989972E+03  0.00000000000E+00 0.  1.
         22    1    5    5    0    0 -0.18460426361E+03  0.29047580384E+03 -0.33146357420E+03  0.47783158935E+03  0.00000000000E+00 0.  1.
          5    1    4    4  502    0  0.60858697244E+01  0.61394555028E+02 -0.66849266505E+02  0.91089206988E+02  0.47000000000E+01 0. -1.
         -5    1    4    4    0  502 -0.37468683304E+02  0.47280094540E+02  0.49652881019E+02  0.78273930282E+02  0.47000000000E+01 0. -1.
<mgrwt>
<rscale>  0 0.99984841E+03</rscale>
<asrwt>0</asrwt>
<pdfrwt beam="1">  1        2 0.13556845E+00 0.99984841E+03</pdfrwt>
<pdfrwt beam="2">  1       -2 0.43633793E-01 0.99984841E+03</pdfrwt>
<totfact> 0.18198480E+02</totfact>
</mgrwt>
</event>
<event>
 9    1  0.4488205E-036  0.9990959E+03  0.7818608E-02  0.8681899E-01
         -2   -1    0    0    0  501 -0.00000000000E+00  0.00000000000E+00  0.22398273569E+03  0.22398273569E+03  0.00000000000E+00 0.  1.
          2   -1    0    0  501    0  0.00000000000E+00 -0.00000000000E+00 -0.11141402240E+04  0.11141402240E+04  0.00000000000E+00 0.  1.
         36    2    1    2    0    0  0.17763568394E-13  0.00000000000E+00 -0.89015748830E+03  0.13381229597E+04  0.99909594195E+03 0.  0.
         25    2    3    3    0    0  0.52055892475E+01  0.13960104866E+03 -0.15198421984E+03  0.24129315842E+03  0.12493051779E+03 0.  0.
         35    2    3    3    0    0 -0.52055892475E+01 -0.13960104866E+03 -0.73817326846E+03  0.10968298012E+04  0.79913721455E+03 0.  0.
         22    1    5    5    0    0  0.13405763122E+03 -0.13580811571E+03  0.12131414321E+03  0.22612477557E+03  0.00000000000E+00 0. -1.
         22    1    5    5    0    0 -0.13926322047E+03 -0.37929329543E+01 -0.85948741167E+03  0.87070502568E+03  0.00000000000E+00 0. -1.
          5    1    4    4  502    0  0.30357569042E+02  0.69588061218E+02 -0.14828752284E+03  0.16665941225E+03  0.47000000000E+01 0. -1.
         -5    1    4    4    0  502 -0.25151979795E+02  0.70012987446E+02 -0.36966969978E+01  0.74633746170E+02  0.47000000000E+01 0. -1.
<mgrwt>
<rscale>  0 0.99909594E+03</rscale>
<asrwt>0</asrwt>
<pdfrwt beam="1">  1        2 0.17140619E+00 0.99909594E+03</pdfrwt>
<pdfrwt beam="2">  1       -2 0.34458883E-01 0.99909594E+03</pdfrwt>
<totfact> 0.20330803E+02</totfact>
</mgrwt>
</event>
<event>
 9    1  0.4488205E-036  0.9995305E+03  0.7818608E-02  0.8681485E-01
          2   -1    0    0  501    0  0.00000000000E+00  0.00000000000E+00  0.18852613356E+03  0.18852613356E+03  0.00000000000E+00 0.  1.
         -2   -1    0    0    0  501 -0.00000000000E+00 -0.00000000000E+00 -0.13248312371E+04  0.13248312371E+04  0.00000000000E+00 0.  1.
         36    2    1    2    0    0  0.28421709430E-13 -0.28421709430E-13 -0.11363051035E+04  0.15133573707E+04  0.99953051130E+03 0.  0.
         25    2    3    3    0    0 -0.98614220084E+02  0.92635938928E+02 -0.16545205320E+03  0.24606051492E+03  0.12192298188E+03 0.  0.
         35    2    3    3    0    0  0.98614220084E+02 -0.92635938928E+02 -0.97085305033E+03  0.12672968557E+04  0.80323066030E+03 0.  0.
         22    1    5    5    0    0 -0.14335861687E+03 -0.36388073138E+03 -0.73913623202E+03  0.83623157629E+03  0.00000000000E+00 0. -1.
         22    1    5    5    0    0  0.24197283696E+03  0.27124479245E+03 -0.23171681830E+03  0.43106527944E+03  0.00000000000E+00 0. -1.
          5    1    4    4  502    0 -0.42690884677E+01 -0.49317715403E+01  0.16888655967E+02  0.18704656833E+02  0.47000000000E+01 0. -1.
         -5    1    4    4    0  502 -0.94345131616E+02  0.97567710468E+02 -0.18234070917E+03  0.22735585809E+03  0.47000000000E+01 0. -1.
<mgrwt>
<rscale>  0 0.99953051E+03</rscale>
<asrwt>0</asrwt>
<pdfrwt beam="1">  1        2 0.29004020E-01 0.99953051E+03</pdfrwt>
<pdfrwt beam="2">  1       -2 0.20382019E+00 0.99953051E+03</pdfrwt>
<totfact> 0.25253908E+01</totfact>
</mgrwt>
</event>
<event>
 9    1  0.4488205E-036  0.9998768E+03  0.7818608E-02  0.8681155E-01
          1   -1    0    0  501    0  0.00000000000E+00  0.00000000000E+00  0.17135801114E+04  0.17135801114E+04  0.00000000000E+00 0.  1.
         -1   -1    0    0    0  501 -0.00000000000E+00 -0.00000000000E+00 -0.14585742776E+03  0.14585742776E+03  0.00000000000E+00 0.  1.
         36    2    1    2    0    0  0.00000000000E+00  0.42632564146E-13  0.15677226836E+04  0.18594375391E+04  0.99987676701E+03 0.  0.
         25    2    3    3    0    0 -0.71841405032E+02  0.22115014094E+02  0.52138351180E+03  0.54091907591E+03  0.12289189955E+03 0.  0.
         35    2    3    3    0    0  0.71841405032E+02 -0.22115014094E+02  0.10463391718E+04  0.13185184632E+04  0.79875842034E+03 0.  0.
         22    1    5    5    0    0  0.16297823615E+03  0.29866820340E+03  0.16892512350E+03  0.37986879120E+03  0.00000000000E+00 0. -1.
         22    1    5    5    0    0 -0.91136831116E+02 -0.32078321749E+03  0.87741404830E+03  0.93864967201E+03  0.00000000000E+00 0. -1.
          5    1    4    4  502    0 -0.57228977442E+02 -0.20213817274E+02  0.46401452287E+03  0.46799072822E+03  0.47000000000E+01 0. -1.
         -5    1    4    4    0  502 -0.14612427591E+02  0.42328831368E+02  0.57368988939E+02  0.72928347691E+02  0.47000000000E+01 0. -1.
<mgrwt>
<rscale>  0 0.99987677E+03</rscale>
<asrwt>0</asrwt>
<pdfrwt beam="1">  1        1 0.26362770E+00 0.99987677E+03</pdfrwt>
<pdfrwt beam="2">  1       -1 0.22439605E-01 0.99987677E+03</pdfrwt>
<totfact> 0.83597257E+01</totfact>
</mgrwt>
</event>
<event>
 9    1  0.4488205E-036  0.1000043E+04  0.7818608E-02  0.8680997E-01
          1   -1    0    0  501    0  0.00000000000E+00  0.00000000000E+00  0.98776270617E+03  0.98776270617E+03  0.00000000000E+00 0. -1.
         -1   -1    0    0    0  501 -0.00000000000E+00 -0.00000000000E+00 -0.25311899416E+03  0.25311899416E+03  0.00000000000E+00 0. -1.
         36    2    1    2    0    0  0.00000000000E+00  0.00000000000E+00  0.73464371201E+03  0.12408817003E+04  0.10000430044E+04 0.  0.
         25    2    3    3    0    0 -0.61583055955E+02 -0.12458271676E+03  0.12221089673E+03  0.22342564864E+03  0.12518063387E+03 0.  0.
         35    2    3    3    0    0  0.61583055955E+02  0.12458271676E+03  0.61243281529E+03  0.10174560517E+04  0.80051829322E+03 0.  0.
         22    1    5    5    0    0  0.17433284428E+03  0.10612024933E+03 -0.14569997237E+03  0.25076269631E+03  0.00000000000E+00 0. -1.
         22    1    5    5    0    0 -0.11274978832E+03  0.18462467429E+02  0.75813278765E+03  0.76669335538E+03  0.00000000000E+00 0. -1.
          5    1    4    4  502    0 -0.79812430004E+02 -0.11242246089E+03  0.13868326520E+03  0.19561178835E+03  0.47000000000E+01 0. -1.
         -5    1    4    4    0  502  0.18229374049E+02 -0.12160255876E+02 -0.16472368476E+02  0.27813860292E+02  0.47000000000E+01 0. -1.
<mgrwt>
<rscale>  0 0.10000430E+04</rscale>
<asrwt>0</asrwt>
<pdfrwt beam="1">  1        1 0.15196349E+00 0.10000430E+04</pdfrwt>
<pdfrwt beam="2">  1       -1 0.38941384E-01 0.10000430E+04</pdfrwt>
<totfact> 0.11087313E+02</totfact>
</mgrwt>
</event>
<event>
 9    1  0.4488205E-036  0.1000145E+04  0.7818608E-02  0.8680900E-01
         -2   -1    0    0    0  501 -0.00000000000E+00  0.00000000000E+00  0.33698939089E+03  0.33698939089E+03  0.00000000000E+00 0. -1.
          2   -1    0    0  501    0  0.00000000000E+00 -0.00000000000E+00 -0.74207773972E+03  0.74207773972E+03  0.00000000000E+00 0. -1.
         36    2    1    2    0    0  0.28421709430E-13  0.00000000000E+00 -0.40508834883E+03  0.10790671306E+04  0.10001446405E+04 0.  0.
         25    2    3    3    0    0  0.72671311502E+02  0.11863397084E+03 -0.81828769768E+02  0.20459858291E+03  0.12573581040E+03 0.  0.
         35    2    3    3    0    0 -0.72671311502E+02 -0.11863397084E+03 -0.32325957906E+03  0.87446854770E+03  0.80052691829E+03 0.  0.
         22    1    5    5    0    0  0.28108090332E+03  0.18805598002E+03 -0.82963266474E+02  0.34821606714E+03  0.00000000000E+00 0. -1.
         22    1    5    5    0    0 -0.35375221482E+03 -0.30668995086E+03 -0.24029631259E+03  0.52625248056E+03  0.00000000000E+00 0. -1.
          5    1    4    4  502    0 -0.16830952813E+02 -0.35801548259E+01 -0.45325328279E+02  0.48709073742E+02  0.47000000000E+01 0. -1.
         -5    1    4    4    0  502  0.89502264316E+02  0.12221412566E+03 -0.36503441489E+02  0.15588950917E+03  0.47000000000E+01 0. -1.
<mgrwt>
<rscale>  0 0.10001446E+04</rscale>
<asrwt>0</asrwt>
<pdfrwt beam="1">  1        2 0.11416580E+00 0.10001446E+04</pdfrwt>
<pdfrwt beam="2">  1       -2 0.51844522E-01 0.10001446E+04</pdfrwt>
<totfact> 0.16168428E+02</totfact>
</mgrwt>
</event>
<event>
 9    1  0.4488205E-036  0.9999381E+03  0.7818608E-02  0.8681097E-01
         -2   -1    0    0    0  501 -0.00000000000E+00  0.00000000000E+00  0.40590573763E+03  0.40590573763E+03  0.00000000000E+00 0.  1.
          2   -1    0    0  501    0  0.00000000000E+00 -0.00000000000E+00 -0.61583031591E+03  0.61583031591E+03  0.00000000000E+00 0.  1.
         36    2    1    2    0    0 -0.71054273576E-14 -0.14210854715E-13 -0.20992457828E+03  0.10217360535E+04  0.99993811535E+03 0.  0.
         25    2    3    3    0    0 -0.35847073966E+02  0.10762294603E+03 -0.12259638855E+03  0.20854483349E+03  0.12487338334E+03 0.  0.
         35    2    3    3    0    0  0.35847073966E+02 -0.10762294603E+03 -0.87328189729E+02  0.81319122004E+03  0.80049112201E+03 0.  0.
         22    1    5    5    0    0  0.22408592454E+03 -0.31826804106E+03 -0.27273686665E+03  0.47528354271E+03  0.00000000000E+00 0. -1.
         22    1    5    5    0    0 -0.18823885057E+03  0.21064509503E+03  0.18540867692E+03  0.33790767734E+03  0.00000000000E+00 0. -1.
          5    1    4    4  502    0  0.27086251705E+02  0.51441775164E+02  0.15809673007E+01  0.58348185242E+02  0.47000000000E+01 0.  1.
         -5    1    4    4    0  502 -0.62933325671E+02  0.56181170867E+02 -0.12417735585E+03  0.15019664825E+03  0.47000000000E+01 0.  1.
<mgrwt>
<rscale>  0 0.99993812E+03</rscale>
<asrwt>0</asrwt>
<pdfrwt beam="1">  1        2 0.94743125E-01 0.99993812E+03</pdfrwt>
<pdfrwt beam="2">  1       -2 0.62447037E-01 0.99993812E+03</pdfrwt>
<totfact> 0.13830611E+02</totfact>
</mgrwt>
</event>
<event>
 9    1  0.4488205E-036  0.1001936E+04  0.7818608E-02  0.8679197E-01
          2   -1    0    0  501    0  0.00000000000E+00  0.00000000000E+00  0.47042138964E+03  0.47042138964E+03  0.00000000000E+00 0.  1.
         -2   -1    0    0    0  501 -0.00000000000E+00 -0.00000000000E+00 -0.53349766801E+03  0.53349766801E+03  0.00000000000E+00 0.  1.
         36    2    1    2    0    0 -0.71054273576E-14 -0.28421709430E-13 -0.63076278371E+02  0.10039190576E+04  0.10019355555E+04 0.  0.
         25    2    3    3    0    0 -0.40895195075E+02  0.13702204858E+03 -0.35525870561E+02  0.19142561006E+03  0.12220563788E+03 0.  0.
         35    2    3    3    0    0  0.40895195075E+02 -0.13702204858E+03 -0.27550407810E+02  0.81249344758E+03  0.79933667413E+03 0.  0.
         22    1    5    5    0    0 -0.19014626125E+02 -0.40697311284E+03  0.20048735529E+03  0.45407471876E+03  0.00000000000E+00 0. -1.
         22    1    5    5    0    0  0.59909821199E+02  0.26995106426E+03 -0.22803776310E+03  0.35841872882E+03  0.00000000000E+00 0. -1.
          5    1    4    4  502    0  0.11512420180E+02  0.10689821065E+03 -0.63171157440E+02  0.12478961652E+03  0.47000000000E+01 0. -1.
         -5    1    4    4    0  502 -0.52407615255E+02  0.30123837935E+02  0.27645286879E+02  0.66635993541E+02  0.47000000000E+01 0. -1.
<mgrwt>
<rscale>  0 0.10019356E+04</rscale>
<asrwt>0</asrwt>
<pdfrwt beam="1">  1        2 0.72372522E-01 0.10019356E+04</pdfrwt>
<pdfrwt beam="2">  1       -2 0.82076564E-01 0.10019356E+04</pdfrwt>
<totfact> 0.10369169E+02</totfact>
</mgrwt>
</event>
<event>
 9    1  0.4488205E-036  0.1000106E+04  0.7818608E-02  0.8680937E-01
          1   -1    0    0  501    0  0.00000000000E+00  0.00000000000E+00  0.20543100264E+04  0.20543100264E+04  0.00000000000E+00 0. -1.
         -1   -1    0    0    0  501 -0.00000000000E+00 -0.00000000000E+00 -0.12172108719E+03  0.12172108719E+03  0.00000000000E+00 0. -1.
         36    2    1    2    0    0  0.00000000000E+00  0.71054273576E-14  0.19325889393E+04  0.21760311136E+04  0.10001056941E+04 0.  0.
         25    2    3    3    0    0  0.26174911069E+02 -0.56032569267E+02  0.88913914092E+02  0.16410928205E+03  0.12329394773E+03 0.  0.
         35    2    3    3    0    0 -0.26174911069E+02  0.56032569267E+02  0.18436750252E+04  0.20119218316E+04  0.80303616559E+03 0.  0.
         22    1    5    5    0    0  0.20275715439E+03 -0.32566452952E+02  0.63569349040E+02  0.21496999710E+03  0.00000000000E+00 0. -1.
         22    1    5    5    0    0 -0.22893206546E+03  0.88599022220E+02  0.17801056761E+04  0.17969518345E+04  0.00000000000E+00 0. -1.
          5    1    4    4  502    0 -0.35973522685E+02 -0.97594340188E+01  0.76863949496E+02  0.85554062550E+02  0.47000000000E+01 0. -1.
         -5    1    4    4    0  502  0.62148433755E+02 -0.46273135249E+02  0.12049964596E+02  0.78555219500E+02  0.47000000000E+01 0. -1.
<mgrwt>
<rscale>  0 0.10001057E+04</rscale>
<asrwt>0</asrwt>
<pdfrwt beam="1">  1        1 0.31604767E+00 0.10001057E+04</pdfrwt>
<pdfrwt beam="2">  1       -1 0.18726323E-01 0.10001057E+04</pdfrwt>
<totfact> 0.65032588E+01</totfact>
</mgrwt>
</event>
<event>
 9    1  0.4488205E-036  0.9969468E+03  0.7818608E-02  0.8683951E-01
         -2   -1    0    0    0  501 -0.00000000000E+00  0.00000000000E+00  0.11195027111E+03  0.11195027111E+03  0.00000000000E+00 0.  1.
          2   -1    0    0  501    0  0.00000000000E+00 -0.00000000000E+00 -0.22195186120E+04  0.22195186120E+04  0.00000000000E+00 0.  1.
         36    2    1    2    0    0  0.14210854715E-13 -0.42632564146E-13 -0.21075683409E+04  0.23314688831E+04  0.99694675958E+03 0.  0.
         25    2    3    3    0    0  0.10613489291E+03  0.81930201622E+02 -0.45470917529E+03  0.49025106255E+03  0.12493396980E+03 0.  0.
         35    2    3    3    0    0 -0.10613489291E+03 -0.81930201622E+02 -0.16528591656E+04  0.18412178206E+04  0.80010153608E+03 0.  0.
         22    1    5    5    0    0  0.17922967064E+03 -0.36592793943E+03 -0.78145961283E+03  0.88130905940E+03  0.00000000000E+00 0.  1.
         22    1    5    5    0    0 -0.28536456355E+03  0.28399773780E+03 -0.87139955279E+03  0.95990876119E+03  0.00000000000E+00 0.  1.
          5    1    4    4  502    0 -0.17973462416E+02  0.57835345881E+01 -0.91906065677E+01  0.21518640120E+02  0.47000000000E+01 0.  1.
         -5    1    4    4    0  502  0.12410835533E+03  0.76146667034E+02 -0.44551856872E+03  0.46873242243E+03  0.47000000000E+01 0.  1.
<mgrwt>
<rscale>  0 0.99694676E+03</rscale>
<asrwt>0</asrwt>
<pdfrwt beam="1">  1        2 0.34146440E+00 0.99694676E+03</pdfrwt>
<pdfrwt beam="2">  1       -2 0.17223119E-01 0.99694676E+03</pdfrwt>
<totfact> 0.16194829E+02</totfact>
</mgrwt>
</event>
<event>
 9    1  0.4488205E-036  0.1005010E+04  0.7818608E-02  0.8676282E-01
          2   -1    0    0  501    0  0.00000000000E+00  0.00000000000E+00  0.13171479836E+04  0.13171479836E+04  0.00000000000E+00 0. -1.
         -2   -1    0    0    0  501 -0.00000000000E+00 -0.00000000000E+00 -0.19171062173E+03  0.19171062173E+03  0.00000000000E+00 0. -1.
         36    2    1    2    0    0 -0.56843418861E-13 -0.71054273576E-14  0.11254373619E+04  0.15088586054E+04  0.10050099678E+04 0.  0.
         25    2    3    3    0    0  0.72254375697E+02 -0.57399350758E+01  0.40600430317E+03  0.43034557412E+03  0.12289905333E+03 0.  0.
         35    2    3    3    0    0 -0.72254375697E+02  0.57399350758E+01  0.71943305874E+03  0.10785130313E+04  0.80022046395E+03 0.  0.
         22    1    5    5    0    0 -0.41705634602E+03 -0.76317077581E+02  0.52306817635E+03  0.67332058427E+03  0.00000000000E+00 0. -1.
         22    1    5    5    0    0  0.34480197032E+03  0.82057012657E+02  0.19636488239E+03  0.40519244699E+03  0.00000000000E+00 0. -1.
          5    1    4    4  502    0  0.86402431508E+02 -0.18961682391E+01  0.40582177692E+03  0.41494864772E+03  0.47000000000E+01 0.  1.
         -5    1    4    4    0  502 -0.14148055811E+02 -0.38437668367E+01  0.18252625365E+00  0.15396926400E+02  0.47000000000E+01 0.  1.
<mgrwt>
<rscale>  0 0.10050100E+04</rscale>
<asrwt>0</asrwt>
<pdfrwt beam="1">  1        2 0.20263815E+00 0.10050100E+04</pdfrwt>
<pdfrwt beam="2">  1       -2 0.29493943E-01 0.10050100E+04</pdfrwt>
<totfact> 0.20544010E+02</totfact>
</mgrwt>
</event>
<event>
 9    1  0.4488205E-036  0.9996226E+03  0.7818608E-02  0.8681397E-01
         -1   -1    0    0    0  501 -0.00000000000E+00  0.00000000000E+00  0.12029596126E+03  0.12029596126E+03  0.00000000000E+00 0. -1.
          1   -1    0    0  501    0  0.00000000000E+00 -0.00000000000E+00 -0.20766395226E+04  0.20766395226E+04  0.00000000000E+00 0. -1.
         36    2    1    2    0    0  0.00000000000E+00  0.14210854715E-13 -0.19563435613E+04  0.21969354838E+04  0.99962262391E+03 0.  0.
         25    2    3    3    0    0 -0.35815323821E+02  0.11647802954E+02 -0.72292178823E+02  0.14989335541E+03  0.12579129598E+03 0.  0.
         35    2    3    3    0    0  0.35815323821E+02 -0.11647802954E+02 -0.18840513825E+04  0.20470421284E+04  0.79957079419E+03 0.  0.
         22    1    5    5    0    0  0.38666805566E+02  0.38696552993E+03 -0.11140472297E+04  0.11799740138E+04  0.00000000000E+00 0. -1.
         22    1    5    5    0    0 -0.28514817450E+01 -0.39861333288E+03 -0.77000415276E+03  0.86706811461E+03  0.00000000000E+00 0. -1.
          5    1    4    4  502    0 -0.72457954628E+02  0.41372622828E+02 -0.41033837550E+02  0.93100563547E+02  0.47000000000E+01 0.  1.
         -5    1    4    4    0  502  0.36642630808E+02 -0.29724819875E+02 -0.31258341273E+02  0.56792791868E+02  0.47000000000E+01 0.  1.
<mgrwt>
<rscale>  0 0.99962262E+03</rscale>
<asrwt>0</asrwt>
<pdfrwt beam="1">  1        1 0.31948298E+00 0.99962262E+03</pdfrwt>
<pdfrwt beam="2">  1       -1 0.18507072E-01 0.99962262E+03</pdfrwt>
<totfact> 0.63958064E+01</totfact>
</mgrwt>
</event>
<event>
 9    1  0.4488205E-036  0.9996254E+03  0.7818608E-02  0.8681395E-01
         -2   -1    0    0    0  501 -0.00000000000E+00  0.00000000000E+00  0.61542421055E+03  0.61542421055E+03  0.00000000000E+00 0.  1.
          2   -1    0    0  501    0  0.00000000000E+00 -0.00000000000E+00 -0.40591956561E+03  0.40591956561E+03  0.00000000000E+00 0.  1.
         36    2    1    2    0    0  0.00000000000E+00  0.00000000000E+00  0.20950464494E+03  0.10213437762E+04  0.99962538626E+03 0.  0.
         25    2    3    3    0    0 -0.90496790351E+02  0.45392058520E+02 -0.58729409315E+02  0.17135969055E+03  0.12515946623E+03 0.  0.
         35    2    3    3    0    0  0.90496790351E+02 -0.45392058520E+02  0.26823405426E+03  0.84998408561E+03  0.80017081294E+03 0.  0.
         22    1    5    5    0    0  0.34000987268E+03  0.24460223598E+03  0.92273527945E+02  0.42889552495E+03  0.00000000000E+00 0. -1.
         22    1    5    5    0    0 -0.24951308233E+03 -0.28999429450E+03  0.17596052631E+03  0.42108856066E+03  0.00000000000E+00 0. -1.
          5    1    4    4  502    0  0.25248741833E+02  0.64945908312E+00 -0.37378867274E+02  0.45356261750E+02  0.47000000000E+01 0.  1.
         -5    1    4    4    0  502 -0.11574553218E+03  0.44742599437E+02 -0.21350542041E+02  0.12600342880E+03  0.47000000000E+01 0.  1.
<mgrwt>
<rscale>  0 0.99962539E+03</rscale>
<asrwt>0</asrwt>
<pdfrwt beam="1">  1        2 0.62449164E-01 0.99962539E+03</pdfrwt>
<pdfrwt beam="2">  1       -2 0.94680648E-01 0.99962539E+03</pdfrwt>
<totfact> 0.87581848E+01</totfact>
</mgrwt>
</event>
<event>
 9    1  0.4488205E-036  0.9992814E+03  0.7818608E-02  0.8681723E-01
          1   -1    0    0  501    0  0.00000000000E+00  0.00000000000E+00  0.10123708465E+04  0.10123708465E+04  0.00000000000E+00 0.  1.
         -1   -1    0    0    0  501 -0.00000000000E+00 -0.00000000000E+00 -0.24659028988E+03  0.24659028988E+03  0.00000000000E+00 0.  1.
         36    2    1    2    0    0 -0.28421709430E-13  0.28421709430E-13  0.76578055663E+03  0.12589611364E+04  0.99928138281E+03 0.  0.
         25    2    3    3    0    0 -0.11114036265E+03 -0.11380865811E+02  0.37048537338E+02  0.17093509230E+03  0.12395364999E+03 0.  0.
         35    2    3    3    0    0  0.11114036265E+03  0.11380865811E+02  0.72873201929E+03  0.10880260441E+04  0.80016786511E+03 0.  0.
         22    1    5    5    0    0 -0.12960364506E+02  0.39574333216E+03  0.43753156438E+03  0.59009713253E+03  0.00000000000E+00 0.  1.
         22    1    5    5    0    0  0.12410072716E+03 -0.38436246635E+03  0.29120045491E+03  0.49792891155E+03  0.00000000000E+00 0.  1.
          5    1    4    4  502    0 -0.12758006844E+03  0.19142734803E+02  0.41652531764E+02  0.13564712147E+03  0.47000000000E+01 0. -1.
         -5    1    4    4    0  502  0.16439705794E+02 -0.30523600613E+02 -0.46039944257E+01  0.35287970835E+02  0.47000000000E+01 0. -1.
<mgrwt>
<rscale>  0 0.99928138E+03</rscale>
<asrwt>0</asrwt>
<pdfrwt beam="1">  1        1 0.15574936E+00 0.99928138E+03</pdfrwt>
<pdfrwt beam="2">  1       -1 0.37936968E-01 0.99928138E+03</pdfrwt>
<totfact> 0.11101835E+02</totfact>
</mgrwt>
</event>
<event>
 9    1  0.4488205E-036  0.1000045E+04  0.7818608E-02  0.8680995E-01
          2   -1    0    0  501    0  0.00000000000E+00  0.00000000000E+00  0.56605957539E+03  0.56605957539E+03  0.00000000000E+00 0. -1.
         -2   -1    0    0    0  501 -0.00000000000E+00 -0.00000000000E+00 -0.44168912017E+03  0.44168912017E+03  0.00000000000E+00 0. -1.
         36    2    1    2    0    0  0.00000000000E+00  0.00000000000E+00  0.12437045521E+03  0.10077486956E+04  0.10000447106E+04 0.  0.
         25    2    3    3    0    0 -0.46326635633E+02 -0.12839697522E+03  0.58311109206E+02  0.19418781007E+03  0.12520694753E+03 0.  0.
         35    2    3    3    0    0  0.46326635633E+02  0.12839697522E+03  0.66059346004E+02  0.81356088549E+03  0.79930315700E+03 0.  0.
         22    1    5    5    0    0 -0.89130400948E+02 -0.10626236039E+03  0.37666276765E+03  0.40138604627E+03  0.00000000000E+00 0. -1.
         22    1    5    5    0    0  0.13545703658E+03  0.23465933560E+03 -0.31060342165E+03  0.41217483922E+03  0.00000000000E+00 0. -1.
          5    1    4    4  502    0 -0.84249874921E+02 -0.74507125357E+02  0.11358938697E+02  0.11313915609E+03  0.47000000000E+01 0.  1.
         -5    1    4    4    0  502  0.37923239288E+02 -0.53889849859E+02  0.46952170509E+02  0.81048653977E+02  0.47000000000E+01 0.  1.
<mgrwt>
<rscale>  0 0.10000447E+04</rscale>
<asrwt>0</asrwt>
<pdfrwt beam="1">  1        2 0.87086089E-01 0.10000447E+04</pdfrwt>
<pdfrwt beam="2">  1       -2 0.67952172E-01 0.10000447E+04</pdfrwt>
<totfact> 0.12762763E+02</totfact>
</mgrwt>
</event>
<event>
 9    1  0.4488205E-036  0.1000076E+04  0.7818608E-02  0.8680966E-01
         -1   -1    0    0    0  501 -0.00000000000E+00  0.00000000000E+00  0.48939219461E+03  0.48939219461E+03  0.00000000000E+00 0. -1.
          1   -1    0    0  501    0  0.00000000000E+00 -0.00000000000E+00 -0.51091502460E+03  0.51091502460E+03  0.00000000000E+00 0. -1.
         36    2    1    2    0    0 -0.71054273576E-14  0.21316282073E-13 -0.21522829988E+02  0.10003072192E+04  0.10000756474E+04 0.  0.
         25    2    3    3    0    0 -0.63557399809E+02  0.63853577897E+02  0.10401591447E+03  0.18607076175E+03  0.12524454253E+03 0.  0.
         35    2    3    3    0    0  0.63557399809E+02 -0.63853577897E+02 -0.12553874446E+03  0.81423645746E+03  0.79943993509E+03 0.  0.
         22    1    5    5    0    0 -0.12384096247E+03  0.32585428544E+03  0.40695111613E+02  0.35096109675E+03  0.00000000000E+00 0.  1.
         22    1    5    5    0    0  0.18739836228E+03 -0.38970786334E+03 -0.16623385607E+03  0.46327536070E+03  0.00000000000E+00 0.  1.
          5    1    4    4  502    0 -0.77351501626E+02  0.16237374816E+02  0.11041041719E+03  0.13586558566E+03  0.47000000000E+01 0. -1.
         -5    1    4    4    0  502  0.13794101817E+02  0.47616203081E+02 -0.63945027173E+01  0.50205176085E+02  0.47000000000E+01 0. -1.
<mgrwt>
<rscale>  0 0.10000756E+04</rscale>
<asrwt>0</asrwt>
<pdfrwt beam="1">  1        1 0.78602312E-01 0.10000756E+04</pdfrwt>
<pdfrwt beam="2">  1       -1 0.75291107E-01 0.10000756E+04</pdfrwt>
<totfact> 0.89908465E+01</totfact>
</mgrwt>
</event>
<event>
 9    1  0.4488205E-036  0.1000127E+04  0.7818608E-02  0.8680917E-01
         -1   -1    0    0    0  501 -0.00000000000E+00  0.00000000000E+00  0.16914265646E+03  0.16914265646E+03  0.00000000000E+00 0.  1.
          1   -1    0    0  501    0  0.00000000000E+00 -0.00000000000E+00 -0.14784179839E+04  0.14784179839E+04  0.00000000000E+00 0.  1.
         36    2    1    2    0    0 -0.21316282073E-13 -0.71054273576E-14 -0.13092753275E+04  0.16475606404E+04  0.10001270822E+04 0.  0.
         25    2    3    3    0    0 -0.24122318049E+02  0.23133473338E+02 -0.46938035658E+03  0.48673456517E+03  0.12440086001E+03 0.  0.
         35    2    3    3    0    0  0.24122318049E+02 -0.23133473338E+02 -0.83989497091E+03  0.11608260752E+04  0.80061012419E+03 0.  0.
         22    1    5    5    0    0 -0.24421700261E+03 -0.16532208036E+03 -0.80234751929E+03  0.85483032019E+03  0.00000000000E+00 0.  1.
         22    1    5    5    0    0  0.26833932066E+03  0.14218860702E+03 -0.37547451623E+02  0.30599575504E+03  0.00000000000E+00 0.  1.
          5    1    4    4  502    0 -0.42611368108E+02  0.60544267984E+02 -0.18581553183E+03  0.20007708251E+03  0.47000000000E+01 0.  1.
         -5    1    4    4    0  502  0.18489050059E+02 -0.37410794646E+02 -0.28356482475E+03  0.28665748266E+03  0.47000000000E+01 0.  1.
<mgrwt>
<rscale>  0 0.10001271E+04</rscale>
<asrwt>0</asrwt>
<pdfrwt beam="1">  1        1 0.22744893E+00 0.10001271E+04</pdfrwt>
<pdfrwt beam="2">  1       -1 0.26021946E-01 0.10001271E+04</pdfrwt>
<totfact> 0.95716451E+01</totfact>
</mgrwt>
</event>
<event>
 9    1  0.4488205E-036  0.1000111E+04  0.7818608E-02  0.8680932E-01
         -1   -1    0    0    0  501 -0.00000000000E+00  0.00000000000E+00  0.39221861254E+03  0.39221861254E+03  0.00000000000E+00 0.  1.
          1   -1    0    0  501    0  0.00000000000E+00 -0.00000000000E+00 -0.63754112320E+03  0.63754112320E+03  0.00000000000E+00 0.  1.
         36    2    1    2    0    0  0.21316282073E-13  0.00000000000E+00 -0.24532251066E+03  0.10297597357E+04  0.10001109834E+04 0.  0.
         25    2    3    3    0    0  0.57343650488E+02 -0.73433038665E+02  0.63548865591E+02  0.17050434795E+03  0.12787716346E+03 0.  0.
         35    2    3    3    0    0 -0.57343650488E+02  0.73433038665E+02 -0.30887137626E+03  0.85925538779E+03  0.79639034961E+03 0.  0.
         22    1    5    5    0    0 -0.41259938600E+03  0.51696946734E+02 -0.28178057215E+03  0.50230580175E+03  0.00000000000E+00 0.  1.
         22    1    5    5    0    0  0.35525573551E+03  0.21736091932E+02 -0.27090804106E+02  0.35694958604E+03  0.00000000000E+00 0.  1.
          5    1    4    4  502    0  0.58694182208E+02 -0.17128290744E+02  0.89356044610E+02  0.10837425007E+03  0.47000000000E+01 0. -1.
         -5    1    4    4    0  502 -0.13505317201E+01 -0.56304747921E+02 -0.25807179018E+02  0.62130097886E+02  0.47000000000E+01 0. -1.
<mgrwt>
<rscale>  0 0.10001110E+04</rscale>
<asrwt>0</asrwt>
<pdfrwt beam="1">  1        1 0.98083250E-01 0.10001110E+04</pdfrwt>
<pdfrwt beam="2">  1       -1 0.60341325E-01 0.10001110E+04</pdfrwt>
<totfact> 0.10109117E+02</totfact>
</mgrwt>
</event>
<event>
 9    1  0.4488205E-036  0.1000329E+04  0.7818608E-02  0.8680725E-01
          1   -1    0    0  501    0  0.00000000000E+00  0.00000000000E+00  0.12865103933E+04  0.12865103933E+04  0.00000000000E+00 0.  1.
         -1   -1    0    0    0  501 -0.00000000000E+00 -0.00000000000E+00 -0.19445189505E+03  0.19445189505E+03  0.00000000000E+00 0.  1.
         36    2    1    2    0    0 -0.71054273576E-14  0.28421709430E-13  0.10920584982E+04  0.14809622883E+04  0.10003287139E+04 0.  0.
         25    2    3    3    0    0  0.33464065946E+01  0.12939889136E+03  0.11752465913E+03  0.21359358784E+03  0.12269842598E+03 0.  0.
         35    2    3    3    0    0 -0.33464065946E+01 -0.12939889136E+03  0.97453383911E+03  0.12673687005E+04  0.79984495241E+03 0.  0.
         22    1    5    5    0    0  0.79590706348E+02 -0.40528841484E+03  0.86611542943E+03  0.95955683356E+03  0.00000000000E+00 0.  1.
         22    1    5    5    0    0 -0.82937112942E+02  0.27588952347E+03  0.10841840967E+03  0.30781186693E+03  0.00000000000E+00 0.  1.
          5    1    4    4  502    0  0.60828420627E+02  0.70665640381E+02  0.80754395083E+02  0.12343861556E+03  0.47000000000E+01 0.  1.
         -5    1    4    4    0  502 -0.57482014033E+02  0.58733250983E+02  0.36770264045E+02  0.90154972277E+02  0.47000000000E+01 0.  1.
<mgrwt>
<rscale>  0 0.10003287E+04</rscale>
<asrwt>0</asrwt>
<pdfrwt beam="1">  1        1 0.19792467E+00 0.10003287E+04</pdfrwt>
<pdfrwt beam="2">  1       -1 0.29915677E-01 0.10003287E+04</pdfrwt>
<totfact> 0.10390908E+02</totfact>
</mgrwt>
</event>
<event>
 9    1  0.4488205E-036  0.1000246E+04  0.7818608E-02  0.8680804E-01
         -2   -1    0    0    0  501 -0.00000000000E+00  0.00000000000E+00  0.11643597867E+03  0.11643597867E+03  0.00000000000E+00 0.  1.
          2   -1    0    0  501    0  0.00000000000E+00 -0.00000000000E+00 -0.21481586483E+04  0.21481586483E+04  0.00000000000E+00 0.  1.
         36    2    1    2    0    0 -0.71054273576E-14  0.00000000000E+00 -0.20317226696E+04  0.22645946270E+04  0.10002458789E+04 0.  0.
         25    2    3    3    0    0  0.46608789484E+02  0.12796792904E+03 -0.35665394620E+03  0.40383861814E+03  0.13166404994E+03 0.  0.
         35    2    3    3    0    0 -0.46608789484E+02 -0.12796792904E+03 -0.16750687235E+04  0.18607560088E+04  0.79875498497E+03 0.  0.
         22    1    5    5    0    0 -0.20109724790E+03 -0.37653729370E+03 -0.53881812133E+03  0.68741938039E+03  0.00000000000E+00 0.  1.
         22    1    5    5    0    0  0.15448845842E+03  0.24856936467E+03 -0.11362506021E+04  0.11733366284E+04  0.00000000000E+00 0.  1.
          5    1    4    4  502    0 -0.44217411413E+02  0.38512327883E+02 -0.81103438835E+02  0.10019100090E+03  0.47000000000E+01 0.  1.
         -5    1    4    4    0  502  0.90826200898E+02  0.89455601154E+02 -0.27555050736E+03  0.30364761724E+03  0.47000000000E+01 0.  1.
<mgrwt>
<rscale>  0 0.10002459E+04</rscale>
<asrwt>0</asrwt>
<pdfrwt beam="1">  1        2 0.33048595E+00 0.10002459E+04</pdfrwt>
<pdfrwt beam="2">  1       -2 0.17913228E-01 0.10002459E+04</pdfrwt>
<totfact> 0.16660202E+02</totfact>
</mgrwt>
</event>
<event>
 9    1  0.4488205E-036  0.9994954E+03  0.7818608E-02  0.8681519E-01
          2   -1    0    0  501    0  0.00000000000E+00  0.00000000000E+00  0.12141251339E+04  0.12141251339E+04  0.00000000000E+00 0. -1.
         -2   -1    0    0    0  501 -0.00000000000E+00 -0.00000000000E+00 -0.20570185079E+03  0.20570185079E+03  0.00000000000E+00 0. -1.
         36    2    1    2    0    0 -0.24868995752E-13  0.28421709430E-13  0.10084232832E+04  0.14198269847E+04  0.99949544700E+03 0.  0.
         25    2    3    3    0    0  0.93044503374E+01  0.89476817283E+02  0.34226617670E+03  0.37519841627E+03  0.12463964953E+03 0.  0.
         35    2    3    3    0    0 -0.93044503374E+01 -0.89476817283E+02  0.66615710645E+03  0.10446285685E+04  0.79961921059E+03 0.  0.
         22    1    5    5    0    0 -0.28227995735E+03 -0.32712280858E+03  0.44614108816E+03  0.62107421196E+03  0.00000000000E+00 0.  1.
         22    1    5    5    0    0  0.27297550701E+03  0.23764599130E+03  0.22001601829E+03  0.42355435650E+03  0.00000000000E+00 0.  1.
          5    1    4    4  502    0  0.39619664937E+02  0.10637105147E+03  0.21460714301E+03  0.24282263954E+03  0.47000000000E+01 0. -1.
         -5    1    4    4    0  502 -0.30315214600E+02 -0.16894234183E+02  0.12765903368E+03  0.13237577673E+03  0.47000000000E+01 0. -1.
<mgrwt>
<rscale>  0 0.99949545E+03</rscale>
<asrwt>0</asrwt>
<pdfrwt beam="1">  1        2 0.18678848E+00 0.99949545E+03</pdfrwt>
<pdfrwt beam="2">  1       -2 0.31646439E-01 0.99949545E+03</pdfrwt>
<totfact> 0.20744248E+02</totfact>
</mgrwt>
</event>
<event>
 9    1  0.4488205E-036  0.9991277E+03  0.7818608E-02  0.8681869E-01
          2   -1    0    0  501    0  0.00000000000E+00  0.00000000000E+00  0.17992393620E+04  0.17992393620E+04  0.00000000000E+00 0. -1.
         -2   -1    0    0    0  501 -0.00000000000E+00 -0.00000000000E+00 -0.13870530675E+03  0.13870530675E+03  0.00000000000E+00 0. -1.
         36    2    1    2    0    0  0.28421709430E-13  0.00000000000E+00  0.16605340553E+04  0.19379446688E+04  0.99912771481E+03 0.  0.
         25    2    3    3    0    0  0.64267370148E+02 -0.10629416122E+03  0.19089541649E+03  0.26006258984E+03  0.12554977906E+03 0.  0.
         35    2    3    3    0    0 -0.64267370148E+02  0.10629416122E+03  0.14696386388E+04  0.16778820789E+04  0.80001362403E+03 0.  0.
         22    1    5    5    0    0  0.33246346609E+03 -0.11767691164E+03  0.68939014304E+03  0.77436333922E+03  0.00000000000E+00 0.  1.
         22    1    5    5    0    0 -0.39673083623E+03  0.22397107286E+03  0.78024849573E+03  0.90351873970E+03  0.00000000000E+00 0.  1.
          5    1    4    4  502    0  0.91814718790E+00 -0.19245167490E+02 -0.16854608290E+02  0.26026664915E+02  0.47000000000E+01 0.  1.
         -5    1    4    4    0  502  0.63349222960E+02 -0.87048993731E+02  0.20775002478E+03  0.23403592493E+03  0.47000000000E+01 0.  1.
<mgrwt>
<rscale>  0 0.99912771E+03</rscale>
<asrwt>0</asrwt>
<pdfrwt beam="1">  1        2 0.27680604E+00 0.99912771E+03</pdfrwt>
<pdfrwt beam="2">  1       -2 0.21339279E-01 0.99912771E+03</pdfrwt>
<totfact> 0.19463558E+02</totfact>
</mgrwt>
</event>
<event>
 9    1  0.4488205E-036  0.1000750E+04  0.7818608E-02  0.8680324E-01
         -1   -1    0    0    0  501 -0.00000000000E+00  0.00000000000E+00  0.79119138831E+03  0.79119138831E+03  0.00000000000E+00 0.  1.
          1   -1    0    0  501    0  0.00000000000E+00 -0.00000000000E+00 -0.31645333456E+03  0.31645333456E+03  0.00000000000E+00 0.  1.
         36    2    1    2    0    0 -0.35527136788E-13 -0.53290705182E-14  0.47473805375E+03  0.11076447229E+04  0.10007500249E+04 0.  0.
         25    2    3    3    0    0  0.59887021423E+02  0.33595980759E+01  0.23090443672E+03  0.26901224867E+03  0.12431005109E+03 0.  0.
         35    2    3    3    0    0 -0.59887021423E+02 -0.33595980759E+01  0.24383361702E+03  0.83863247420E+03  0.80015739186E+03 0.  0.
         22    1    5    5    0    0 -0.35958040118E+03  0.12006725507E+03  0.33071286795E+03  0.50307575144E+03  0.00000000000E+00 0.  1.
         22    1    5    5    0    0  0.29969337976E+03 -0.12342685315E+03 -0.86879250927E+02  0.33555672276E+03  0.00000000000E+00 0.  1.
          5    1    4    4  502    0  0.63599709175E+02  0.36046652278E+01  0.24526746433E+03  0.25344848723E+03  0.47000000000E+01 0. -1.
         -5    1    4    4    0  502 -0.37126877512E+01 -0.24506715195E+00 -0.14363027607E+02  0.15563761444E+02  0.47000000000E+01 0. -1.
<mgrwt>
<rscale>  0 0.10007500E+04</rscale>
<asrwt>0</asrwt>
<pdfrwt beam="1">  1        1 0.48685129E-01 0.10007500E+04</pdfrwt>
<pdfrwt beam="2">  1       -1 0.12172175E+00 0.10007500E+04</pdfrwt>
<totfact> 0.58715826E+01</totfact>
</mgrwt>
</event>
<event>
 9    1  0.4488205E-036  0.1000898E+04  0.7818608E-02  0.8680183E-01
          2   -1    0    0  501    0  0.00000000000E+00  0.00000000000E+00  0.11146117839E+04  0.11146117839E+04  0.00000000000E+00 0. -1.
         -2   -1    0    0    0  501 -0.00000000000E+00 -0.00000000000E+00 -0.22469636633E+03  0.22469636633E+03  0.00000000000E+00 0. -1.
         36    2    1    2    0    0  0.00000000000E+00  0.00000000000E+00  0.88991541753E+03  0.13393081502E+04  0.10008980322E+04 0.  0.
         25    2    3    3    0    0  0.90629553290E+02 -0.10848916766E+03  0.17995591718E+03  0.26047407857E+03  0.12441462152E+03 0.  0.
         35    2    3    3    0    0 -0.90629553290E+02  0.10848916766E+03  0.70995950035E+03  0.10788340716E+04  0.79991052407E+03 0.  0.
         22    1    5    5    0    0 -0.29314401693E+03 -0.73933336913E+02 -0.16653765927E+02  0.30278193620E+03  0.00000000000E+00 0.  1.
         22    1    5    5    0    0  0.20251446364E+03  0.18242250458E+03  0.72661326628E+03  0.77605213542E+03  0.00000000000E+00 0.  1.
          5    1    4    4  502    0  0.70233512181E+02 -0.11328521249E+03  0.74328813029E+02  0.15268643702E+03  0.47000000000E+01 0. -1.
         -5    1    4    4    0  502  0.20396041109E+02  0.47960448320E+01  0.10562710415E+03  0.10778764155E+03  0.47000000000E+01 0. -1.
<mgrwt>
<rscale>  0 0.10008980E+04</rscale>
<asrwt>0</asrwt>
<pdfrwt beam="1">  1        2 0.17147873E+00 0.10008980E+04</pdfrwt>
<pdfrwt beam="2">  1       -2 0.34568672E-01 0.10008980E+04</pdfrwt>
<totfact> 0.20197249E+02</totfact>
</mgrwt>
</event>
<event>
 9    1  0.4488205E-036  0.1000972E+04  0.7818608E-02  0.8680113E-01
          2   -1    0    0  501    0  0.00000000000E+00  0.00000000000E+00  0.49544259402E+03  0.49544259402E+03  0.00000000000E+00 0.  1.
         -2   -1    0    0    0  501 -0.00000000000E+00 -0.00000000000E+00 -0.50558068160E+03  0.50558068160E+03  0.00000000000E+00 0.  1.
         36    2    1    2    0    0 -0.56843418861E-13  0.14210854715E-13 -0.10138087576E+02  0.10010232756E+04  0.10009719364E+04 0.  0.
         25    2    3    3    0    0  0.13513250741E+03 -0.40437131566E+02  0.57345352269E+00  0.18797870962E+03  0.12425663063E+03 0.  0.
         35    2    3    3    0    0 -0.13513250741E+03  0.40437131566E+02 -0.10711541099E+02  0.81304456599E+03  0.80064397394E+03 0.  0.
         22    1    5    5    0    0  0.47520225837E+02 -0.29608001675E+03 -0.22442261857E+03  0.37454914218E+03  0.00000000000E+00 0. -1.
         22    1    5    5    0    0 -0.18265273324E+03  0.33651714832E+03  0.21371107747E+03  0.43849542381E+03  0.00000000000E+00 0. -1.
          5    1    4    4  502    0  0.90618685782E+02 -0.79370818028E+02 -0.25425475222E+02  0.12320721471E+03  0.47000000000E+01 0.  1.
         -5    1    4    4    0  502  0.44513821625E+02  0.38933686462E+02  0.25998928745E+02  0.64771494911E+02  0.47000000000E+01 0.  1.
<mgrwt>
<rscale>  0 0.10009719E+04</rscale>
<asrwt>0</asrwt>
<pdfrwt beam="1">  1        2 0.76221938E-01 0.10009719E+04</pdfrwt>
<pdfrwt beam="2">  1       -2 0.77781643E-01 0.10009719E+04</pdfrwt>
<totfact> 0.11056036E+02</totfact>
</mgrwt>
</event>
<event>
 9    1  0.4488205E-036  0.9997260E+03  0.7818608E-02  0.8681299E-01
         -2   -1    0    0    0  501 -0.00000000000E+00  0.00000000000E+00  0.68567648402E+02  0.68567648402E+02  0.00000000000E+00 0.  1.
          2   -1    0    0  501    0  0.00000000000E+00 -0.00000000000E+00 -0.36440368182E+04  0.36440368182E+04  0.00000000000E+00 0.  1.
         36    2    1    2    0    0  0.71054273576E-14 -0.14210854715E-13 -0.35754691698E+04  0.37126044666E+04  0.99972603310E+03 0.  0.
         25    2    3    3    0    0 -0.22548220332E+02  0.78337935523E+02 -0.24294627330E+03  0.28484687565E+03  0.12437683254E+03 0.  0.
         35    2    3    3    0    0  0.22548220332E+02 -0.78337935523E+02 -0.33325228965E+04  0.34277575910E+04  0.79822803278E+03 0.  0.
         22    1    5    5    0    0  0.18766590809E+03  0.72421695467E+02 -0.30950851638E+04  0.31016149932E+04  0.00000000000E+00 0. -1.
         22    1    5    5    0    0 -0.16511768776E+03 -0.15075963099E+03 -0.23743773271E+03  0.32614259774E+03  0.00000000000E+00 0. -1.
          5    1    4    4  502    0  0.13660215232E+02 -0.30411915386E+02 -0.63323185056E+02  0.71717514201E+02  0.47000000000E+01 0.  1.
         -5    1    4    4    0  502 -0.36208435564E+02  0.10874985091E+03 -0.17962308825E+03  0.21312936145E+03  0.47000000000E+01 0.  1.
<mgrwt>
<rscale>  0 0.99972603E+03</rscale>
<asrwt>0</asrwt>
<pdfrwt beam="1">  1        2 0.56062118E+00 0.99972603E+03</pdfrwt>
<pdfrwt beam="2">  1       -2 0.10548867E-01 0.99972603E+03</pdfrwt>
<totfact> 0.40964394E+01</totfact>
</mgrwt>
</event>
<event>
 9    1  0.4488205E-036  0.9996065E+03  0.7818608E-02  0.8681413E-01
         -3   -1    0    0    0  501 -0.00000000000E+00  0.00000000000E+00  0.48856461841E+03  0.48856461841E+03  0.00000000000E+00 0. -1.
          3   -1    0    0  501    0  0.00000000000E+00 -0.00000000000E+00 -0.51130043057E+03  0.51130043057E+03  0.00000000000E+00 0. -1.
         36    2    1    2    0    0  0.14210854715E-13  0.00000000000E+00 -0.22735812161E+02  0.99986504899E+03  0.99960652210E+03 0.  0.
         25    2    3    3    0    0 -0.10314429561E+03 -0.87830267390E+02 -0.38704201022E+02  0.18878071599E+03  0.12564729191E+03 0.  0.
         35    2    3    3    0    0  0.10314429561E+03  0.87830267390E+02  0.15968388861E+02  0.81108433300E+03  0.79953105269E+03 0.  0.
         22    1    5    5    0    0  0.16268296719E+03 -0.16911392294E+03  0.32750335624E+03  0.40289417357E+03  0.00000000000E+00 0. -1.
         22    1    5    5    0    0 -0.59538671581E+02  0.25694419033E+03 -0.31153496738E+03  0.40819015943E+03  0.00000000000E+00 0. -1.
          5    1    4    4  502    0 -0.60473061213E+02 -0.13472153573E+02 -0.73406652688E+02  0.96172328209E+02  0.47000000000E+01 0. -1.
         -5    1    4    4    0  502 -0.42671234395E+02 -0.74358113817E+02  0.34702451666E+02  0.92608387778E+02  0.47000000000E+01 0. -1.
<mgrwt>
<rscale>  0 0.99960652E+03</rscale>
<asrwt>0</asrwt>
<pdfrwt beam="1">  1        3 0.78661605E-01 0.99960652E+03</pdfrwt>
<pdfrwt beam="2">  1       -3 0.75163787E-01 0.99960652E+03</pdfrwt>
<totfact> 0.10087252E+01</totfact>
</mgrwt>
</event>
<event>
 9    1  0.4488205E-036  0.1000274E+04  0.7818608E-02  0.8680777E-01
          1   -1    0    0  501    0  0.00000000000E+00  0.00000000000E+00  0.28976635828E+03  0.28976635828E+03  0.00000000000E+00 0. -1.
         -1   -1    0    0    0  501 -0.00000000000E+00 -0.00000000000E+00 -0.86323769462E+03  0.86323769462E+03  0.00000000000E+00 0. -1.
         36    2    1    2    0    0 -0.71054273576E-14  0.00000000000E+00 -0.57347133634E+03  0.11530040529E+04  0.10002744485E+04 0.  0.
         25    2    3    3    0    0 -0.95747194910E+01  0.12962234905E+03 -0.13629688637E+03  0.22521346873E+03  0.12349346799E+03 0.  0.
         35    2    3    3    0    0  0.95747194910E+01 -0.12962234905E+03 -0.43717444997E+03  0.92779058417E+03  0.80794816649E+03 0.  0.
         22    1    5    5    0    0  0.19456081171E+03 -0.40091628947E+03 -0.39729372421E+03  0.59701765796E+03  0.00000000000E+00 0.  1.
         22    1    5    5    0    0 -0.18498609222E+03  0.27129394043E+03 -0.39880725757E+02  0.33077292621E+03  0.00000000000E+00 0.  1.
          5    1    4    4  502    0 -0.18370223990E+02 -0.14621886472E+02  0.33742937912E+01  0.24181409224E+02  0.47000000000E+01 0.  1.
         -5    1    4    4    0  502  0.87955044989E+01  0.14424423552E+03 -0.13967118016E+03  0.20103205950E+03  0.47000000000E+01 0.  1.
<mgrwt>
<rscale>  0 0.10002744E+04</rscale>
<asrwt>0</asrwt>
<pdfrwt beam="1">  1        1 0.44579441E-01 0.10002744E+04</pdfrwt>
<pdfrwt beam="2">  1       -1 0.13280580E+00 0.10002744E+04</pdfrwt>
<totfact> 0.52677658E+01</totfact>
</mgrwt>
</event>
<event>
 9    1  0.4488205E-036  0.9998595E+03  0.7818608E-02  0.8681172E-01
          3   -1    0    0  501    0  0.00000000000E+00  0.00000000000E+00  0.50681914007E+03  0.50681914007E+03  0.00000000000E+00 0. -1.
         -3   -1    0    0    0  501 -0.00000000000E+00 -0.00000000000E+00 -0.49313401984E+03  0.49313401984E+03  0.00000000000E+00 0. -1.
         36    2    1    2    0    0  0.00000000000E+00 -0.21316282073E-13  0.13685120226E+02  0.99995315991E+03  0.99985950988E+03 0.  0.
         25    2    3    3    0    0  0.12919420885E+03  0.56177232179E+02  0.16242162773E+02  0.18956633398E+03  0.12579571580E+03 0.  0.
         35    2    3    3    0    0 -0.12919420885E+03 -0.56177232179E+02 -0.25570425477E+01  0.81038682593E+03  0.79804338488E+03 0.  0.
         22    1    5    5    0    0  0.31389790741E+03 -0.16416679307E+03 -0.69641853255E+01  0.35430372861E+03  0.00000000000E+00 0.  1.
         22    1    5    5    0    0 -0.44309211626E+03  0.10798956089E+03  0.44071427778E+01  0.45608309732E+03  0.00000000000E+00 0.  1.
          5    1    4    4  502    0 -0.47940292856E+01 -0.20551960544E+02 -0.21560529673E+02  0.30533788477E+02  0.47000000000E+01 0.  1.
         -5    1    4    4    0  502  0.13398823813E+03  0.76729192724E+02  0.37802692446E+02  0.15903254551E+03  0.47000000000E+01 0.  1.
<mgrwt>
<rscale>  0 0.99985951E+03</rscale>
<asrwt>0</asrwt>
<pdfrwt beam="1">  1        3 0.77972175E-01 0.99985951E+03</pdfrwt>
<pdfrwt beam="2">  1       -3 0.75866772E-01 0.99985951E+03</pdfrwt>
<totfact> 0.10058434E+01</totfact>
</mgrwt>
</event>
<event>
 9    1  0.4488205E-036  0.9998681E+03  0.7818608E-02  0.8681164E-01
         -2   -1    0    0    0  501 -0.00000000000E+00  0.00000000000E+00  0.16078079111E+04  0.16078079111E+04  0.00000000000E+00 0.  1.
          2   -1    0    0  501    0  0.00000000000E+00 -0.00000000000E+00 -0.15545019558E+03  0.15545019558E+03  0.00000000000E+00 0.  1.
         36    2    1    2    0    0  0.00000000000E+00  0.00000000000E+00  0.14523577155E+04  0.17632581067E+04  0.99986809979E+03 0.  0.
         25    2    3    3    0    0 -0.42001144907E+02  0.95169363012E+02  0.43775884328E+03  0.46684753598E+03  0.12446892442E+03 0.  0.
         35    2    3    3    0    0  0.42001144907E+02 -0.95169363012E+02  0.10145988723E+04  0.12964105707E+04  0.80028007128E+03 0.  0.
         22    1    5    5    0    0  0.26949857841E+03  0.25152198275E+03  0.32350467070E+03  0.49045699458E+03  0.00000000000E+00 0. -1.
         22    1    5    5    0    0 -0.22749743350E+03 -0.34669134576E+03  0.69109420157E+03  0.80595357616E+03  0.00000000000E+00 0. -1.
          5    1    4    4  502    0 -0.58588546359E+02  0.17895588703E+02  0.31382370966E+03  0.31978161392E+03  0.47000000000E+01 0. -1.
         -5    1    4    4    0  502  0.16587401452E+02  0.77273774309E+02  0.12393513362E+03  0.14706592205E+03  0.47000000000E+01 0. -1.
<mgrwt>
<rscale>  0 0.99986810E+03</rscale>
<asrwt>0</asrwt>
<pdfrwt beam="1">  1        2 0.23915416E-01 0.99986810E+03</pdfrwt>
<pdfrwt beam="2">  1       -2 0.24735505E+00 0.99986810E+03</pdfrwt>
<totfact> 0.16498955E+01</totfact>
</mgrwt>
</event>
<event>
 9    1  0.4488205E-036  0.1000249E+04  0.7818608E-02  0.8680801E-01
         -2   -1    0    0    0  501 -0.00000000000E+00  0.00000000000E+00  0.56232230002E+03  0.56232230002E+03  0.00000000000E+00 0. -1.
          2   -1    0    0  501    0  0.00000000000E+00 -0.00000000000E+00 -0.44480650991E+03  0.44480650991E+03  0.00000000000E+00 0. -1.
         36    2    1    2    0    0 -0.42632564146E-13  0.14210854715E-13  0.11751579011E+03  0.10071288099E+04  0.10002492084E+04 0.  0.
         25    2    3    3    0    0 -0.10911356297E+03  0.79599538111E+02  0.30143499459E+02  0.19118056527E+03  0.13190724728E+03 0.  0.
         35    2    3    3    0    0  0.10911356297E+03 -0.79599538111E+02  0.87372290649E+02  0.81594824467E+03  0.79993485029E+03 0.  0.
         22    1    5    5    0    0 -0.34846572436E+03 -0.18061064356E+02  0.53468427338E+02  0.35300628298E+03  0.00000000000E+00 0. -1.
         22    1    5    5    0    0  0.45757928733E+03 -0.61538473755E+02  0.33903863311E+02  0.46294196169E+03  0.00000000000E+00 0. -1.
          5    1    4    4  502    0 -0.32281856150E+02 -0.16296065386E+02 -0.36262885991E+02  0.51427297070E+02  0.47000000000E+01 0. -1.
         -5    1    4    4    0  502 -0.76831706820E+02  0.95895603497E+02  0.66406385449E+02  0.13975326820E+03  0.47000000000E+01 0. -1.
<mgrwt>
<rscale>  0 0.10002492E+04</rscale>
<asrwt>0</asrwt>
<pdfrwt beam="1">  1        2 0.68431771E-01 0.10002492E+04</pdfrwt>
<pdfrwt beam="2">  1       -2 0.86511123E-01 0.10002492E+04</pdfrwt>
<totfact> 0.97711659E+01</totfact>
</mgrwt>
</event>
<event>
 9    1  0.4488205E-036  0.9997820E+03  0.7818608E-02  0.8681246E-01
          1   -1    0    0  501    0  0.00000000000E+00  0.00000000000E+00  0.15790897899E+04  0.15790897899E+04  0.00000000000E+00 0.  1.
         -1   -1    0    0    0  501 -0.00000000000E+00 -0.00000000000E+00 -0.15825003628E+03  0.15825003628E+03  0.00000000000E+00 0.  1.
         36    2    1    2    0    0 -0.28421709430E-13  0.71054273576E-14  0.14208397536E+04  0.17373398262E+04  0.99978200932E+03 0.  0.
         25    2    3    3    0    0 -0.12893935920E+03  0.36377100797E+02  0.33910012440E+03  0.38541801261E+03  0.12493797768E+03 0.  0.
         35    2    3    3    0    0  0.12893935920E+03 -0.36377100797E+02  0.10817396293E+04  0.13519218136E+04  0.79973952807E+03 0.  0.
         22    1    5    5    0    0 -0.24363084110E+03  0.16531165419E+02  0.90278893064E+03  0.93523105138E+03  0.00000000000E+00 0. -1.
         22    1    5    5    0    0  0.37257020030E+03 -0.52908266217E+02  0.17895069861E+03  0.41669076222E+03  0.00000000000E+00 0. -1.
          5    1    4    4  502    0 -0.30875885084E+02  0.11758836736E+02  0.19790362886E+01  0.33430481686E+02  0.47000000000E+01 0. -1.
         -5    1    4    4    0  502 -0.98063474111E+02  0.24618264062E+02  0.33712108811E+03  0.35198753093E+03  0.47000000000E+01 0. -1.
<mgrwt>
<rscale>  0 0.99978201E+03</rscale>
<asrwt>0</asrwt>
<pdfrwt beam="1">  1        1 0.24293688E+00 0.99978201E+03</pdfrwt>
<pdfrwt beam="2">  1       -1 0.24346160E-01 0.99978201E+03</pdfrwt>
<totfact> 0.90785774E+01</totfact>
</mgrwt>
</event>
<event>
 9    1  0.4488205E-036  0.1003295E+04  0.7818608E-02  0.8677906E-01
          2   -1    0    0  501    0  0.00000000000E+00  0.00000000000E+00  0.15761882935E+04  0.15761882935E+04  0.00000000000E+00 0.  1.
         -2   -1    0    0    0  501 -0.00000000000E+00 -0.00000000000E+00 -0.15965756625E+03  0.15965756625E+03  0.00000000000E+00 0.  1.
         36    2    1    2    0    0  0.21316282073E-13  0.00000000000E+00  0.14165307272E+04  0.17358458597E+04  0.10032953441E+04 0.  0.
         25    2    3    3    0    0  0.50144925425E+02  0.75746422182E+02  0.44744457121E+03  0.47335740689E+03  0.12493420803E+03 0.  0.
         35    2    3    3    0    0 -0.50144925425E+02 -0.75746422182E+02  0.96908615600E+03  0.12624884528E+04  0.80405042238E+03 0.  0.
         22    1    5    5    0    0  0.36648793889E+03  0.10301925155E+02  0.57885358716E+03  0.68519414357E+03  0.00000000000E+00 0.  1.
         22    1    5    5    0    0 -0.41663286432E+03 -0.86048347337E+02  0.39023256884E+03  0.57729430925E+03  0.00000000000E+00 0.  1.
          5    1    4    4  502    0 -0.14182476277E+02  0.75971672875E+02  0.33401929484E+03  0.34287580410E+03  0.47000000000E+01 0.  1.
         -5    1    4    4    0  502  0.64327401702E+02 -0.22525069356E+00  0.11342527637E+03  0.13048160279E+03  0.47000000000E+01 0.  1.
<mgrwt>
<rscale>  0 0.10032953E+04</rscale>
<asrwt>0</asrwt>
<pdfrwt beam="1">  1        2 0.24249050E+00 0.10032953E+04</pdfrwt>
<pdfrwt beam="2">  1       -2 0.24562704E-01 0.10032953E+04</pdfrwt>
<totfact> 0.20307027E+02</totfact>
</mgrwt>
</event>
<event>
 9    1  0.4488205E-036  0.9986751E+03  0.7818608E-02  0.8682301E-01
         -2   -1    0    0    0  501 -0.00000000000E+00  0.00000000000E+00  0.75721517028E+03  0.75721517028E+03  0.00000000000E+00 0. -1.
          2   -1    0    0  501    0  0.00000000000E+00 -0.00000000000E+00 -0.32928288344E+03  0.32928288344E+03  0.00000000000E+00 0. -1.
         36    2    1    2    0    0  0.71054273576E-14  0.00000000000E+00  0.42793228684E+03  0.10864980537E+04  0.99867511164E+03 0.  0.
         25    2    3    3    0    0 -0.45971350915E+02  0.67113535115E+02  0.20309131984E+03  0.25190821042E+03  0.12487622105E+03 0.  0.
         35    2    3    3    0    0  0.45971350915E+02 -0.67113535115E+02  0.22484096700E+03  0.83458984329E+03  0.79960562428E+03 0.  0.
         22    1    5    5    0    0 -0.37486019614E+03 -0.25558742344E+02  0.58902604120E+02  0.38031951400E+03  0.00000000000E+00 0.  1.
         22    1    5    5    0    0  0.42083154705E+03 -0.41554792772E+02  0.16593836288E+03  0.45427032929E+03  0.00000000000E+00 0.  1.
          5    1    4    4  502    0 -0.67982565598E+01 -0.34810819115E+02  0.77886710081E+02  0.85711370465E+02  0.47000000000E+01 0.  1.
         -5    1    4    4    0  502 -0.39173094355E+02  0.10192435423E+03  0.12520460976E+03  0.16619683996E+03  0.47000000000E+01 0.  1.
<mgrwt>
<rscale>  0 0.99867511E+03</rscale>
<asrwt>0</asrwt>
<pdfrwt beam="1">  1        2 0.50658905E-01 0.99867511E+03</pdfrwt>
<pdfrwt beam="2">  1       -2 0.11649464E+00 0.99867511E+03</pdfrwt>
<totfact> 0.66172915E+01</totfact>
</mgrwt>
</event>
<event>
 9    1  0.4488205E-036  0.1000073E+04  0.7818608E-02  0.8680968E-01
          2   -1    0    0  501    0  0.00000000000E+00  0.00000000000E+00  0.91740261175E+03  0.91740261175E+03  0.00000000000E+00 0.  1.
         -2   -1    0    0    0  501 -0.00000000000E+00 -0.00000000000E+00 -0.27254830781E+03  0.27254830781E+03  0.00000000000E+00 0.  1.
         36    2    1    2    0    0  0.28421709430E-13  0.71054273576E-14  0.64485430394E+03  0.11899509196E+04  0.10000730562E+04 0.  0.
         25    2    3    3    0    0  0.33150700878E+02 -0.83037141476E+01  0.28392693239E+03  0.31185816608E+03  0.12439088460E+03 0.  0.
         35    2    3    3    0    0 -0.33150700878E+02  0.83037141476E+01  0.36092737155E+03  0.87809275349E+03  0.79975646015E+03 0.  0.
         22    1    5    5    0    0 -0.38402296780E+03 -0.10712440481E+03  0.63183538610E+02  0.40366005184E+03  0.00000000000E+00 0.  1.
         22    1    5    5    0    0  0.35087226692E+03  0.11542811896E+03  0.29774383294E+03  0.47443270164E+03  0.00000000000E+00 0.  1.
          5    1    4    4  502    0 -0.13754653252E+02 -0.56666162888E+02  0.99100948559E+02  0.11507967895E+03  0.47000000000E+01 0.  1.
         -5    1    4    4    0  502  0.46905354129E+02  0.48362448741E+02  0.18482598383E+03  0.19677848712E+03  0.47000000000E+01 0.  1.
<mgrwt>
<rscale>  0 0.10000731E+04</rscale>
<asrwt>0</asrwt>
<pdfrwt beam="1">  1        2 0.14113886E+00 0.10000731E+04</pdfrwt>
<pdfrwt beam="2">  1       -2 0.41930509E-01 0.10000731E+04</pdfrwt>
<totfact> 0.18607950E+02</totfact>
</mgrwt>
</event>
<event>
 9    1  0.4488205E-036  0.9996186E+03  0.7818608E-02  0.8681401E-01
         -1   -1    0    0    0  501 -0.00000000000E+00  0.00000000000E+00  0.31101779615E+03  0.31101779615E+03  0.00000000000E+00 0. -1.
          1   -1    0    0  501    0  0.00000000000E+00 -0.00000000000E+00 -0.80319950415E+03  0.80319950415E+03  0.00000000000E+00 0. -1.
         36    2    1    2    0    0 -0.71054273576E-14  0.00000000000E+00 -0.49218170800E+03  0.11142173003E+04  0.99961860657E+03 0.  0.
         25    2    3    3    0    0 -0.99820201625E+01 -0.37203968970E+02 -0.24510181265E+03  0.27636301340E+03  0.12172855285E+03 0.  0.
         35    2    3    3    0    0  0.99820201625E+01  0.37203968970E+02 -0.24707989535E+03  0.83785428690E+03  0.79966715286E+03 0.  0.
         22    1    5    5    0    0  0.14408904397E+03  0.24116820482E+03 -0.44319196040E+03  0.52473123537E+03  0.00000000000E+00 0. -1.
         22    1    5    5    0    0 -0.13410702381E+03 -0.20396423585E+03  0.19611206505E+03  0.31312305153E+03  0.00000000000E+00 0. -1.
          5    1    4    4  502    0 -0.14371038170E+02  0.42597433248E+02 -0.63985316314E+02  0.78340786064E+02  0.47000000000E+01 0.  1.
         -5    1    4    4    0  502  0.43890180074E+01 -0.79801402218E+02 -0.18111649634E+03  0.19802222734E+03  0.47000000000E+01 0.  1.
<mgrwt>
<rscale>  0 0.99961861E+03</rscale>
<asrwt>0</asrwt>
<pdfrwt beam="1">  1        1 0.12356915E+00 0.99961861E+03</pdfrwt>
<pdfrwt beam="2">  1       -1 0.47848892E-01 0.99961861E+03</pdfrwt>
<totfact> 0.10913005E+02</totfact>
</mgrwt>
</event>
<event>
 9    1  0.4488205E-036  0.1000009E+04  0.7818608E-02  0.8681029E-01
          2   -1    0    0  501    0  0.00000000000E+00  0.00000000000E+00  0.10297467489E+04  0.10297467489E+04  0.00000000000E+00 0.  1.
         -2   -1    0    0    0  501 -0.00000000000E+00 -0.00000000000E+00 -0.24278245344E+03  0.24278245344E+03  0.00000000000E+00 0.  1.
         36    2    1    2    0    0 -0.28421709430E-13 -0.14210854715E-13  0.78696429544E+03  0.12725292023E+04  0.10000088842E+04 0.  0.
         25    2    3    3    0    0 -0.97566327108E+02  0.90999654338E+01  0.18999181011E+02  0.15915621318E+03  0.12396666390E+03 0.  0.
         35    2    3    3    0    0  0.97566327108E+02 -0.90999654338E+01  0.76796511443E+03  0.11133729891E+04  0.80014186143E+03 0.  0.
         22    1    5    5    0    0  0.33883854876E+03 -0.28140306590E+03  0.45794074325E+03  0.63538096600E+03  0.00000000000E+00 0.  1.
         22    1    5    5    0    0 -0.24127222165E+03  0.27230310047E+03  0.31002437118E+03  0.47799202315E+03  0.00000000000E+00 0.  1.
          5    1    4    4  502    0 -0.50698692241E+02 -0.56728935735E+02  0.17435492139E+02  0.78196009686E+02  0.47000000000E+01 0.  1.
         -5    1    4    4    0  502 -0.46867634867E+02  0.65828901169E+02  0.15636888724E+01  0.80960203495E+02  0.47000000000E+01 0.  1.
<mgrwt>
<rscale>  0 0.10000089E+04</rscale>
<asrwt>0</asrwt>
<pdfrwt beam="1">  1        2 0.15842257E+00 0.10000089E+04</pdfrwt>
<pdfrwt beam="2">  1       -2 0.37351147E-01 0.10000089E+04</pdfrwt>
<totfact> 0.19688168E+02</totfact>
</mgrwt>
</event>
<event>
 9    1  0.4488205E-036  0.9996888E+03  0.7818608E-02  0.8681334E-01
          2   -1    0    0  501    0  0.00000000000E+00  0.00000000000E+00  0.10096296375E+04  0.10096296375E+04  0.00000000000E+00 0.  1.
         -2   -1    0    0    0  501 -0.00000000000E+00 -0.00000000000E+00 -0.24746145955E+03  0.24746145955E+03  0.00000000000E+00 0.  1.
         36    2    1    2    0    0  0.00000000000E+00 -0.14210854715E-13  0.76216817797E+03  0.12570910971E+04  0.99968879899E+03 0.  0.
         25    2    3    3    0    0 -0.98312723058E+02 -0.10468781591E+02  0.26732096785E+03  0.31139723708E+03  0.12543026950E+03 0.  0.
         35    2    3    3    0    0  0.98312723058E+02  0.10468781591E+02  0.49484721012E+03  0.94569385999E+03  0.79980505660E+03 0.  0.
         22    1    5    5    0    0  0.16111685016E+03  0.38779863928E+03  0.30243038135E+03  0.51750416385E+03  0.00000000000E+00 0.  1.
         22    1    5    5    0    0 -0.62804127104E+02 -0.37732985769E+03  0.19241682877E+03  0.42818969614E+03  0.00000000000E+00 0.  1.
          5    1    4    4  502    0 -0.55524003220E+02  0.50958226418E+02  0.18611833344E+03  0.20085263209E+03  0.47000000000E+01 0. -1.
         -5    1    4    4    0  502 -0.42788719838E+02 -0.61427008010E+02  0.81202634407E+02  0.11054460499E+03  0.47000000000E+01 0. -1.
<mgrwt>
<rscale>  0 0.99968880E+03</rscale>
<asrwt>0</asrwt>
<pdfrwt beam="1">  1        2 0.15532763E+00 0.99968880E+03</pdfrwt>
<pdfrwt beam="2">  1       -2 0.38070994E-01 0.99968880E+03</pdfrwt>
<totfact> 0.19546156E+02</totfact>
</mgrwt>
</event>
<event>
 9    1  0.4488205E-036  0.9999249E+03  0.7818608E-02  0.8681109E-01
          1   -1    0    0  501    0  0.00000000000E+00  0.00000000000E+00  0.18433910093E+04  0.18433910093E+04  0.00000000000E+00 0.  1.
         -1   -1    0    0    0  501 -0.00000000000E+00 -0.00000000000E+00 -0.13559925970E+03  0.13559925970E+03  0.00000000000E+00 0.  1.
         36    2    1    2    0    0  0.28421709430E-13  0.71054273576E-14  0.17077917496E+04  0.19789902690E+04  0.99992490956E+03 0.  0.
         25    2    3    3    0    0  0.13738756909E+03 -0.25205275671E+01  0.27728718804E+03  0.33381736610E+03  0.12515651025E+03 0.  0.
         35    2    3    3    0    0 -0.13738756909E+03  0.25205275671E+01  0.14305045616E+04  0.16451729029E+04  0.80085509462E+03 0.  0.
         22    1    5    5    0    0  0.29203302901E+03  0.15252998327E+03  0.39636318319E+03  0.51541484148E+03  0.00000000000E+00 0.  1.
         22    1    5    5    0    0 -0.42942059810E+03 -0.15000945571E+03  0.10341413784E+04  0.11297580614E+04  0.00000000000E+00 0.  1.
          5    1    4    4  502    0  0.16769915383E+02 -0.52138585837E+02  0.72597101726E+02  0.91060921224E+02  0.47000000000E+01 0.  1.
         -5    1    4    4    0  502  0.12061765371E+03  0.49618058270E+02  0.20469008631E+03  0.24275644487E+03  0.47000000000E+01 0.  1.
<mgrwt>
<rscale>  0 0.99992491E+03</rscale>
<asrwt>0</asrwt>
<pdfrwt beam="1">  1        1 0.28359860E+00 0.99992491E+03</pdfrwt>
<pdfrwt beam="2">  1       -1 0.20861426E-01 0.99992491E+03</pdfrwt>
<totfact> 0.76488850E+01</totfact>
</mgrwt>
</event>
<event>
 9    1  0.4488205E-036  0.1000125E+04  0.7818608E-02  0.8680919E-01
         -1   -1    0    0    0  501 -0.00000000000E+00  0.00000000000E+00  0.40438608261E+03  0.40438608261E+03  0.00000000000E+00 0.  1.
          1   -1    0    0  501    0  0.00000000000E+00 -0.00000000000E+00 -0.61837531895E+03  0.61837531895E+03  0.00000000000E+00 0.  1.
         36    2    1    2    0    0  0.14210854715E-13  0.14210854715E-13 -0.21398923635E+03  0.10227614016E+04  0.10001247378E+04 0.  0.
         25    2    3    3    0    0 -0.67292013900E+02  0.37606640589E+02 -0.14533730681E+03  0.21179573202E+03  0.13338674897E+03 0.  0.
         35    2    3    3    0    0  0.67292013900E+02 -0.37606640589E+02 -0.68651929539E+02  0.81096566954E+03  0.80436916599E+03 0.  0.
         22    1    5    5    0    0  0.32170622796E+03 -0.40784985305E+02  0.24548125348E+03  0.40671778661E+03  0.00000000000E+00 0.  1.
         22    1    5    5    0    0 -0.25441421406E+03  0.31783447155E+01 -0.31413318301E+03  0.40424788294E+03  0.00000000000E+00 0.  1.
          5    1    4    4  502    0 -0.33091260059E+02  0.45267641745E+02  0.58081986367E+01  0.56568684383E+02  0.47000000000E+01 0. -1.
         -5    1    4    4    0  502 -0.34200753842E+02 -0.76610011555E+01 -0.15114550544E+03  0.15522704764E+03  0.47000000000E+01 0. -1.
<mgrwt>
<rscale>  0 0.10001247E+04</rscale>
<asrwt>0</asrwt>
<pdfrwt beam="1">  1        1 0.95134664E-01 0.10001247E+04</pdfrwt>
<pdfrwt beam="2">  1       -1 0.62213244E-01 0.10001247E+04</pdfrwt>
<totfact> 0.99724527E+01</totfact>
</mgrwt>
</event>
<event>
 9    1  0.4488205E-036  0.9999486E+03  0.7818608E-02  0.8681087E-01
          2   -1    0    0  501    0  0.00000000000E+00  0.00000000000E+00  0.81556612879E+03  0.81556612879E+03  0.00000000000E+00 0. -1.
         -2   -1    0    0    0  501 -0.00000000000E+00 -0.00000000000E+00 -0.30650399908E+03  0.30650399908E+03  0.00000000000E+00 0. -1.
         36    2    1    2    0    0  0.00000000000E+00 -0.28421709430E-13  0.50906212971E+03  0.11220701279E+04  0.99994855865E+03 0.  0.
         25    2    3    3    0    0  0.59927098900E+02  0.12019545317E+03  0.18012741482E+03  0.25648071349E+03  0.12368616202E+03 0.  0.
         35    2    3    3    0    0 -0.59927098900E+02 -0.12019545317E+03  0.32893471490E+03  0.86558941438E+03  0.78930905448E+03 0.  0.
         22    1    5    5    0    0 -0.33143642168E+03 -0.12665429570E+03  0.44593946542E+03  0.56987140572E+03  0.00000000000E+00 0.  1.
         22    1    5    5    0    0  0.27150932278E+03  0.64588425232E+01 -0.11700475052E+03  0.29571800867E+03  0.00000000000E+00 0.  1.
          5    1    4    4  502    0  0.36235375494E+02  0.10743941244E+03  0.50859427488E+02  0.12435835777E+03  0.47000000000E+01 0. -1.
         -5    1    4    4    0  502  0.23691723406E+02  0.12756040736E+02  0.12926798733E+03  0.13212235572E+03  0.47000000000E+01 0. -1.
<mgrwt>
<rscale>  0 0.99994856E+03</rscale>
<asrwt>0</asrwt>
<pdfrwt beam="1">  1        2 0.12547171E+00 0.99994856E+03</pdfrwt>
<pdfrwt beam="2">  1       -2 0.47154462E-01 0.99994856E+03</pdfrwt>
<totfact> 0.17318079E+02</totfact>
</mgrwt>
</event>
<event>
 9    1  0.4488205E-036  0.1000440E+04  0.7818608E-02  0.8680619E-01
          1   -1    0    0  501    0  0.00000000000E+00  0.00000000000E+00  0.29239091930E+03  0.29239091930E+03  0.00000000000E+00 0.  1.
         -1   -1    0    0    0  501 -0.00000000000E+00 -0.00000000000E+00 -0.85577153681E+03  0.85577153681E+03  0.00000000000E+00 0.  1.
         36    2    1    2    0    0 -0.35527136788E-14  0.00000000000E+00 -0.56338061751E+03  0.11481624561E+04  0.10004395561E+04 0.  0.
         25    2    3    3    0    0  0.17308196984E+01  0.97272654988E+02 -0.22097818244E+03  0.27212001260E+03  0.12551087203E+03 0.  0.
         35    2    3    3    0    0 -0.17308196984E+01 -0.97272654988E+02 -0.34240243507E+03  0.87604244351E+03  0.80046609557E+03 0.  0.
         22    1    5    5    0    0  0.24400269801E+03 -0.27700420950E+03  0.57333170189E+02  0.37357160106E+03  0.00000000000E+00 0. -1.
         22    1    5    5    0    0 -0.24573351770E+03  0.17973155451E+03 -0.39973560526E+03  0.50247084246E+03  0.00000000000E+00 0. -1.
          5    1    4    4  502    0  0.26189156218E+02 -0.75108959538E+01 -0.15571908747E+01  0.27691159326E+02  0.47000000000E+01 0. -1.
         -5    1    4    4    0  502 -0.24458336519E+02  0.10478355094E+03 -0.21942099156E+03  0.24442885327E+03  0.47000000000E+01 0. -1.
<mgrwt>
<rscale>  0 0.10004396E+04</rscale>
<asrwt>0</asrwt>
<pdfrwt beam="1">  1        1 0.44983218E-01 0.10004396E+04</pdfrwt>
<pdfrwt beam="2">  1       -1 0.13165716E+00 0.10004396E+04</pdfrwt>
<totfact> 0.53266089E+01</totfact>
</mgrwt>
</event>
<event>
 9    1  0.4488205E-036  0.1009354E+04  0.7818608E-02  0.8672181E-01
         -1   -1    0    0    0  501 -0.00000000000E+00  0.00000000000E+00  0.25280838442E+03  0.25280838442E+03  0.00000000000E+00 0.  1.
          1   -1    0    0  501    0  0.00000000000E+00 -0.00000000000E+00 -0.10074775302E+04  0.10074775302E+04  0.00000000000E+00 0.  1.
         36    2    1    2    0    0  0.00000000000E+00 -0.14210854715E-13 -0.75466914577E+03  0.12602859146E+04  0.10093537868E+04 0.  0.
         25    2    3    3    0    0 -0.10471836047E+03 -0.95952438049E+02 -0.79884584296E+02  0.20577434576E+03  0.12565320999E+03 0.  0.
         35    2    3    3    0    0  0.10471836047E+03  0.95952438049E+02 -0.67478456147E+03  0.10545115688E+04  0.79780175422E+03 0.  0.
         22    1    5    5    0    0 -0.25424336479E+02 -0.13059258967E+03  0.14340735117E+03  0.19561822444E+03  0.00000000000E+00 0. -1.
         22    1    5    5    0    0  0.13014269695E+03  0.22654502772E+03 -0.81819191264E+03  0.85889334440E+03  0.00000000000E+00 0. -1.
          5    1    4    4  502    0 -0.94420648989E+02 -0.26084605124E+02  0.12863971695E+01  0.98078592963E+02  0.47000000000E+01 0. -1.
         -5    1    4    4    0  502 -0.10297711479E+02 -0.69867832926E+02 -0.81170981466E+02  0.10769575280E+03  0.47000000000E+01 0. -1.
<mgrwt>
<rscale>  0 0.10093538E+04</rscale>
<asrwt>0</asrwt>
<pdfrwt beam="1">  1        1 0.15499654E+00 0.10093538E+04</pdfrwt>
<pdfrwt beam="2">  1       -1 0.38893598E-01 0.10093538E+04</pdfrwt>
<totfact> 0.10708532E+02</totfact>
</mgrwt>
</event>
<event>
 9    1  0.4488205E-036  0.1000234E+04  0.7818608E-02  0.8680815E-01
          1   -1    0    0  501    0  0.00000000000E+00  0.00000000000E+00  0.82534471096E+03  0.82534471096E+03  0.00000000000E+00 0. -1.
         -1   -1    0    0    0  501 -0.00000000000E+00 -0.00000000000E+00 -0.30304550515E+03  0.30304550515E+03  0.00000000000E+00 0. -1.
         36    2    1    2    0    0  0.21316282073E-13  0.14210854715E-13  0.52229920581E+03  0.11283902161E+04  0.10002339823E+04 0.  0.
         25    2    3    3    0    0 -0.10620450819E+02 -0.49624936534E+02  0.24637270942E+03  0.28134103579E+03  0.12600729411E+03 0.  0.
         35    2    3    3    0    0  0.10620450819E+02  0.49624936534E+02  0.27592649639E+03  0.84704918032E+03  0.79923804600E+03 0.  0.
         22    1    5    5    0    0 -0.17339730954E+03 -0.33218271648E+03  0.16148826391E+03  0.40803240492E+03  0.00000000000E+00 0.  1.
         22    1    5    5    0    0  0.18401776036E+03  0.38180765302E+03  0.11443823248E+03  0.43901677540E+03  0.00000000000E+00 0.  1.
          5    1    4    4  502    0 -0.42667071356E+02 -0.35582575241E+02  0.32421396776E+02  0.64496787577E+02  0.47000000000E+01 0.  1.
         -5    1    4    4    0  502  0.32046620537E+02 -0.14042361293E+02  0.21395131265E+03  0.21684424821E+03  0.47000000000E+01 0.  1.
<mgrwt>
<rscale>  0 0.10002340E+04</rscale>
<asrwt>0</asrwt>
<pdfrwt beam="1">  1        1 0.12697611E+00 0.10002340E+04</pdfrwt>
<pdfrwt beam="2">  1       -1 0.46622386E-01 0.10002340E+04</pdfrwt>
<totfact> 0.10943782E+02</totfact>
</mgrwt>
</event>
<event>
 9    1  0.4488205E-036  0.9995776E+03  0.7818608E-02  0.8681440E-01
         -1   -1    0    0    0  501 -0.00000000000E+00  0.00000000000E+00  0.15583859666E+03  0.15583859666E+03  0.00000000000E+00 0. -1.
          1   -1    0    0  501    0  0.00000000000E+00 -0.00000000000E+00 -0.16028688753E+04  0.16028688753E+04  0.00000000000E+00 0. -1.
         36    2    1    2    0    0 -0.14210854715E-13  0.42632564146E-13 -0.14470302786E+04  0.17587074719E+04  0.99957758310E+03 0.  0.
         25    2    3    3    0    0 -0.89174110975E+02 -0.42323966268E+02 -0.99524878698E+02  0.18822862293E+03  0.12562433212E+03 0.  0.
         35    2    3    3    0    0  0.89174110975E+02  0.42323966268E+02 -0.13475053999E+04  0.15704788490E+04  0.80055585202E+03 0.  0.
         22    1    5    5    0    0  0.25909192559E+03  0.34392864234E+03 -0.95211800882E+03  0.10449613580E+04  0.00000000000E+00 0.  1.
         22    1    5    5    0    0 -0.16991781462E+03 -0.30160467608E+03 -0.39538739110E+03  0.52551749104E+03  0.00000000000E+00 0.  1.
          5    1    4    4  502    0  0.10571706034E+01  0.36955425890E+02 -0.10721946215E+02  0.38779778790E+02  0.47000000000E+01 0.  1.
         -5    1    4    4    0  502 -0.90231281578E+02 -0.79279392157E+02 -0.88802932483E+02  0.14944884414E+03  0.47000000000E+01 0.  1.
<mgrwt>
<rscale>  0 0.99957758E+03</rscale>
<asrwt>0</asrwt>
<pdfrwt beam="1">  1        1 0.24659521E+00 0.99957758E+03</pdfrwt>
<pdfrwt beam="2">  1       -1 0.23975169E-01 0.99957758E+03</pdfrwt>
<totfact> 0.89611457E+01</totfact>
</mgrwt>
</event>
<event>
 9    1  0.4488205E-036  0.1001770E+04  0.7818608E-02  0.8679354E-01
         -1   -1    0    0    0  501 -0.00000000000E+00  0.00000000000E+00  0.28711211174E+03  0.28711211174E+03  0.00000000000E+00 0.  1.
          1   -1    0    0  501    0  0.00000000000E+00 -0.00000000000E+00 -0.87382552077E+03  0.87382552077E+03  0.00000000000E+00 0.  1.
         36    2    1    2    0    0  0.28421709430E-13  0.17763568394E-13 -0.58671340903E+03  0.11609376325E+04  0.10017702143E+04 0.  0.
         25    2    3    3    0    0 -0.13698983640E+03  0.28529795163E+02 -0.49054273175E+02  0.18812216025E+03  0.11577331717E+03 0.  0.
         35    2    3    3    0    0  0.13698983640E+03 -0.28529795163E+02 -0.53765913585E+03  0.97281547225E+03  0.79856899026E+03 0.  0.
         22    1    5    5    0    0 -0.23099698055E+03 -0.27647435766E+03 -0.30363478047E+03  0.47116001037E+03  0.00000000000E+00 0.  1.
         22    1    5    5    0    0  0.36798681695E+03  0.24794456250E+03 -0.23402435538E+03  0.50165546188E+03  0.00000000000E+00 0.  1.
          5    1    4    4  502    0 -0.14538841838E+01 -0.24563792530E+02  0.14802363006E+02  0.29098000502E+02  0.47000000000E+01 0. -1.
         -5    1    4    4    0  502 -0.13553595222E+03  0.53093587692E+02 -0.63856636182E+02  0.15902415975E+03  0.47000000000E+01 0. -1.
<mgrwt>
<rscale>  0 0.10017702E+04</rscale>
<asrwt>0</asrwt>
<pdfrwt beam="1">  1        1 0.13443469E+00 0.10017702E+04</pdfrwt>
<pdfrwt beam="2">  1       -1 0.44171095E-01 0.10017702E+04</pdfrwt>
<totfact> 0.10970137E+02</totfact>
</mgrwt>
</event>
<event>
 9    1  0.4488205E-036  0.1001758E+04  0.7818608E-02  0.8679366E-01
         -2   -1    0    0    0  501 -0.00000000000E+00  0.00000000000E+00  0.40820663996E+03  0.40820663996E+03  0.00000000000E+00 0. -1.
          2   -1    0    0  501    0  0.00000000000E+00 -0.00000000000E+00 -0.61458972626E+03  0.61458972626E+03  0.00000000000E+00 0. -1.
         36    2    1    2    0    0  0.00000000000E+00  0.28421709430E-13 -0.20638308630E+03  0.10227963662E+04  0.10017576695E+04 0.  0.
         25    2    3    3    0    0  0.10301516599E+03 -0.68448633289E+02  0.48716067497E+02  0.17386413432E+03  0.11206311681E+03 0.  0.
         35    2    3    3    0    0 -0.10301516599E+03  0.68448633289E+02 -0.25509915380E+03  0.84893223190E+03  0.80019561125E+03 0.  0.
         22    1    5    5    0    0  0.17422726798E+02  0.42712977131E+03 -0.93977001477E+02  0.43769289434E+03  0.00000000000E+00 0. -1.
         22    1    5    5    0    0 -0.12043789279E+03 -0.35868113802E+03 -0.16112215232E+03  0.41123933756E+03  0.00000000000E+00 0. -1.
          5    1    4    4  502    0  0.32629828859E+02 -0.84076227385E+02  0.46502141133E+02  0.10157783652E+03  0.47000000000E+01 0. -1.
         -5    1    4    4    0  502  0.70385337128E+02  0.15627594095E+02  0.22139263645E+01  0.72286297801E+02  0.47000000000E+01 0. -1.
<mgrwt>
<rscale>  0 0.10017577E+04</rscale>
<asrwt>0</asrwt>
<pdfrwt beam="1">  1        2 0.94552265E-01 0.10017577E+04</pdfrwt>
<pdfrwt beam="2">  1       -2 0.62801022E-01 0.10017577E+04</pdfrwt>
<totfact> 0.13699066E+02</totfact>
</mgrwt>
</event>
<event>
 9    1  0.4488205E-036  0.1000379E+04  0.7818608E-02  0.8680677E-01
          2   -1    0    0  501    0  0.00000000000E+00  0.00000000000E+00  0.11490110464E+04  0.11490110464E+04  0.00000000000E+00 0. -1.
         -2   -1    0    0    0  501 -0.00000000000E+00 -0.00000000000E+00 -0.21774336022E+03  0.21774336022E+03  0.00000000000E+00 0. -1.
         36    2    1    2    0    0  0.56843418861E-13 -0.28421709430E-13  0.93126768621E+03  0.13667544066E+04  0.10003789805E+04 0.  0.
         25    2    3    3    0    0 -0.12946155253E+03 -0.53393764487E+02  0.17484613688E+03  0.25658279471E+03  0.12510943725E+03 0.  0.
         35    2    3    3    0    0  0.12946155253E+03  0.53393764487E+02  0.75642154933E+03  0.11101716119E+04  0.80043504420E+03 0.  0.
         22    1    5    5    0    0 -0.16314711331E+03 -0.27561409717E+03  0.51917771808E+03  0.61002099480E+03  0.00000000000E+00 0. -1.
         22    1    5    5    0    0  0.29260866584E+03  0.32900786166E+03  0.23724383125E+03  0.50015061714E+03  0.00000000000E+00 0. -1.
          5    1    4    4  502    0 -0.37956953069E+02  0.51372532304E+01 -0.11993693034E+02  0.40411141157E+02  0.47000000000E+01 0. -1.
         -5    1    4    4    0  502 -0.91504599459E+02 -0.58531017718E+02  0.18683982991E+03  0.21617165355E+03  0.47000000000E+01 0. -1.
<mgrwt>
<rscale>  0 0.10003790E+04</rscale>
<asrwt>0</asrwt>
<pdfrwt beam="1">  1        2 0.17677093E+00 0.10003790E+04</pdfrwt>
<pdfrwt beam="2">  1       -2 0.33498979E-01 0.10003790E+04</pdfrwt>
<totfact> 0.20416756E+02</totfact>
</mgrwt>
</event>
<event>
 9    1  0.4488205E-036  0.9996233E+03  0.7818608E-02  0.8681397E-01
          2   -1    0    0  501    0  0.00000000000E+00  0.00000000000E+00  0.62947886466E+03  0.62947886466E+03  0.00000000000E+00 0.  1.
         -2   -1    0    0    0  501 -0.00000000000E+00 -0.00000000000E+00 -0.39685472682E+03  0.39685472682E+03  0.00000000000E+00 0.  1.
         36    2    1    2    0    0  0.00000000000E+00  0.00000000000E+00  0.23262413784E+03  0.10263335915E+04  0.99962325479E+03 0.  0.
         25    2    3    3    0    0  0.13096177248E+03  0.43931073531E+02  0.19829396393E+02  0.18714016741E+03  0.12468886167E+03 0.  0.
         35    2    3    3    0    0 -0.13096177248E+03 -0.43931073531E+02  0.21279474145E+03  0.83919342408E+03  0.79992691913E+03 0.  0.
         22    1    5    5    0    0 -0.37653272818E+03 -0.18640011742E+03  0.32778572645E+03  0.53288402268E+03  0.00000000000E+00 0.  1.
         22    1    5    5    0    0  0.24557095570E+03  0.14246904389E+03 -0.11499098500E+03  0.30630940139E+03  0.00000000000E+00 0.  1.
          5    1    4    4  502    0  0.84741172702E+02  0.78127311847E+02 -0.19948264000E+02  0.11706821278E+03  0.47000000000E+01 0. -1.
         -5    1    4    4    0  502  0.46220599781E+02 -0.34196238316E+02  0.39777660392E+02  0.70071954628E+02  0.47000000000E+01 0. -1.
<mgrwt>
<rscale>  0 0.99962325E+03</rscale>
<asrwt>0</asrwt>
<pdfrwt beam="1">  1        2 0.96842902E-01 0.99962325E+03</pdfrwt>
<pdfrwt beam="2">  1       -2 0.61054574E-01 0.99962325E+03</pdfrwt>
<totfact> 0.14126621E+02</totfact>
</mgrwt>
</event>
<event>
 9    1  0.4488205E-036  0.9998520E+03  0.7818608E-02  0.8681179E-01
         -2   -1    0    0    0  501 -0.00000000000E+00  0.00000000000E+00  0.16814566918E+03  0.16814566918E+03  0.00000000000E+00 0.  1.
          2   -1    0    0  501    0  0.00000000000E+00 -0.00000000000E+00 -0.14863661225E+04  0.14863661225E+04  0.00000000000E+00 0.  1.
         36    2    1    2    0    0  0.00000000000E+00  0.00000000000E+00 -0.13182204533E+04  0.16545117917E+04  0.99985204169E+03 0.  0.
         25    2    3    3    0    0  0.11342743827E+02  0.12438464434E+03 -0.34436629948E+03  0.38718005426E+03  0.12537961802E+03 0.  0.
         35    2    3    3    0    0 -0.11342743827E+02 -0.12438464434E+03 -0.97385415384E+03  0.12673317374E+04  0.80133490012E+03 0.  0.
         22    1    5    5    0    0  0.39850326131E+02 -0.27195671086E+03 -0.10557654842E+04  0.10909579546E+04  0.00000000000E+00 0.  1.
         22    1    5    5    0    0 -0.51193069958E+02  0.14757206653E+03  0.81911330352E+02  0.17637378283E+03  0.00000000000E+00 0.  1.
          5    1    4    4  502    0  0.43355559991E+02  0.10501092856E+03 -0.14493961506E+03  0.18421884191E+03  0.47000000000E+01 0. -1.
         -5    1    4    4    0  502 -0.32012816164E+02  0.19373715775E+02 -0.19942668442E+03  0.20296121235E+03  0.47000000000E+01 0. -1.
<mgrwt>
<rscale>  0 0.99985204E+03</rscale>
<asrwt>0</asrwt>
<pdfrwt beam="1">  1        2 0.22867171E+00 0.99985204E+03</pdfrwt>
<pdfrwt beam="2">  1       -2 0.25868565E-01 0.99985204E+03</pdfrwt>
<totfact> 0.20820305E+02</totfact>
</mgrwt>
</event>
<event>
 9    1  0.4488205E-036  0.9982573E+03  0.7818608E-02  0.8682699E-01
          2   -1    0    0  501    0  0.00000000000E+00  0.00000000000E+00  0.14461834647E+04  0.14461834647E+04  0.00000000000E+00 0.  1.
         -2   -1    0    0    0  501 -0.00000000000E+00 -0.00000000000E+00 -0.17226681156E+03  0.17226681156E+03  0.00000000000E+00 0.  1.
         36    2    1    2    0    0  0.28421709430E-13 -0.14210854715E-13  0.12739166532E+04  0.16184502763E+04  0.99825731032E+03 0.  0.
         25    2    3    3    0    0 -0.64226370982E+02 -0.11472305907E+03  0.30813204511E+03  0.35739903879E+03  0.12450826756E+03 0.  0.
         35    2    3    3    0    0  0.64226370982E+02  0.11472305907E+03  0.96578460808E+03  0.12610512375E+04  0.80013992992E+03 0.  0.
         22    1    5    5    0    0  0.40270082434E+03 -0.13956920421E+02  0.71451682778E+03  0.82030302129E+03  0.00000000000E+00 0. -1.
         22    1    5    5    0    0 -0.33847445336E+03  0.12867997949E+03  0.25126778029E+03  0.44074821623E+03  0.00000000000E+00 0. -1.
          5    1    4    4  502    0 -0.72023650088E+02 -0.14712892571E+02  0.83537485599E+02  0.11137538723E+03  0.47000000000E+01 0. -1.
         -5    1    4    4    0  502  0.77972791061E+01 -0.10001016650E+03  0.22459455951E+03  0.24602365156E+03  0.47000000000E+01 0. -1.
<mgrwt>
<rscale>  0 0.99825731E+03</rscale>
<asrwt>0</asrwt>
<pdfrwt beam="1">  1        2 0.22248976E+00 0.99825731E+03</pdfrwt>
<pdfrwt beam="2">  1       -2 0.26502587E-01 0.99825731E+03</pdfrwt>
<totfact> 0.21014588E+02</totfact>
</mgrwt>
</event>
<event>
 9    1  0.4488205E-036  0.9997771E+03  0.7818608E-02  0.8681250E-01
         -2   -1    0    0    0  501 -0.00000000000E+00  0.00000000000E+00  0.25668978150E+03  0.25668978150E+03  0.00000000000E+00 0.  1.
          2   -1    0    0  501    0  0.00000000000E+00 -0.00000000000E+00 -0.97350406373E+03  0.97350406373E+03  0.00000000000E+00 0.  1.
         36    2    1    2    0    0  0.00000000000E+00 -0.21316282073E-13 -0.71681428223E+03  0.12301938452E+04  0.99977706597E+03 0.  0.
         25    2    3    3    0    0 -0.44607751878E+02 -0.18252364088E+02  0.28526695918E+02  0.13653699668E+03  0.12452139881E+03 0.  0.
         35    2    3    3    0    0  0.44607751878E+02  0.18252364088E+02 -0.74534097814E+03  0.10936568485E+04  0.79889243854E+03 0.  0.
         22    1    5    5    0    0 -0.48617160641E+02 -0.38416069943E+03 -0.35454152785E+03  0.52501691999E+03  0.00000000000E+00 0.  1.
         22    1    5    5    0    0  0.93224912519E+02  0.40241306352E+03 -0.39079945029E+03  0.56863992856E+03  0.00000000000E+00 0.  1.
          5    1    4    4  502    0  0.29938341599E+02 -0.36502574998E+02  0.35609592831E+02  0.59320109413E+02  0.47000000000E+01 0.  1.
         -5    1    4    4    0  502 -0.74546093477E+02  0.18250210910E+02 -0.70828969123E+01  0.77216887270E+02  0.47000000000E+01 0.  1.
<mgrwt>
<rscale>  0 0.99977707E+03</rscale>
<asrwt>0</asrwt>
<pdfrwt beam="1">  1        2 0.14976986E+00 0.99977707E+03</pdfrwt>
<pdfrwt beam="2">  1       -2 0.39490736E-01 0.99977707E+03</pdfrwt>
<totfact> 0.19212359E+02</totfact>
</mgrwt>
</event>
<event>
 9    1  0.4488205E-036  0.1000319E+04  0.7818608E-02  0.8680734E-01
         -1   -1    0    0    0  501 -0.00000000000E+00  0.00000000000E+00  0.34190191931E+03  0.34190191931E+03  0.00000000000E+00 0.  1.
          1   -1    0    0  501    0  0.00000000000E+00 -0.00000000000E+00 -0.73167025624E+03  0.73167025624E+03  0.00000000000E+00 0.  1.
         36    2    1    2    0    0  0.00000000000E+00  0.00000000000E+00 -0.38976833693E+03  0.10735721755E+04  0.10003188790E+04 0.  0.
         25    2    3    3    0    0  0.69075614871E+02  0.88733058886E+02  0.18256976927E+02  0.17002188450E+03  0.12621064810E+03 0.  0.
         35    2    3    3    0    0 -0.69075614871E+02 -0.88733058886E+02 -0.40802531385E+03  0.90355029104E+03  0.79829410332E+03 0.  0.
         22    1    5    5    0    0 -0.15288932761E+03  0.13738642621E+03  0.17669327101E+03  0.27105477053E+03  0.00000000000E+00 0. -1.
         22    1    5    5    0    0  0.83813712743E+02 -0.22611948510E+03 -0.58471858486E+03  0.63249552051E+03  0.00000000000E+00 0. -1.
          5    1    4    4  502    0  0.75697644899E+02  0.47447985220E+02 -0.40132305306E+02  0.98051704085E+02  0.47000000000E+01 0.  1.
         -5    1    4    4    0  502 -0.66220300276E+01  0.41285073666E+02  0.58389282233E+02  0.71970180415E+02  0.47000000000E+01 0.  1.
<mgrwt>
<rscale>  0 0.10003189E+04</rscale>
<asrwt>0</asrwt>
<pdfrwt beam="1">  1        1 0.11256465E+00 0.10003189E+04</pdfrwt>
<pdfrwt beam="2">  1       -1 0.52600296E-01 0.10003189E+04</pdfrwt>
<totfact> 0.10629217E+02</totfact>
</mgrwt>
</event>
<event>
 9    1  0.4488205E-036  0.1000563E+04  0.7818608E-02  0.8680502E-01
         -1   -1    0    0    0  501 -0.00000000000E+00  0.00000000000E+00  0.21370496551E+03  0.21370496551E+03  0.00000000000E+00 0.  1.
          1   -1    0    0  501    0  0.00000000000E+00 -0.00000000000E+00 -0.11711545205E+04  0.11711545205E+04  0.00000000000E+00 0.  1.
         36    2    1    2    0    0  0.00000000000E+00  0.00000000000E+00 -0.95744955495E+03  0.13848594860E+04  0.10005629144E+04 0.  0.
         25    2    3    3    0    0  0.56450608650E+02  0.13076158805E+03 -0.18368074942E+03  0.26318850823E+03  0.12346784614E+03 0.  0.
         35    2    3    3    0    0 -0.56450608650E+02 -0.13076158805E+03 -0.77376880554E+03  0.11216709777E+04  0.79946379140E+03 0.  0.
         22    1    5    5    0    0  0.44272270583E+02  0.30529667221E+03 -0.52688233568E+03  0.61054982406E+03  0.00000000000E+00 0. -1.
         22    1    5    5    0    0 -0.10072287923E+03 -0.43605826027E+03 -0.24688646986E+03  0.51112115369E+03  0.00000000000E+00 0. -1.
          5    1    4    4  502    0 -0.15133218570E+02  0.34702451735E+02 -0.12307180367E+03  0.12884887784E+03  0.47000000000E+01 0.  1.
         -5    1    4    4    0  502  0.71583827220E+02  0.96059136318E+02 -0.60608945742E+02  0.13433963039E+03  0.47000000000E+01 0.  1.
<mgrwt>
<rscale>  0 0.10005629E+04</rscale>
<asrwt>0</asrwt>
<pdfrwt beam="1">  1        1 0.18017762E+00 0.10005629E+04</pdfrwt>
<pdfrwt beam="2">  1       -1 0.32877687E-01 0.10005629E+04</pdfrwt>
<totfact> 0.10756979E+02</totfact>
</mgrwt>
</event>
<event>
 9    1  0.4488205E-036  0.1000420E+04  0.7818608E-02  0.8680638E-01
         -2   -1    0    0    0  501 -0.00000000000E+00  0.00000000000E+00  0.57911005827E+03  0.57911005827E+03  0.00000000000E+00 0.  1.
          2   -1    0    0  501    0  0.00000000000E+00 -0.00000000000E+00 -0.43205940552E+03  0.43205940552E+03  0.00000000000E+00 0.  1.
         36    2    1    2    0    0  0.00000000000E+00 -0.14210854715E-13  0.14705065275E+03  0.10111694638E+04  0.10004198069E+04 0.  0.
         25    2    3    3    0    0  0.74347255609E+02  0.76975430199E+02  0.12170377356E+03  0.20336219796E+03  0.12284805163E+03 0.  0.
         35    2    3    3    0    0 -0.74347255609E+02 -0.76975430199E+02  0.25346879187E+02  0.80780726583E+03  0.80028581343E+03 0.  0.
         22    1    5    5    0    0  0.93211492466E+02 -0.37696247674E+03  0.18356825671E+03  0.42951879594E+03  0.00000000000E+00 0.  1.
         22    1    5    5    0    0 -0.16755874807E+03  0.29998704654E+03 -0.15822137752E+03  0.37828846989E+03  0.00000000000E+00 0.  1.
          5    1    4    4  502    0  0.39627238763E+02  0.43647349083E+02  0.13974994270E+03  0.15174829692E+03  0.47000000000E+01 0.  1.
         -5    1    4    4    0  502  0.34720016846E+02  0.33328081116E+02 -0.18046169133E+02  0.51613901045E+02  0.47000000000E+01 0.  1.
<mgrwt>
<rscale>  0 0.10004198E+04</rscale>
<asrwt>0</asrwt>
<pdfrwt beam="1">  1        2 0.66470678E-01 0.10004198E+04</pdfrwt>
<pdfrwt beam="2">  1       -2 0.89093855E-01 0.10004198E+04</pdfrwt>
<totfact> 0.94247840E+01</totfact>
</mgrwt>
</event>
<event>
 9    1  0.4488205E-036  0.1000065E+04  0.7818608E-02  0.8680976E-01
          1   -1    0    0  501    0  0.00000000000E+00  0.00000000000E+00  0.10535988626E+04  0.10535988626E+04  0.00000000000E+00 0.  1.
         -1   -1    0    0    0  501 -0.00000000000E+00 -0.00000000000E+00 -0.23731270177E+03  0.23731270177E+03  0.00000000000E+00 0.  1.
         36    2    1    2    0    0 -0.14210854715E-13  0.00000000000E+00  0.81628616081E+03  0.12909115644E+04  0.10000647832E+04 0.  0.
         25    2    3    3    0    0 -0.55477270773E+02 -0.10794200377E+03  0.24609747277E+03  0.30143095276E+03  0.12476958536E+03 0.  0.
         35    2    3    3    0    0  0.55477270773E+02  0.10794200377E+03  0.57018868805E+03  0.98948061160E+03  0.79951706486E+03 0.  0.
         22    1    5    5    0    0  0.33323841289E+03  0.34930276834E+02  0.61350117648E+03  0.69903623483E+03  0.00000000000E+00 0.  1.
         22    1    5    5    0    0 -0.27776114212E+03  0.73011726933E+02 -0.43312488429E+02  0.29044437677E+03  0.00000000000E+00 0.  1.
          5    1    4    4  502    0  0.10233623645E+02 -0.10725768916E+03  0.14365948010E+03  0.17963595174E+03  0.47000000000E+01 0. -1.
         -5    1    4    4    0  502 -0.65710894418E+02 -0.68431461038E+00  0.10243799267E+03  0.12179500102E+03  0.47000000000E+01 0. -1.
<mgrwt>
<rscale>  0 0.10000648E+04</rscale>
<asrwt>0</asrwt>
<pdfrwt beam="1">  1        1 0.16209213E+00 0.10000648E+04</pdfrwt>
<pdfrwt beam="2">  1       -1 0.36509647E-01 0.10000648E+04</pdfrwt>
<totfact> 0.11023718E+02</totfact>
</mgrwt>
</event>
<event>
 9    1  0.4488205E-036  0.1000817E+04  0.7818608E-02  0.8680260E-01
         -2   -1    0    0    0  501 -0.00000000000E+00  0.00000000000E+00  0.58504741626E+03  0.58504741626E+03  0.00000000000E+00 0.  1.
          2   -1    0    0  501    0  0.00000000000E+00 -0.00000000000E+00 -0.42801421958E+03  0.42801421958E+03  0.00000000000E+00 0.  1.
         36    2    1    2    0    0 -0.14210854715E-13  0.00000000000E+00  0.15703319669E+03  0.10130616358E+04  0.10008168929E+04 0.  0.
         25    2    3    3    0    0 -0.12671198581E+03 -0.55409936529E+02  0.16207437729E+02  0.18974922451E+03  0.12890267163E+03 0.  0.
         35    2    3    3    0    0  0.12671198581E+03  0.55409936529E+02  0.14082575896E+03  0.82331241133E+03  0.79930297375E+03 0.  0.
         22    1    5    5    0    0 -0.88039351687E+02  0.19361920819E+03  0.40401705807E+03  0.45658417454E+03  0.00000000000E+00 0.  1.
         22    1    5    5    0    0  0.21475133749E+03 -0.13820927166E+03 -0.26319129911E+03  0.36672823679E+03  0.00000000000E+00 0.  1.
          5    1    4    4  502    0 -0.72407930170E+01 -0.49382649964E+02  0.44166797599E+02  0.66812208548E+02  0.47000000000E+01 0. -1.
         -5    1    4    4    0  502 -0.11947119279E+03 -0.60272865647E+01 -0.27959359869E+02  0.12293701596E+03  0.47000000000E+01 0. -1.
<mgrwt>
<rscale>  0 0.10008169E+04</rscale>
<asrwt>0</asrwt>
<pdfrwt beam="1">  1        2 0.65848341E-01 0.10008169E+04</pdfrwt>
<pdfrwt beam="2">  1       -2 0.90007295E-01 0.10008169E+04</pdfrwt>
<totfact> 0.92995854E+01</totfact>
</mgrwt>
</event>
<event>
 9    1  0.4488205E-036  0.9996460E+03  0.7818608E-02  0.8681375E-01
         -1   -1    0    0    0  501 -0.00000000000E+00  0.00000000000E+00  0.15714796307E+03  0.15714796307E+03  0.00000000000E+00 0.  1.
          1   -1    0    0  501    0  0.00000000000E+00 -0.00000000000E+00 -0.15897313263E+04  0.15897313263E+04  0.00000000000E+00 0.  1.
         36    2    1    2    0    0  0.14210854715E-13 -0.14210854715E-13 -0.14325833633E+04  0.17468792894E+04  0.99964601688E+03 0.  0.
         25    2    3    3    0    0 -0.11164406241E+03  0.84941500449E+02 -0.23034559617E+03  0.29720825096E+03  0.12487672158E+03 0.  0.
         35    2    3    3    0    0  0.11164406241E+03 -0.84941500449E+02 -0.12022377671E+04  0.14496710385E+04  0.79780387058E+03 0.  0.
         22    1    5    5    0    0  0.38939350658E+02  0.31700150219E+03 -0.85792777869E+03  0.91544868718E+03  0.00000000000E+00 0. -1.
         22    1    5    5    0    0  0.72704711756E+02 -0.40194300263E+03 -0.34430998841E+03  0.53422235127E+03  0.00000000000E+00 0. -1.
          5    1    4    4  502    0 -0.25615628774E+02 -0.24699924703E+01  0.94609288278E+01  0.27818347805E+02  0.47000000000E+01 0.  1.
         -5    1    4    4    0  502 -0.86028433640E+02  0.87411492919E+02 -0.23980652500E+03  0.26938990316E+03  0.47000000000E+01 0.  1.
<mgrwt>
<rscale>  0 0.99964602E+03</rscale>
<asrwt>0</asrwt>
<pdfrwt beam="1">  1        1 0.24457404E+00 0.99964602E+03</pdfrwt>
<pdfrwt beam="2">  1       -1 0.24176611E-01 0.99964602E+03</pdfrwt>
<totfact> 0.90275653E+01</totfact>
</mgrwt>
</event>
<event>
 9    1  0.4488205E-036  0.1002533E+04  0.7818608E-02  0.8678630E-01
          2   -1    0    0  501    0  0.00000000000E+00  0.00000000000E+00  0.12572713010E+04  0.12572713010E+04  0.00000000000E+00 0.  1.
         -2   -1    0    0    0  501 -0.00000000000E+00 -0.00000000000E+00 -0.19985189704E+03  0.19985189704E+03  0.00000000000E+00 0.  1.
         36    2    1    2    0    0  0.00000000000E+00  0.00000000000E+00  0.10574194040E+04  0.14571231980E+04  0.10025329014E+04 0.  0.
         25    2    3    3    0    0  0.69042905250E+02  0.98429872974E+02  0.30258416229E+03  0.34902243289E+03  0.12571444123E+03 0.  0.
         35    2    3    3    0    0 -0.69042905250E+02 -0.98429872974E+02  0.75483524167E+03  0.11081007652E+04  0.80228155969E+03 0.  0.
         22    1    5    5    0    0  0.89456988625E+01 -0.17559549421E+03  0.90511503835E+03  0.92203418362E+03  0.00000000000E+00 0. -1.
         22    1    5    5    0    0 -0.77988604113E+02  0.77165621241E+02 -0.15027979668E+03  0.18606658153E+03  0.00000000000E+00 0. -1.
          5    1    4    4  502    0  0.19641133338E+02  0.10031585056E+03  0.11041830068E+03  0.15054346587E+03  0.47000000000E+01 0.  1.
         -5    1    4    4    0  502  0.49401771912E+02 -0.18859775852E+01  0.19216586161E+03  0.19847896702E+03  0.47000000000E+01 0.  1.
<mgrwt>
<rscale>  0 0.10025329E+04</rscale>
<asrwt>0</asrwt>
<pdfrwt beam="1">  1        2 0.19342635E+00 0.10025329E+04</pdfrwt>
<pdfrwt beam="2">  1       -2 0.30746446E-01 0.10025329E+04</pdfrwt>
<totfact> 0.20632828E+02</totfact>
</mgrwt>
</event>
<event>
 9    1  0.4488205E-036  0.1000180E+04  0.7818608E-02  0.8680866E-01
          2   -1    0    0  501    0  0.00000000000E+00  0.00000000000E+00  0.21458119109E+04  0.21458119109E+04  0.00000000000E+00 0. -1.
         -2   -1    0    0    0  501 -0.00000000000E+00 -0.00000000000E+00 -0.11654807142E+03  0.11654807142E+03  0.00000000000E+00 0. -1.
         36    2    1    2    0    0 -0.14210854715E-13 -0.14210854715E-13  0.20292638395E+04  0.22623599823E+04  0.10001804634E+04 0.  0.
         25    2    3    3    0    0  0.56793303009E+02 -0.12700592300E+03  0.39210364019E+03  0.43453959031E+03  0.12539301078E+03 0.  0.
         35    2    3    3    0    0 -0.56793303009E+02  0.12700592300E+03  0.16371601993E+04  0.18278203920E+04  0.80079827895E+03 0.  0.
         22    1    5    5    0    0 -0.13307724082E+03 -0.20240733583E+03  0.13849851772E+04  0.14060093253E+04  0.00000000000E+00 0.  1.
         22    1    5    5    0    0  0.76283937808E+02  0.32941325883E+03  0.25217502202E+03  0.42181106670E+03  0.00000000000E+00 0.  1.
          5    1    4    4  502    0 -0.28241116993E+02 -0.44757049063E+01  0.25013957160E+02  0.38280290964E+02  0.47000000000E+01 0. -1.
         -5    1    4    4    0  502  0.85034420002E+02 -0.12253021809E+03  0.36708968303E+03  0.39625929935E+03  0.47000000000E+01 0. -1.
<mgrwt>
<rscale>  0 0.10001805E+04</rscale>
<asrwt>0</asrwt>
<pdfrwt beam="1">  1        2 0.33012488E+00 0.10001805E+04</pdfrwt>
<pdfrwt beam="2">  1       -2 0.17930474E-01 0.10001805E+04</pdfrwt>
<totfact> 0.16684881E+02</totfact>
</mgrwt>
</event>
<event>
 9    1  0.4488205E-036  0.1002851E+04  0.7818608E-02  0.8678328E-01
          1   -1    0    0  501    0  0.00000000000E+00  0.00000000000E+00  0.32793049989E+03  0.32793049989E+03  0.00000000000E+00 0. -1.
         -1   -1    0    0    0  501 -0.00000000000E+00 -0.00000000000E+00 -0.76670951910E+03  0.76670951910E+03  0.00000000000E+00 0. -1.
         36    2    1    2    0    0 -0.28421709430E-13  0.35527136788E-13 -0.43877901921E+03  0.10946400190E+04  0.10028508082E+04 0.  0.
         25    2    3    3    0    0 -0.10332962773E+03  0.11407608311E+02 -0.18754551231E+03  0.24933408292E+03  0.12722822101E+03 0.  0.
         35    2    3    3    0    0  0.10332962773E+03 -0.11407608311E+02 -0.25123350689E+03  0.84530593607E+03  0.80038534786E+03 0.  0.
         22    1    5    5    0    0 -0.82740330493E+02  0.35149233473E+03  0.95631816327E+01  0.36122607617E+03  0.00000000000E+00 0. -1.
         22    1    5    5    0    0  0.18606995822E+03 -0.36289994304E+03 -0.26079668853E+03  0.48407985990E+03  0.00000000000E+00 0. -1.
          5    1    4    4  502    0  0.14853980795E+02  0.38643715541E+02 -0.62107404218E+02  0.74789017609E+02  0.47000000000E+01 0. -1.
         -5    1    4    4    0  502 -0.11818360852E+03 -0.27236107231E+02 -0.12543810810E+03  0.17454506531E+03  0.47000000000E+01 0. -1.
<mgrwt>
<rscale>  0 0.10028508E+04</rscale>
<asrwt>0</asrwt>
<pdfrwt beam="1">  1        1 0.50450847E-01 0.10028508E+04</pdfrwt>
<pdfrwt beam="2">  1       -1 0.11795531E+00 0.10028508E+04</pdfrwt>
<totfact> 0.60554493E+01</totfact>
</mgrwt>
</event>
<event>
 9    1  0.4488205E-036  0.9996284E+03  0.7818608E-02  0.8681392E-01
         -2   -1    0    0    0  501 -0.00000000000E+00  0.00000000000E+00  0.98651966372E+03  0.98651966372E+03  0.00000000000E+00 0. -1.
          2   -1    0    0  501    0  0.00000000000E+00 -0.00000000000E+00 -0.25322782142E+03  0.25322782142E+03  0.00000000000E+00 0. -1.
         36    2    1    2    0    0  0.14210854715E-13  0.14210854715E-13  0.73329184230E+03  0.12397474851E+04  0.99962838141E+03 0.  0.
         25    2    3    3    0    0  0.74577770038E+02 -0.25363458142E+02  0.28054194199E+03  0.31707302254E+03  0.12500548634E+03 0.  0.
         35    2    3    3    0    0 -0.74577770038E+02  0.25363458142E+02  0.45274990031E+03  0.92267446260E+03  0.80008783450E+03 0.  0.
         22    1    5    5    0    0  0.24484215477E+03 -0.21212395871E+03  0.40972997292E+03  0.52232452108E+03  0.00000000000E+00 0.  1.
         22    1    5    5    0    0 -0.31941992480E+03  0.23748741685E+03  0.43019927391E+02  0.40034994152E+03  0.00000000000E+00 0.  1.
          5    1    4    4  502    0 -0.63415417976E+01 -0.59135221981E+02  0.12326789178E+03  0.13694616743E+03  0.47000000000E+01 0.  1.
         -5    1    4    4    0  502  0.80919311835E+02  0.33771763839E+02  0.15727405021E+03  0.18012685511E+03  0.47000000000E+01 0.  1.
<mgrwt>
<rscale>  0 0.99962838E+03</rscale>
<asrwt>0</asrwt>
<pdfrwt beam="1">  1        2 0.38958127E-01 0.99962838E+03</pdfrwt>
<pdfrwt beam="2">  1       -2 0.15177225E+00 0.99962838E+03</pdfrwt>
<totfact> 0.43560001E+01</totfact>
</mgrwt>
</event>
<event>
 9    1  0.4488205E-036  0.9995815E+03  0.7818608E-02  0.8681437E-01
          2   -1    0    0  501    0  0.00000000000E+00  0.00000000000E+00  0.32030143467E+03  0.32030143467E+03  0.00000000000E+00 0.  1.
         -2   -1    0    0    0  501 -0.00000000000E+00 -0.00000000000E+00 -0.77986157931E+03  0.77986157931E+03  0.00000000000E+00 0.  1.
         36    2    1    2    0    0  0.14210854715E-13  0.00000000000E+00 -0.45956014464E+03  0.11001630140E+04  0.99958147780E+03 0.  0.
         25    2    3    3    0    0 -0.85055428007E+02 -0.83411322900E+02 -0.71479782737E+01  0.17268381934E+03  0.12480678366E+03 0.  0.
         35    2    3    3    0    0  0.85055428007E+02  0.83411322900E+02 -0.45241216637E+03  0.92747919463E+03  0.80084268966E+03 0.  0.
         22    1    5    5    0    0 -0.22014275098E+03  0.97580595412E+02 -0.55516309439E+03  0.60513706281E+03  0.00000000000E+00 0. -1.
         22    1    5    5    0    0  0.30519817899E+03 -0.14169272512E+02  0.10275092802E+03  0.32234213182E+03  0.00000000000E+00 0. -1.
          5    1    4    4  502    0  0.26976036675E+02 -0.28830189606E+02 -0.24605786434E+02  0.46759182130E+02  0.47000000000E+01 0.  1.
         -5    1    4    4    0  502 -0.11203146468E+03 -0.54581133294E+02  0.17457808160E+02  0.12592463721E+03  0.47000000000E+01 0.  1.
<mgrwt>
<rscale>  0 0.99958148E+03</rscale>
<asrwt>0</asrwt>
<pdfrwt beam="1">  1        2 0.49277144E-01 0.99958148E+03</pdfrwt>
<pdfrwt beam="2">  1       -2 0.11997870E+00 0.99958148E+03</pdfrwt>
<totfact> 0.63216013E+01</totfact>
</mgrwt>
</event>
<event>
 9    1  0.4488205E-036  0.1000050E+04  0.7818608E-02  0.8680990E-01
         -4   -1    0    0    0  501 -0.00000000000E+00  0.00000000000E+00  0.14133715083E+04  0.14133715083E+04  0.00000000000E+00 0.  1.
          4   -1    0    0  501    0  0.00000000000E+00 -0.00000000000E+00 -0.17689984686E+03  0.17689984686E+03  0.00000000000E+00 0.  1.
         36    2    1    2    0    0  0.00000000000E+00  0.14210854715E-13  0.12364716614E+04  0.15902713551E+04  0.10000504055E+04 0.  0.
         25    2    3    3    0    0 -0.84045544927E+02 -0.22906444860E+02  0.56672442529E+02  0.16233932662E+03  0.12471540557E+03 0.  0.
         35    2    3    3    0    0  0.84045544927E+02  0.22906444860E+02  0.11797992189E+04  0.14279320285E+04  0.79967200922E+03 0.  0.
         22    1    5    5    0    0  0.32924688466E+03  0.27339218287E+03  0.46589849017E+03  0.63262010706E+03  0.00000000000E+00 0. -1.
         22    1    5    5    0    0 -0.24520133973E+03 -0.25048573801E+03  0.71390072870E+03  0.79531192144E+03  0.00000000000E+00 0. -1.
          5    1    4    4  502    0 -0.82342621835E+01  0.47051397711E+02  0.26150109020E+02  0.54658533661E+02  0.47000000000E+01 0.  1.
         -5    1    4    4    0  502 -0.75811282743E+02 -0.69957842571E+02  0.30522333510E+02  0.10768079295E+03  0.47000000000E+01 0.  1.
<mgrwt>
<rscale>  0 0.10000504E+04</rscale>
<asrwt>0</asrwt>
<pdfrwt beam="1">  1        4 0.27215362E-01 0.10000504E+04</pdfrwt>
<pdfrwt beam="2">  1       -4 0.21744176E+00 0.10000504E+04</pdfrwt>
<totfact> 0.22532040E+00</totfact>
</mgrwt>
</event>
<event>
 9    1  0.4488205E-036  0.1000422E+04  0.7818608E-02  0.8680636E-01
          2   -1    0    0  501    0  0.00000000000E+00  0.00000000000E+00  0.34106924201E+04  0.34106924201E+04  0.00000000000E+00 0.  1.
         -2   -1    0    0    0  501 -0.00000000000E+00 -0.00000000000E+00 -0.73360821512E+02  0.73360821512E+02  0.00000000000E+00 0.  1.
         36    2    1    2    0    0  0.14210854715E-13  0.00000000000E+00  0.33373315986E+04  0.34840532416E+04  0.10004223066E+04 0.  0.
         25    2    3    3    0    0 -0.72248716811E+02 -0.12055228421E+03  0.59174112357E+03  0.62094820117E+03  0.12516541420E+03 0.  0.
         35    2    3    3    0    0  0.72248716811E+02  0.12055228421E+03  0.27455904750E+04  0.28631050405E+04  0.79959407561E+03 0.  0.
         22    1    5    5    0    0 -0.83511419793E+02 -0.32639834813E+03  0.12318639422E+04  0.12771056382E+04  0.00000000000E+00 0.  1.
         22    1    5    5    0    0  0.15576013660E+03  0.44695063234E+03  0.15137265328E+04  0.15859994023E+04  0.00000000000E+00 0.  1.
          5    1    4    4  502    0  0.13847591355E+02 -0.40560888824E+02  0.34415905591E+03  0.34684937257E+03  0.47000000000E+01 0. -1.
         -5    1    4    4    0  502 -0.86096308166E+02 -0.79991395383E+02  0.24758206765E+03  0.27409882860E+03  0.47000000000E+01 0. -1.
<mgrwt>
<rscale>  0 0.10004223E+04</rscale>
<asrwt>0</asrwt>
<pdfrwt beam="1">  1        2 0.52472179E+00 0.10004223E+04</pdfrwt>
<pdfrwt beam="2">  1       -2 0.11286283E-01 0.10004223E+04</pdfrwt>
<totfact> 0.55242964E+01</totfact>
</mgrwt>
</event>
<event>
 9    1  0.4488205E-036  0.9957843E+03  0.7818608E-02  0.8685063E-01
         -1   -1    0    0    0  501 -0.00000000000E+00  0.00000000000E+00  0.45439093669E+03  0.45439093669E+03  0.00000000000E+00 0.  1.
          1   -1    0    0  501    0  0.00000000000E+00 -0.00000000000E+00 -0.54555799262E+03  0.54555799262E+03  0.00000000000E+00 0.  1.
         36    2    1    2    0    0 -0.56843418861E-13  0.14210854715E-13 -0.91167055929E+02  0.99994892931E+03  0.99578432863E+03 0.  0.
         25    2    3    3    0    0 -0.92526100980E+02  0.77643952345E+02  0.43578669911E+02  0.17947167821E+03  0.12538468850E+03 0.  0.
         35    2    3    3    0    0  0.92526100980E+02 -0.77643952345E+02 -0.13474572584E+03  0.82047725110E+03  0.80027298232E+03 0.  0.
         22    1    5    5    0    0  0.44051923733E+03 -0.83590703121E+01  0.92842405323E+00  0.44059951712E+03  0.00000000000E+00 0.  1.
         22    1    5    5    0    0 -0.34799313635E+03 -0.69284882033E+02 -0.13567414989E+03  0.37987773398E+03  0.00000000000E+00 0.  1.
          5    1    4    4  502    0 -0.26078002711E+02  0.15119353272E+02  0.76501227417E+02  0.82360092673E+02  0.47000000000E+01 0. -1.
         -5    1    4    4    0  502 -0.66448098269E+02  0.62524599073E+02 -0.32922557505E+02  0.97111585537E+02  0.47000000000E+01 0. -1.
<mgrwt>
<rscale>  0 0.99578433E+03</rscale>
<asrwt>0</asrwt>
<pdfrwt beam="1">  1        1 0.83931998E-01 0.99578433E+03</pdfrwt>
<pdfrwt beam="2">  1       -1 0.69906299E-01 0.99578433E+03</pdfrwt>
<totfact> 0.95192788E+01</totfact>
</mgrwt>
</event>
<event>
 9    1  0.4488205E-036  0.9984178E+03  0.7818608E-02  0.8682546E-01
          1   -1    0    0  501    0  0.00000000000E+00  0.00000000000E+00  0.34400995346E+03  0.34400995346E+03  0.00000000000E+00 0. -1.
         -1   -1    0    0    0  501 -0.00000000000E+00 -0.00000000000E+00 -0.72442533036E+03  0.72442533036E+03  0.00000000000E+00 0. -1.
         36    2    1    2    0    0  0.00000000000E+00  0.21316282073E-13 -0.38041537689E+03  0.10684352838E+04  0.99841779668E+03 0.  0.
         25    2    3    3    0    0  0.10015691863E+03 -0.59445835295E+02 -0.15094976520E+03  0.22799963543E+03  0.12503114196E+03 0.  0.
         35    2    3    3    0    0 -0.10015691863E+03  0.59445835295E+02 -0.22946561169E+03  0.84043564839E+03  0.80007024470E+03 0.  0.
         22    1    5    5    0    0 -0.30751034098E+03 -0.20197730385E+03  0.89709343914E+02  0.37868880029E+03  0.00000000000E+00 0.  1.
         22    1    5    5    0    0  0.20735342236E+03  0.26142313914E+03 -0.31917495561E+03  0.46174684810E+03  0.00000000000E+00 0.  1.
          5    1    4    4  502    0  0.44320643640E+02 -0.60842176700E+02 -0.97076775176E+01  0.76042218017E+02  0.47000000000E+01 0. -1.
         -5    1    4    4    0  502  0.55836274987E+02  0.13963414041E+01 -0.14124208768E+03  0.15195741741E+03  0.47000000000E+01 0. -1.
<mgrwt>
<rscale>  0 0.99841780E+03</rscale>
<asrwt>0</asrwt>
<pdfrwt beam="1">  1        1 0.52924608E-01 0.99841780E+03</pdfrwt>
<pdfrwt beam="2">  1       -1 0.11145005E+00 0.99841780E+03</pdfrwt>
<totfact> 0.65214742E+01</totfact>
</mgrwt>
</event>
<event>
 9    1  0.4488205E-036  0.9999345E+03  0.7818608E-02  0.8681100E-01
         -2   -1    0    0    0  501 -0.00000000000E+00  0.00000000000E+00  0.21553818467E+03  0.21553818467E+03  0.00000000000E+00 0. -1.
          2   -1    0    0  501    0  0.00000000000E+00 -0.00000000000E+00 -0.11597353904E+04  0.11597353904E+04  0.00000000000E+00 0. -1.
         36    2    1    2    0    0  0.63948846218E-13  0.71054273576E-14 -0.94419720571E+03  0.13752735751E+04  0.99993451934E+03 0.  0.
         25    2    3    3    0    0 -0.61617636829E+02 -0.31869539260E+02 -0.34335903025E+03  0.37189959699E+03  0.12490590813E+03 0.  0.
         35    2    3    3    0    0  0.61617636829E+02  0.31869539260E+02 -0.60083817546E+03  0.10033739781E+04  0.80058755053E+03 0.  0.
         22    1    5    5    0    0 -0.27650043022E+03  0.47711568319E+02 -0.60277342974E+03  0.66487945469E+03  0.00000000000E+00 0.  1.
         22    1    5    5    0    0  0.33811806704E+03 -0.15842029059E+02  0.19352542816E+01  0.33849452338E+03  0.00000000000E+00 0.  1.
          5    1    4    4  502    0  0.31473011468E+02  0.18454524464E+02 -0.96501713130E+02  0.10327531438E+03  0.47000000000E+01 0. -1.
         -5    1    4    4    0  502 -0.93090648297E+02 -0.50324063723E+02 -0.24685731712E+03  0.26862428261E+03  0.47000000000E+01 0. -1.
<mgrwt>
<rscale>  0 0.99993452E+03</rscale>
<asrwt>0</asrwt>
<pdfrwt beam="1">  1        2 0.17842083E+00 0.99993452E+03</pdfrwt>
<pdfrwt beam="2">  1       -2 0.33159721E-01 0.99993452E+03</pdfrwt>
<totfact> 0.20500461E+02</totfact>
</mgrwt>
</event>
<event>
 9    1  0.4488205E-036  0.1000476E+04  0.7818608E-02  0.8680584E-01
         -2   -1    0    0    0  501 -0.00000000000E+00  0.00000000000E+00  0.25014745474E+03  0.25014745474E+03  0.00000000000E+00 0. -1.
          2   -1    0    0  501    0  0.00000000000E+00 -0.00000000000E+00 -0.10003631732E+04  0.10003631732E+04  0.00000000000E+00 0. -1.
         36    2    1    2    0    0  0.26645352591E-13  0.00000000000E+00 -0.75021571847E+03  0.12505106279E+04  0.10004764897E+04 0.  0.
         25    2    3    3    0    0  0.11934731257E+02  0.13551526132E+01 -0.31370257344E+03  0.33803467851E+03  0.12535495622E+03 0.  0.
         35    2    3    3    0    0 -0.11934731257E+02 -0.13551526132E+01 -0.43651314503E+03  0.91247594944E+03  0.80120182118E+03 0.  0.
         22    1    5    5    0    0 -0.34518566628E+03  0.10474455008E+02 -0.46340398089E+03  0.57793261538E+03  0.00000000000E+00 0.  1.
         22    1    5    5    0    0  0.33325093502E+03 -0.11829607621E+02  0.26890835855E+02  0.33454333406E+03  0.00000000000E+00 0.  1.
          5    1    4    4  502    0  0.72175605331E+01  0.23530578099E+02 -0.16363903181E+01  0.25110735931E+02  0.47000000000E+01 0. -1.
         -5    1    4    4    0  502  0.47171707240E+01 -0.22175425485E+02 -0.31206618312E+03  0.31292394258E+03  0.47000000000E+01 0. -1.
<mgrwt>
<rscale>  0 0.10004765E+04</rscale>
<asrwt>0</asrwt>
<pdfrwt beam="1">  1        2 0.15390203E+00 0.10004765E+04</pdfrwt>
<pdfrwt beam="2">  1       -2 0.38484224E-01 0.10004765E+04</pdfrwt>
<totfact> 0.19407476E+02</totfact>
</mgrwt>
</event>
<event>
 9    1  0.4488205E-036  0.1000147E+04  0.7818608E-02  0.8680898E-01
          1   -1    0    0  501    0  0.00000000000E+00  0.00000000000E+00  0.50984319336E+03  0.50984319336E+03  0.00000000000E+00 0. -1.
         -1   -1    0    0    0  501 -0.00000000000E+00 -0.00000000000E+00 -0.49049089614E+03  0.49049089614E+03  0.00000000000E+00 0. -1.
         36    2    1    2    0    0 -0.71054273576E-14  0.21316282073E-13  0.19352297214E+02  0.10003340895E+04  0.10001468788E+04 0.  0.
         25    2    3    3    0    0 -0.90812148067E+00 -0.39034313719E+02  0.13811662169E+03  0.19066259812E+03  0.12550507082E+03 0.  0.
         35    2    3    3    0    0  0.90812148067E+00  0.39034313719E+02 -0.11876432447E+03  0.80967149138E+03  0.79996153461E+03 0.  0.
         22    1    5    5    0    0 -0.29889403319E+03 -0.16837201895E+03  0.13159495919E+03  0.36742892255E+03  0.00000000000E+00 0. -1.
         22    1    5    5    0    0  0.29980215467E+03  0.20740633267E+03 -0.25035928366E+03  0.44224256883E+03  0.00000000000E+00 0. -1.
          5    1    4    4  502    0  0.66122865098E+01 -0.27594807638E+02 -0.17964484883E+02  0.33911774630E+02  0.47000000000E+01 0.  1.
         -5    1    4    4    0  502 -0.75204079904E+01 -0.11439506081E+02  0.15608110657E+03  0.15675082349E+03  0.47000000000E+01 0.  1.
<mgrwt>
<rscale>  0 0.10001469E+04</rscale>
<asrwt>0</asrwt>
<pdfrwt beam="1">  1        1 0.78437415E-01 0.10001469E+04</pdfrwt>
<pdfrwt beam="2">  1       -1 0.75460137E-01 0.10001469E+04</pdfrwt>
<totfact> 0.89761137E+01</totfact>
</mgrwt>
</event>
<event>
 9    1  0.4488205E-036  0.9979261E+03  0.7818608E-02  0.8683015E-01
         -1   -1    0    0    0  501 -0.00000000000E+00  0.00000000000E+00  0.37054723812E+03  0.37054723812E+03  0.00000000000E+00 0.  1.
          1   -1    0    0  501    0  0.00000000000E+00 -0.00000000000E+00 -0.67188224832E+03  0.67188224832E+03  0.00000000000E+00 0.  1.
         36    2    1    2    0    0  0.71054273576E-14  0.14210854715E-13 -0.30133501019E+03  0.10424294864E+04  0.99792607232E+03 0.  0.
         25    2    3    3    0    0  0.17517013012E+02  0.10310557640E+03 -0.14519748356E+03  0.21823557262E+03  0.12492738009E+03 0.  0.
         35    2    3    3    0    0 -0.17517013012E+02 -0.10310557640E+03 -0.15613752663E+03  0.82419391382E+03  0.80248306818E+03 0.  0.
         22    1    5    5    0    0  0.81804317878E+02 -0.36264627734E+02 -0.47512651884E+03  0.48347934656E+03  0.00000000000E+00 0.  1.
         22    1    5    5    0    0 -0.99321330890E+02 -0.66840948663E+02  0.31898899221E+03  0.34071456725E+03  0.00000000000E+00 0.  1.
          5    1    4    4  502    0 -0.34054005885E+02  0.10558429955E+03 -0.96689448869E+02  0.14723674525E+03  0.47000000000E+01 0.  1.
         -5    1    4    4    0  502  0.51571018897E+02 -0.24787231557E+01 -0.48508034692E+02  0.70998827372E+02  0.47000000000E+01 0.  1.
<mgrwt>
<rscale>  0 0.99792607E+03</rscale>
<asrwt>0</asrwt>
<pdfrwt beam="1">  1        1 0.10336650E+00 0.99792607E+03</pdfrwt>
<pdfrwt beam="2">  1       -1 0.57007268E-01 0.99792607E+03</pdfrwt>
<totfact> 0.10417105E+02</totfact>
</mgrwt>
</event>
<event>
 9    1  0.4488205E-036  0.1000893E+04  0.7818608E-02  0.8680188E-01
          2   -1    0    0  501    0  0.00000000000E+00  0.00000000000E+00  0.20507528968E+04  0.20507528968E+04  0.00000000000E+00 0.  1.
         -2   -1    0    0    0  501 -0.00000000000E+00 -0.00000000000E+00 -0.12212422809E+03  0.12212422809E+03  0.00000000000E+00 0.  1.
         36    2    1    2    0    0  0.00000000000E+00  0.14210854715E-13  0.19286286687E+04  0.21728771249E+04  0.10008928305E+04 0.  0.
         25    2    3    3    0    0  0.11802680975E+03 -0.58404158287E+02  0.45858946486E+03  0.49314676052E+03  0.12469184659E+03 0.  0.
         35    2    3    3    0    0 -0.11802680975E+03  0.58404158287E+02  0.14700392039E+04  0.16797303644E+04  0.80195851675E+03 0.  0.
         22    1    5    5    0    0 -0.39617310305E+01 -0.35653420203E+03  0.46129695699E+03  0.58303277357E+03  0.00000000000E+00 0. -1.
         22    1    5    5    0    0 -0.11406507872E+03  0.41493836032E+03  0.10087422469E+04  0.10966975908E+04  0.00000000000E+00 0. -1.
          5    1    4    4  502    0  0.17142389272E+02 -0.51805707772E+02  0.57197858442E+02  0.79192031657E+02  0.47000000000E+01 0. -1.
         -5    1    4    4    0  502  0.10088442048E+03 -0.65984505148E+01  0.40139160642E+03  0.41395472887E+03  0.47000000000E+01 0. -1.
<mgrwt>
<rscale>  0 0.10008928E+04</rscale>
<asrwt>0</asrwt>
<pdfrwt beam="1">  1        2 0.31550042E+00 0.10008928E+04</pdfrwt>
<pdfrwt beam="2">  1       -2 0.18788344E-01 0.10008928E+04</pdfrwt>
<totfact> 0.17465035E+02</totfact>
</mgrwt>
</event>
<event>
 9    1  0.4488205E-036  0.1000953E+04  0.7818608E-02  0.8680130E-01
         -1   -1    0    0    0  501 -0.00000000000E+00  0.00000000000E+00  0.92938917566E+03  0.92938917566E+03  0.00000000000E+00 0. -1.
          1   -1    0    0  501    0  0.00000000000E+00 -0.00000000000E+00 -0.26950708215E+03  0.26950708215E+03  0.00000000000E+00 0. -1.
         36    2    1    2    0    0  0.00000000000E+00  0.28421709430E-13  0.65988209350E+03  0.11988962578E+04  0.10009534753E+04 0.  0.
         25    2    3    3    0    0  0.40859533307E+02  0.13281703744E+03  0.14790192253E+03  0.23892171735E+03  0.12609021150E+03 0.  0.
         35    2    3    3    0    0 -0.40859533307E+02 -0.13281703744E+03  0.51198017097E+03  0.95997454046E+03  0.80007346910E+03 0.  0.
         22    1    5    5    0    0 -0.52550720169E+02  0.30798844637E+03  0.41555009768E+02  0.31519086301E+03  0.00000000000E+00 0.  1.
         22    1    5    5    0    0  0.11691186862E+02 -0.44080548381E+03  0.47042516121E+03  0.64478367745E+03  0.00000000000E+00 0.  1.
          5    1    4    4  502    0 -0.34512042499E+02  0.12046439051E+02  0.50640905220E+01  0.37201247076E+02  0.47000000000E+01 0.  1.
         -5    1    4    4    0  502  0.75371575806E+02  0.12077059839E+03  0.14283783201E+03  0.20172047027E+03  0.47000000000E+01 0.  1.
<mgrwt>
<rscale>  0 0.10009535E+04</rscale>
<asrwt>0</asrwt>
<pdfrwt beam="1">  1        1 0.41462629E-01 0.10009535E+04</pdfrwt>
<pdfrwt beam="2">  1       -1 0.14298295E+00 0.10009535E+04</pdfrwt>
<totfact> 0.47364982E+01</totfact>
</mgrwt>
</event>
<event>
 9    1  0.4488205E-036  0.9998567E+03  0.7818608E-02  0.8681174E-01
          2   -1    0    0  501    0  0.00000000000E+00  0.00000000000E+00  0.16917832069E+04  0.16917832069E+04  0.00000000000E+00 0.  1.
         -2   -1    0    0    0  501 -0.00000000000E+00 -0.00000000000E+00 -0.14773073445E+03  0.14773073445E+03  0.00000000000E+00 0.  1.
         36    2    1    2    0    0  0.00000000000E+00  0.28421709430E-13  0.15440524725E+04  0.18395139414E+04  0.99985674111E+03 0.  0.
         25    2    3    3    0    0 -0.10836355371E+03 -0.79449761387E+02  0.20942053911E+03  0.27786990536E+03  0.12369235122E+03 0.  0.
         35    2    3    3    0    0  0.10836355371E+03  0.79449761387E+02  0.13346319334E+04  0.15616440360E+04  0.79964665527E+03 0.  0.
         22    1    5    5    0    0 -0.51340195665E+02 -0.30801007817E+03  0.25375151939E+03  0.40236284314E+03  0.00000000000E+00 0.  1.
         22    1    5    5    0    0  0.15970374937E+03  0.38745983956E+03  0.10808804140E+04  0.11592811929E+04  0.00000000000E+00 0.  1.
          5    1    4    4  502    0  0.84839840293E+01 -0.12980402550E+02 -0.11044355563E+02  0.19609605431E+02  0.47000000000E+01 0.  1.
         -5    1    4    4    0  502 -0.11684753774E+03 -0.66469358837E+02  0.22046489467E+03  0.25826029993E+03  0.47000000000E+01 0.  1.
<mgrwt>
<rscale>  0 0.99985674E+03</rscale>
<asrwt>0</asrwt>
<pdfrwt beam="1">  1        2 0.26027433E+00 0.99985674E+03</pdfrwt>
<pdfrwt beam="2">  1       -2 0.22727806E-01 0.99985674E+03</pdfrwt>
<totfact> 0.20040912E+02</totfact>
</mgrwt>
</event>
<event>
 9    1  0.4488205E-036  0.9957192E+03  0.7818608E-02  0.8685125E-01
          2   -1    0    0  501    0  0.00000000000E+00  0.00000000000E+00  0.20796916842E+04  0.20796916842E+04  0.00000000000E+00 0. -1.
         -2   -1    0    0    0  501 -0.00000000000E+00 -0.00000000000E+00 -0.11918312820E+03  0.11918312820E+03  0.00000000000E+00 0. -1.
         36    2    1    2    0    0  0.00000000000E+00  0.28421709430E-13  0.19605085560E+04  0.21988748124E+04  0.99571915844E+03 0.  0.
         25    2    3    3    0    0 -0.72971613247E+01  0.64636918741E+02  0.61463443826E+03  0.63056259564E+03  0.12491002563E+03 0.  0.
         35    2    3    3    0    0  0.72971613247E+01 -0.64636918741E+02  0.13458741178E+04  0.15683122168E+04  0.80249292123E+03 0.  0.
         22    1    5    5    0    0  0.14169352463E+03 -0.39375307744E+03  0.50817297966E+03  0.65829956568E+03  0.00000000000E+00 0. -1.
         22    1    5    5    0    0 -0.13439636331E+03  0.32911615870E+03  0.83770113809E+03  0.91001265109E+03  0.00000000000E+00 0. -1.
          5    1    4    4  502    0  0.38968208057E+02 -0.66264202063E+01  0.35759778793E+03  0.35980647384E+03  0.47000000000E+01 0.  1.
         -5    1    4    4    0  502 -0.46265369381E+02  0.71263338948E+02  0.25703665032E+03  0.27075612180E+03  0.47000000000E+01 0.  1.
<mgrwt>
<rscale>  0 0.99571916E+03</rscale>
<asrwt>0</asrwt>
<pdfrwt beam="1">  1        2 0.31995254E+00 0.99571916E+03</pdfrwt>
<pdfrwt beam="2">  1       -2 0.18335867E-01 0.99571916E+03</pdfrwt>
<totfact> 0.17530156E+02</totfact>
</mgrwt>
</event>
<event>
 9    1  0.4488205E-036  0.1000482E+04  0.7818608E-02  0.8680579E-01
          2   -1    0    0  501    0  0.00000000000E+00  0.00000000000E+00  0.37573160669E+03  0.37573160669E+03  0.00000000000E+00 0. -1.
         -2   -1    0    0    0  501 -0.00000000000E+00 -0.00000000000E+00 -0.66601054194E+03  0.66601054194E+03  0.00000000000E+00 0. -1.
         36    2    1    2    0    0  0.00000000000E+00  0.14210854715E-13 -0.29027893525E+03  0.10417421486E+04  0.10004823057E+04 0.  0.
         25    2    3    3    0    0  0.68981624325E+01 -0.98528192865E+02 -0.15876785924E+03  0.22476314160E+03  0.12472308232E+03 0.  0.
         35    2    3    3    0    0 -0.68981624325E+01  0.98528192865E+02 -0.13151107601E+03  0.81697900702E+03  0.80025255099E+03 0.  0.
         22    1    5    5    0    0  0.18363957068E+03  0.12983468370E+03  0.28194439104E+03  0.36065659103E+03  0.00000000000E+00 0. -1.
         22    1    5    5    0    0 -0.19053773311E+03 -0.31306490836E+02 -0.41345546705E+03  0.45632241600E+03  0.00000000000E+00 0. -1.
          5    1    4    4  502    0  0.44297271121E+02 -0.10068357757E+03 -0.75972822677E+02  0.13376617960E+03  0.47000000000E+01 0.  1.
         -5    1    4    4    0  502 -0.37399108688E+02  0.21553847028E+01 -0.82795036562E+02  0.90996961999E+02  0.47000000000E+01 0.  1.
<mgrwt>
<rscale>  0 0.10004823E+04</rscale>
<asrwt>0</asrwt>
<pdfrwt beam="1">  1        2 0.57804863E-01 0.10004823E+04</pdfrwt>
<pdfrwt beam="2">  1       -2 0.10246316E+00 0.10004823E+04</pdfrwt>
<totfact> 0.78868339E+01</totfact>
</mgrwt>
</event>
<event>
 9    1  0.4488205E-036  0.1003647E+04  0.7818608E-02  0.8677572E-01
          2   -1    0    0  501    0  0.00000000000E+00  0.00000000000E+00  0.10444535045E+04  0.10444535045E+04  0.00000000000E+00 0. -1.
         -2   -1    0    0    0  501 -0.00000000000E+00 -0.00000000000E+00 -0.24110878339E+03  0.24110878339E+03  0.00000000000E+00 0. -1.
         36    2    1    2    0    0 -0.14210854715E-13  0.00000000000E+00  0.80334472109E+03  0.12855622879E+04  0.10036471766E+04 0.  0.
         25    2    3    3    0    0 -0.95293457717E+02 -0.39288589019E+02  0.27754928645E+03  0.32207884517E+03  0.12679408419E+03 0.  0.
         35    2    3    3    0    0  0.95293457717E+02  0.39288589019E+02  0.52579543463E+03  0.96348344270E+03  0.80075905799E+03 0.  0.
         22    1    5    5    0    0 -0.52934592754E+02  0.42713488835E+02 -0.20593781371E+03  0.21687991229E+03  0.00000000000E+00 0.  1.
         22    1    5    5    0    0  0.14822805047E+03 -0.34248998167E+01  0.73173324834E+03  0.74660353041E+03  0.00000000000E+00 0.  1.
          5    1    4    4  502    0  0.96468820016E+00 -0.61344597064E+02  0.13759917399E+03  0.15073059708E+03  0.47000000000E+01 0. -1.
         -5    1    4    4    0  502 -0.96258145917E+02  0.22056008045E+02  0.13995011246E+03  0.17134824809E+03  0.47000000000E+01 0. -1.
<mgrwt>
<rscale>  0 0.10036472E+04</rscale>
<asrwt>0</asrwt>
<pdfrwt beam="1">  1        2 0.16068515E+00 0.10036472E+04</pdfrwt>
<pdfrwt beam="2">  1       -2 0.37093660E-01 0.10036472E+04</pdfrwt>
<totfact> 0.19532132E+02</totfact>
</mgrwt>
</event>
<event>
 9    1  0.4488205E-036  0.9989235E+03  0.7818608E-02  0.8682064E-01
         -1   -1    0    0    0  501 -0.00000000000E+00  0.00000000000E+00  0.63504537766E+03  0.63504537766E+03  0.00000000000E+00 0.  1.
          1   -1    0    0  501    0  0.00000000000E+00 -0.00000000000E+00 -0.39282552189E+03  0.39282552189E+03  0.00000000000E+00 0.  1.
         36    2    1    2    0    0 -0.42632564146E-13  0.00000000000E+00  0.24221985578E+03  0.10278708996E+04  0.99892348436E+03 0.  0.
         25    2    3    3    0    0  0.11012268296E+02  0.13073226494E+03  0.92141271391E+02  0.20274236780E+03  0.12410583652E+03 0.  0.
         35    2    3    3    0    0 -0.11012268296E+02 -0.13073226494E+03  0.15007858439E+03  0.82512853175E+03  0.80068802743E+03 0.  0.
         22    1    5    5    0    0  0.32409520325E+03 -0.14770055977E+03 -0.13891285435E+03  0.38229561498E+03  0.00000000000E+00 0. -1.
         22    1    5    5    0    0 -0.33510747155E+03  0.16968294826E+02  0.28899143873E+03  0.44283291677E+03  0.00000000000E+00 0. -1.
          5    1    4    4  502    0 -0.50302910042E+02  0.81537749495E+02  0.24676293171E+02  0.99044418299E+02  0.47000000000E+01 0.  1.
         -5    1    4    4    0  502  0.61315178339E+02  0.49194515449E+02  0.67464978220E+02  0.10369794950E+03  0.47000000000E+01 0.  1.
<mgrwt>
<rscale>  0 0.99892348E+03</rscale>
<asrwt>0</asrwt>
<pdfrwt beam="1">  1        1 0.60434696E-01 0.99892348E+03</pdfrwt>
<pdfrwt beam="2">  1       -1 0.97699289E-01 0.99892348E+03</pdfrwt>
<totfact> 0.73927963E+01</totfact>
</mgrwt>
</event>
<event>
 9    1  0.4488205E-036  0.1000869E+04  0.7818608E-02  0.8680211E-01
          2   -1    0    0  501    0  0.00000000000E+00  0.00000000000E+00  0.10208019928E+04  0.10208019928E+04  0.00000000000E+00 0. -1.
         -2   -1    0    0    0  501 -0.00000000000E+00 -0.00000000000E+00 -0.24533125815E+03  0.24533125815E+03  0.00000000000E+00 0. -1.
         36    2    1    2    0    0 -0.14210854715E-13 -0.10658141036E-13  0.77547073463E+03  0.12661332509E+04  0.10008688969E+04 0.  0.
         25    2    3    3    0    0  0.21493067303E+02  0.14636761019E+02 -0.30057957513E+02  0.13067727699E+03  0.12448647797E+03 0.  0.
         35    2    3    3    0    0 -0.21493067303E+02 -0.14636761019E+02  0.80552869214E+03  0.11354559739E+04  0.79981723424E+03 0.  0.
         22    1    5    5    0    0 -0.23020458108E+03 -0.28781889010E+03  0.67242051902E+03  0.76680063710E+03  0.00000000000E+00 0.  1.
         22    1    5    5    0    0  0.20871151378E+03  0.27318212908E+03  0.13310817312E+03  0.36865533685E+03  0.00000000000E+00 0.  1.
          5    1    4    4  502    0 -0.49110949047E+02  0.22091257369E+01 -0.31932759340E+02  0.58809494743E+02  0.47000000000E+01 0.  1.
         -5    1    4    4    0  502  0.70604016350E+02  0.12427635282E+02  0.18748018266E+01  0.71867782249E+02  0.47000000000E+01 0.  1.
<mgrwt>
<rscale>  0 0.10008689E+04</rscale>
<asrwt>0</asrwt>
<pdfrwt beam="1">  1        2 0.15704646E+00 0.10008689E+04</pdfrwt>
<pdfrwt beam="2">  1       -2 0.37743271E-01 0.10008689E+04</pdfrwt>
<totfact> 0.19552054E+02</totfact>
</mgrwt>
</event>
<event>
 9    1  0.4488205E-036  0.9993917E+03  0.7818608E-02  0.8681617E-01
         -2   -1    0    0    0  501 -0.00000000000E+00  0.00000000000E+00  0.40256410822E+03  0.40256410822E+03  0.00000000000E+00 0. -1.
          2   -1    0    0  501    0  0.00000000000E+00 -0.00000000000E+00 -0.62026381255E+03  0.62026381255E+03  0.00000000000E+00 0. -1.
         36    2    1    2    0    0 -0.28421709430E-13  0.56843418861E-13 -0.21769970433E+03  0.10228279208E+04  0.99939171211E+03 0.  0.
         25    2    3    3    0    0 -0.10356618180E+03  0.42574962625E+02 -0.12717137080E+03  0.21041949174E+03  0.12476066486E+03 0.  0.
         35    2    3    3    0    0  0.10356618180E+03 -0.42574962625E+02 -0.90528333532E+02  0.81240842903E+03  0.79954580540E+03 0.  0.
         22    1    5    5    0    0  0.41935287295E+02 -0.40716726871E+03  0.59005564442E+02  0.41355218493E+03  0.00000000000E+00 0. -1.
         22    1    5    5    0    0  0.61630894504E+02  0.36459230608E+03 -0.14953389797E+03  0.39885624410E+03  0.00000000000E+00 0. -1.
          5    1    4    4  502    0 -0.95022179840E+02 -0.25788461612E+02 -0.73396717490E+02  0.12289600299E+03  0.47000000000E+01 0.  1.
         -5    1    4    4    0  502 -0.85440019593E+01  0.68363424237E+02 -0.53774653313E+02  0.87523488744E+02  0.47000000000E+01 0.  1.
<mgrwt>
<rscale>  0 0.99939171E+03</rscale>
<asrwt>0</asrwt>
<pdfrwt beam="1">  1        2 0.95425202E-01 0.99939171E+03</pdfrwt>
<pdfrwt beam="2">  1       -2 0.61932940E-01 0.99939171E+03</pdfrwt>
<totfact> 0.13953542E+02</totfact>
</mgrwt>
</event>
<event>
 9    1  0.4488205E-036  0.9991810E+03  0.7818608E-02  0.8681818E-01
         -1   -1    0    0    0  501 -0.00000000000E+00  0.00000000000E+00  0.62844832964E+03  0.62844832964E+03  0.00000000000E+00 0. -1.
          1   -1    0    0  501    0  0.00000000000E+00 -0.00000000000E+00 -0.39715387090E+03  0.39715387090E+03  0.00000000000E+00 0. -1.
         36    2    1    2    0    0 -0.28421709430E-13  0.00000000000E+00  0.23129445874E+03  0.10256022005E+04  0.99918103821E+03 0.  0.
         25    2    3    3    0    0 -0.98092705491E+02  0.12864091248E+02 -0.56466809677E+02  0.16832067238E+03  0.12391805535E+03 0.  0.
         35    2    3    3    0    0  0.98092705491E+02 -0.12864091248E+02  0.28776126842E+03  0.85728152816E+03  0.80145954808E+03 0.  0.
         22    1    5    5    0    0  0.26168197282E+03 -0.19353627954E+03 -0.14834665827E+03  0.35768768139E+03  0.00000000000E+00 0.  1.
         22    1    5    5    0    0 -0.16358926733E+03  0.18067218830E+03  0.43610792669E+03  0.49959384677E+03  0.00000000000E+00 0.  1.
          5    1    4    4  502    0 -0.11805068736E+03 -0.18556688591E+02 -0.32980637383E+02  0.12405695434E+03  0.47000000000E+01 0. -1.
         -5    1    4    4    0  502  0.19957981869E+02  0.31420779839E+02 -0.23486172294E+02  0.44263718043E+02  0.47000000000E+01 0. -1.
<mgrwt>
<rscale>  0 0.99918104E+03</rscale>
<asrwt>0</asrwt>
<pdfrwt beam="1">  1        1 0.61100596E-01 0.99918104E+03</pdfrwt>
<pdfrwt beam="2">  1       -1 0.96684358E-01 0.99918104E+03</pdfrwt>
<totfact> 0.74552522E+01</totfact>
</mgrwt>
</event>
<event>
 9    1  0.4488205E-036  0.1001047E+04  0.7818608E-02  0.8680041E-01
          2   -1    0    0  501    0  0.00000000000E+00  0.00000000000E+00  0.54504252652E+03  0.54504252652E+03  0.00000000000E+00 0.  1.
         -2   -1    0    0    0  501 -0.00000000000E+00 -0.00000000000E+00 -0.45964108884E+03  0.45964108884E+03  0.00000000000E+00 0.  1.
         36    2    1    2    0    0 -0.71054273576E-14  0.56843418861E-13  0.85401437683E+02  0.10046836154E+04  0.10010473323E+04 0.  0.
         25    2    3    3    0    0 -0.44170542248E+02 -0.13274802002E+03  0.16122572552E+01  0.18833090083E+03  0.12606686802E+03 0.  0.
         35    2    3    3    0    0  0.44170542248E+02  0.13274802002E+03  0.83789180428E+02  0.81635271453E+03  0.79989877743E+03 0.  0.
         22    1    5    5    0    0 -0.57226964831E+02 -0.29319813213E+03  0.20467646288E+03  0.36212225096E+03  0.00000000000E+00 0. -1.
         22    1    5    5    0    0  0.10139750708E+03  0.42594615215E+03 -0.12088728245E+03  0.45423046356E+03  0.00000000000E+00 0. -1.
          5    1    4    4  502    0  0.40145548763E+02 -0.52596486939E+02  0.22496069773E+02  0.70044405051E+02  0.47000000000E+01 0. -1.
         -5    1    4    4    0  502 -0.84316091011E+02 -0.80151533083E+02 -0.20883812518E+02  0.11828649578E+03  0.47000000000E+01 0. -1.
<mgrwt>
<rscale>  0 0.10010473E+04</rscale>
<asrwt>0</asrwt>
<pdfrwt beam="1">  1        2 0.83852697E-01 0.10010473E+04</pdfrwt>
<pdfrwt beam="2">  1       -2 0.70714013E-01 0.10010473E+04</pdfrwt>
<totfact> 0.12235306E+02</totfact>
</mgrwt>
</event>
<event>
 9    1  0.4488205E-036  0.9999408E+03  0.7818608E-02  0.8681094E-01
         -2   -1    0    0    0  501 -0.00000000000E+00  0.00000000000E+00  0.29198242677E+03  0.29198242677E+03  0.00000000000E+00 0.  1.
          2   -1    0    0  501    0  0.00000000000E+00 -0.00000000000E+00 -0.85611457441E+03  0.85611457441E+03  0.00000000000E+00 0.  1.
         36    2    1    2    0    0  0.28421709430E-13  0.00000000000E+00 -0.56413214763E+03  0.11480970012E+04  0.99994082031E+03 0.  0.
         25    2    3    3    0    0  0.12052409613E+03  0.33577875790E+02 -0.35096786284E+02  0.18058910813E+03  0.12540777518E+03 0.  0.
         35    2    3    3    0    0 -0.12052409613E+03 -0.33577875790E+02 -0.52903536135E+03  0.96750789305E+03  0.80033716525E+03 0.  0.
         22    1    5    5    0    0  0.26821890053E+03  0.12012297117E+03 -0.45697019777E+03  0.54331636130E+03  0.00000000000E+00 0.  1.
         22    1    5    5    0    0 -0.38874299667E+03 -0.15370084696E+03 -0.72065163577E+02  0.42419153175E+03  0.00000000000E+00 0.  1.
          5    1    4    4  502    0  0.11594021860E+03  0.29964110053E+02  0.22984742397E+02  0.12202610607E+03  0.47000000000E+01 0.  1.
         -5    1    4    4    0  502  0.45838775354E+01  0.36137657371E+01 -0.58081528681E+02  0.58563002058E+02  0.47000000000E+01 0.  1.
<mgrwt>
<rscale>  0 0.99994082E+03</rscale>
<asrwt>0</asrwt>
<pdfrwt beam="1">  1        2 0.13170993E+00 0.99994082E+03</pdfrwt>
<pdfrwt beam="2">  1       -2 0.44920374E-01 0.99994082E+03</pdfrwt>
<totfact> 0.17873791E+02</totfact>
</mgrwt>
</event>
<event>
 9    1  0.4488205E-036  0.1000316E+04  0.7818608E-02  0.8680737E-01
         -2   -1    0    0    0  501 -0.00000000000E+00  0.00000000000E+00  0.21193285636E+03  0.21193285636E+03  0.00000000000E+00 0. -1.
          2   -1    0    0  501    0  0.00000000000E+00 -0.00000000000E+00 -0.11803637680E+04  0.11803637680E+04  0.00000000000E+00 0. -1.
         36    2    1    2    0    0  0.17763568394E-14  0.00000000000E+00 -0.96843091162E+03  0.13922966243E+04  0.10003156800E+04 0.  0.
         25    2    3    3    0    0 -0.59575886093E+01 -0.13829656808E+03 -0.14490066037E+03  0.23645066519E+03  0.12550411184E+03 0.  0.
         35    2    3    3    0    0  0.59575886093E+01  0.13829656808E+03 -0.82353025126E+03  0.11558459592E+04  0.79913476521E+03 0.  0.
         22    1    5    5    0    0  0.10725076540E+02  0.11309195435E+03 -0.98541509920E+03  0.99194139703E+03  0.00000000000E+00 0.  1.
         22    1    5    5    0    0 -0.47674879303E+01  0.25204613727E+02  0.16188484794E+03  0.16390456213E+03  0.00000000000E+00 0.  1.
          5    1    4    4  502    0 -0.29539382860E+02 -0.32705972827E+02  0.11897795187E+02  0.45890122342E+02  0.47000000000E+01 0.  1.
         -5    1    4    4    0  502  0.23581794251E+02 -0.10559059525E+03 -0.15679845555E+03  0.19056054284E+03  0.47000000000E+01 0.  1.
<mgrwt>
<rscale>  0 0.10003157E+04</rscale>
<asrwt>0</asrwt>
<pdfrwt beam="1">  1        2 0.18159442E+00 0.10003157E+04</pdfrwt>
<pdfrwt beam="2">  1       -2 0.32605055E-01 0.10003157E+04</pdfrwt>
<totfact> 0.20559583E+02</totfact>
</mgrwt>
</event>
<event>
 9    1  0.4488205E-036  0.1000251E+04  0.7818608E-02  0.8680799E-01
         -2   -1    0    0    0  501 -0.00000000000E+00  0.00000000000E+00  0.72475093539E+03  0.72475093539E+03  0.00000000000E+00 0. -1.
          2   -1    0    0  501    0  0.00000000000E+00 -0.00000000000E+00 -0.34511946915E+03  0.34511946915E+03  0.00000000000E+00 0. -1.
         36    2    1    2    0    0  0.14210854715E-13  0.00000000000E+00  0.37963146625E+03  0.10698704045E+04  0.10002512846E+04 0.  0.
         25    2    3    3    0    0 -0.22079078779E+02 -0.13851184062E+03  0.74119610250E+02  0.20225986139E+03  0.12546839919E+03 0.  0.
         35    2    3    3    0    0  0.22079078779E+02  0.13851184062E+03  0.30551185600E+03  0.86761054315E+03  0.79983594862E+03 0.  0.
         22    1    5    5    0    0  0.25923904972E+03 -0.18937036074E+03  0.33231718287E+03  0.46206139036E+03  0.00000000000E+00 0. -1.
         22    1    5    5    0    0 -0.23715997094E+03  0.32788220135E+03 -0.26805326878E+02  0.40554915279E+03  0.00000000000E+00 0. -1.
          5    1    4    4  502    0  0.10820724454E+02  0.14964149682E+02  0.35898394913E+02  0.40642325361E+02  0.47000000000E+01 0.  1.
         -5    1    4    4    0  502 -0.32899803233E+02 -0.15347599030E+03  0.38221215337E+02  0.16161753603E+03  0.47000000000E+01 0.  1.
<mgrwt>
<rscale>  0 0.10002513E+04</rscale>
<asrwt>0</asrwt>
<pdfrwt beam="1">  1        2 0.53095303E-01 0.10002513E+04</pdfrwt>
<pdfrwt beam="2">  1       -2 0.11150014E+00 0.10002513E+04</pdfrwt>
<totfact> 0.70233891E+01</totfact>
</mgrwt>
</event>
<event>
 9    1  0.4488205E-036  0.1004173E+04  0.7818608E-02  0.8677074E-01
         -1   -1    0    0    0  501 -0.00000000000E+00  0.00000000000E+00  0.19741044237E+03  0.19741044237E+03  0.00000000000E+00 0.  1.
          1   -1    0    0  501    0  0.00000000000E+00 -0.00000000000E+00 -0.12769888395E+04  0.12769888395E+04  0.00000000000E+00 0.  1.
         36    2    1    2    0    0  0.00000000000E+00  0.28421709430E-13 -0.10795783971E+04  0.14743992818E+04  0.10041731558E+04 0.  0.
         25    2    3    3    0    0  0.46245208090E+02  0.89931226454E+02 -0.36087193808E+03  0.39451297866E+03  0.12323023118E+03 0.  0.
         35    2    3    3    0    0 -0.46245208090E+02 -0.89931226454E+02 -0.71870645901E+03  0.10798863032E+04  0.79961816436E+03 0.  0.
         22    1    5    5    0    0  0.75269733390E+02  0.31803101634E+03 -0.12623054333E+03  0.35034755628E+03  0.00000000000E+00 0. -1.
         22    1    5    5    0    0 -0.12151494148E+03 -0.40796224280E+03 -0.59247591567E+03  0.72953874688E+03  0.00000000000E+00 0. -1.
          5    1    4    4  502    0 -0.40021354706E+02  0.49099680031E+02 -0.15677649093E+03  0.16915509310E+03  0.47000000000E+01 0.  1.
         -5    1    4    4    0  502  0.86266562797E+02  0.40831546423E+02 -0.20409544714E+03  0.22535788556E+03  0.47000000000E+01 0.  1.
<mgrwt>
<rscale>  0 0.10041732E+04</rscale>
<asrwt>0</asrwt>
<pdfrwt beam="1">  1        1 0.19645982E+00 0.10041732E+04</pdfrwt>
<pdfrwt beam="2">  1       -1 0.30370838E-01 0.10041732E+04</pdfrwt>
<totfact> 0.10286386E+02</totfact>
</mgrwt>
</event>
<event>
 9    1  0.4488205E-036  0.9998703E+03  0.7818608E-02  0.8681162E-01
         -2   -1    0    0    0  501 -0.00000000000E+00  0.00000000000E+00  0.92124442389E+02  0.92124442389E+02  0.00000000000E+00 0. -1.
          2   -1    0    0  501    0  0.00000000000E+00 -0.00000000000E+00 -0.27130165192E+04  0.27130165192E+04  0.00000000000E+00 0. -1.
         36    2    1    2    0    0  0.21316282073E-13  0.14210854715E-13 -0.26208920768E+04  0.28051409616E+04  0.99987025963E+03 0.  0.
         25    2    3    3    0    0 -0.49667226502E+02  0.94602139656E+02 -0.74906289935E+03  0.76682375491E+03  0.12452728899E+03 0.  0.
         35    2    3    3    0    0  0.49667226502E+02 -0.94602139656E+02 -0.18718291775E+04  0.20383172067E+04  0.79973506064E+03 0.  0.
         22    1    5    5    0    0  0.41100797927E+03 -0.87517093835E+02 -0.74991048952E+03  0.85962348911E+03  0.00000000000E+00 0. -1.
         22    1    5    5    0    0 -0.36134075276E+03 -0.70850458209E+01 -0.11219186879E+04  0.11786937176E+04  0.00000000000E+00 0. -1.
          5    1    4    4  502    0 -0.22490009503E+02  0.12247436277E+03 -0.55068537359E+03  0.56460804170E+03  0.47000000000E+01 0. -1.
         -5    1    4    4    0  502 -0.27177216999E+02 -0.27872223115E+02 -0.19837752576E+03  0.20221571321E+03  0.47000000000E+01 0. -1.
<mgrwt>
<rscale>  0 0.99987026E+03</rscale>
<asrwt>0</asrwt>
<pdfrwt beam="1">  1        2 0.41738715E+00 0.99987026E+03</pdfrwt>
<pdfrwt beam="2">  1       -2 0.14172991E-01 0.99987026E+03</pdfrwt>
<totfact> 0.11297188E+02</totfact>
</mgrwt>
</event>
<event>
 9    1  0.4488205E-036  0.9996598E+03  0.7818608E-02  0.8681362E-01
          2   -1    0    0  501    0  0.00000000000E+00  0.00000000000E+00  0.16604909490E+04  0.16604909490E+04  0.00000000000E+00 0. -1.
         -2   -1    0    0    0  501 -0.00000000000E+00 -0.00000000000E+00 -0.15045544777E+03  0.15045544777E+03  0.00000000000E+00 0. -1.
         36    2    1    2    0    0  0.71054273576E-14  0.71054273576E-14  0.15100355012E+04  0.18109463967E+04  0.99965976060E+03 0.  0.
         25    2    3    3    0    0 -0.36401515423E+02 -0.47339815380E+02  0.49654622042E+03  0.51721653846E+03  0.13186610710E+03 0.  0.
         35    2    3    3    0    0  0.36401515423E+02  0.47339815380E+02  0.10134892808E+04  0.12937298583E+04  0.80187922749E+03 0.  0.
         22    1    5    5    0    0 -0.30103528354E+03 -0.14845714214E+03  0.75358147966E+03  0.82495261166E+03  0.00000000000E+00 0. -1.
         22    1    5    5    0    0  0.33743679896E+03  0.19579695752E+03  0.25990780112E+03  0.46877724662E+03  0.00000000000E+00 0. -1.
          5    1    4    4  502    0  0.20118379430E+02 -0.28152278075E+02  0.41277122592E+03  0.41424566974E+03  0.47000000000E+01 0.  1.
         -5    1    4    4    0  502 -0.56519894853E+02 -0.19187537305E+02  0.83774994497E+02  0.10297086872E+03  0.47000000000E+01 0.  1.
<mgrwt>
<rscale>  0 0.99965976E+03</rscale>
<asrwt>0</asrwt>
<pdfrwt beam="1">  1        2 0.25546013E+00 0.99965976E+03</pdfrwt>
<pdfrwt beam="2">  1       -2 0.23146993E-01 0.99965976E+03</pdfrwt>
<totfact> 0.20212256E+02</totfact>
</mgrwt>
</event>
<event>
 9    1  0.4488205E-036  0.9986912E+03  0.7818608E-02  0.8682285E-01
          2   -1    0    0  501    0  0.00000000000E+00  0.00000000000E+00  0.37689164306E+04  0.37689164306E+04  0.00000000000E+00 0. -1.
         -2   -1    0    0    0  501 -0.00000000000E+00 -0.00000000000E+00 -0.66158551781E+02  0.66158551781E+02  0.00000000000E+00 0. -1.
         36    2    1    2    0    0 -0.28421709430E-13 -0.14210854715E-13  0.37027578788E+04  0.38350749824E+04  0.99869124925E+03 0.  0.
         25    2    3    3    0    0  0.78929442734E+02 -0.10708252091E+03  0.51068156533E+03  0.54222331202E+03  0.12455495058E+03 0.  0.
         35    2    3    3    0    0 -0.78929442734E+02  0.10708252091E+03  0.31920763135E+04  0.32928516704E+04  0.79738598474E+03 0.  0.
         22    1    5    5    0    0  0.35826709593E+03  0.18374114174E+02  0.12708026049E+04  0.13204666526E+04  0.00000000000E+00 0. -1.
         22    1    5    5    0    0 -0.43719653866E+03  0.88708406734E+02  0.19212737087E+04  0.19723850178E+04  0.00000000000E+00 0. -1.
          5    1    4    4  502    0  0.16658003729E+02 -0.78326534985E+02  0.11261569487E+03  0.13826395011E+03  0.47000000000E+01 0. -1.
         -5    1    4    4    0  502  0.62271439004E+02 -0.28755985923E+02  0.39806587047E+03  0.40395936191E+03  0.47000000000E+01 0. -1.
<mgrwt>
<rscale>  0 0.99869125E+03</rscale>
<asrwt>0</asrwt>
<pdfrwt beam="1">  1        2 0.57983313E+00 0.99869125E+03</pdfrwt>
<pdfrwt beam="2">  1       -2 0.10178242E-01 0.99869125E+03</pdfrwt>
<totfact> 0.34501800E+01</totfact>
</mgrwt>
</event>
<event>
 9    1  0.4488205E-036  0.1001295E+04  0.7818608E-02  0.8679805E-01
         -2   -1    0    0    0  501 -0.00000000000E+00  0.00000000000E+00  0.34331674677E+03  0.34331674677E+03  0.00000000000E+00 0.  1.
          2   -1    0    0  501    0  0.00000000000E+00 -0.00000000000E+00 -0.73007841586E+03  0.73007841586E+03  0.00000000000E+00 0.  1.
         36    2    1    2    0    0 -0.14210854715E-13  0.00000000000E+00 -0.38676166909E+03  0.10733951626E+04  0.10012954541E+04 0.  0.
         25    2    3    3    0    0  0.79572879213E+02 -0.94023086754E+02 -0.14887350553E+03  0.23086573030E+03  0.12634666925E+03 0.  0.
         35    2    3    3    0    0 -0.79572879213E+02  0.94023086754E+02 -0.23788816356E+03  0.84252943233E+03  0.79880716198E+03 0.  0.
         22    1    5    5    0    0  0.17549748258E+03  0.20930746231E+03  0.18892506906E+03  0.33211694008E+03  0.00000000000E+00 0. -1.
         22    1    5    5    0    0 -0.25507036179E+03 -0.11528437555E+03 -0.42681323262E+03  0.51041249225E+03  0.00000000000E+00 0. -1.
          5    1    4    4  502    0  0.49404616142E+02  0.79642316727E+01 -0.10365982510E+03  0.11520284034E+03  0.47000000000E+01 0. -1.
         -5    1    4    4    0  502  0.30168263071E+02 -0.10198731843E+03 -0.45213680431E+02  0.11566288996E+03  0.47000000000E+01 0. -1.
<mgrwt>
<rscale>  0 0.10012955E+04</rscale>
<asrwt>0</asrwt>
<pdfrwt beam="1">  1        2 0.11231976E+00 0.10012955E+04</pdfrwt>
<pdfrwt beam="2">  1       -2 0.52817961E-01 0.10012955E+04</pdfrwt>
<totfact> 0.15891672E+02</totfact>
</mgrwt>
</event>
<event>
 9    1  0.4488205E-036  0.9992689E+03  0.7818608E-02  0.8681734E-01
          1   -1    0    0  501    0  0.00000000000E+00  0.00000000000E+00  0.58157600077E+03  0.58157600077E+03  0.00000000000E+00 0.  1.
         -1   -1    0    0    0  501 -0.00000000000E+00 -0.00000000000E+00 -0.42923810549E+03  0.42923810549E+03  0.00000000000E+00 0.  1.
         36    2    1    2    0    0  0.00000000000E+00  0.14210854715E-13  0.15233789528E+03  0.10108141063E+04  0.99926889427E+03 0.  0.
         25    2    3    3    0    0 -0.56892002358E+02 -0.36922354916E+02 -0.98098945908E+02  0.17386490794E+03  0.12651340956E+03 0.  0.
         35    2    3    3    0    0  0.56892002358E+02  0.36922354916E+02  0.25043684119E+03  0.83694919831E+03  0.79571690249E+03 0.  0.
         22    1    5    5    0    0 -0.10109779868E+03  0.30351840009E+03  0.38374030954E+03  0.49960064977E+03  0.00000000000E+00 0. -1.
         22    1    5    5    0    0  0.15798980104E+03 -0.26659604517E+03 -0.13330346835E+03  0.33734854854E+03  0.00000000000E+00 0. -1.
          5    1    4    4  502    0  0.10353625874E+02  0.30101266468E+02  0.61752809675E+01  0.32764430511E+02  0.47000000000E+01 0.  1.
         -5    1    4    4    0  502 -0.67245628231E+02 -0.67023621384E+02 -0.10427422688E+03  0.14110047743E+03  0.47000000000E+01 0.  1.
<mgrwt>
<rscale>  0 0.99926889E+03</rscale>
<asrwt>0</asrwt>
<pdfrwt beam="1">  1        1 0.89473231E-01 0.99926889E+03</pdfrwt>
<pdfrwt beam="2">  1       -1 0.66036631E-01 0.99926889E+03</pdfrwt>
<totfact> 0.97141662E+01</totfact>
</mgrwt>
</event>
<event>
 9    1  0.4488205E-036  0.9999658E+03  0.7818608E-02  0.8681070E-01
         -2   -1    0    0    0  501 -0.00000000000E+00  0.00000000000E+00  0.13454009976E+03  0.13454009976E+03  0.00000000000E+00 0.  1.
          2   -1    0    0  501    0  0.00000000000E+00 -0.00000000000E+00 -0.18580550519E+04  0.18580550519E+04  0.00000000000E+00 0.  1.
         36    2    1    2    0    0  0.00000000000E+00 -0.14210854715E-13 -0.17235149521E+04  0.19925951516E+04  0.99996582351E+03 0.  0.
         25    2    3    3    0    0  0.12260697049E+03 -0.39333497487E+02 -0.21149667993E+03  0.27730018847E+03  0.12483971991E+03 0.  0.
         35    2    3    3    0    0 -0.12260697049E+03  0.39333497487E+02 -0.15120182722E+04  0.17152949632E+04  0.79966115450E+03 0.  0.
         22    1    5    5    0    0  0.21284870197E+02  0.23392498342E+03 -0.14452862687E+04  0.14642494125E+04  0.00000000000E+00 0. -1.
         22    1    5    5    0    0 -0.14389184069E+03 -0.19459148593E+03 -0.66732003492E+02  0.25104555066E+03  0.00000000000E+00 0. -1.
          5    1    4    4  502    0  0.83031572949E+02 -0.15320544195E+02 -0.21460771099E+03  0.23066755471E+03  0.47000000000E+01 0. -1.
         -5    1    4    4    0  502  0.39575397545E+02 -0.24012953292E+02  0.31110310648E+01  0.46632633755E+02  0.47000000000E+01 0. -1.
<mgrwt>
<rscale>  0 0.99996582E+03</rscale>
<asrwt>0</asrwt>
<pdfrwt beam="1">  1        2 0.28585461E+00 0.99996582E+03</pdfrwt>
<pdfrwt beam="2">  1       -2 0.20698478E-01 0.99996582E+03</pdfrwt>
<totfact> 0.19013043E+02</totfact>
</mgrwt>
</event>
<event>
 9    1  0.4488205E-036  0.1000103E+04  0.7818608E-02  0.8680940E-01
          2   -1    0    0  501    0  0.00000000000E+00  0.00000000000E+00  0.43244480803E+03  0.43244480803E+03  0.00000000000E+00 0.  1.
         -2   -1    0    0    0  501 -0.00000000000E+00 -0.00000000000E+00 -0.57822753379E+03  0.57822753379E+03  0.00000000000E+00 0.  1.
         36    2    1    2    0    0  0.14210854715E-13  0.00000000000E+00 -0.14578272576E+03  0.10106723418E+04  0.10001029844E+04 0.  0.
         25    2    3    3    0    0 -0.11008250306E+03  0.45182543583E+02  0.50665960119E+02  0.17970083450E+03  0.12476269746E+03 0.  0.
         35    2    3    3    0    0  0.11008250306E+03 -0.45182543583E+02 -0.19644868588E+03  0.83097150733E+03  0.79859998753E+03 0.  0.
         22    1    5    5    0    0  0.51197418056E+02 -0.25732960348E+02 -0.50905684920E+03  0.51227164335E+03  0.00000000000E+00 0. -1.
         22    1    5    5    0    0  0.58885085006E+02 -0.19449583235E+02  0.31260816332E+03  0.31869986398E+03  0.00000000000E+00 0. -1.
          5    1    4    4  502    0 -0.78720107690E+01 -0.29911817313E+02 -0.17279001043E+02  0.35739883122E+02  0.47000000000E+01 0.  1.
         -5    1    4    4    0  502 -0.10221049229E+03  0.75094360896E+02  0.67944961162E+02  0.14396095137E+03  0.47000000000E+01 0.  1.
<mgrwt>
<rscale>  0 0.10001030E+04</rscale>
<asrwt>0</asrwt>
<pdfrwt beam="1">  1        2 0.66529971E-01 0.10001030E+04</pdfrwt>
<pdfrwt beam="2">  1       -2 0.88958082E-01 0.10001030E+04</pdfrwt>
<totfact> 0.94492277E+01</totfact>
</mgrwt>
</event>
<event>
 9    1  0.4488205E-036  0.1000394E+04  0.7818608E-02  0.8680663E-01
         -2   -1    0    0    0  501 -0.00000000000E+00  0.00000000000E+00  0.12884391038E+03  0.12884391038E+03  0.00000000000E+00 0. -1.
          2   -1    0    0  501    0  0.00000000000E+00 -0.00000000000E+00 -0.19418598534E+04  0.19418598534E+04  0.00000000000E+00 0. -1.
         36    2    1    2    0    0  0.71054273576E-14  0.35527136788E-14 -0.18130159431E+04  0.20707037638E+04  0.10003935564E+04 0.  0.
         25    2    3    3    0    0 -0.38795571679E+01  0.48922902739E+00 -0.48165784196E+02  0.13454774235E+03  0.12557014731E+03 0.  0.
         35    2    3    3    0    0  0.38795571679E+01 -0.48922902739E+00 -0.17648501589E+04  0.19361560215E+04  0.79623411502E+03 0.  0.
         22    1    5    5    0    0 -0.38173234650E+03 -0.10651347313E+03 -0.88269129710E+03  0.96757874630E+03  0.00000000000E+00 0.  1.
         22    1    5    5    0    0  0.38561190366E+03  0.10602424410E+03 -0.88215886177E+03  0.96857727517E+03  0.00000000000E+00 0.  1.
          5    1    4    4  502    0  0.34231614409E+02 -0.24123293930E+02 -0.71742852199E+02  0.83203747371E+02  0.47000000000E+01 0. -1.
         -5    1    4    4    0  502 -0.38111171576E+02  0.24612522957E+02  0.23577068002E+02  0.51343994983E+02  0.47000000000E+01 0. -1.
<mgrwt>
<rscale>  0 0.10003936E+04</rscale>
<asrwt>0</asrwt>
<pdfrwt beam="1">  1        2 0.29874765E+00 0.10003936E+04</pdfrwt>
<pdfrwt beam="2">  1       -2 0.19822142E-01 0.10003936E+04</pdfrwt>
<totfact> 0.18370286E+02</totfact>
</mgrwt>
</event>
<event>
 9    1  0.4488205E-036  0.1000213E+04  0.7818608E-02  0.8680835E-01
          2   -1    0    0  501    0  0.00000000000E+00  0.00000000000E+00  0.22699847693E+04  0.22699847693E+04  0.00000000000E+00 0. -1.
         -2   -1    0    0    0  501 -0.00000000000E+00 -0.00000000000E+00 -0.11017986412E+03  0.11017986412E+03  0.00000000000E+00 0. -1.
         36    2    1    2    0    0 -0.28421709430E-13  0.71054273576E-14  0.21598049052E+04  0.23801646335E+04  0.10002132041E+04 0.  0.
         25    2    3    3    0    0  0.14326294587E+03  0.25802586910E+02  0.37812921227E+03  0.42412494843E+03  0.12534043863E+03 0.  0.
         35    2    3    3    0    0 -0.14326294587E+03 -0.25802586910E+02  0.17816756930E+04  0.19560396850E+04  0.79406103631E+03 0.  0.
         22    1    5    5    0    0  0.15183878927E+03 -0.19096810804E+03  0.14292046545E+03  0.28275447947E+03  0.00000000000E+00 0.  1.
         22    1    5    5    0    0 -0.29510173514E+03  0.16516552113E+03  0.16387552275E+04  0.16732852056E+04  0.00000000000E+00 0.  1.
          5    1    4    4  502    0  0.85559787646E+02 -0.45456854109E+02  0.23309938970E+03  0.25247617378E+03  0.47000000000E+01 0. -1.
         -5    1    4    4    0  502  0.57703158227E+02  0.71259441019E+02  0.14502982257E+03  0.17164877465E+03  0.47000000000E+01 0. -1.
<mgrwt>
<rscale>  0 0.10002132E+04</rscale>
<asrwt>0</asrwt>
<pdfrwt beam="1">  1        2 0.34922839E+00 0.10002132E+04</pdfrwt>
<pdfrwt beam="2">  1       -2 0.16950750E-01 0.10002132E+04</pdfrwt>
<totfact> 0.15545341E+02</totfact>
</mgrwt>
</event>
<event>
 9    1  0.4488205E-036  0.9999202E+03  0.7818608E-02  0.8681114E-01
         -2   -1    0    0    0  501 -0.00000000000E+00  0.00000000000E+00  0.57164400848E+03  0.57164400848E+03  0.00000000000E+00 0. -1.
          2   -1    0    0  501    0  0.00000000000E+00 -0.00000000000E+00 -0.43726534793E+03  0.43726534793E+03  0.00000000000E+00 0. -1.
         36    2    1    2    0    0  0.00000000000E+00  0.56843418861E-13  0.13437866055E+03  0.10089093564E+04  0.99992022933E+03 0.  0.
         25    2    3    3    0    0  0.21448841719E+02 -0.10573201921E+03 -0.65435583838E+02  0.17726207689E+03  0.12450186976E+03 0.  0.
         35    2    3    3    0    0 -0.21448841719E+02  0.10573201921E+03  0.19981424439E+03  0.83164727951E+03  0.80004509408E+03 0.  0.
         22    1    5    5    0    0  0.15465478514E+02  0.45083122828E+03  0.17445071311E+03  0.48365383150E+03  0.00000000000E+00 0. -1.
         22    1    5    5    0    0 -0.36914320232E+02 -0.34509920907E+03  0.25363531271E+02  0.34799344801E+03  0.00000000000E+00 0. -1.
          5    1    4    4  502    0  0.10037145127E+02 -0.12966705497E+03 -0.31423657209E+02  0.13387989266E+03  0.47000000000E+01 0. -1.
         -5    1    4    4    0  502  0.11411696591E+02  0.23935035757E+02 -0.34011926629E+02  0.43382184232E+02  0.47000000000E+01 0. -1.
<mgrwt>
<rscale>  0 0.99992023E+03</rscale>
<asrwt>0</asrwt>
<pdfrwt beam="1">  1        2 0.67271592E-01 0.99992023E+03</pdfrwt>
<pdfrwt beam="2">  1       -2 0.87945232E-01 0.99992023E+03</pdfrwt>
<totfact> 0.95857727E+01</totfact>
</mgrwt>
</event>
<event>
 9    1  0.4488205E-036  0.9999559E+03  0.7818608E-02  0.8681080E-01
          4   -1    0    0  501    0  0.00000000000E+00  0.00000000000E+00  0.32804872642E+03  0.32804872642E+03  0.00000000000E+00 0. -1.
         -4   -1    0    0    0  501 -0.00000000000E+00 -0.00000000000E+00 -0.76201476311E+03  0.76201476311E+03  0.00000000000E+00 0. -1.
         36    2    1    2    0    0  0.14210854715E-13 -0.28421709430E-13 -0.43396603668E+03  0.10900634895E+04  0.99995594414E+03 0.  0.
         25    2    3    3    0    0  0.10173311135E+03 -0.87651403630E+02 -0.12617847775E+03  0.22293035591E+03  0.12547725226E+03 0.  0.
         35    2    3    3    0    0 -0.10173311135E+03  0.87651403630E+02 -0.30778755893E+03  0.86713313362E+03  0.79947125995E+03 0.  0.
         22    1    5    5    0    0 -0.25317797791E+02  0.43052655880E+03 -0.55914154974E+02  0.43487987013E+03  0.00000000000E+00 0. -1.
         22    1    5    5    0    0 -0.76415313559E+02 -0.34287515517E+03 -0.25187340396E+03  0.43225326349E+03  0.00000000000E+00 0. -1.
          5    1    4    4  502    0  0.24457715521E+02  0.20018720238E+02  0.93707189016E+01  0.33299089795E+02  0.47000000000E+01 0. -1.
         -5    1    4    4    0  502  0.77275395830E+02 -0.10767012387E+03 -0.13554919665E+03  0.18963126611E+03  0.47000000000E+01 0. -1.
<mgrwt>
<rscale>  0 0.99995594E+03</rscale>
<asrwt>0</asrwt>
<pdfrwt beam="1">  1        4 0.50469035E-01 0.99995594E+03</pdfrwt>
<pdfrwt beam="2">  1       -4 0.11723304E+00 0.99995594E+03</pdfrwt>
<totfact> 0.46118686E+00</totfact>
</mgrwt>
</event>
<event>
 9    1  0.4488205E-036  0.9990280E+03  0.7818608E-02  0.8681964E-01
          2   -1    0    0  501    0  0.00000000000E+00  0.00000000000E+00  0.77417727104E+03  0.77417727104E+03  0.00000000000E+00 0.  1.
         -2   -1    0    0    0  501 -0.00000000000E+00 -0.00000000000E+00 -0.32229598490E+03  0.32229598490E+03  0.00000000000E+00 0.  1.
         36    2    1    2    0    0 -0.28421709430E-13  0.14210854715E-13  0.45188128614E+03  0.10964732559E+04  0.99902797970E+03 0.  0.
         25    2    3    3    0    0 -0.92777501875E+02 -0.91162476830E+02  0.10441804900E+03  0.21302343503E+03  0.13250506737E+03 0.  0.
         35    2    3    3    0    0  0.92777501875E+02  0.91162476830E+02  0.34746323715E+03  0.88344982091E+03  0.80176968193E+03 0.  0.
         22    1    5    5    0    0 -0.35372482073E+03  0.92215421566E+02  0.14664940217E+03  0.39386670325E+03  0.00000000000E+00 0.  1.
         22    1    5    5    0    0  0.44650232260E+03 -0.10529447360E+01  0.20081383498E+03  0.48958311766E+03  0.00000000000E+00 0.  1.
          5    1    4    4  502    0 -0.27262794107E+02  0.17649040954E+02 -0.17253089541E+02  0.37074353505E+02  0.47000000000E+01 0. -1.
         -5    1    4    4    0  502 -0.65514707768E+02 -0.10881151778E+03  0.12167113854E+03  0.17594908152E+03  0.47000000000E+01 0. -1.
<mgrwt>
<rscale>  0 0.99902798E+03</rscale>
<asrwt>0</asrwt>
<pdfrwt beam="1">  1        2 0.11910420E+00 0.99902798E+03</pdfrwt>
<pdfrwt beam="2">  1       -2 0.49583998E-01 0.99902798E+03</pdfrwt>
<totfact> 0.16760850E+02</totfact>
</mgrwt>
</event>
<event>
 9    1  0.4488205E-036  0.9985734E+03  0.7818608E-02  0.8682398E-01
          2   -1    0    0  501    0  0.00000000000E+00  0.00000000000E+00  0.87421573206E+03  0.87421573206E+03  0.00000000000E+00 0. -1.
         -2   -1    0    0    0  501 -0.00000000000E+00 -0.00000000000E+00 -0.28515527262E+03  0.28515527262E+03  0.00000000000E+00 0. -1.
         36    2    1    2    0    0  0.14210854715E-13  0.21316282073E-13  0.58906045944E+03  0.11593710047E+04  0.99857343326E+03 0.  0.
         25    2    3    3    0    0 -0.98477666097E+02 -0.57803497852E+02  0.19344066068E+02  0.17052790191E+03  0.12516579946E+03 0.  0.
         35    2    3    3    0    0  0.98477666097E+02  0.57803497852E+02  0.56971639338E+03  0.98884310277E+03  0.80012175194E+03 0.  0.
         22    1    5    5    0    0  0.11652573911E+03  0.22901737763E+03  0.71739133066E+03  0.76202199997E+03  0.00000000000E+00 0. -1.
         22    1    5    5    0    0 -0.18048073009E+02 -0.17121387978E+03 -0.14767493729E+03  0.22682110279E+03  0.00000000000E+00 0. -1.
          5    1    4    4  502    0 -0.44167250836E+01 -0.17611976417E+02  0.58092883241E+02  0.61045575245E+02  0.47000000000E+01 0.  1.
         -5    1    4    4    0  502 -0.94060941014E+02 -0.40191521434E+02 -0.38748817173E+02  0.10948232666E+03  0.47000000000E+01 0.  1.
<mgrwt>
<rscale>  0 0.99857343E+03</rscale>
<asrwt>0</asrwt>
<pdfrwt beam="1">  1        2 0.13449473E+00 0.99857343E+03</pdfrwt>
<pdfrwt beam="2">  1       -2 0.43870042E-01 0.99857343E+03</pdfrwt>
<totfact> 0.18202513E+02</totfact>
</mgrwt>
</event>
<event>
 9    1  0.4488205E-036  0.9999756E+03  0.7818608E-02  0.8681061E-01
         -1   -1    0    0    0  501 -0.00000000000E+00  0.00000000000E+00  0.78435191241E+02  0.78435191241E+02  0.00000000000E+00 0.  1.
          1   -1    0    0  501    0  0.00000000000E+00 -0.00000000000E+00 -0.31871890762E+04  0.31871890762E+04  0.00000000000E+00 0.  1.
         36    2    1    2    0    0  0.28421709430E-13  0.00000000000E+00 -0.31087538849E+04  0.32656242674E+04  0.99997556913E+03 0.  0.
         25    2    3    3    0    0 -0.13433354140E+03  0.37454231248E+02 -0.57856529111E+03  0.60834182581E+03  0.12607006453E+03 0.  0.
         35    2    3    3    0    0  0.13433354140E+03 -0.37454231248E+02 -0.25301885938E+04  0.26572824416E+04  0.79990457829E+03 0.  0.
         22    1    5    5    0    0  0.49613766775E+02 -0.30489467678E+03 -0.22104012671E+04  0.22318817288E+04  0.00000000000E+00 0.  1.
         22    1    5    5    0    0  0.84719774621E+02  0.26744044553E+03 -0.31978732672E+03  0.42540071279E+03  0.00000000000E+00 0.  1.
          5    1    4    4  502    0  0.13548011061E+01 -0.33711546330E+02 -0.87061841073E+02  0.93488812235E+02  0.47000000000E+01 0.  1.
         -5    1    4    4    0  502 -0.13568834250E+03  0.71165777578E+02 -0.49150345004E+03  0.51485301357E+03  0.47000000000E+01 0.  1.
<mgrwt>
<rscale>  0 0.99997557E+03</rscale>
<asrwt>0</asrwt>
<pdfrwt beam="1">  1        1 0.49033667E+00 0.99997557E+03</pdfrwt>
<pdfrwt beam="2">  1       -1 0.12066955E-01 0.99997557E+03</pdfrwt>
<totfact> 0.20718583E+01</totfact>
</mgrwt>
</event>
<event>
 9    1  0.4488205E-036  0.9997155E+03  0.7818608E-02  0.8681309E-01
         -2   -1    0    0    0  501 -0.00000000000E+00  0.00000000000E+00  0.23532027123E+03  0.23532027123E+03  0.00000000000E+00 0. -1.
          2   -1    0    0  501    0  0.00000000000E+00 -0.00000000000E+00 -0.10617774836E+04  0.10617774836E+04  0.00000000000E+00 0. -1.
         36    2    1    2    0    0  0.88817841970E-14  0.14210854715E-13 -0.82645721235E+03  0.12970977548E+04  0.99971549036E+03 0.  0.
         25    2    3    3    0    0  0.72432167993E+01 -0.76093801687E+02 -0.40632832599E+01  0.14670781306E+03  0.12515566825E+03 0.  0.
         35    2    3    3    0    0 -0.72432167993E+01  0.76093801687E+02 -0.82239392909E+03  0.11503899417E+04  0.80076370586E+03 0.  0.
         22    1    5    5    0    0 -0.39822190060E+03  0.92180353945E+02 -0.47973770300E+03  0.63025880672E+03  0.00000000000E+00 0.  1.
         22    1    5    5    0    0  0.39097868380E+03 -0.16086552258E+02 -0.34265622609E+03  0.52013113503E+03  0.00000000000E+00 0.  1.
          5    1    4    4  502    0  0.19476596132E+02 -0.22502054913E+02  0.56962677773E+02  0.64440025848E+02  0.47000000000E+01 0. -1.
         -5    1    4    4    0  502 -0.12233379333E+02 -0.53591746774E+02 -0.61025961033E+02  0.82267787208E+02  0.47000000000E+01 0. -1.
<mgrwt>
<rscale>  0 0.99971549E+03</rscale>
<asrwt>0</asrwt>
<pdfrwt beam="1">  1        2 0.16335038E+00 0.99971549E+03</pdfrwt>
<pdfrwt beam="2">  1       -2 0.36203119E-01 0.99971549E+03</pdfrwt>
<totfact> 0.19950370E+02</totfact>
</mgrwt>
</event>
<event>
 9    1  0.4488205E-036  0.1001979E+04  0.7818608E-02  0.8679155E-01
          2   -1    0    0  501    0  0.00000000000E+00  0.00000000000E+00  0.17778654219E+04  0.17778654219E+04  0.00000000000E+00 0. -1.
         -2   -1    0    0    0  501 -0.00000000000E+00 -0.00000000000E+00 -0.14117526066E+03  0.14117526066E+03  0.00000000000E+00 0. -1.
         36    2    1    2    0    0  0.00000000000E+00  0.35527136788E-13  0.16366901613E+04  0.19190406826E+04  0.10019792700E+04 0.  0.
         25    2    3    3    0    0  0.13606793246E+03 -0.43406029921E+02  0.30300647930E+03  0.35733364943E+03  0.12440194869E+03 0.  0.
         35    2    3    3    0    0 -0.13606793246E+03  0.43406029921E+02  0.13336836820E+04  0.15617070332E+04  0.79988632205E+03 0.  0.
         22    1    5    5    0    0  0.62464923311E+02  0.39208820184E+03  0.51778513598E+03  0.65248484405E+03  0.00000000000E+00 0. -1.
         22    1    5    5    0    0 -0.19853285577E+03 -0.34868217192E+03  0.81589854599E+03  0.90922218912E+03  0.00000000000E+00 0. -1.
          5    1    4    4  502    0  0.12009482844E+03 -0.54829528647E+02  0.13778087004E+03  0.19087876566E+03  0.47000000000E+01 0.  1.
         -5    1    4    4    0  502  0.15973104015E+02  0.11423498725E+02  0.16522560926E+03  0.16645488377E+03  0.47000000000E+01 0.  1.
<mgrwt>
<rscale>  0 0.10019793E+04</rscale>
<asrwt>0</asrwt>
<pdfrwt beam="1">  1        2 0.27351774E+00 0.10019793E+04</pdfrwt>
<pdfrwt beam="2">  1       -2 0.21719272E-01 0.10019793E+04</pdfrwt>
<totfact> 0.19405084E+02</totfact>
</mgrwt>
</event>
<event>
 9    1  0.4488205E-036  0.9997153E+03  0.7818608E-02  0.8681309E-01
          3   -1    0    0  501    0  0.00000000000E+00  0.00000000000E+00  0.21247619479E+04  0.21247619479E+04  0.00000000000E+00 0.  1.
         -3   -1    0    0    0  501 -0.00000000000E+00 -0.00000000000E+00 -0.11759325016E+03  0.11759325016E+03  0.00000000000E+00 0.  1.
         36    2    1    2    0    0  0.00000000000E+00  0.00000000000E+00  0.20071686978E+04  0.22423551981E+04  0.99971528601E+03 0.  0.
         25    2    3    3    0    0  0.10752256967E+03  0.82866963099E+02  0.28679582405E+03  0.34004459991E+03  0.12227202734E+03 0.  0.
         35    2    3    3    0    0 -0.10752256967E+03 -0.82866963099E+02  0.17203728737E+04  0.19023105982E+04  0.80042160813E+03 0.  0.
         22    1    5    5    0    0  0.13307009680E+02 -0.26017023035E+03  0.16587414506E+04  0.16790737998E+04  0.00000000000E+00 0.  1.
         22    1    5    5    0    0 -0.12082957935E+03  0.17730326725E+03  0.61631423096E+02  0.22323679835E+03  0.00000000000E+00 0.  1.
          5    1    4    4  502    0  0.45761021185E+02  0.10224133720E+03  0.13864950675E+03  0.17830630335E+03  0.47000000000E+01 0. -1.
         -5    1    4    4    0  502  0.61761548484E+02 -0.19374374100E+02  0.14814631731E+03  0.16173829656E+03  0.47000000000E+01 0. -1.
<mgrwt>
<rscale>  0 0.99971529E+03</rscale>
<asrwt>0</asrwt>
<pdfrwt beam="1">  1        3 0.32688643E+00 0.99971529E+03</pdfrwt>
<pdfrwt beam="2">  1       -3 0.18091271E-01 0.99971529E+03</pdfrwt>
<totfact> 0.37910948E+00</totfact>
</mgrwt>
</event>
<event>
 9    1  0.4488205E-036  0.1001076E+04  0.7818608E-02  0.8680014E-01
          1   -1    0    0  501    0  0.00000000000E+00  0.00000000000E+00  0.34010223000E+04  0.34010223000E+04  0.00000000000E+00 0. -1.
         -1   -1    0    0    0  501 -0.00000000000E+00 -0.00000000000E+00 -0.73665512279E+02  0.73665512279E+02  0.00000000000E+00 0. -1.
         36    2    1    2    0    0 -0.28421709430E-13 -0.35527136788E-14  0.33273567877E+04  0.34746878123E+04  0.10010755216E+04 0.  0.
         25    2    3    3    0    0 -0.11114334686E+03 -0.12590074040E+02  0.32171642433E+03  0.36247035551E+03  0.12398365787E+03 0.  0.
         35    2    3    3    0    0  0.11114334686E+03  0.12590074040E+02  0.30056403634E+04  0.31122174568E+04  0.79969503607E+03 0.  0.
         22    1    5    5    0    0 -0.16849996872E+03  0.51542839628E+02  0.12090578946E+03  0.21369865161E+03  0.00000000000E+00 0. -1.
         22    1    5    5    0    0  0.27964331558E+03 -0.38952765588E+02  0.28847345739E+04  0.28985188052E+04  0.00000000000E+00 0. -1.
          5    1    4    4  502    0 -0.76685689790E+02 -0.62781008001E+01  0.58186859936E+02  0.96581107042E+02  0.47000000000E+01 0. -1.
         -5    1    4    4    0  502 -0.34457657072E+02 -0.63119732397E+01  0.26352956440E+03  0.26588924846E+03  0.47000000000E+01 0. -1.
<mgrwt>
<rscale>  0 0.10010755E+04</rscale>
<asrwt>0</asrwt>
<pdfrwt beam="1">  1        1 0.52323408E+00 0.10010755E+04</pdfrwt>
<pdfrwt beam="2">  1       -1 0.11333158E-01 0.10010755E+04</pdfrwt>
<totfact> 0.15926997E+01</totfact>
</mgrwt>
</event>
<event>
 9    1  0.4488205E-036  0.1000136E+04  0.7818608E-02  0.8680909E-01
         -2   -1    0    0    0  501 -0.00000000000E+00  0.00000000000E+00  0.11738578677E+04  0.11738578677E+04  0.00000000000E+00 0.  1.
          2   -1    0    0  501    0  0.00000000000E+00 -0.00000000000E+00 -0.21303081676E+03  0.21303081676E+03  0.00000000000E+00 0.  1.
         36    2    1    2    0    0  0.14210854715E-13 -0.56843418861E-13  0.96082705091E+03  0.13868886844E+04  0.10001357914E+04 0.  0.
         25    2    3    3    0    0 -0.85690963052E+02  0.93854122566E+02  0.98150106334E+02  0.20356069931E+03  0.12510786329E+03 0.  0.
         35    2    3    3    0    0  0.85690963052E+02 -0.93854122566E+02  0.86267694457E+03  0.11833279851E+04  0.79993879278E+03 0.  0.
         22    1    5    5    0    0 -0.59872969956E+02 -0.42673469679E+03  0.58231147890E+03  0.72441281907E+03  0.00000000000E+00 0. -1.
         22    1    5    5    0    0  0.14556393301E+03  0.33288057422E+03  0.28036546567E+03  0.45891516605E+03  0.00000000000E+00 0. -1.
          5    1    4    4  502    0 -0.48753160508E+02  0.83903475721E+02 -0.10259291210E+01  0.97158666253E+02  0.47000000000E+01 0. -1.
         -5    1    4    4    0  502 -0.36937802544E+02  0.99506468448E+01  0.99176035455E+02  0.10640203305E+03  0.47000000000E+01 0. -1.
<mgrwt>
<rscale>  0 0.10001358E+04</rscale>
<asrwt>0</asrwt>
<pdfrwt beam="1">  1        2 0.32773972E-01 0.10001358E+04</pdfrwt>
<pdfrwt beam="2">  1       -2 0.18059351E+00 0.10001358E+04</pdfrwt>
<totfact> 0.31926381E+01</totfact>
</mgrwt>
</event>
<event>
 9    1  0.4488205E-036  0.1000160E+04  0.7818608E-02  0.8680886E-01
          2   -1    0    0  501    0  0.00000000000E+00  0.00000000000E+00  0.31177644403E+03  0.31177644403E+03  0.00000000000E+00 0. -1.
         -2   -1    0    0    0  501 -0.00000000000E+00 -0.00000000000E+00 -0.80211248812E+03  0.80211248812E+03  0.00000000000E+00 0. -1.
         36    2    1    2    0    0  0.00000000000E+00 -0.14210854715E-13 -0.49033604409E+03  0.11138889321E+04  0.10001595458E+04 0.  0.
         25    2    3    3    0    0 -0.98907707617E+02  0.92700098753E+02 -0.13001320479E+03  0.22582552735E+03  0.12537022154E+03 0.  0.
         35    2    3    3    0    0  0.98907707617E+02 -0.92700098753E+02 -0.36032283930E+03  0.88806340480E+03  0.80027996319E+03 0.  0.
         22    1    5    5    0    0  0.10274748782E+02 -0.44314213218E+03 -0.25581283496E+03  0.51178191284E+03  0.00000000000E+00 0.  1.
         22    1    5    5    0    0  0.88632958835E+02  0.35044203343E+03 -0.10451000434E+03  0.37628149196E+03  0.00000000000E+00 0.  1.
          5    1    4    4  502    0 -0.12464841176E+03  0.96231077186E+02 -0.10409305100E+03  0.18882558099E+03  0.47000000000E+01 0. -1.
         -5    1    4    4    0  502  0.25740704138E+02 -0.35309784333E+01 -0.25920153789E+02  0.36999946360E+02  0.47000000000E+01 0. -1.
<mgrwt>
<rscale>  0 0.10001595E+04</rscale>
<asrwt>0</asrwt>
<pdfrwt beam="1">  1        2 0.47965606E-01 0.10001595E+04</pdfrwt>
<pdfrwt beam="2">  1       -2 0.12340192E+00 0.10001595E+04</pdfrwt>
<totfact> 0.60526098E+01</totfact>
</mgrwt>
</event>
<event>
 9    1  0.4488205E-036  0.1000506E+04  0.7818608E-02  0.8680556E-01
         -2   -1    0    0    0  501 -0.00000000000E+00  0.00000000000E+00  0.66866973339E+03  0.66866973339E+03  0.00000000000E+00 0. -1.
          2   -1    0    0  501    0  0.00000000000E+00 -0.00000000000E+00 -0.37425528955E+03  0.37425528955E+03  0.00000000000E+00 0. -1.
         36    2    1    2    0    0 -0.35527136788E-14 -0.28421709430E-13  0.29441444384E+03  0.10429250229E+04  0.10005062412E+04 0.  0.
         25    2    3    3    0    0  0.67134124046E+01 -0.14130212473E+03  0.48165109738E+02  0.19466010249E+03  0.12474500931E+03 0.  0.
         35    2    3    3    0    0 -0.67134124046E+01  0.14130212473E+03  0.24624933410E+03  0.84826492044E+03  0.79931425632E+03 0.  0.
         22    1    5    5    0    0  0.84866248681E+02 -0.17056769802E+03 -0.21290933676E+03  0.28570265216E+03  0.00000000000E+00 0. -1.
         22    1    5    5    0    0 -0.91579661086E+02  0.31186982275E+03  0.45915867086E+03  0.56256226828E+03  0.00000000000E+00 0. -1.
          5    1    4    4  502    0 -0.31220435137E+02 -0.14597045052E+03  0.45210520192E+02  0.15603899875E+03  0.47000000000E+01 0. -1.
         -5    1    4    4    0  502  0.37933847542E+02  0.46683257898E+01  0.29545895460E+01  0.38621103744E+02  0.47000000000E+01 0. -1.
<mgrwt>
<rscale>  0 0.10005062E+04</rscale>
<asrwt>0</asrwt>
<pdfrwt beam="1">  1        2 0.57577737E-01 0.10005062E+04</pdfrwt>
<pdfrwt beam="2">  1       -2 0.10287227E+00 0.10005062E+04</pdfrwt>
<totfact> 0.78443414E+01</totfact>
</mgrwt>
</event>
<event>
 9    1  0.4488205E-036  0.1000138E+04  0.7818608E-02  0.8680907E-01
         -2   -1    0    0    0  501 -0.00000000000E+00  0.00000000000E+00  0.51426443382E+03  0.51426443382E+03  0.00000000000E+00 0. -1.
          2   -1    0    0  501    0  0.00000000000E+00 -0.00000000000E+00 -0.48626527877E+03  0.48626527877E+03  0.00000000000E+00 0. -1.
         36    2    1    2    0    0 -0.14210854715E-13  0.00000000000E+00  0.27999155055E+02  0.10005297126E+04  0.10001378670E+04 0.  0.
         25    2    3    3    0    0 -0.12336635426E+03  0.44380002337E+02  0.57402784067E+02  0.19001845843E+03  0.12499237159E+03 0.  0.
         35    2    3    3    0    0  0.12336635426E+03 -0.44380002337E+02 -0.29403629012E+02  0.81051125417E+03  0.79929661438E+03 0.  0.
         22    1    5    5    0    0 -0.19564780802E+01 -0.26230341118E+03  0.29847022492E+03  0.39735548630E+03  0.00000000000E+00 0.  1.
         22    1    5    5    0    0  0.12532283234E+03  0.21792340885E+03 -0.32787385394E+03  0.41315576787E+03  0.00000000000E+00 0.  1.
          5    1    4    4  502    0 -0.82997651602E+02 -0.17893757118E+02 -0.14865768047E+02  0.86324259480E+02  0.47000000000E+01 0.  1.
         -5    1    4    4    0  502 -0.40368702654E+02  0.62273759454E+02  0.72268552114E+02  0.10369419895E+03  0.47000000000E+01 0.  1.
<mgrwt>
<rscale>  0 0.10001379E+04</rscale>
<asrwt>0</asrwt>
<pdfrwt beam="1">  1        2 0.74810043E-01 0.10001379E+04</pdfrwt>
<pdfrwt beam="2">  1       -2 0.79117605E-01 0.10001379E+04</pdfrwt>
<totfact> 0.10866618E+02</totfact>
</mgrwt>
</event>
<event>
 9    1  0.4488205E-036  0.9992087E+03  0.7818608E-02  0.8681792E-01
          2   -1    0    0  501    0  0.00000000000E+00  0.00000000000E+00  0.13311722035E+04  0.13311722035E+04  0.00000000000E+00 0. -1.
         -2   -1    0    0    0  501 -0.00000000000E+00 -0.00000000000E+00 -0.18750729987E+03  0.18750729987E+03  0.00000000000E+00 0. -1.
         36    2    1    2    0    0 -0.21316282073E-13  0.00000000000E+00  0.11436649037E+04  0.15186795034E+04  0.99920869802E+03 0.  0.
         25    2    3    3    0    0 -0.15749061029E+02 -0.38702990141E+02  0.12012675370E+02  0.13245099797E+03  0.12511198234E+03 0.  0.
         35    2    3    3    0    0  0.15749061029E+02  0.38702990141E+02  0.11316522283E+04  0.13862285054E+04  0.79952907959E+03 0.  0.
         22    1    5    5    0    0  0.40708426226E+03  0.25140885890E+02  0.53954976704E+03  0.67636056348E+03  0.00000000000E+00 0. -1.
         22    1    5    5    0    0 -0.39133520123E+03  0.13562104251E+02  0.59210246127E+03  0.70986794197E+03  0.00000000000E+00 0. -1.
          5    1    4    4  502    0 -0.52781202576E+02 -0.61140267222E+02  0.28646203903E+02  0.85829380863E+02  0.47000000000E+01 0.  1.
         -5    1    4    4    0  502  0.37032141547E+02  0.22437277081E+02 -0.16633528534E+02  0.46621617109E+02  0.47000000000E+01 0.  1.
<mgrwt>
<rscale>  0 0.99920870E+03</rscale>
<asrwt>0</asrwt>
<pdfrwt beam="1">  1        2 0.20479572E+00 0.99920870E+03</pdfrwt>
<pdfrwt beam="2">  1       -2 0.28847278E-01 0.99920870E+03</pdfrwt>
<totfact> 0.20992521E+02</totfact>
</mgrwt>
</event>
<event>
 9    1  0.4488205E-036  0.1002908E+04  0.7818608E-02  0.8678274E-01
         -1   -1    0    0    0  501 -0.00000000000E+00  0.00000000000E+00  0.18242161009E+03  0.18242161009E+03  0.00000000000E+00 0. -1.
          1   -1    0    0  501    0  0.00000000000E+00 -0.00000000000E+00 -0.13784332664E+04  0.13784332664E+04  0.00000000000E+00 0. -1.
         36    2    1    2    0    0  0.35527136788E-14 -0.14210854715E-13 -0.11960116563E+04  0.15608548765E+04  0.10029078040E+04 0.  0.
         25    2    3    3    0    0 -0.25722278901E+02 -0.71948797683E+02 -0.37594672372E+02  0.15116821286E+03  0.12490077690E+03 0.  0.
         35    2    3    3    0    0  0.25722278901E+02  0.71948797683E+02 -0.11584169839E+04  0.14096866636E+04  0.79965512303E+03 0.  0.
         22    1    5    5    0    0 -0.27884873412E+03  0.13171750069E+03 -0.10275764864E+04  0.10728557927E+04  0.00000000000E+00 0.  1.
         22    1    5    5    0    0  0.30457101302E+03 -0.59768703009E+02 -0.13084049758E+03  0.33683087097E+03  0.00000000000E+00 0.  1.
          5    1    4    4  502    0 -0.11924724980E+02  0.50961098911E+01 -0.66260546693E+02  0.67681012478E+02  0.47000000000E+01 0.  1.
         -5    1    4    4    0  502 -0.13797553921E+02 -0.77044907574E+02  0.28665874322E+02  0.83487200384E+02  0.47000000000E+01 0.  1.
<mgrwt>
<rscale>  0 0.10029078E+04</rscale>
<asrwt>0</asrwt>
<pdfrwt beam="1">  1        1 0.21206666E+00 0.10029078E+04</pdfrwt>
<pdfrwt beam="2">  1       -1 0.28064863E-01 0.10029078E+04</pdfrwt>
<totfact> 0.99321034E+01</totfact>
</mgrwt>
</event>
<event>
 9    1  0.4488205E-036  0.1000390E+04  0.7818608E-02  0.8680666E-01
         -2   -1    0    0    0  501 -0.00000000000E+00  0.00000000000E+00  0.34465086121E+03  0.34465086121E+03  0.00000000000E+00 0. -1.
          2   -1    0    0  501    0  0.00000000000E+00 -0.00000000000E+00 -0.72593821571E+03  0.72593821571E+03  0.00000000000E+00 0. -1.
         36    2    1    2    0    0  0.14210854715E-13  0.00000000000E+00 -0.38128735450E+03  0.10705890769E+04  0.10003903862E+04 0.  0.
         25    2    3    3    0    0 -0.73949118801E+02  0.10968300263E+03 -0.29247687229E+01  0.17621368760E+03  0.11637816028E+03 0.  0.
         35    2    3    3    0    0  0.73949118801E+02 -0.10968300263E+03 -0.37836258578E+03  0.89437538931E+03  0.79953127359E+03 0.  0.
         22    1    5    5    0    0  0.73066378857E+02  0.30536801827E+03 -0.36172239900E+03  0.47898999597E+03  0.00000000000E+00 0.  1.
         22    1    5    5    0    0  0.88273994456E+00 -0.41505102090E+03 -0.16640186775E+02  0.41538539334E+03  0.00000000000E+00 0.  1.
          5    1    4    4  502    0  0.38330228433E+00  0.68413845428E+01 -0.42425945002E+02  0.43231958924E+02  0.47000000000E+01 0. -1.
         -5    1    4    4    0  502 -0.74332421086E+02  0.10284161809E+03  0.39501176279E+02  0.13298172868E+03  0.47000000000E+01 0. -1.
<mgrwt>
<rscale>  0 0.10003904E+04</rscale>
<asrwt>0</asrwt>
<pdfrwt beam="1">  1        2 0.11168280E+00 0.10003904E+04</pdfrwt>
<pdfrwt beam="2">  1       -2 0.53023209E-01 0.10003904E+04</pdfrwt>
<totfact> 0.15879625E+02</totfact>
</mgrwt>
</event>
<event>
 9    1  0.4488205E-036  0.1000198E+04  0.7818608E-02  0.8680849E-01
         -1   -1    0    0    0  501 -0.00000000000E+00  0.00000000000E+00  0.84817694337E+02  0.84817694337E+02  0.00000000000E+00 0. -1.
          1   -1    0    0  501    0  0.00000000000E+00 -0.00000000000E+00 -0.29486651567E+04  0.29486651567E+04  0.00000000000E+00 0. -1.
         36    2    1    2    0    0 -0.14210854715E-13 -0.28421709430E-13 -0.28638474623E+04  0.30334828510E+04  0.10001979403E+04 0.  0.
         25    2    3    3    0    0  0.64512832647E+02  0.92445861957E+02 -0.78659719656E+03  0.80427039462E+03  0.12412725349E+03 0.  0.
         35    2    3    3    0    0 -0.64512832647E+02 -0.92445861957E+02 -0.20772502658E+04  0.22292124564E+04  0.80106888972E+03 0.  0.
         22    1    5    5    0    0  0.31747425328E+02 -0.38547059685E+03 -0.55780857640E+03  0.67878265149E+03  0.00000000000E+00 0.  1.
         22    1    5    5    0    0 -0.96260257975E+02  0.29302473489E+03 -0.15194416894E+04  0.15504298049E+04  0.00000000000E+00 0.  1.
          5    1    4    4  502    0  0.39925299084E+02  0.12192096589E+03 -0.57352190126E+03  0.58771439718E+03  0.47000000000E+01 0.  1.
         -5    1    4    4    0  502  0.24587533563E+02 -0.29475103938E+02 -0.21307529530E+03  0.21655599744E+03  0.47000000000E+01 0.  1.
<mgrwt>
<rscale>  0 0.10001979E+04</rscale>
<asrwt>0</asrwt>
<pdfrwt beam="1">  1        1 0.45364081E+00 0.10001979E+04</pdfrwt>
<pdfrwt beam="2">  1       -1 0.13048876E-01 0.10001979E+04</pdfrwt>
<totfact> 0.27295389E+01</totfact>
</mgrwt>
</event>
<event>
 9    1  0.4488205E-036  0.1002697E+04  0.7818608E-02  0.8678474E-01
          1   -1    0    0  501    0  0.00000000000E+00  0.00000000000E+00  0.50240962047E+03  0.50240962047E+03  0.00000000000E+00 0. -1.
         -1   -1    0    0    0  501 -0.00000000000E+00 -0.00000000000E+00 -0.50028977150E+03  0.50028977150E+03  0.00000000000E+00 0. -1.
         36    2    1    2    0    0 -0.14210854715E-13  0.14210854715E-13  0.21198489769E+01  0.10026993920E+04  0.10026971511E+04 0.  0.
         25    2    3    3    0    0  0.90775698784E+02  0.76230144695E+02 -0.85974959338E+02  0.18872267120E+03  0.11905162973E+03 0.  0.
         35    2    3    3    0    0 -0.90775698784E+02 -0.76230144695E+02  0.88094808315E+02  0.81397672077E+03  0.80046620432E+03 0.  0.
         22    1    5    5    0    0 -0.35404970942E+03 -0.19442536066E+03 -0.15896813225E+03  0.43407750999E+03  0.00000000000E+00 0. -1.
         22    1    5    5    0    0  0.26327401064E+03  0.11819521597E+03  0.24706294056E+03  0.37989921078E+03  0.00000000000E+00 0. -1.
          5    1    4    4  502    0  0.95734985763E+02  0.62140210556E+02 -0.11095044825E+03  0.15924410581E+03  0.47000000000E+01 0. -1.
         -5    1    4    4    0  502 -0.49592869786E+01  0.14089934139E+02  0.24975488911E+02  0.29478565395E+02  0.47000000000E+01 0. -1.
<mgrwt>
<rscale>  0 0.10026972E+04</rscale>
<asrwt>0</asrwt>
<pdfrwt beam="1">  1        1 0.77293787E-01 0.10026972E+04</pdfrwt>
<pdfrwt beam="2">  1       -1 0.76967658E-01 0.10026972E+04</pdfrwt>
<totfact> 0.87964689E+01</totfact>
</mgrwt>
</event>
<event>
 9    1  0.4488205E-036  0.9950727E+03  0.7818608E-02  0.8685744E-01
         -1   -1    0    0    0  501 -0.00000000000E+00  0.00000000000E+00  0.21541356451E+03  0.21541356451E+03  0.00000000000E+00 0.  1.
          1   -1    0    0  501    0  0.00000000000E+00 -0.00000000000E+00 -0.11491497309E+04  0.11491497309E+04  0.00000000000E+00 0.  1.
         36    2    1    2    0    0 -0.28421709430E-13  0.00000000000E+00 -0.93373616643E+03  0.13645632955E+04  0.99507274047E+03 0.  0.
         25    2    3    3    0    0  0.54587907642E+02  0.65536497642E+02 -0.29932492341E+02  0.15399272241E+03  0.12467129692E+03 0.  0.
         35    2    3    3    0    0 -0.54587907642E+02 -0.65536497642E+02 -0.90380367409E+03  0.12105705730E+04  0.80084028298E+03 0.  0.
         22    1    5    5    0    0  0.25911886904E+03  0.64782452920E+02 -0.24838824404E+02  0.26824675524E+03  0.00000000000E+00 0.  1.
         22    1    5    5    0    0 -0.31370677669E+03 -0.13031895056E+03 -0.87896484969E+03  0.94232381780E+03  0.00000000000E+00 0.  1.
          5    1    4    4  502    0  0.71222514287E+02  0.30191708455E+01 -0.48709405573E+02  0.86466514474E+02  0.47000000000E+01 0. -1.
         -5    1    4    4    0  502 -0.16634606646E+02  0.62517326797E+02  0.18776913232E+02  0.67526207939E+02  0.47000000000E+01 0. -1.
<mgrwt>
<rscale>  0 0.99507274E+03</rscale>
<asrwt>0</asrwt>
<pdfrwt beam="1">  1        1 0.17679227E+00 0.99507274E+03</pdfrwt>
<pdfrwt beam="2">  1       -1 0.33140548E-01 0.99507274E+03</pdfrwt>
<totfact> 0.11028499E+02</totfact>
</mgrwt>
</event>
<event>
 9    1  0.4488205E-036  0.1000770E+04  0.7818608E-02  0.8680305E-01
         -2   -1    0    0    0  501 -0.00000000000E+00  0.00000000000E+00  0.55856780279E+02  0.55856780279E+02  0.00000000000E+00 0.  1.
          2   -1    0    0  501    0  0.00000000000E+00 -0.00000000000E+00 -0.44826288210E+04  0.44826288210E+04  0.00000000000E+00 0.  1.
         36    2    1    2    0    0 -0.14210854715E-13  0.00000000000E+00 -0.44267720407E+04  0.45384856013E+04  0.10007701297E+04 0.  0.
         25    2    3    3    0    0  0.39141876892E+02  0.78642299382E+02 -0.33807400227E+03  0.37138129930E+03  0.12614809028E+03 0.  0.
         35    2    3    3    0    0 -0.39141876892E+02 -0.78642299382E+02 -0.40886980384E+04  0.41671043019E+04  0.79974365652E+03 0.  0.
         22    1    5    5    0    0 -0.25904533715E+03 -0.15822858089E+02 -0.37467386730E+04  0.37557163808E+04  0.00000000000E+00 0.  1.
         22    1    5    5    0    0  0.21990346026E+03 -0.62819441293E+02 -0.34195936543E+03  0.41138792112E+03  0.00000000000E+00 0.  1.
          5    1    4    4  502    0  0.43704726901E+01  0.54992206818E+02 -0.35292514387E+02  0.65657409437E+02  0.47000000000E+01 0. -1.
         -5    1    4    4    0  502  0.34771404202E+02  0.23650092564E+02 -0.30278148789E+03  0.30572388987E+03  0.47000000000E+01 0. -1.
<mgrwt>
<rscale>  0 0.10007701E+04</rscale>
<asrwt>0</asrwt>
<pdfrwt beam="1">  1        2 0.68963517E+00 0.10007701E+04</pdfrwt>
<pdfrwt beam="2">  1       -2 0.85933512E-02 0.10007701E+04</pdfrwt>
<totfact> 0.10128502E+01</totfact>
</mgrwt>
</event>
<event>
 9    1  0.4488205E-036  0.9997656E+03  0.7818608E-02  0.8681261E-01
         -1   -1    0    0    0  501 -0.00000000000E+00  0.00000000000E+00  0.22354169128E+03  0.22354169128E+03  0.00000000000E+00 0. -1.
          1   -1    0    0  501    0  0.00000000000E+00 -0.00000000000E+00 -0.11178352953E+04  0.11178352953E+04  0.00000000000E+00 0. -1.
         36    2    1    2    0    0 -0.14210854715E-13 -0.28421709430E-13 -0.89429360401E+03  0.13413769866E+04  0.99976555749E+03 0.  0.
         25    2    3    3    0    0  0.31591478229E+02 -0.13272869282E+03 -0.20761793860E+03  0.27828564386E+03  0.12539044522E+03 0.  0.
         35    2    3    3    0    0 -0.31591478229E+02  0.13272869282E+03 -0.68667566541E+03  0.10630913427E+04  0.80001550366E+03 0.  0.
         22    1    5    5    0    0 -0.32660075981E+03 -0.84742495761E+02 -0.59703697604E+03  0.68578604364E+03  0.00000000000E+00 0. -1.
         22    1    5    5    0    0  0.29500928158E+03  0.21747118858E+03 -0.89638689371E+02  0.37730529908E+03  0.00000000000E+00 0. -1.
          5    1    4    4  502    0  0.63011616592E+02 -0.18871874097E+02 -0.89585861515E+02  0.11123995703E+03  0.47000000000E+01 0.  1.
         -5    1    4    4    0  502 -0.31420138363E+02 -0.11385681872E+03 -0.11803207709E+03  0.16704568682E+03  0.47000000000E+01 0.  1.
<mgrwt>
<rscale>  0 0.99976556E+03</rscale>
<asrwt>0</asrwt>
<pdfrwt beam="1">  1        1 0.17197465E+00 0.99976556E+03</pdfrwt>
<pdfrwt beam="2">  1       -1 0.34391031E-01 0.99976556E+03</pdfrwt>
<totfact> 0.10919058E+02</totfact>
</mgrwt>
</event>
<event>
 9    1  0.4488205E-036  0.1003572E+04  0.7818608E-02  0.8677643E-01
          2   -1    0    0  501    0  0.00000000000E+00  0.00000000000E+00  0.23323055544E+03  0.23323055544E+03  0.00000000000E+00 0.  1.
         -2   -1    0    0    0  501 -0.00000000000E+00 -0.00000000000E+00 -0.10795727839E+04  0.10795727839E+04  0.00000000000E+00 0.  1.
         36    2    1    2    0    0 -0.14210854715E-13 -0.71054273576E-14 -0.84634222845E+03  0.13128033393E+04  0.10035723392E+04 0.  0.
         25    2    3    3    0    0 -0.10615897461E+03 -0.51342120263E+02 -0.63054567833E+02  0.18711919139E+03  0.13088915944E+03 0.  0.
         35    2    3    3    0    0  0.10615897461E+03  0.51342120263E+02 -0.78328766061E+03  0.11256841479E+04  0.79982466857E+03 0.  0.
         22    1    5    5    0    0  0.30165982643E+03 -0.28781901150E+03 -0.39718989021E+03  0.57584567650E+03  0.00000000000E+00 0.  1.
         22    1    5    5    0    0 -0.19550085182E+03  0.33916113177E+03 -0.38609777041E+03  0.54983847144E+03  0.00000000000E+00 0.  1.
          5    1    4    4  502    0 -0.11291176523E+03 -0.42253336528E+02  0.22525467590E+01  0.12067135179E+03  0.47000000000E+01 0.  1.
         -5    1    4    4    0  502  0.67527906257E+01 -0.90887837347E+01 -0.65307114592E+02  0.66447839599E+02  0.47000000000E+01 0.  1.
<mgrwt>
<rscale>  0 0.10035723E+04</rscale>
<asrwt>0</asrwt>
<pdfrwt beam="1">  1        2 0.35881625E-01 0.10035723E+04</pdfrwt>
<pdfrwt beam="2">  1       -2 0.16608812E+00 0.10035723E+04</pdfrwt>
<totfact> 0.36910848E+01</totfact>
</mgrwt>
</event>
<event>
 9    1  0.4488205E-036  0.1001708E+04  0.7818608E-02  0.8679413E-01
         -2   -1    0    0    0  501 -0.00000000000E+00  0.00000000000E+00  0.12504238907E+03  0.12504238907E+03  0.00000000000E+00 0.  1.
          2   -1    0    0  501    0  0.00000000000E+00 -0.00000000000E+00 -0.20061576027E+04  0.20061576027E+04  0.00000000000E+00 0.  1.
         36    2    1    2    0    0 -0.28421709430E-13  0.00000000000E+00 -0.18811152136E+04  0.21311999918E+04  0.10017080203E+04 0.  0.
         25    2    3    3    0    0 -0.12091372159E+03  0.65456125344E+02 -0.27930811849E+03  0.33519633190E+03  0.12425346454E+03 0.  0.
         35    2    3    3    0    0  0.12091372159E+03 -0.65456125344E+02 -0.16018070951E+04  0.17960036599E+04  0.80058637499E+03 0.  0.
         22    1    5    5    0    0  0.25303371244E+03 -0.36361717661E+03 -0.62409252763E+03  0.76533325669E+03  0.00000000000E+00 0. -1.
         22    1    5    5    0    0 -0.13211999085E+03  0.29816105126E+03 -0.97771456751E+03  0.10306704032E+04  0.00000000000E+00 0. -1.
          5    1    4    4  502    0 -0.47325707923E+00  0.17521591326E+02 -0.15324649967E+03  0.15431723752E+03  0.47000000000E+01 0. -1.
         -5    1    4    4    0  502 -0.12044046451E+03  0.47934534018E+02 -0.12606161882E+03  0.18087909438E+03  0.47000000000E+01 0. -1.
<mgrwt>
<rscale>  0 0.10017080E+04</rscale>
<asrwt>0</asrwt>
<pdfrwt beam="1">  1        2 0.30863962E+00 0.10017080E+04</pdfrwt>
<pdfrwt beam="2">  1       -2 0.19237291E-01 0.10017080E+04</pdfrwt>
<totfact> 0.17782618E+02</totfact>
</mgrwt>
</event>
<event>
 9    1  0.4488205E-036  0.1000287E+04  0.7818608E-02  0.8680765E-01
          2   -1    0    0  501    0  0.00000000000E+00  0.00000000000E+00  0.32371992725E+03  0.32371992725E+03  0.00000000000E+00 0. -1.
         -2   -1    0    0    0  501 -0.00000000000E+00 -0.00000000000E+00 -0.77271573645E+03  0.77271573645E+03  0.00000000000E+00 0. -1.
         36    2    1    2    0    0 -0.71054273576E-14 -0.14210854715E-13 -0.44899580921E+03  0.10964356637E+04  0.10002869228E+04 0.  0.
         25    2    3    3    0    0  0.19512015355E+02  0.71318877963E+02 -0.21613866763E+03  0.26023119443E+03  0.12464850506E+03 0.  0.
         35    2    3    3    0    0 -0.19512015355E+02 -0.71318877963E+02 -0.23285714158E+03  0.83620446927E+03  0.79971767828E+03 0.  0.
         22    1    5    5    0    0 -0.11072934517E+03  0.26653924602E+03  0.14346191645E+03  0.32231270378E+03  0.00000000000E+00 0. -1.
         22    1    5    5    0    0  0.91217329818E+02 -0.33785812398E+03 -0.37631905803E+03  0.51389176549E+03  0.00000000000E+00 0. -1.
          5    1    4    4  502    0 -0.35013889620E+02 -0.14637511926E+02 -0.91966376420E+02  0.99599867537E+02  0.47000000000E+01 0.  1.
         -5    1    4    4    0  502  0.54525904975E+02  0.85956389889E+02 -0.12417229121E+03  0.16063132689E+03  0.47000000000E+01 0.  1.
<mgrwt>
<rscale>  0 0.10002869E+04</rscale>
<asrwt>0</asrwt>
<pdfrwt beam="1">  1        2 0.49803066E-01 0.10002869E+04</pdfrwt>
<pdfrwt beam="2">  1       -2 0.11887934E+00 0.10002869E+04</pdfrwt>
<totfact> 0.63983925E+01</totfact>
</mgrwt>
</event>
<event>
 9    1  0.4488205E-036  0.1000017E+04  0.7818608E-02  0.8681022E-01
          1   -1    0    0  501    0  0.00000000000E+00  0.00000000000E+00  0.49215005782E+03  0.49215005782E+03  0.00000000000E+00 0. -1.
         -1   -1    0    0    0  501 -0.00000000000E+00 -0.00000000000E+00 -0.50799258987E+03  0.50799258987E+03  0.00000000000E+00 0. -1.
         36    2    1    2    0    0  0.00000000000E+00  0.10658141036E-13 -0.15842532055E+02  0.10001426477E+04  0.10000171648E+04 0.  0.
         25    2    3    3    0    0 -0.12730774641E+03  0.26097567838E+02 -0.58255321236E+02  0.18958963262E+03  0.12514871554E+03 0.  0.
         35    2    3    3    0    0  0.12730774641E+03 -0.26097567838E+02  0.42412789181E+02  0.81055301507E+03  0.79894242609E+03 0.  0.
         22    1    5    5    0    0 -0.90914307631E+02  0.13061226764E+03 -0.32119605294E+03  0.35845764075E+03  0.00000000000E+00 0.  1.
         22    1    5    5    0    0  0.21822205404E+03 -0.15670983548E+03  0.36360884212E+03  0.45209537431E+03  0.00000000000E+00 0.  1.
          5    1    4    4  502    0 -0.11861128506E+03  0.14696339050E+02  0.96770350639E+01  0.12000147637E+03  0.47000000000E+01 0. -1.
         -5    1    4    4    0  502 -0.86964613586E+01  0.11401228788E+02 -0.67932356300E+02  0.69588156252E+02  0.47000000000E+01 0. -1.
<mgrwt>
<rscale>  0 0.10000172E+04</rscale>
<asrwt>0</asrwt>
<pdfrwt beam="1">  1        1 0.75715393E-01 0.10000172E+04</pdfrwt>
<pdfrwt beam="2">  1       -1 0.78152707E-01 0.10000172E+04</pdfrwt>
<totfact> 0.87739416E+01</totfact>
</mgrwt>
</event>
<event>
 9    1  0.4488205E-036  0.1001475E+04  0.7818608E-02  0.8679635E-01
         -3   -1    0    0    0  501 -0.00000000000E+00  0.00000000000E+00  0.21826287200E+03  0.21826287200E+03  0.00000000000E+00 0. -1.
          3   -1    0    0  501    0  0.00000000000E+00 -0.00000000000E+00 -0.11487885064E+04  0.11487885064E+04  0.00000000000E+00 0. -1.
         36    2    1    2    0    0 -0.71054273576E-14  0.00000000000E+00 -0.93052563442E+03  0.13670513784E+04  0.10014746701E+04 0.  0.
         25    2    3    3    0    0 -0.13543101254E+02 -0.78084742876E+02 -0.33717570429E+03  0.36800237296E+03  0.12432879103E+03 0.  0.
         35    2    3    3    0    0  0.13543101254E+02  0.78084742876E+02 -0.59334993013E+03  0.99904900546E+03  0.79984631841E+03 0.  0.
         22    1    5    5    0    0  0.18835216811E+03  0.15071703480E+03 -0.72788250797E+03  0.76681491197E+03  0.00000000000E+00 0. -1.
         22    1    5    5    0    0 -0.17480906685E+03 -0.72632291920E+02  0.13453257784E+03  0.23223409350E+03  0.00000000000E+00 0. -1.
          5    1    4    4  502    0  0.36552501516E+02  0.22526844026E+01 -0.18551859804E+03  0.18915707804E+03  0.47000000000E+01 0.  1.
         -5    1    4    4    0  502 -0.50095602770E+02 -0.80337427279E+02 -0.15165710625E+03  0.17884529492E+03  0.47000000000E+01 0.  1.
<mgrwt>
<rscale>  0 0.10014747E+04</rscale>
<asrwt>0</asrwt>
<pdfrwt beam="1">  1        3 0.17673669E+00 0.10014747E+04</pdfrwt>
<pdfrwt beam="2">  1       -3 0.33578903E-01 0.10014747E+04</pdfrwt>
<totfact> 0.74501803E+00</totfact>
</mgrwt>
</event>
<event>
 9    1  0.4488205E-036  0.9999928E+03  0.7818608E-02  0.8681045E-01
         -2   -1    0    0    0  501 -0.00000000000E+00  0.00000000000E+00  0.18244318566E+03  0.18244318566E+03  0.00000000000E+00 0.  1.
          2   -1    0    0  501    0  0.00000000000E+00 -0.00000000000E+00 -0.13702699256E+04  0.13702699256E+04  0.00000000000E+00 0.  1.
         36    2    1    2    0    0  0.42632564146E-13  0.14210854715E-13 -0.11878267400E+04  0.15527131113E+04  0.99999282087E+03 0.  0.
         25    2    3    3    0    0  0.57238734663E+02  0.86698243034E+02 -0.80022497518E+02  0.18249860543E+03  0.12692234943E+03 0.  0.
         35    2    3    3    0    0 -0.57238734663E+02 -0.86698243034E+02 -0.11078042424E+04  0.13702145058E+04  0.79966536400E+03 0.  0.
         22    1    5    5    0    0  0.33742170930E+03 -0.82680424254E+02 -0.79164275812E+03  0.86451588704E+03  0.00000000000E+00 0. -1.
         22    1    5    5    0    0 -0.39466044397E+03 -0.40178187799E+01 -0.31616148432E+03  0.50569861881E+03  0.00000000000E+00 0. -1.
          5    1    4    4  502    0 -0.10930123933E+02  0.93967992366E+02 -0.53928917106E+02  0.10899481317E+03  0.47000000000E+01 0.  1.
         -5    1    4    4    0  502  0.68168858596E+02 -0.72697493316E+01 -0.26093580412E+02  0.73503792258E+02  0.47000000000E+01 0.  1.
<mgrwt>
<rscale>  0 0.99999282E+03</rscale>
<asrwt>0</asrwt>
<pdfrwt beam="1">  1        2 0.21081076E+00 0.99999282E+03</pdfrwt>
<pdfrwt beam="2">  1       -2 0.28068182E-01 0.99999282E+03</pdfrwt>
<totfact> 0.20945194E+02</totfact>
</mgrwt>
</event>
<event>
 9    1  0.4488205E-036  0.9994395E+03  0.7818608E-02  0.8681572E-01
         -2   -1    0    0    0  501 -0.00000000000E+00  0.00000000000E+00  0.26946986163E+03  0.26946986163E+03  0.00000000000E+00 0.  1.
          2   -1    0    0  501    0  0.00000000000E+00 -0.00000000000E+00 -0.92670784367E+03  0.92670784367E+03  0.00000000000E+00 0.  1.
         36    2    1    2    0    0  0.00000000000E+00  0.00000000000E+00 -0.65723798204E+03  0.11961777053E+04  0.99943951173E+03 0.  0.
         25    2    3    3    0    0 -0.84482552761E+01 -0.14028294398E+03 -0.11834785081E+03  0.22164582396E+03  0.12397572383E+03 0.  0.
         35    2    3    3    0    0  0.84482552761E+01  0.14028294398E+03 -0.53889013123E+03  0.97453188134E+03  0.79972441304E+03 0.  0.
         22    1    5    5    0    0 -0.80427492132E+02  0.14794304608E+03  0.18211143081E+03  0.24803285993E+03  0.00000000000E+00 0. -1.
         22    1    5    5    0    0  0.88875747408E+02 -0.76601021039E+01 -0.72100156204E+03  0.72649902140E+03  0.00000000000E+00 0. -1.
          5    1    4    4  502    0 -0.57621276093E+02 -0.36126985496E+02 -0.66540472294E+02  0.95263292998E+02  0.47000000000E+01 0. -1.
         -5    1    4    4    0  502  0.49173020817E+02 -0.10415595848E+03 -0.51807378520E+02  0.12638253096E+03  0.47000000000E+01 0. -1.
<mgrwt>
<rscale>  0 0.99943951E+03</rscale>
<asrwt>0</asrwt>
<pdfrwt beam="1">  1        2 0.14257043E+00 0.99943951E+03</pdfrwt>
<pdfrwt beam="2">  1       -2 0.41456903E-01 0.99943951E+03</pdfrwt>
<totfact> 0.18756864E+02</totfact>
</mgrwt>
</event>
<event>
 9    1  0.4488205E-036  0.9986184E+03  0.7818608E-02  0.8682355E-01
          2   -1    0    0  501    0  0.00000000000E+00  0.00000000000E+00  0.13992027033E+03  0.13992027033E+03  0.00000000000E+00 0. -1.
         -2   -1    0    0    0  501 -0.00000000000E+00 -0.00000000000E+00 -0.17817981387E+04  0.17817981387E+04  0.00000000000E+00 0. -1.
         36    2    1    2    0    0  0.14210854715E-13  0.14210854715E-13 -0.16418778684E+04  0.19217184091E+04  0.99861840007E+03 0.  0.
         25    2    3    3    0    0 -0.47768064032E+02 -0.11003938311E+03 -0.44281638922E+03  0.47549104391E+03  0.12495969147E+03 0.  0.
         35    2    3    3    0    0  0.47768064032E+02  0.11003938311E+03 -0.11990614792E+04  0.14462273652E+04  0.79964661388E+03 0.  0.
         22    1    5    5    0    0 -0.23489168275E+03  0.17309388632E+03 -0.98126852325E+02  0.30783839145E+03  0.00000000000E+00 0.  1.
         22    1    5    5    0    0  0.28265974678E+03 -0.63054503210E+02 -0.11009346269E+04  0.11383889737E+04  0.00000000000E+00 0.  1.
          5    1    4    4  502    0 -0.24348532479E+02 -0.12793384087E+03 -0.41391814277E+03  0.43394727513E+03  0.47000000000E+01 0. -1.
         -5    1    4    4    0  502 -0.23419531554E+02  0.17894457754E+02 -0.28898246451E+02  0.41543768780E+02  0.47000000000E+01 0. -1.
<mgrwt>
<rscale>  0 0.99861840E+03</rscale>
<asrwt>0</asrwt>
<pdfrwt beam="1">  1        2 0.21526195E-01 0.99861840E+03</pdfrwt>
<pdfrwt beam="2">  1       -2 0.27412279E+00 0.99861840E+03</pdfrwt>
<totfact> 0.12824175E+01</totfact>
</mgrwt>
</event>
<event>
 9    1  0.4488205E-036  0.1000869E+04  0.7818608E-02  0.8680211E-01
          1   -1    0    0  501    0  0.00000000000E+00  0.00000000000E+00  0.12619835818E+04  0.12619835818E+04  0.00000000000E+00 0.  1.
         -1   -1    0    0    0  501 -0.00000000000E+00 -0.00000000000E+00 -0.19844518166E+03  0.19844518166E+03  0.00000000000E+00 0.  1.
         36    2    1    2    0    0  0.71054273576E-14 -0.14210854715E-13  0.10635384001E+04  0.14604287634E+04  0.10008687449E+04 0.  0.
         25    2    3    3    0    0 -0.37337927681E+02  0.72244637474E+02  0.31313997399E+02  0.15227234086E+03  0.12487149743E+03 0.  0.
         35    2    3    3    0    0  0.37337927681E+02 -0.72244637474E+02  0.10322244027E+04  0.13081564226E+04  0.79948270766E+03 0.  0.
         22    1    5    5    0    0  0.98661229387E+02  0.12333916755E+03  0.10850510165E+04  0.10964863414E+04  0.00000000000E+00 0. -1.
         22    1    5    5    0    0 -0.61323301705E+02 -0.19558380503E+03 -0.52826613829E+02  0.21167008114E+03  0.00000000000E+00 0. -1.
          5    1    4    4  502    0 -0.57731980673E+02  0.45982303638E+02 -0.32017094145E+02  0.80588697457E+02  0.47000000000E+01 0.  1.
         -5    1    4    4    0  502  0.20394052992E+02  0.26262333835E+02  0.63331091544E+02  0.71683643406E+02  0.47000000000E+01 0.  1.
<mgrwt>
<rscale>  0 0.10008687E+04</rscale>
<asrwt>0</asrwt>
<pdfrwt beam="1">  1        1 0.19415131E+00 0.10008687E+04</pdfrwt>
<pdfrwt beam="2">  1       -1 0.30530029E-01 0.10008687E+04</pdfrwt>
<totfact> 0.10459817E+02</totfact>
</mgrwt>
</event>
<event>
 9    1  0.4488205E-036  0.1002664E+04  0.7818608E-02  0.8678506E-01
         -1   -1    0    0    0  501 -0.00000000000E+00  0.00000000000E+00  0.18900856552E+03  0.18900856552E+03  0.00000000000E+00 0. -1.
          1   -1    0    0  501    0  0.00000000000E+00 -0.00000000000E+00 -0.13297470221E+04  0.13297470221E+04  0.00000000000E+00 0. -1.
         36    2    1    2    0    0  0.00000000000E+00  0.14210854715E-13 -0.11407384566E+04  0.15187555876E+04  0.10026636069E+04 0.  0.
         25    2    3    3    0    0  0.37112493530E+02  0.27048838030E+02 -0.11447552132E+02  0.13359261173E+03  0.12492782975E+03 0.  0.
         35    2    3    3    0    0 -0.37112493530E+02 -0.27048838030E+02 -0.11292909045E+04  0.13851629759E+04  0.80079307319E+03 0.  0.
         22    1    5    5    0    0 -0.13097429481E+03 -0.34446705089E+03 -0.92618991859E+03  0.99681471716E+03  0.00000000000E+00 0. -1.
         22    1    5    5    0    0  0.93861801284E+02  0.31741821286E+03 -0.20310098587E+03  0.38834825873E+03  0.00000000000E+00 0. -1.
          5    1    4    4  502    0 -0.34769809979E+02  0.46571215077E+02 -0.17912992677E+01  0.58336236704E+02  0.47000000000E+01 0. -1.
         -5    1    4    4    0  502  0.71882303508E+02 -0.19522377047E+02 -0.96562528646E+01  0.75256375030E+02  0.47000000000E+01 0. -1.
<mgrwt>
<rscale>  0 0.10026636E+04</rscale>
<asrwt>0</asrwt>
<pdfrwt beam="1">  1        1 0.20457648E+00 0.10026636E+04</pdfrwt>
<pdfrwt beam="2">  1       -1 0.29078239E-01 0.10026636E+04</pdfrwt>
<totfact> 0.10140654E+02</totfact>
</mgrwt>
</event>
<event>
 9    1  0.4488205E-036  0.9996133E+03  0.7818608E-02  0.8681406E-01
         -2   -1    0    0    0  501 -0.00000000000E+00  0.00000000000E+00  0.46458204495E+03  0.46458204495E+03  0.00000000000E+00 0. -1.
          2   -1    0    0  501    0  0.00000000000E+00 -0.00000000000E+00 -0.53770199766E+03  0.53770199766E+03  0.00000000000E+00 0. -1.
         36    2    1    2    0    0  0.00000000000E+00 -0.53290705182E-14 -0.73119952709E+02  0.10022840426E+04  0.99961331254E+03 0.  0.
         25    2    3    3    0    0  0.13475451925E+03  0.13730584950E+02  0.24179863042E+02  0.18505688283E+03  0.12375004922E+03 0.  0.
         35    2    3    3    0    0 -0.13475451925E+03 -0.13730584950E+02 -0.97299815751E+02  0.81722715979E+03  0.80002854145E+03 0.  0.
         22    1    5    5    0    0  0.92180755675E+02  0.99268739317E+02 -0.40004302635E+03  0.42235766508E+03  0.00000000000E+00 0. -1.
         22    1    5    5    0    0 -0.22693527493E+03 -0.11299932427E+03  0.30274321060E+03  0.39486949471E+03  0.00000000000E+00 0. -1.
          5    1    4    4  502    0  0.13582155120E+02  0.27385758029E+02 -0.37267447463E+02  0.48429405540E+02  0.47000000000E+01 0.  1.
         -5    1    4    4    0  502  0.12117236413E+03 -0.13655173079E+02  0.61447310505E+02  0.13662747729E+03  0.47000000000E+01 0.  1.
<mgrwt>
<rscale>  0 0.99961331E+03</rscale>
<asrwt>0</asrwt>
<pdfrwt beam="1">  1        2 0.82723384E-01 0.99961331E+03</pdfrwt>
<pdfrwt beam="2">  1       -2 0.71474161E-01 0.99961331E+03</pdfrwt>
<totfact> 0.12143259E+02</totfact>
</mgrwt>
</event>
<event>
 9    1  0.4488205E-036  0.1000156E+04  0.7818608E-02  0.8680889E-01
         -1   -1    0    0    0  501 -0.00000000000E+00  0.00000000000E+00  0.33310750292E+03  0.33310750292E+03  0.00000000000E+00 0. -1.
          1   -1    0    0  501    0  0.00000000000E+00 -0.00000000000E+00 -0.75074253425E+03  0.75074253425E+03  0.00000000000E+00 0. -1.
         36    2    1    2    0    0  0.21316282073E-13 -0.14210854715E-13 -0.41763503132E+03  0.10838500372E+04  0.10001559297E+04 0.  0.
         25    2    3    3    0    0 -0.14552909582E+02  0.12364316342E+03 -0.15440010049E+03  0.23379838026E+03  0.12378559100E+03 0.  0.
         35    2    3    3    0    0  0.14552909582E+02 -0.12364316342E+03 -0.26323493083E+03  0.85005165691E+03  0.79862116900E+03 0.  0.
         22    1    5    5    0    0 -0.20541954017E+03  0.46174693653E+02  0.21247259277E+03  0.29912186897E+03  0.00000000000E+00 0. -1.
         22    1    5    5    0    0  0.21997244975E+03 -0.16981785708E+03 -0.47570752360E+03  0.55092978794E+03  0.00000000000E+00 0. -1.
          5    1    4    4  502    0 -0.69330433336E+02  0.66305036582E+02 -0.81042551198E+02  0.12567041007E+03  0.47000000000E+01 0.  1.
         -5    1    4    4    0  502  0.54777523753E+02  0.57338126841E+02 -0.73357549294E+02  0.10812797019E+03  0.47000000000E+01 0.  1.
<mgrwt>
<rscale>  0 0.10001559E+04</rscale>
<asrwt>0</asrwt>
<pdfrwt beam="1">  1        1 0.11549885E+00 0.10001559E+04</pdfrwt>
<pdfrwt beam="2">  1       -1 0.51247309E-01 0.10001559E+04</pdfrwt>
<totfact> 0.10715427E+02</totfact>
</mgrwt>
</event>
<event>
 9    1  0.4488205E-036  0.1012902E+04  0.7818608E-02  0.8668847E-01
          2   -1    0    0  501    0  0.00000000000E+00  0.00000000000E+00  0.36313228566E+04  0.36313228566E+04  0.00000000000E+00 0. -1.
         -2   -1    0    0    0  501 -0.00000000000E+00 -0.00000000000E+00 -0.70633410183E+02  0.70633410183E+02  0.00000000000E+00 0. -1.
         36    2    1    2    0    0  0.00000000000E+00  0.00000000000E+00  0.35606894464E+04  0.37019562668E+04  0.10129022003E+04 0.  0.
         25    2    3    3    0    0  0.94307990665E+02  0.11598292878E+03  0.81980372771E+03  0.84276378645E+03  0.12580385890E+03 0.  0.
         35    2    3    3    0    0 -0.94307990665E+02 -0.11598292878E+03  0.27408857187E+04  0.28591924803E+04  0.80011316681E+03 0.  0.
         22    1    5    5    0    0 -0.68502594688E+02 -0.10156962878E+03  0.44446709994E+01  0.12259180262E+03  0.00000000000E+00 0.  1.
         22    1    5    5    0    0 -0.25805395978E+02 -0.14413299996E+02  0.27364410477E+04  0.27366006777E+04  0.00000000000E+00 0.  1.
          5    1    4    4  502    0  0.11140199794E+03  0.11973741571E+03  0.79708021572E+03  0.81369921603E+03  0.47000000000E+01 0.  1.
         -5    1    4    4    0  502 -0.17094007277E+02 -0.37544869308E+01  0.22723511987E+02  0.29064570424E+02  0.47000000000E+01 0.  1.
<mgrwt>
<rscale>  0 0.10129022E+04</rscale>
<asrwt>0</asrwt>
<pdfrwt beam="1">  1        2 0.55866491E+00 0.10129022E+04</pdfrwt>
<pdfrwt beam="2">  1       -2 0.10866681E-01 0.10129022E+04</pdfrwt>
<totfact> 0.39905680E+01</totfact>
</mgrwt>
</event>
<event>
 9    1  0.4488205E-036  0.9997394E+03  0.7818608E-02  0.8681286E-01
          1   -1    0    0  501    0  0.00000000000E+00  0.00000000000E+00  0.45270735765E+03  0.45270735765E+03  0.00000000000E+00 0.  1.
         -1   -1    0    0    0  501 -0.00000000000E+00 -0.00000000000E+00 -0.55194530303E+03  0.55194530303E+03  0.00000000000E+00 0.  1.
         36    2    1    2    0    0  0.28421709430E-13 -0.14210854715E-13 -0.99237945374E+02  0.10046526607E+04  0.99973936544E+03 0.  0.
         25    2    3    3    0    0  0.66845694170E+02  0.74303184809E+02 -0.11602380838E+03  0.19777729559E+03  0.12515999536E+03 0.  0.
         35    2    3    3    0    0 -0.66845694170E+02 -0.74303184809E+02  0.16785863004E+02  0.80687536509E+03  0.80048533996E+03 0.  0.
         22    1    5    5    0    0  0.30564058757E+02  0.35245907103E+03  0.85011484126E+02  0.36385232015E+03  0.00000000000E+00 0.  1.
         22    1    5    5    0    0 -0.97409752927E+02 -0.42676225584E+03 -0.68225621122E+02  0.44302304495E+03  0.00000000000E+00 0.  1.
          5    1    4    4  502    0 -0.35093560257E+01 -0.30768751431E+02 -0.10571609195E+02  0.33058744158E+02  0.47000000000E+01 0. -1.
         -5    1    4    4    0  502  0.70355050196E+02  0.10507193624E+03 -0.10545219918E+03  0.16471855143E+03  0.47000000000E+01 0. -1.
<mgrwt>
<rscale>  0 0.99973937E+03</rscale>
<asrwt>0</asrwt>
<pdfrwt beam="1">  1        1 0.69647286E-01 0.99973937E+03</pdfrwt>
<pdfrwt beam="2">  1       -1 0.84914662E-01 0.99973937E+03</pdfrwt>
<totfact> 0.82657276E+01</totfact>
</mgrwt>
</event>
<event>
 9    1  0.4488205E-036  0.1000212E+04  0.7818608E-02  0.8680836E-01
          1   -1    0    0  501    0  0.00000000000E+00  0.00000000000E+00  0.26219846718E+04  0.26219846718E+04  0.00000000000E+00 0.  1.
         -1   -1    0    0    0  501 -0.00000000000E+00 -0.00000000000E+00 -0.95388064250E+02  0.95388064250E+02  0.00000000000E+00 0.  1.
         36    2    1    2    0    0  0.00000000000E+00 -0.88817841970E-15  0.25265966075E+04  0.27173727360E+04  0.10002120622E+04 0.  0.
         25    2    3    3    0    0 -0.10547393200E+03  0.71132598113E+01  0.71875956954E+03  0.73710082889E+03  0.12460724035E+03 0.  0.
         35    2    3    3    0    0  0.10547393200E+03 -0.71132598113E+01  0.18078370380E+04  0.19802719071E+04  0.80126569968E+03 0.  0.
         22    1    5    5    0    0  0.13050496210E+03  0.16336993816E+02 -0.35805591383E+02  0.13631024493E+03  0.00000000000E+00 0. -1.
         22    1    5    5    0    0 -0.25031030097E+02 -0.23450253628E+02  0.18436426294E+04  0.18439616622E+04  0.00000000000E+00 0. -1.
          5    1    4    4  502    0  0.17295405066E+02  0.12104529241E+02  0.29689993611E+03  0.29768660152E+03  0.47000000000E+01 0.  1.
         -5    1    4    4    0  502 -0.12276933706E+03 -0.49912694297E+01  0.42185963343E+03  0.43941422737E+03  0.47000000000E+01 0.  1.
<mgrwt>
<rscale>  0 0.10002121E+04</rscale>
<asrwt>0</asrwt>
<pdfrwt beam="1">  1        1 0.40338220E+00 0.10002121E+04</pdfrwt>
<pdfrwt beam="2">  1       -1 0.14675089E-01 0.10002121E+04</pdfrwt>
<totfact> 0.38616433E+01</totfact>
</mgrwt>
</event>
<event>
 9    1  0.4488205E-036  0.1000416E+04  0.7818608E-02  0.8680642E-01
         -3   -1    0    0    0  501 -0.00000000000E+00  0.00000000000E+00  0.95635163448E+03  0.95635163448E+03  0.00000000000E+00 0.  1.
          3   -1    0    0  501    0  0.00000000000E+00 -0.00000000000E+00 -0.26162786029E+03  0.26162786029E+03  0.00000000000E+00 0.  1.
         36    2    1    2    0    0  0.14210854715E-13 -0.28421709430E-13  0.69472377420E+03  0.12179794948E+04  0.10004163769E+04 0.  0.
         25    2    3    3    0    0 -0.54024389413E+02  0.33114496355E+02  0.28199640219E+03  0.31465211058E+03  0.12437353145E+03 0.  0.
         35    2    3    3    0    0  0.54024389413E+02 -0.33114496355E+02  0.41272737201E+03  0.90332738419E+03  0.80102513999E+03 0.  0.
         22    1    5    5    0    0  0.15981493213E+03 -0.24344057637E+03  0.55605704112E+03  0.62769702862E+03  0.00000000000E+00 0. -1.
         22    1    5    5    0    0 -0.10579054272E+03  0.21032608001E+03 -0.14332966911E+03  0.27563035557E+03  0.00000000000E+00 0. -1.
          5    1    4    4  502    0  0.32707879996E+02  0.59060085204E+01  0.15385076321E+03  0.15747010411E+03  0.47000000000E+01 0.  1.
         -5    1    4    4    0  502 -0.86732269409E+02  0.27208487834E+02  0.12814563898E+03  0.15718200647E+03  0.47000000000E+01 0.  1.
<mgrwt>
<rscale>  0 0.10004164E+04</rscale>
<asrwt>0</asrwt>
<pdfrwt beam="1">  1        3 0.40250441E-01 0.10004164E+04</pdfrwt>
<pdfrwt beam="2">  1       -3 0.14713102E+00 0.10004164E+04</pdfrwt>
<totfact> 0.67343528E+00</totfact>
</mgrwt>
</event>
<event>
 9    1  0.4488205E-036  0.1000141E+04  0.7818608E-02  0.8680904E-01
         -2   -1    0    0    0  501 -0.00000000000E+00  0.00000000000E+00  0.13772734895E+04  0.13772734895E+04  0.00000000000E+00 0. -1.
          2   -1    0    0  501    0  0.00000000000E+00 -0.00000000000E+00 -0.18156926761E+03  0.18156926761E+03  0.00000000000E+00 0. -1.
         36    2    1    2    0    0  0.00000000000E+00  0.71054273576E-14  0.11957042218E+04  0.15588427571E+04  0.10001410676E+04 0.  0.
         25    2    3    3    0    0 -0.13392837082E+03 -0.25274002875E+02  0.28141454338E+03  0.33603386147E+03  0.12308138402E+03 0.  0.
         35    2    3    3    0    0  0.13392837082E+03  0.25274002875E+02  0.91428967846E+03  0.12228088956E+04  0.80047510598E+03 0.  0.
         22    1    5    5    0    0  0.24006693647E+02  0.15741502255E+03  0.10124333725E+04  0.10248790877E+04  0.00000000000E+00 0.  1.
         22    1    5    5    0    0  0.10992167718E+03 -0.13214101967E+03 -0.98143694010E+02  0.19792980793E+03  0.00000000000E+00 0.  1.
          5    1    4    4  502    0 -0.45865303801E+02 -0.70613032982E+02  0.13611902781E+03  0.16012590749E+03  0.47000000000E+01 0.  1.
         -5    1    4    4    0  502 -0.88063067022E+02  0.45339030107E+02  0.14529551558E+03  0.17590795398E+03  0.47000000000E+01 0.  1.
<mgrwt>
<rscale>  0 0.10001411E+04</rscale>
<asrwt>0</asrwt>
<pdfrwt beam="1">  1        2 0.27933734E-01 0.10001411E+04</pdfrwt>
<pdfrwt beam="2">  1       -2 0.21188822E+00 0.10001411E+04</pdfrwt>
<totfact> 0.23275225E+01</totfact>
</mgrwt>
</event>
<event>
 9    1  0.4488205E-036  0.9996302E+03  0.7818608E-02  0.8681390E-01
         -2   -1    0    0    0  501 -0.00000000000E+00  0.00000000000E+00  0.82877729940E+02  0.82877729940E+02  0.00000000000E+00 0.  1.
          2   -1    0    0  501    0  0.00000000000E+00 -0.00000000000E+00 -0.30142613284E+04  0.30142613284E+04  0.00000000000E+00 0.  1.
         36    2    1    2    0    0  0.00000000000E+00 -0.14210854715E-13 -0.29313835984E+04  0.30971390583E+04  0.99963020431E+03 0.  0.
         25    2    3    3    0    0  0.99685387977E+01  0.12613848134E+03 -0.36947195912E+03  0.41063899069E+03  0.12690375826E+03 0.  0.
         35    2    3    3    0    0 -0.99685387977E+01 -0.12613848134E+03 -0.25619116393E+04  0.26865000676E+04  0.79867457543E+03 0.  0.
         22    1    5    5    0    0  0.21080863651E+03 -0.19442361063E+03 -0.30825158304E+03  0.42102239851E+03  0.00000000000E+00 0.  1.
         22    1    5    5    0    0 -0.22077717531E+03  0.68285129294E+02 -0.22536600562E+04  0.22654776691E+04  0.00000000000E+00 0.  1.
          5    1    4    4  502    0 -0.52174151665E+02  0.20959536834E+02 -0.13171757822E+03  0.14329359615E+03  0.47000000000E+01 0. -1.
         -5    1    4    4    0  502  0.62142690462E+02  0.10517894450E+03 -0.23775438090E+03  0.26734539454E+03  0.47000000000E+01 0. -1.
<mgrwt>
<rscale>  0 0.99963020E+03</rscale>
<asrwt>0</asrwt>
<pdfrwt beam="1">  1        2 0.46373257E+00 0.99963020E+03</pdfrwt>
<pdfrwt beam="2">  1       -2 0.12750418E-01 0.99963020E+03</pdfrwt>
<totfact> 0.85802568E+01</totfact>
</mgrwt>
</event>
<event>
 9    1  0.4488205E-036  0.1000411E+04  0.7818608E-02  0.8680647E-01
         -2   -1    0    0    0  501 -0.00000000000E+00  0.00000000000E+00  0.19834392345E+03  0.19834392345E+03  0.00000000000E+00 0.  1.
          2   -1    0    0  501    0  0.00000000000E+00 -0.00000000000E+00 -0.12614721589E+04  0.12614721589E+04  0.00000000000E+00 0.  1.
         36    2    1    2    0    0  0.28421709430E-13 -0.17763568394E-13 -0.10631282355E+04  0.14598160824E+04  0.10004105904E+04 0.  0.
         25    2    3    3    0    0  0.14046508830E+03 -0.19515052806E+01 -0.17970276730E+03  0.25985260040E+03  0.12448309103E+03 0.  0.
         35    2    3    3    0    0 -0.14046508830E+03  0.19515052806E+01 -0.88342546815E+03  0.11999634820E+04  0.79983595248E+03 0.  0.
         22    1    5    5    0    0  0.22502845218E+03 -0.26727887265E+03 -0.47248788452E+03  0.58763985661E+03  0.00000000000E+00 0. -1.
         22    1    5    5    0    0 -0.36549354048E+03  0.26923037793E+03 -0.41093758364E+03  0.61232362536E+03  0.00000000000E+00 0. -1.
          5    1    4    4  502    0  0.67147338842E+02  0.31345001201E+02 -0.16063827555E+03  0.17696897973E+03  0.47000000000E+01 0. -1.
         -5    1    4    4    0  502  0.73317749459E+02 -0.33296506481E+02 -0.19064491756E+02  0.82883620670E+02  0.47000000000E+01 0. -1.
<mgrwt>
<rscale>  0 0.10004106E+04</rscale>
<asrwt>0</asrwt>
<pdfrwt beam="1">  1        2 0.19407264E+00 0.10004106E+04</pdfrwt>
<pdfrwt beam="2">  1       -2 0.30514450E-01 0.10004106E+04</pdfrwt>
<totfact> 0.20802825E+02</totfact>
</mgrwt>
</event>
<event>
 9    1  0.4488205E-036  0.1000218E+04  0.7818608E-02  0.8680830E-01
         -1   -1    0    0    0  501 -0.00000000000E+00  0.00000000000E+00  0.19125283851E+03  0.19125283851E+03  0.00000000000E+00 0.  1.
          1   -1    0    0  501    0  0.00000000000E+00 -0.00000000000E+00 -0.13077406147E+04  0.13077406147E+04  0.00000000000E+00 0.  1.
         36    2    1    2    0    0 -0.71054273576E-14  0.28421709430E-13 -0.11164877762E+04  0.14989934532E+04  0.10002181854E+04 0.  0.
         25    2    3    3    0    0 -0.21620041636E+02 -0.13620779850E+03 -0.22837553655E+03  0.29454931356E+03  0.12483557927E+03 0.  0.
         35    2    3    3    0    0  0.21620041636E+02  0.13620779850E+03 -0.88811223961E+03  0.12044441396E+04  0.80182438524E+03 0.  0.
         22    1    5    5    0    0  0.37485003229E+03  0.70154052741E+02 -0.70403792954E+03  0.80068941797E+03  0.00000000000E+00 0.  1.
         22    1    5    5    0    0 -0.35322999066E+03  0.66053745757E+02 -0.18407431007E+03  0.40375472165E+03  0.00000000000E+00 0.  1.
          5    1    4    4  502    0 -0.26110853161E+02 -0.67146566745E+02 -0.19978761366E+02  0.74911140587E+02  0.47000000000E+01 0.  1.
         -5    1    4    4    0  502  0.44908115250E+01 -0.69061231753E+02 -0.20839677519E+03  0.21963817298E+03  0.47000000000E+01 0.  1.
<mgrwt>
<rscale>  0 0.10002182E+04</rscale>
<asrwt>0</asrwt>
<pdfrwt beam="1">  1        1 0.20119086E+00 0.10002182E+04</pdfrwt>
<pdfrwt beam="2">  1       -1 0.29423514E-01 0.10002182E+04</pdfrwt>
<totfact> 0.10314370E+02</totfact>
</mgrwt>
</event>
<event>
 9    1  0.4488205E-036  0.9996331E+03  0.7818608E-02  0.8681387E-01
          1   -1    0    0  501    0  0.00000000000E+00  0.00000000000E+00  0.73873899477E+03  0.73873899477E+03  0.00000000000E+00 0. -1.
         -1   -1    0    0    0  501 -0.00000000000E+00 -0.00000000000E+00 -0.33816623911E+03  0.33816623911E+03  0.00000000000E+00 0. -1.
         36    2    1    2    0    0 -0.56843418861E-13  0.00000000000E+00  0.40057275566E+03  0.10769052339E+04  0.99963310779E+03 0.  0.
         25    2    3    3    0    0 -0.13144678192E+03  0.19505359427E+02  0.26934462014E+02  0.18378006900E+03  0.12406019907E+03 0.  0.
         35    2    3    3    0    0  0.13144678192E+03 -0.19505359427E+02  0.37363829364E+03  0.89312516488E+03  0.80025512816E+03 0.  0.
         22    1    5    5    0    0  0.11853736408E+03  0.27905715127E+03 -0.11174129248E+03  0.32312554340E+03  0.00000000000E+00 0. -1.
         22    1    5    5    0    0  0.12909417844E+02 -0.29856251069E+03  0.48537958612E+03  0.56999962148E+03  0.00000000000E+00 0. -1.
          5    1    4    4  502    0 -0.34495672060E+01 -0.18719807053E+02 -0.32134938096E+02  0.37644055792E+02  0.47000000000E+01 0. -1.
         -5    1    4    4    0  502 -0.12799721471E+03  0.38225166480E+02  0.59069400110E+02  0.14613601321E+03  0.47000000000E+01 0. -1.
<mgrwt>
<rscale>  0 0.99963311E+03</rscale>
<asrwt>0</asrwt>
<pdfrwt beam="1">  1        1 0.11365215E+00 0.99963311E+03</pdfrwt>
<pdfrwt beam="2">  1       -1 0.52025575E-01 0.99963311E+03</pdfrwt>
<totfact> 0.10687658E+02</totfact>
</mgrwt>
</event>
<event>
 9    1  0.4488205E-036  0.9996712E+03  0.7818608E-02  0.8681351E-01
          2   -1    0    0  501    0  0.00000000000E+00  0.00000000000E+00  0.54597811370E+03  0.54597811370E+03  0.00000000000E+00 0.  1.
         -2   -1    0    0    0  501 -0.00000000000E+00 -0.00000000000E+00 -0.45759277514E+03  0.45759277514E+03  0.00000000000E+00 0.  1.
         36    2    1    2    0    0  0.14210854715E-13  0.00000000000E+00  0.88385338560E+02  0.10035708888E+04  0.99967122638E+03 0.  0.
         25    2    3    3    0    0  0.12237505926E+03  0.63135393714E+02  0.29612346006E+02  0.18974002324E+03  0.12713242040E+03 0.  0.
         35    2    3    3    0    0 -0.12237505926E+03 -0.63135393714E+02  0.58772992554E+02  0.81383086560E+03  0.79994042283E+03 0.  0.
         22    1    5    5    0    0  0.20996465826E+03 -0.25237192198E+03 -0.16844387813E+03  0.36898520946E+03  0.00000000000E+00 0. -1.
         22    1    5    5    0    0 -0.33233971751E+03  0.18923652826E+03  0.22721687069E+03  0.44484565614E+03  0.00000000000E+00 0. -1.
          5    1    4    4  502    0  0.10472143830E+02  0.58555434841E+02  0.47447453343E+02  0.76234871119E+02  0.47000000000E+01 0. -1.
         -5    1    4    4    0  502  0.11190291543E+03  0.45799588730E+01 -0.17835107337E+02  0.11350515212E+03  0.47000000000E+01 0. -1.
<mgrwt>
<rscale>  0 0.99967123E+03</rscale>
<asrwt>0</asrwt>
<pdfrwt beam="1">  1        2 0.83996632E-01 0.99967123E+03</pdfrwt>
<pdfrwt beam="2">  1       -2 0.70398889E-01 0.99967123E+03</pdfrwt>
<totfact> 0.12330887E+02</totfact>
</mgrwt>
</event>
<event>
 9    1  0.4488205E-036  0.9998774E+03  0.7818608E-02  0.8681155E-01
         -1   -1    0    0    0  501 -0.00000000000E+00  0.00000000000E+00  0.12650247838E+04  0.12650247838E+04  0.00000000000E+00 0.  1.
          1   -1    0    0  501    0  0.00000000000E+00 -0.00000000000E+00 -0.19757614089E+03  0.19757614089E+03  0.00000000000E+00 0.  1.
         36    2    1    2    0    0 -0.28421709430E-13  0.00000000000E+00  0.10674486429E+04  0.14626009247E+04  0.99987742231E+03 0.  0.
         25    2    3    3    0    0 -0.10729667031E+03 -0.55771202668E+02  0.10985382780E+03  0.20816538580E+03  0.12900372808E+03 0.  0.
         35    2    3    3    0    0  0.10729667031E+03  0.55771202668E+02  0.95759481511E+03  0.12544355389E+04  0.80124758270E+03 0.  0.
         22    1    5    5    0    0  0.34972348111E+03  0.24794626940E+01  0.10308930707E+03  0.36460947082E+03  0.00000000000E+00 0.  1.
         22    1    5    5    0    0 -0.24242681080E+03  0.53291739974E+02  0.85450550804E+03  0.88982606807E+03  0.00000000000E+00 0.  1.
          5    1    4    4  502    0 -0.52538157627E+02  0.20567302206E+02  0.98240259838E+02  0.11338655379E+03  0.47000000000E+01 0.  1.
         -5    1    4    4    0  502 -0.54758512682E+02 -0.76338504874E+02  0.11613567962E+02  0.94778832016E+02  0.47000000000E+01 0.  1.
<mgrwt>
<rscale>  0 0.99987742E+03</rscale>
<asrwt>0</asrwt>
<pdfrwt beam="1">  1        1 0.30396330E-01 0.99987742E+03</pdfrwt>
<pdfrwt beam="2">  1       -1 0.19461919E+00 0.99987742E+03</pdfrwt>
<totfact> 0.26141680E+01</totfact>
</mgrwt>
</event>
<event>
 9    1  0.4488205E-036  0.9997823E+03  0.7818608E-02  0.8681245E-01
          2   -1    0    0  501    0  0.00000000000E+00  0.00000000000E+00  0.19597761151E+04  0.19597761151E+04  0.00000000000E+00 0.  1.
         -2   -1    0    0    0  501 -0.00000000000E+00 -0.00000000000E+00 -0.12751006562E+03  0.12751006562E+03  0.00000000000E+00 0.  1.
         36    2    1    2    0    0  0.00000000000E+00  0.00000000000E+00  0.18322660495E+04  0.20872861808E+04  0.99978233839E+03 0.  0.
         25    2    3    3    0    0  0.10737718423E+03  0.86094368042E+02  0.39624862927E+03  0.43782999735E+03  0.12545927818E+03 0.  0.
         35    2    3    3    0    0 -0.10737718423E+03 -0.86094368042E+02  0.14360174203E+04  0.16494561834E+04  0.79976094541E+03 0.  0.
         22    1    5    5    0    0  0.19705551016E+03  0.11570356757E+03  0.11836513216E+04  0.12055076279E+04  0.00000000000E+00 0. -1.
         22    1    5    5    0    0 -0.30443269439E+03 -0.20179793561E+03  0.25236609860E+03  0.44394855553E+03  0.00000000000E+00 0. -1.
          5    1    4    4  502    0  0.24189443345E+02 -0.32681298960E+02  0.78724980274E+02  0.88729414459E+02  0.47000000000E+01 0. -1.
         -5    1    4    4    0  502  0.83187740885E+02  0.11877566700E+03  0.31752364900E+03  0.34910058290E+03  0.47000000000E+01 0. -1.
<mgrwt>
<rscale>  0 0.99978234E+03</rscale>
<asrwt>0</asrwt>
<pdfrwt beam="1">  1        2 0.30150400E+00 0.99978234E+03</pdfrwt>
<pdfrwt beam="2">  1       -2 0.19616935E-01 0.99978234E+03</pdfrwt>
<totfact> 0.18270616E+02</totfact>
</mgrwt>
</event>
<event>
 9    1  0.4488205E-036  0.1001390E+04  0.7818608E-02  0.8679716E-01
          3   -1    0    0  501    0  0.00000000000E+00  0.00000000000E+00  0.25755087511E+03  0.25755087511E+03  0.00000000000E+00 0. -1.
         -3   -1    0    0    0  501 -0.00000000000E+00 -0.00000000000E+00 -0.97338156225E+03  0.97338156225E+03  0.00000000000E+00 0. -1.
         36    2    1    2    0    0  0.14210854715E-13  0.00000000000E+00 -0.71583068714E+03  0.12309324374E+04  0.10013895809E+04 0.  0.
         25    2    3    3    0    0  0.97477128969E+02  0.57407893160E+02 -0.27885519606E+02  0.17066219062E+03  0.12470174110E+03 0.  0.
         35    2    3    3    0    0 -0.97477128969E+02 -0.57407893160E+02 -0.68794516754E+03  0.10602702467E+04  0.79881598990E+03 0.  0.
         22    1    5    5    0    0  0.33169953483E+02 -0.12506897889E+03  0.15652300514E+03  0.20308113264E+03  0.00000000000E+00 0. -1.
         22    1    5    5    0    0 -0.13064708245E+03  0.67661085734E+02 -0.84446817268E+03  0.85718911411E+03  0.00000000000E+00 0. -1.
          5    1    4    4  502    0  0.10842667181E+03 -0.12244906752E+01 -0.18400123302E+02  0.11008404550E+03  0.47000000000E+01 0. -1.
         -5    1    4    4    0  502 -0.10949542836E+02  0.58632383835E+02 -0.94853963039E+01  0.60578145115E+02  0.47000000000E+01 0. -1.
<mgrwt>
<rscale>  0 0.10013896E+04</rscale>
<asrwt>0</asrwt>
<pdfrwt beam="1">  1        3 0.39623212E-01 0.10013896E+04</pdfrwt>
<pdfrwt beam="2">  1       -3 0.14975101E+00 0.10013896E+04</pdfrwt>
<totfact> 0.65855831E+00</totfact>
</mgrwt>
</event>
<event>
 9    1  0.4488205E-036  0.1000290E+04  0.7818608E-02  0.8680762E-01
         -4   -1    0    0    0  501 -0.00000000000E+00  0.00000000000E+00  0.47074393815E+03  0.47074393815E+03  0.00000000000E+00 0. -1.
          4   -1    0    0  501    0  0.00000000000E+00 -0.00000000000E+00 -0.53138219508E+03  0.53138219508E+03  0.00000000000E+00 0. -1.
         36    2    1    2    0    0  0.00000000000E+00 -0.28421709430E-13 -0.60638256931E+02  0.10021261332E+04  0.10002898523E+04 0.  0.
         25    2    3    3    0    0  0.12313833615E+03  0.71727306766E+02 -0.56671073847E+02  0.19792947589E+03  0.12512637792E+03 0.  0.
         35    2    3    3    0    0 -0.12313833615E+03 -0.71727306766E+02 -0.39671830839E+01  0.80419665734E+03  0.79145983396E+03 0.  0.
         22    1    5    5    0    0 -0.25400675051E+03 -0.37830775393E+03 -0.79112521658E+02  0.46248781289E+03  0.00000000000E+00 0. -1.
         22    1    5    5    0    0  0.13086841436E+03  0.30658044717E+03  0.75145338574E+02  0.34170884445E+03  0.00000000000E+00 0. -1.
          5    1    4    4  502    0  0.50773292963E+01  0.55809674575E+02 -0.55050515793E+02  0.78696558616E+02  0.47000000000E+01 0. -1.
         -5    1    4    4    0  502  0.11806100685E+03  0.15917632191E+02 -0.16205580534E+01  0.11923291728E+03  0.47000000000E+01 0. -1.
<mgrwt>
<rscale>  0 0.10002899E+04</rscale>
<asrwt>0</asrwt>
<pdfrwt beam="1">  1        4 0.81751106E-01 0.10002899E+04</pdfrwt>
<pdfrwt beam="2">  1       -4 0.72422145E-01 0.10002899E+04</pdfrwt>
<totfact> 0.52749566E+00</totfact>
</mgrwt>
</event>
<event>
 9    1  0.4488205E-036  0.1002127E+04  0.7818608E-02  0.8679015E-01
          1   -1    0    0  501    0  0.00000000000E+00  0.00000000000E+00  0.83081201628E+03  0.83081201628E+03  0.00000000000E+00 0. -1.
         -1   -1    0    0    0  501 -0.00000000000E+00 -0.00000000000E+00 -0.30219187861E+03  0.30219187861E+03  0.00000000000E+00 0. -1.
         36    2    1    2    0    0  0.00000000000E+00  0.00000000000E+00  0.52862013767E+03  0.11330038949E+04  0.10021270258E+04 0.  0.
         25    2    3    3    0    0  0.97164330515E+02  0.57723091084E+02  0.20203494188E+03  0.26321160725E+03  0.12525721567E+03 0.  0.
         35    2    3    3    0    0 -0.97164330515E+02 -0.57723091084E+02  0.32658519579E+03  0.86979228765E+03  0.79819037277E+03 0.  0.
         22    1    5    5    0    0 -0.33420146057E+03 -0.31111361913E+03  0.15101180213E+03  0.48092293004E+03  0.00000000000E+00 0. -1.
         22    1    5    5    0    0  0.23703713006E+03  0.25339052804E+03  0.17557339366E+03  0.38886935761E+03  0.00000000000E+00 0. -1.
          5    1    4    4  502    0  0.10887651625E+03  0.54496158931E+02  0.92688563394E+02  0.15309208638E+03  0.47000000000E+01 0. -1.
         -5    1    4    4    0  502 -0.11712185738E+02  0.32269321537E+01  0.10934637849E+03  0.11011952086E+03  0.47000000000E+01 0. -1.
<mgrwt>
<rscale>  0 0.10021270E+04</rscale>
<asrwt>0</asrwt>
<pdfrwt beam="1">  1        1 0.12781723E+00 0.10021270E+04</pdfrwt>
<pdfrwt beam="2">  1       -1 0.46491058E-01 0.10021270E+04</pdfrwt>
<totfact> 0.10878935E+02</totfact>
</mgrwt>
</event>
<event>
 9    1  0.4488205E-036  0.1000102E+04  0.7818608E-02  0.8680941E-01
         -2   -1    0    0    0  501 -0.00000000000E+00  0.00000000000E+00  0.18541895196E+03  0.18541895196E+03  0.00000000000E+00 0. -1.
          2   -1    0    0  501    0  0.00000000000E+00 -0.00000000000E+00 -0.13485720774E+04  0.13485720774E+04  0.00000000000E+00 0. -1.
         36    2    1    2    0    0  0.71054273576E-14 -0.14210854715E-13 -0.11631531254E+04  0.15339910293E+04  0.10001016373E+04 0.  0.
         25    2    3    3    0    0  0.37702348955E+02  0.11244128878E+03 -0.13820339015E+03  0.22836612116E+03  0.13779113797E+03 0.  0.
         35    2    3    3    0    0 -0.37702348955E+02 -0.11244128878E+03 -0.10249497352E+04  0.13056249082E+04  0.80004370536E+03 0.  0.
         22    1    5    5    0    0 -0.25278962196E+03 -0.16937134616E+03 -0.10390462893E+04  0.10826848281E+04  0.00000000000E+00 0.  1.
         22    1    5    5    0    0  0.21508727301E+03  0.56930057376E+02  0.14096554008E+02  0.22294008002E+03  0.00000000000E+00 0.  1.
          5    1    4    4  502    0 -0.26320576795E-01  0.99526743102E+02 -0.17504827882E+02  0.10116364112E+03  0.47000000000E+01 0. -1.
         -5    1    4    4    0  502  0.37728669532E+02  0.12914545683E+02 -0.12069856227E+03  0.12720248004E+03  0.47000000000E+01 0. -1.
<mgrwt>
<rscale>  0 0.10001016E+04</rscale>
<asrwt>0</asrwt>
<pdfrwt beam="1">  1        2 0.20747262E+00 0.10001016E+04</pdfrwt>
<pdfrwt beam="2">  1       -2 0.28525994E-01 0.10001016E+04</pdfrwt>
<totfact> 0.20933644E+02</totfact>
</mgrwt>
</event>
<event>
 9    1  0.4488205E-036  0.1000216E+04  0.7818608E-02  0.8680833E-01
          3   -1    0    0  501    0  0.00000000000E+00  0.00000000000E+00  0.11597892835E+03  0.11597892835E+03  0.00000000000E+00 0. -1.
         -3   -1    0    0    0  501 -0.00000000000E+00 -0.00000000000E+00 -0.21564936959E+04  0.21564936959E+04  0.00000000000E+00 0. -1.
         36    2    1    2    0    0 -0.71054273576E-14  0.00000000000E+00 -0.20405147675E+04  0.22724726242E+04  0.10002156324E+04 0.  0.
         25    2    3    3    0    0 -0.46837577951E+02 -0.12365061840E+03 -0.27596551965E+03  0.33029739366E+03  0.12432283008E+03 0.  0.
         35    2    3    3    0    0  0.46837577951E+02  0.12365061840E+03 -0.17645492479E+04  0.19421752306E+04  0.80057938017E+03 0.  0.
         22    1    5    5    0    0 -0.11722001080E+03 -0.13081167818E+03 -0.15754462431E+04  0.15852075861E+04  0.00000000000E+00 0.  1.
         22    1    5    5    0    0  0.16405758875E+03  0.25446229658E+03 -0.18910300479E+03  0.35696764451E+03  0.00000000000E+00 0.  1.
          5    1    4    4  502    0 -0.73513447028E+02 -0.11908424953E+03 -0.26684652775E+03  0.30135435081E+03  0.47000000000E+01 0. -1.
         -5    1    4    4    0  502  0.26675869078E+02 -0.45663688650E+01 -0.91189919016E+01  0.28943042842E+02  0.47000000000E+01 0. -1.
<mgrwt>
<rscale>  0 0.10002156E+04</rscale>
<asrwt>0</asrwt>
<pdfrwt beam="1">  1        3 0.17842915E-01 0.10002156E+04</pdfrwt>
<pdfrwt beam="2">  1       -3 0.33176821E+00 0.10002156E+04</pdfrwt>
<totfact> 0.98519355E-01</totfact>
</mgrwt>
</event>
<event>
 9    1  0.4488205E-036  0.1000149E+04  0.7818608E-02  0.8680896E-01
          1   -1    0    0  501    0  0.00000000000E+00  0.00000000000E+00  0.51700724787E+03  0.51700724787E+03  0.00000000000E+00 0.  1.
         -1   -1    0    0    0  501 -0.00000000000E+00 -0.00000000000E+00 -0.48369610310E+03  0.48369610310E+03  0.00000000000E+00 0.  1.
         36    2    1    2    0    0  0.00000000000E+00 -0.28421709430E-13  0.33311144769E+02  0.10007033510E+04  0.10001487711E+04 0.  0.
         25    2    3    3    0    0 -0.75992846681E+02 -0.11236399255E+03  0.46455338096E+02  0.18996022297E+03  0.12460420661E+03 0.  0.
         35    2    3    3    0    0  0.75992846681E+02  0.11236399255E+03 -0.13144193327E+02  0.81074312800E+03  0.79920652538E+03 0.  0.
         22    1    5    5    0    0 -0.17168013216E+03  0.16079367318E+03 -0.33026163203E+03  0.40546444814E+03  0.00000000000E+00 0.  1.
         22    1    5    5    0    0  0.24767297885E+03 -0.48429680633E+02  0.31711743870E+03  0.40527867986E+03  0.00000000000E+00 0.  1.
          5    1    4    4  502    0 -0.82063329154E+02 -0.12945114227E+03  0.15960605118E+02  0.15417139534E+03  0.47000000000E+01 0.  1.
         -5    1    4    4    0  502  0.60704824729E+01  0.17087149723E+02  0.30494732978E+02  0.35788827621E+02  0.47000000000E+01 0.  1.
<mgrwt>
<rscale>  0 0.10001488E+04</rscale>
<asrwt>0</asrwt>
<pdfrwt beam="1">  1        1 0.79539577E-01 0.10001488E+04</pdfrwt>
<pdfrwt beam="2">  1       -1 0.74414785E-01 0.10001488E+04</pdfrwt>
<totfact> 0.90557108E+01</totfact>
</mgrwt>
</event>
<event>
 9    1  0.4488205E-036  0.9998155E+03  0.7818608E-02  0.8681214E-01
         -2   -1    0    0    0  501 -0.00000000000E+00  0.00000000000E+00  0.28037023352E+03  0.28037023352E+03  0.00000000000E+00 0. -1.
          2   -1    0    0  501    0  0.00000000000E+00 -0.00000000000E+00 -0.89134911043E+03  0.89134911043E+03  0.00000000000E+00 0. -1.
         36    2    1    2    0    0  0.00000000000E+00 -0.14210854715E-13 -0.61097887691E+03  0.11717193439E+04  0.99981549945E+03 0.  0.
         25    2    3    3    0    0 -0.13937281511E+03 -0.90391790196E-01 -0.94118738342E+02  0.20981455821E+03  0.12545525962E+03 0.  0.
         35    2    3    3    0    0  0.13937281511E+03  0.90391790196E-01 -0.51686013857E+03  0.96190478574E+03  0.79918184677E+03 0.  0.
         22    1    5    5    0    0  0.27968396439E+03 -0.14755226885E+03  0.84228519959E+02  0.32724491678E+03  0.00000000000E+00 0.  1.
         22    1    5    5    0    0 -0.14031114928E+03  0.14764266064E+03 -0.60108865853E+03  0.63465986896E+03  0.00000000000E+00 0.  1.
          5    1    4    4  502    0 -0.11479804824E+03 -0.54841599139E+02 -0.62830509147E+02  0.14197167237E+03  0.47000000000E+01 0.  1.
         -5    1    4    4    0  502 -0.24574766871E+02  0.54751207349E+02 -0.31288229195E+02  0.67842885839E+02  0.47000000000E+01 0.  1.
<mgrwt>
<rscale>  0 0.99981550E+03</rscale>
<asrwt>0</asrwt>
<pdfrwt beam="1">  1        2 0.13713063E+00 0.99981550E+03</pdfrwt>
<pdfrwt beam="2">  1       -2 0.43133882E-01 0.99981550E+03</pdfrwt>
<totfact> 0.18324196E+02</totfact>
</mgrwt>
</event>
<event>
 9    1  0.4488205E-036  0.9990782E+03  0.7818608E-02  0.8681916E-01
         -2   -1    0    0    0  501 -0.00000000000E+00  0.00000000000E+00  0.13442669595E+03  0.13442669595E+03  0.00000000000E+00 0.  1.
          2   -1    0    0  501    0  0.00000000000E+00 -0.00000000000E+00 -0.18563226755E+04  0.18563226755E+04  0.00000000000E+00 0.  1.
         36    2    1    2    0    0  0.17763568394E-13  0.00000000000E+00 -0.17218959796E+04  0.19907493715E+04  0.99907822293E+03 0.  0.
         25    2    3    3    0    0  0.94508795237E+01 -0.68608596815E+02 -0.81966511542E+02  0.16440241506E+03  0.12455194251E+03 0.  0.
         35    2    3    3    0    0 -0.94508795237E+01  0.68608596815E+02 -0.16399294681E+04  0.18263469564E+04  0.80086084082E+03 0.  0.
         22    1    5    5    0    0  0.35927236259E+03 -0.28827392940E+02 -0.11519099451E+04  0.12069814293E+04  0.00000000000E+00 0.  1.
         22    1    5    5    0    0 -0.36872324211E+03  0.97435989755E+02 -0.48801952294E+03  0.61936552709E+03  0.00000000000E+00 0.  1.
          5    1    4    4  502    0 -0.31736769302E+02 -0.14506507879E+02  0.20943567620E+02  0.40968089060E+02  0.47000000000E+01 0. -1.
         -5    1    4    4    0  502  0.41187648826E+02 -0.54102088936E+02 -0.10291007916E+03  0.12343432600E+03  0.47000000000E+01 0. -1.
<mgrwt>
<rscale>  0 0.99907822E+03</rscale>
<asrwt>0</asrwt>
<pdfrwt beam="1">  1        2 0.28558807E+00 0.99907822E+03</pdfrwt>
<pdfrwt beam="2">  1       -2 0.20681033E-01 0.99907822E+03</pdfrwt>
<totfact> 0.19083893E+02</totfact>
</mgrwt>
</event>
<event>
 9    1  0.4488205E-036  0.9994912E+03  0.7818608E-02  0.8681523E-01
          1   -1    0    0  501    0  0.00000000000E+00  0.00000000000E+00  0.38164841439E+03  0.38164841439E+03  0.00000000000E+00 0.  1.
         -1   -1    0    0    0  501 -0.00000000000E+00 -0.00000000000E+00 -0.65438678883E+03  0.65438678883E+03  0.00000000000E+00 0.  1.
         36    2    1    2    0    0  0.00000000000E+00  0.28421709430E-13 -0.27273837444E+03  0.10360352032E+04  0.99949123128E+03 0.  0.
         25    2    3    3    0    0  0.35369204589E+02 -0.10876236960E+03 -0.12881676473E+03  0.21329344244E+03  0.12577797915E+03 0.  0.
         35    2    3    3    0    0 -0.35369204589E+02  0.10876236960E+03 -0.14392160971E+03  0.82274176078E+03  0.80194160729E+03 0.  0.
         22    1    5    5    0    0  0.30588994999E+03  0.26997153830E+03  0.26041315667E+02  0.40881712674E+03  0.00000000000E+00 0. -1.
         22    1    5    5    0    0 -0.34125915458E+03 -0.16120916870E+03 -0.16996292538E+03  0.41392463403E+03  0.00000000000E+00 0. -1.
          5    1    4    4  502    0 -0.20354825165E+02 -0.62796054152E+02 -0.12423148100E+03  0.14075941956E+03  0.47000000000E+01 0. -1.
         -5    1    4    4    0  502  0.55724029754E+02 -0.45966315445E+02 -0.45852837313E+01  0.72534022876E+02  0.47000000000E+01 0. -1.
<mgrwt>
<rscale>  0 0.99949123E+03</rscale>
<asrwt>0</asrwt>
<pdfrwt beam="1">  1        1 0.58715141E-01 0.99949123E+03</pdfrwt>
<pdfrwt beam="2">  1       -1 0.10067489E+00 0.99949123E+03</pdfrwt>
<totfact> 0.71839661E+01</totfact>
</mgrwt>
</event>
<event>
 9    1  0.4488205E-036  0.9999826E+03  0.7818608E-02  0.8681054E-01
          1   -1    0    0  501    0  0.00000000000E+00  0.00000000000E+00  0.16092997200E+04  0.16092997200E+04  0.00000000000E+00 0.  1.
         -1   -1    0    0    0  501 -0.00000000000E+00 -0.00000000000E+00 -0.15534167938E+03  0.15534167938E+03  0.00000000000E+00 0.  1.
         36    2    1    2    0    0  0.00000000000E+00 -0.17763568394E-14  0.14539580407E+04  0.17646413994E+04  0.99998264213E+03 0.  0.
         25    2    3    3    0    0 -0.13556420348E+03 -0.27514747346E+01  0.36803676199E+03  0.40944898715E+03  0.11752527822E+03 0.  0.
         35    2    3    3    0    0  0.13556420348E+03  0.27514747346E+01  0.10859212787E+04  0.13551924123E+04  0.79933486534E+03 0.  0.
         22    1    5    5    0    0  0.35795589553E+03  0.20330778191E+03  0.93116022189E+03  0.10180991288E+04  0.00000000000E+00 0.  1.
         22    1    5    5    0    0 -0.22239169205E+03 -0.20055630717E+03  0.15476105678E+03  0.33709328343E+03  0.00000000000E+00 0.  1.
          5    1    4    4  502    0 -0.14836477065E+03  0.13963185642E+02  0.35288291446E+03  0.38308682702E+03  0.47000000000E+01 0.  1.
         -5    1    4    4    0  502  0.12800567168E+02 -0.16714660377E+02  0.15153847532E+02  0.26362160123E+02  0.47000000000E+01 0.  1.
<mgrwt>
<rscale>  0 0.99998264E+03</rscale>
<asrwt>0</asrwt>
<pdfrwt beam="1">  1        1 0.24758456E+00 0.99998264E+03</pdfrwt>
<pdfrwt beam="2">  1       -1 0.23898721E-01 0.99998264E+03</pdfrwt>
<totfact> 0.89151082E+01</totfact>
</mgrwt>
</event>
<event>
 9    1  0.4488205E-036  0.9936565E+03  0.7818608E-02  0.8687102E-01
          2   -1    0    0  501    0  0.00000000000E+00  0.00000000000E+00  0.58152347997E+03  0.58152347997E+03  0.00000000000E+00 0. -1.
         -2   -1    0    0    0  501 -0.00000000000E+00 -0.00000000000E+00 -0.42446832684E+03  0.42446832684E+03  0.00000000000E+00 0. -1.
         36    2    1    2    0    0 -0.14210854715E-13  0.42632564146E-13  0.15705515313E+03  0.10059918068E+04  0.99365647698E+03 0.  0.
         25    2    3    3    0    0  0.70655217550E+02 -0.73366248415E+02 -0.56763103735E+02  0.17160837375E+03  0.12590717939E+03 0.  0.
         35    2    3    3    0    0 -0.70655217550E+02  0.73366248415E+02  0.21381825686E+03  0.83438343306E+03  0.80006418507E+03 0.  0.
         22    1    5    5    0    0  0.10805717409E+03 -0.20927488583E+03 -0.19531637123E+03  0.30597518786E+03  0.00000000000E+00 0.  1.
         22    1    5    5    0    0 -0.17871239164E+03  0.28264113425E+03  0.40913462809E+03  0.52840824520E+03  0.00000000000E+00 0.  1.
          5    1    4    4  502    0  0.56618452599E+02 -0.10711559072E+03 -0.58685877700E+02  0.13470531241E+03  0.47000000000E+01 0.  1.
         -5    1    4    4    0  502  0.14036764951E+02  0.33749342306E+02  0.19227739658E+01  0.36903061337E+02  0.47000000000E+01 0.  1.
<mgrwt>
<rscale>  0 0.99365648E+03</rscale>
<asrwt>0</asrwt>
<pdfrwt beam="1">  1        2 0.89465151E-01 0.99365648E+03</pdfrwt>
<pdfrwt beam="2">  1       -2 0.65302819E-01 0.99365648E+03</pdfrwt>
<totfact> 0.13466895E+02</totfact>
</mgrwt>
</event>
<event>
 9    1  0.4488205E-036  0.1000026E+04  0.7818608E-02  0.8681013E-01
         -3   -1    0    0    0  501 -0.00000000000E+00  0.00000000000E+00  0.13905933588E+04  0.13905933588E+04  0.00000000000E+00 0.  1.
          3   -1    0    0  501    0  0.00000000000E+00 -0.00000000000E+00 -0.17978880927E+03  0.17978880927E+03  0.00000000000E+00 0.  1.
         36    2    1    2    0    0 -0.71054273576E-14 -0.71054273576E-14  0.12108045495E+04  0.15703821681E+04  0.10000262480E+04 0.  0.
         25    2    3    3    0    0  0.55054803350E+02 -0.68843925047E+01  0.43080370068E+03  0.45217854388E+03  0.12567887965E+03 0.  0.
         35    2    3    3    0    0 -0.55054803350E+02  0.68843925047E+01  0.78000084886E+03  0.11182036242E+04  0.79931195083E+03 0.  0.
         22    1    5    5    0    0 -0.28266440475E+03  0.12141047103E+03  0.10718336891E+02  0.30782227167E+03  0.00000000000E+00 0. -1.
         22    1    5    5    0    0  0.22760960140E+03 -0.11452607853E+03  0.76928251197E+03  0.81038135253E+03  0.00000000000E+00 0. -1.
          5    1    4    4  502    0  0.64682365114E+02  0.31381019540E+02  0.12887610102E+03  0.14764726939E+03  0.47000000000E+01 0.  1.
         -5    1    4    4    0  502 -0.96275617638E+01 -0.38265412044E+02  0.30192759966E+03  0.30453127449E+03  0.47000000000E+01 0.  1.
<mgrwt>
<rscale>  0 0.10000262E+04</rscale>
<asrwt>0</asrwt>
<pdfrwt beam="1">  1        3 0.27659818E-01 0.10000262E+04</pdfrwt>
<pdfrwt beam="2">  1       -3 0.21393743E+00 0.10000262E+04</pdfrwt>
<totfact> 0.39884117E+00</totfact>
</mgrwt>
</event>
<event>
 9    1  0.4488205E-036  0.1000461E+04  0.7818608E-02  0.8680599E-01
          1   -1    0    0  501    0  0.00000000000E+00  0.00000000000E+00  0.11753069859E+03  0.11753069859E+03  0.00000000000E+00 0.  1.
         -1   -1    0    0    0  501 -0.00000000000E+00 -0.00000000000E+00 -0.21290646599E+04  0.21290646599E+04  0.00000000000E+00 0.  1.
         36    2    1    2    0    0 -0.14210854715E-13  0.00000000000E+00 -0.20115339613E+04  0.22465953585E+04  0.10004608075E+04 0.  0.
         25    2    3    3    0    0 -0.14718148132E+02 -0.98740579786E+02 -0.15562003491E+03  0.22220458213E+03  0.12325159257E+03 0.  0.
         35    2    3    3    0    0  0.14718148132E+02  0.98740579786E+02 -0.18559139264E+04  0.20243907764E+04  0.80235602275E+03 0.  0.
         22    1    5    5    0    0  0.26917970641E+03  0.20740858946E+03 -0.33031399459E+03  0.47390228144E+03  0.00000000000E+00 0.  1.
         22    1    5    5    0    0 -0.25446155828E+03 -0.10866800968E+03 -0.15255999318E+04  0.15504884949E+04  0.00000000000E+00 0.  1.
          5    1    4    4  502    0 -0.64624655626E+02 -0.62107461071E+02 -0.59182844583E+02  0.10750991549E+03  0.47000000000E+01 0.  1.
         -5    1    4    4    0  502  0.49906507494E+02 -0.36633118714E+02 -0.96437190330E+02  0.11469466664E+03  0.47000000000E+01 0.  1.
<mgrwt>
<rscale>  0 0.10004608E+04</rscale>
<asrwt>0</asrwt>
<pdfrwt beam="1">  1        1 0.18081648E-01 0.10004608E+04</pdfrwt>
<pdfrwt beam="2">  1       -1 0.32754837E+00 0.10004608E+04</pdfrwt>
<totfact> 0.17093844E+00</totfact>
</mgrwt>
</event>
<event>
 9    1  0.4488205E-036  0.1000183E+04  0.7818608E-02  0.8680864E-01
          2   -1    0    0  501    0  0.00000000000E+00  0.00000000000E+00  0.92540066624E+03  0.92540066624E+03  0.00000000000E+00 0. -1.
         -2   -1    0    0    0  501 -0.00000000000E+00 -0.00000000000E+00 -0.27025202112E+03  0.27025202112E+03  0.00000000000E+00 0. -1.
         36    2    1    2    0    0 -0.42632564146E-13  0.00000000000E+00  0.65514864512E+03  0.11956526874E+04  0.10001827841E+04 0.  0.
         25    2    3    3    0    0  0.58359070974E+02  0.12170451645E+03  0.16689770326E+03  0.24805629849E+03  0.12433548721E+03 0.  0.
         35    2    3    3    0    0 -0.58359070974E+02 -0.12170451645E+03  0.48825094186E+03  0.94759638886E+03  0.80083216936E+03 0.  0.
         22    1    5    5    0    0 -0.31949356633E+03  0.16486792969E+02  0.55875079509E+03  0.64385588783E+03  0.00000000000E+00 0. -1.
         22    1    5    5    0    0  0.26113449536E+03 -0.13819130942E+03 -0.70499853236E+02  0.30374050104E+03  0.00000000000E+00 0. -1.
          5    1    4    4  502    0 -0.33449922756E+02  0.53265556053E+02  0.30986651699E+02  0.70273603704E+02  0.47000000000E+01 0.  1.
         -5    1    4    4    0  502  0.91808993730E+02  0.68438960397E+02  0.13591105156E+03  0.17778269479E+03  0.47000000000E+01 0.  1.
<mgrwt>
<rscale>  0 0.10001828E+04</rscale>
<asrwt>0</asrwt>
<pdfrwt beam="1">  1        2 0.14236933E+00 0.10001828E+04</pdfrwt>
<pdfrwt beam="2">  1       -2 0.41577234E-01 0.10001828E+04</pdfrwt>
<totfact> 0.18688710E+02</totfact>
</mgrwt>
</event>
<event>
 9    1  0.4488205E-036  0.1000361E+04  0.7818608E-02  0.8680695E-01
          2   -1    0    0  501    0  0.00000000000E+00  0.00000000000E+00  0.64350797034E+03  0.64350797034E+03  0.00000000000E+00 0.  1.
         -2   -1    0    0    0  501 -0.00000000000E+00 -0.00000000000E+00 -0.38877591334E+03  0.38877591334E+03  0.00000000000E+00 0.  1.
         36    2    1    2    0    0  0.00000000000E+00 -0.14210854715E-13  0.25473205700E+03  0.10322838837E+04  0.10003607328E+04 0.  0.
         25    2    3    3    0    0 -0.13836769155E+03  0.26029939319E+01  0.12132490460E+02  0.18624660091E+03  0.12404920549E+03 0.  0.
         35    2    3    3    0    0  0.13836769155E+03 -0.26029939319E+01  0.24259956653E+03  0.84603728277E+03  0.79860637395E+03 0.  0.
         22    1    5    5    0    0  0.13328996233E+03  0.22480000620E+03 -0.21277938248E+03  0.33701086400E+03  0.00000000000E+00 0. -1.
         22    1    5    5    0    0  0.50777292265E+01 -0.22740300013E+03  0.45537894902E+03  0.50902641877E+03  0.00000000000E+00 0. -1.
          5    1    4    4  502    0 -0.19257319050E+02  0.26688260589E+02  0.48960599225E+02  0.59180553112E+02  0.47000000000E+01 0.  1.
         -5    1    4    4    0  502 -0.11911037250E+03 -0.24085266657E+02 -0.36828108764E+02  0.12706604780E+03  0.47000000000E+01 0.  1.
<mgrwt>
<rscale>  0 0.10003607E+04</rscale>
<asrwt>0</asrwt>
<pdfrwt beam="1">  1        2 0.99001226E-01 0.10003607E+04</pdfrwt>
<pdfrwt beam="2">  1       -2 0.59811679E-01 0.10003607E+04</pdfrwt>
<totfact> 0.14361333E+02</totfact>
</mgrwt>
</event>
<event>
 9    1  0.4488205E-036  0.9993621E+03  0.7818608E-02  0.8681646E-01
          1   -1    0    0  501    0  0.00000000000E+00  0.00000000000E+00  0.29049743613E+03  0.29049743613E+03  0.00000000000E+00 0.  1.
         -1   -1    0    0    0  501 -0.00000000000E+00 -0.00000000000E+00 -0.85949524031E+03  0.85949524031E+03  0.00000000000E+00 0.  1.
         36    2    1    2    0    0  0.00000000000E+00  0.28421709430E-13 -0.56899780418E+03  0.11499926764E+04  0.99936212391E+03 0.  0.
         25    2    3    3    0    0 -0.55337853491E+02 -0.12742414301E+03 -0.58139960156E+02  0.19486794827E+03  0.12366920410E+03 0.  0.
         35    2    3    3    0    0  0.55337853491E+02  0.12742414301E+03 -0.51085784402E+03  0.95512472818E+03  0.79497693006E+03 0.  0.
         22    1    5    5    0    0 -0.12100069731E+03 -0.29974723901E+03 -0.10444164671E+03  0.33970227201E+03  0.00000000000E+00 0.  1.
         22    1    5    5    0    0  0.17633855080E+03  0.42717138202E+03 -0.40641619731E+03  0.61542245617E+03  0.00000000000E+00 0.  1.
          5    1    4    4  502    0 -0.29180940237E+02  0.59211158539E+01  0.21745502256E+02  0.37169123671E+02  0.47000000000E+01 0.  1.
         -5    1    4    4    0  502 -0.26156913254E+02 -0.13334525887E+03 -0.79885462412E+02  0.15769882459E+03  0.47000000000E+01 0.  1.
<mgrwt>
<rscale>  0 0.99936212E+03</rscale>
<asrwt>0</asrwt>
<pdfrwt beam="1">  1        1 0.44691914E-01 0.99936212E+03</pdfrwt>
<pdfrwt beam="2">  1       -1 0.13223004E+00 0.99936212E+03</pdfrwt>
<totfact> 0.53115983E+01</totfact>
</mgrwt>
</event>
<event>
 9    1  0.4488205E-036  0.9998359E+03  0.7818608E-02  0.8681194E-01
          2   -1    0    0  501    0  0.00000000000E+00  0.00000000000E+00  0.36166992533E+04  0.36166992533E+04  0.00000000000E+00 0. -1.
         -2   -1    0    0    0  501 -0.00000000000E+00 -0.00000000000E+00 -0.69101114594E+02  0.69101114594E+02  0.00000000000E+00 0. -1.
         36    2    1    2    0    0  0.14210854715E-13  0.28421709430E-13  0.35475981387E+04  0.36858003678E+04  0.99983588563E+03 0.  0.
         25    2    3    3    0    0 -0.54482723154E+00  0.89346329344E+02  0.10635289967E+04  0.10745726523E+04  0.12501757829E+03 0.  0.
         35    2    3    3    0    0  0.54482723154E+00 -0.89346329344E+02  0.24840691419E+04  0.26112277155E+04  0.79995475929E+03 0.  0.
         22    1    5    5    0    0  0.32506261756E+03  0.70465144606E+02  0.54325283624E+03  0.63698876444E+03  0.00000000000E+00 0. -1.
         22    1    5    5    0    0 -0.32451779033E+03 -0.15981147395E+03  0.19408163057E+04  0.19742389511E+04  0.00000000000E+00 0. -1.
          5    1    4    4  502    0 -0.47137271849E+02  0.11163912222E+01  0.50175454787E+03  0.50398698895E+03  0.47000000000E+01 0.  1.
         -5    1    4    4    0  502  0.46592444618E+02  0.88229938121E+02  0.56177444886E+03  0.57058566339E+03  0.47000000000E+01 0.  1.
<mgrwt>
<rscale>  0 0.99983589E+03</rscale>
<asrwt>0</asrwt>
<pdfrwt beam="1">  1        2 0.55641512E+00 0.99983589E+03</pdfrwt>
<pdfrwt beam="2">  1       -2 0.10630943E-01 0.99983589E+03</pdfrwt>
<totfact> 0.42495609E+01</totfact>
</mgrwt>
</event>
<event>
 9    1  0.4488205E-036  0.1000480E+04  0.7818608E-02  0.8680581E-01
          2   -1    0    0  501    0  0.00000000000E+00  0.00000000000E+00  0.11966272075E+04  0.11966272075E+04  0.00000000000E+00 0.  1.
         -2   -1    0    0    0  501 -0.00000000000E+00 -0.00000000000E+00 -0.20912107127E+03  0.20912107127E+03  0.00000000000E+00 0.  1.
         36    2    1    2    0    0  0.00000000000E+00 -0.14210854715E-13  0.98750613628E+03  0.14057482788E+04  0.10004798120E+04 0.  0.
         25    2    3    3    0    0 -0.92199976400E+02  0.88181429241E+02  0.10050980985E+03  0.20411517421E+03  0.12362840432E+03 0.  0.
         35    2    3    3    0    0  0.92199976400E+02 -0.88181429241E+02  0.88699632643E+03  0.12016331046E+04  0.80055158165E+03 0.  0.
         22    1    5    5    0    0 -0.19420942579E+03  0.11757232668E+03  0.80927546072E+03  0.84051610597E+03  0.00000000000E+00 0. -1.
         22    1    5    5    0    0  0.28640940219E+03 -0.20575375592E+03  0.77720865701E+02  0.36111699864E+03  0.00000000000E+00 0. -1.
          5    1    4    4  502    0 -0.99446704283E+02  0.11166740753E+03  0.71525118097E+02  0.16582276507E+03  0.47000000000E+01 0.  1.
         -5    1    4    4    0  502  0.72467278827E+01 -0.23485978289E+02  0.28984691757E+02  0.38292409136E+02  0.47000000000E+01 0.  1.
<mgrwt>
<rscale>  0 0.10004798E+04</rscale>
<asrwt>0</asrwt>
<pdfrwt beam="1">  1        2 0.18409649E+00 0.10004798E+04</pdfrwt>
<pdfrwt beam="2">  1       -2 0.32172473E-01 0.10004798E+04</pdfrwt>
<totfact> 0.20609281E+02</totfact>
</mgrwt>
</event>
<event>
 9    1  0.4488205E-036  0.1000360E+04  0.7818608E-02  0.8680695E-01
          1   -1    0    0  501    0  0.00000000000E+00  0.00000000000E+00  0.34414161126E+03  0.34414161126E+03  0.00000000000E+00 0.  1.
         -1   -1    0    0    0  501 -0.00000000000E+00 -0.00000000000E+00 -0.72696799310E+03  0.72696799310E+03  0.00000000000E+00 0.  1.
         36    2    1    2    0    0  0.00000000000E+00 -0.14210854715E-13 -0.38282638184E+03  0.10711096044E+04  0.10003598082E+04 0.  0.
         25    2    3    3    0    0  0.39737434237E+02 -0.41321726878E+02  0.65225456327E+02  0.15236154028E+03  0.12519237202E+03 0.  0.
         35    2    3    3    0    0 -0.39737434237E+02  0.41321726878E+02 -0.44805183817E+03  0.91874806408E+03  0.80003812832E+03 0.  0.
         22    1    5    5    0    0  0.34428713570E+03  0.16926861670E+03 -0.13382363540E+03  0.40631793192E+03  0.00000000000E+00 0.  1.
         22    1    5    5    0    0 -0.38402456994E+03 -0.12794688982E+03 -0.31422820277E+03  0.51243013216E+03  0.00000000000E+00 0.  1.
          5    1    4    4  502    0  0.37604092969E+02  0.40611300841E+02  0.24272750688E+02  0.60618495445E+02  0.47000000000E+01 0. -1.
         -5    1    4    4    0  502  0.21333412686E+01 -0.81933027719E+02  0.40952705639E+02  0.91743044833E+02  0.47000000000E+01 0. -1.
<mgrwt>
<rscale>  0 0.10003598E+04</rscale>
<asrwt>0</asrwt>
<pdfrwt beam="1">  1        1 0.52944865E-01 0.10003598E+04</pdfrwt>
<pdfrwt beam="2">  1       -1 0.11184123E+00 0.10003598E+04</pdfrwt>
<totfact> 0.64628690E+01</totfact>
</mgrwt>
</event>
<event>
 9    1  0.4488205E-036  0.9999904E+03  0.7818608E-02  0.8681047E-01
          2   -1    0    0  501    0  0.00000000000E+00  0.00000000000E+00  0.32694283037E+04  0.32694283037E+04  0.00000000000E+00 0.  1.
         -2   -1    0    0    0  501 -0.00000000000E+00 -0.00000000000E+00 -0.76464506189E+02  0.76464506189E+02  0.00000000000E+00 0.  1.
         36    2    1    2    0    0 -0.14210854715E-13 -0.28421709430E-13  0.31929637975E+04  0.33458928099E+04  0.99999044148E+03 0.  0.
         25    2    3    3    0    0  0.10265544690E+03 -0.95601824483E+02  0.57031913009E+03  0.60044528347E+03  0.12487104816E+03 0.  0.
         35    2    3    3    0    0 -0.10265544690E+03  0.95601824483E+02  0.26226446674E+04  0.27454475264E+04  0.79971196012E+03 0.  0.
         22    1    5    5    0    0 -0.31842741126E+03  0.20265772836E+03  0.23563036151E+04  0.23863429966E+04  0.00000000000E+00 0.  1.
         22    1    5    5    0    0  0.21577196436E+03 -0.10705590387E+03  0.26634105233E+03  0.35910452979E+03  0.00000000000E+00 0.  1.
          5    1    4    4  502    0  0.28974217995E+02 -0.27636241978E+02  0.40536216073E+03  0.40736204846E+03  0.47000000000E+01 0. -1.
         -5    1    4    4    0  502  0.73681228904E+02 -0.67965582505E+02  0.16495696937E+03  0.19308323501E+03  0.47000000000E+01 0. -1.
<mgrwt>
<rscale>  0 0.99999044E+03</rscale>
<asrwt>0</asrwt>
<pdfrwt beam="1">  1        2 0.50298886E+00 0.99999044E+03</pdfrwt>
<pdfrwt beam="2">  1       -2 0.11763773E-01 0.99999044E+03</pdfrwt>
<totfact> 0.65328931E+01</totfact>
</mgrwt>
</event>
<event>
 9    1  0.4488205E-036  0.1002980E+04  0.7818608E-02  0.8678205E-01
         -2   -1    0    0    0  501 -0.00000000000E+00  0.00000000000E+00  0.81953844988E+02  0.81953844988E+02  0.00000000000E+00 0. -1.
          2   -1    0    0  501    0  0.00000000000E+00 -0.00000000000E+00 -0.30687076344E+04  0.30687076344E+04  0.00000000000E+00 0. -1.
         36    2    1    2    0    0 -0.56843418861E-13  0.21316282073E-13 -0.29867537894E+04  0.31506614794E+04  0.10029803384E+04 0.  0.
         25    2    3    3    0    0 -0.14175564866E+03 -0.22116661441E+02 -0.56007539555E+03  0.59125619823E+03  0.12375634368E+03 0.  0.
         35    2    3    3    0    0  0.14175564866E+03  0.22116661441E+02 -0.24266783939E+04  0.25594052812E+04  0.80075186879E+03 0.  0.
         22    1    5    5    0    0  0.27704951637E+03 -0.29050681226E+03 -0.18189309687E+04  0.18627024752E+04  0.00000000000E+00 0.  1.
         22    1    5    5    0    0 -0.13529386771E+03  0.31262347370E+03 -0.60774742521E+03  0.69670280593E+03  0.00000000000E+00 0.  1.
          5    1    4    4  502    0 -0.54285803148E+02 -0.70657828767E+02 -0.27337178755E+03  0.28756512552E+03  0.47000000000E+01 0. -1.
         -5    1    4    4    0  502 -0.87469845509E+02  0.48541167326E+02 -0.28670360800E+03  0.30369107270E+03  0.47000000000E+01 0. -1.
<mgrwt>
<rscale>  0 0.10029803E+04</rscale>
<asrwt>0</asrwt>
<pdfrwt beam="1">  1        2 0.47210877E+00 0.10029803E+04</pdfrwt>
<pdfrwt beam="2">  1       -2 0.12608286E-01 0.10029803E+04</pdfrwt>
<totfact> 0.80315375E+01</totfact>
</mgrwt>
</event>
<event>
 9    1  0.4488205E-036  0.1000073E+04  0.7818608E-02  0.8680968E-01
          2   -1    0    0  501    0  0.00000000000E+00  0.00000000000E+00  0.31148894322E+04  0.31148894322E+04  0.00000000000E+00 0.  1.
         -2   -1    0    0    0  501 -0.00000000000E+00 -0.00000000000E+00 -0.80271461231E+02  0.80271461231E+02  0.00000000000E+00 0.  1.
         36    2    1    2    0    0  0.71054273576E-14  0.00000000000E+00  0.30346179710E+04  0.31951608935E+04  0.10000734499E+04 0.  0.
         25    2    3    3    0    0 -0.56436722141E+00 -0.14200511293E+03  0.54579346524E+03  0.57714014469E+03  0.12261512671E+03 0.  0.
         35    2    3    3    0    0  0.56436722141E+00  0.14200511293E+03  0.24888245057E+04  0.26180207488E+04  0.79976212086E+03 0.  0.
         22    1    5    5    0    0 -0.15514965702E+03 -0.30241211718E+03  0.11218877767E+04  0.11722442954E+04  0.00000000000E+00 0. -1.
         22    1    5    5    0    0  0.15571402424E+03  0.44441723011E+03  0.13669367291E+04  0.14457764533E+04  0.00000000000E+00 0. -1.
          5    1    4    4  502    0  0.28101840153E+02  0.10868927644E+02  0.65126596903E+02  0.71912520692E+02  0.47000000000E+01 0. -1.
         -5    1    4    4    0  502 -0.28666207375E+02 -0.15287404057E+03  0.48066686834E+03  0.50522762400E+03  0.47000000000E+01 0. -1.
<mgrwt>
<rscale>  0 0.10000734E+04</rscale>
<asrwt>0</asrwt>
<pdfrwt beam="1">  1        2 0.47921367E+00 0.10000734E+04</pdfrwt>
<pdfrwt beam="2">  1       -2 0.12349458E-01 0.10000734E+04</pdfrwt>
<totfact> 0.77311173E+01</totfact>
</mgrwt>
</event>
<event>
 9    1  0.4488205E-036  0.9995582E+03  0.7818608E-02  0.8681459E-01
         -2   -1    0    0    0  501 -0.00000000000E+00  0.00000000000E+00  0.12277332931E+03  0.12277332931E+03  0.00000000000E+00 0. -1.
          2   -1    0    0  501    0  0.00000000000E+00 -0.00000000000E+00 -0.20344741634E+04  0.20344741634E+04  0.00000000000E+00 0. -1.
         36    2    1    2    0    0  0.00000000000E+00  0.00000000000E+00 -0.19117008341E+04  0.21572474927E+04  0.99955823530E+03 0.  0.
         25    2    3    3    0    0 -0.19390749127E+02  0.10100205138E+03 -0.55878417339E+03  0.58160066573E+03  0.12426651364E+03 0.  0.
         35    2    3    3    0    0  0.19390749127E+02 -0.10100205138E+03 -0.13529166607E+04  0.15756468269E+04  0.80106305435E+03 0.  0.
         22    1    5    5    0    0  0.23146940402E+02 -0.20550433237E+03 -0.14305428888E+04  0.14454137014E+04  0.00000000000E+00 0.  1.
         22    1    5    5    0    0 -0.37561912753E+01  0.10450228099E+03  0.77626228119E+02  0.13023312558E+03  0.00000000000E+00 0.  1.
          5    1    4    4  502    0 -0.39026395045E+02 -0.14855919823E+02 -0.11286366441E+03  0.12043278045E+03  0.47000000000E+01 0.  1.
         -5    1    4    4    0  502  0.19635645918E+02  0.11585797120E+03 -0.44592050898E+03  0.46116788528E+03  0.47000000000E+01 0.  1.
<mgrwt>
<rscale>  0 0.99955824E+03</rscale>
<asrwt>0</asrwt>
<pdfrwt beam="1">  1        2 0.31299603E+00 0.99955824E+03</pdfrwt>
<pdfrwt beam="2">  1       -2 0.18888204E-01 0.99955824E+03</pdfrwt>
<totfact> 0.17681770E+02</totfact>
</mgrwt>
</event>
<event>
 9    1  0.4488205E-036  0.1000820E+04  0.7818608E-02  0.8680257E-01
          2   -1    0    0  501    0  0.00000000000E+00  0.00000000000E+00  0.10776448821E+04  0.10776448821E+04  0.00000000000E+00 0. -1.
         -2   -1    0    0    0  501 -0.00000000000E+00 -0.00000000000E+00 -0.23236820813E+03  0.23236820813E+03  0.00000000000E+00 0. -1.
         36    2    1    2    0    0 -0.28421709430E-13  0.00000000000E+00  0.84527667392E+03  0.13100130902E+04  0.10008204839E+04 0.  0.
         25    2    3    3    0    0 -0.41913743023E+02 -0.11688461612E+03  0.66895103887E+02  0.18762714596E+03  0.12373445614E+03 0.  0.
         35    2    3    3    0    0  0.41913743023E+02  0.11688461612E+03  0.77838157004E+03  0.11223859442E+04  0.79903289286E+03 0.  0.
         22    1    5    5    0    0 -0.31243771253E+03  0.26778462888E+03  0.49790613209E+03  0.64593842435E+03  0.00000000000E+00 0. -1.
         22    1    5    5    0    0  0.35435145556E+03 -0.15090001275E+03  0.28047543794E+03  0.47644751987E+03  0.00000000000E+00 0. -1.
          5    1    4    4  502    0 -0.75787020922E+02 -0.30925791127E+02  0.40364956529E+02  0.91386524240E+02  0.47000000000E+01 0. -1.
         -5    1    4    4    0  502  0.33873277899E+02 -0.85958824994E+02  0.26530147358E+02  0.96240621719E+02  0.47000000000E+01 0. -1.
<mgrwt>
<rscale>  0 0.10008205E+04</rscale>
<asrwt>0</asrwt>
<pdfrwt beam="1">  1        2 0.16579152E+00 0.10008205E+04</pdfrwt>
<pdfrwt beam="2">  1       -2 0.35748956E-01 0.10008205E+04</pdfrwt>
<totfact> 0.19975991E+02</totfact>
</mgrwt>
</event>
<event>
 9    1  0.4488205E-036  0.1000067E+04  0.7818608E-02  0.8680974E-01
         -2   -1    0    0    0  501 -0.00000000000E+00  0.00000000000E+00  0.24571481976E+03  0.24571481976E+03  0.00000000000E+00 0. -1.
          2   -1    0    0  501    0  0.00000000000E+00 -0.00000000000E+00 -0.10175760780E+04  0.10175760780E+04  0.00000000000E+00 0. -1.
         36    2    1    2    0    0 -0.28421709430E-13  0.14210854715E-13 -0.77186125822E+03  0.12632908977E+04  0.10000670429E+04 0.  0.
         25    2    3    3    0    0 -0.97039423384E+02 -0.93814176727E+02 -0.16986291700E+03  0.25311930917E+03  0.13037723980E+03 0.  0.
         35    2    3    3    0    0  0.97039423384E+02  0.93814176727E+02 -0.60199834122E+03  0.10101715886E+04  0.79989179648E+03 0.  0.
         22    1    5    5    0    0 -0.26622532151E+03  0.28286099897E+03 -0.38418349848E+03  0.54633618501E+03  0.00000000000E+00 0. -1.
         22    1    5    5    0    0  0.36326474489E+03 -0.18904682224E+03 -0.21781484274E+03  0.46383540356E+03  0.00000000000E+00 0. -1.
          5    1    4    4  502    0  0.27370080851E+02 -0.26574081869E+02 -0.10172317913E+02  0.39760145934E+02  0.47000000000E+01 0. -1.
         -5    1    4    4    0  502 -0.12440950424E+03 -0.67240094858E+02 -0.15969059909E+03  0.21335916324E+03  0.47000000000E+01 0. -1.
<mgrwt>
<rscale>  0 0.10000670E+04</rscale>
<asrwt>0</asrwt>
<pdfrwt beam="1">  1        2 0.15655017E+00 0.10000670E+04</pdfrwt>
<pdfrwt beam="2">  1       -2 0.37802280E-01 0.10000670E+04</pdfrwt>
<totfact> 0.19584962E+02</totfact>
</mgrwt>
</event>
<event>
 9    1  0.4488205E-036  0.1000058E+04  0.7818608E-02  0.8680983E-01
         -2   -1    0    0    0  501 -0.00000000000E+00  0.00000000000E+00  0.40098136322E+03  0.40098136322E+03  0.00000000000E+00 0.  1.
          2   -1    0    0  501    0  0.00000000000E+00 -0.00000000000E+00 -0.62354278947E+03  0.62354278947E+03  0.00000000000E+00 0.  1.
         36    2    1    2    0    0  0.00000000000E+00  0.00000000000E+00 -0.22256142625E+03  0.10245241527E+04  0.10000580738E+04 0.  0.
         25    2    3    3    0    0 -0.70205872913E+02 -0.40374445426E+01 -0.15756076506E+03  0.21906089121E+03  0.13497078876E+03 0.  0.
         35    2    3    3    0    0  0.70205872913E+02  0.40374445426E+01 -0.65000661185E+02  0.80546326148E+03  0.79975046989E+03 0.  0.
         22    1    5    5    0    0  0.39341439330E+02  0.26687390542E+03 -0.33317953531E+03  0.42869340208E+03  0.00000000000E+00 0. -1.
         22    1    5    5    0    0  0.30864433584E+02 -0.26283646087E+03  0.26817887412E+03  0.37676985940E+03  0.00000000000E+00 0. -1.
          5    1    4    4  502    0 -0.29168701330E+02 -0.59784966671E+02 -0.12658764724E+03  0.14307892162E+03  0.47000000000E+01 0.  1.
         -5    1    4    4    0  502 -0.41037171583E+02  0.55747522128E+02 -0.30973117817E+02  0.75981969587E+02  0.47000000000E+01 0.  1.
<mgrwt>
<rscale>  0 0.10000581E+04</rscale>
<asrwt>0</asrwt>
<pdfrwt beam="1">  1        2 0.95929659E-01 0.10000581E+04</pdfrwt>
<pdfrwt beam="2">  1       -2 0.61689441E-01 0.10000581E+04</pdfrwt>
<totfact> 0.13980917E+02</totfact>
</mgrwt>
</event>
<event>
 9    1  0.4488205E-036  0.1000131E+04  0.7818608E-02  0.8680913E-01
         -2   -1    0    0    0  501 -0.00000000000E+00  0.00000000000E+00  0.18421652363E+03  0.18421652363E+03  0.00000000000E+00 0.  1.
          2   -1    0    0  501    0  0.00000000000E+00 -0.00000000000E+00 -0.13574540266E+04  0.13574540266E+04  0.00000000000E+00 0.  1.
         36    2    1    2    0    0  0.42632564146E-13  0.00000000000E+00 -0.11732375029E+04  0.15416705502E+04  0.10001309149E+04 0.  0.
         25    2    3    3    0    0 -0.11506130088E+03  0.15340918812E+02 -0.34083005347E+03  0.38152590331E+03  0.12618416222E+03 0.  0.
         35    2    3    3    0    0  0.11506130088E+03 -0.15340918812E+02 -0.83240744947E+03  0.11601446469E+04  0.79972432314E+03 0.  0.
         22    1    5    5    0    0  0.45696816356E+03 -0.39306086789E+02 -0.54919694165E+03  0.71552928080E+03  0.00000000000E+00 0. -1.
         22    1    5    5    0    0 -0.34190686268E+03  0.23965167978E+02 -0.28321050782E+03  0.44461536609E+03  0.00000000000E+00 0. -1.
          5    1    4    4  502    0 -0.14198554422E+03  0.55873987132E+01 -0.27478249954E+03  0.30938426890E+03  0.47000000000E+01 0. -1.
         -5    1    4    4    0  502  0.26924243343E+02  0.97535200986E+01 -0.66047553934E+02  0.72141634405E+02  0.47000000000E+01 0. -1.
<mgrwt>
<rscale>  0 0.10001309E+04</rscale>
<asrwt>0</asrwt>
<pdfrwt beam="1">  1        2 0.20883908E+00 0.10001309E+04</pdfrwt>
<pdfrwt beam="2">  1       -2 0.28341004E-01 0.10001309E+04</pdfrwt>
<totfact> 0.20933834E+02</totfact>
</mgrwt>
</event>
<event>
 9    1  0.4488205E-036  0.1000998E+04  0.7818608E-02  0.8680088E-01
         -2   -1    0    0    0  501 -0.00000000000E+00  0.00000000000E+00  0.32286473664E+03  0.32286473664E+03  0.00000000000E+00 0. -1.
          2   -1    0    0  501    0  0.00000000000E+00 -0.00000000000E+00 -0.77586421251E+03  0.77586421251E+03  0.00000000000E+00 0. -1.
         36    2    1    2    0    0  0.88817841970E-14 -0.71054273576E-14 -0.45299947587E+03  0.10987289491E+04  0.10009978914E+04 0.  0.
         25    2    3    3    0    0  0.69174134714E+01  0.51381591024E+02  0.58698560473E+02  0.14806850923E+03  0.12566162469E+03 0.  0.
         35    2    3    3    0    0 -0.69174134714E+01 -0.51381591024E+02 -0.51169803634E+03  0.95066043991E+03  0.79952015179E+03 0.  0.
         22    1    5    5    0    0  0.14407053883E+03 -0.32143167900E+03 -0.53482879814E+03  0.64040337892E+03  0.00000000000E+00 0. -1.
         22    1    5    5    0    0 -0.15098795230E+03  0.27005008797E+03  0.23130761794E+02  0.31025706099E+03  0.00000000000E+00 0. -1.
          5    1    4    4  502    0  0.14362498191E+02 -0.65959950546E+01 -0.34338467521E+02  0.38092110164E+02  0.47000000000E+01 0. -1.
         -5    1    4    4    0  502 -0.74450847194E+01  0.57977586078E+02  0.93037027994E+02  0.10997639907E+03  0.47000000000E+01 0. -1.
<mgrwt>
<rscale>  0 0.10009979E+04</rscale>
<asrwt>0</asrwt>
<pdfrwt beam="1">  1        2 0.11936372E+00 0.10009979E+04</pdfrwt>
<pdfrwt beam="2">  1       -2 0.49671499E-01 0.10009979E+04</pdfrwt>
<totfact> 0.16654841E+02</totfact>
</mgrwt>
</event>
<event>
 9    1  0.4488205E-036  0.9980717E+03  0.7818608E-02  0.8682876E-01
          1   -1    0    0  501    0  0.00000000000E+00  0.00000000000E+00  0.68680777690E+03  0.68680777690E+03  0.00000000000E+00 0.  1.
         -1   -1    0    0    0  501 -0.00000000000E+00 -0.00000000000E+00 -0.36260037231E+03  0.36260037231E+03  0.00000000000E+00 0.  1.
         36    2    1    2    0    0 -0.71054273576E-14 -0.28421709430E-13  0.32420740459E+03  0.10494081492E+04  0.99807165195E+03 0.  0.
         25    2    3    3    0    0  0.30250897249E+02  0.77101969135E+02 -0.57560416788E+02  0.15948198305E+03  0.12353732597E+03 0.  0.
         35    2    3    3    0    0 -0.30250897249E+02 -0.77101969135E+02  0.38176782138E+03  0.88992616616E+03  0.79960120144E+03 0.  0.
         22    1    5    5    0    0 -0.14946282476E+03 -0.35587990511E+03 -0.20096128503E+02  0.38651454982E+03  0.00000000000E+00 0. -1.
         22    1    5    5    0    0  0.11921192751E+03  0.27877793597E+03  0.40186394988E+03  0.50341161633E+03  0.00000000000E+00 0. -1.
          5    1    4    4  502    0 -0.47575581694E+02  0.36463926187E+02 -0.30924612160E+02  0.67612687595E+02  0.47000000000E+01 0.  1.
         -5    1    4    4    0  502  0.77826478943E+02  0.40638042948E+02 -0.26635804628E+02  0.91869295456E+02  0.47000000000E+01 0.  1.
<mgrwt>
<rscale>  0 0.99807165E+03</rscale>
<asrwt>0</asrwt>
<pdfrwt beam="1">  1        1 0.10566273E+00 0.99807165E+03</pdfrwt>
<pdfrwt beam="2">  1       -1 0.55784673E-01 0.99807165E+03</pdfrwt>
<totfact> 0.10497458E+02</totfact>
</mgrwt>
</event>
<event>
 9    1  0.4488205E-036  0.1002594E+04  0.7818608E-02  0.8678571E-01
         -1   -1    0    0    0  501 -0.00000000000E+00  0.00000000000E+00  0.60027370051E+02  0.60027370051E+02  0.00000000000E+00 0.  1.
          1   -1    0    0  501    0  0.00000000000E+00 -0.00000000000E+00 -0.41864037596E+04  0.41864037596E+04  0.00000000000E+00 0.  1.
         36    2    1    2    0    0  0.28421709430E-13 -0.71054273576E-14 -0.41263763896E+04  0.42464311297E+04  0.10025942503E+04 0.  0.
         25    2    3    3    0    0 -0.66316008750E+02  0.45484934579E+02 -0.27863998191E+03  0.31568008719E+03  0.12468755206E+03 0.  0.
         35    2    3    3    0    0  0.66316008750E+02 -0.45484934579E+02 -0.38477364077E+04  0.39307510425E+04  0.79953836860E+03 0.  0.
         22    1    5    5    0    0  0.35578118028E+03 -0.19888122677E+03 -0.13096820921E+04  0.13716417801E+04  0.00000000000E+00 0. -1.
         22    1    5    5    0    0 -0.28946517153E+03  0.15339629219E+03 -0.25380543156E+04  0.25591092624E+04  0.00000000000E+00 0. -1.
          5    1    4    4  502    0 -0.62807012119E+02  0.19211220152E+02 -0.43306871627E+02  0.78812225455E+02  0.47000000000E+01 0.  1.
         -5    1    4    4    0  502 -0.35089966312E+01  0.26273714427E+02 -0.23533311028E+03  0.23686786173E+03  0.47000000000E+01 0.  1.
<mgrwt>
<rscale>  0 0.10025943E+04</rscale>
<asrwt>0</asrwt>
<pdfrwt beam="1">  1        1 0.64406232E+00 0.10025943E+04</pdfrwt>
<pdfrwt beam="2">  1       -1 0.92349771E-02 0.10025943E+04</pdfrwt>
<totfact> 0.56607047E+00</totfact>
</mgrwt>
</event>
<event>
 9    1  0.4488205E-036  0.9999128E+03  0.7818608E-02  0.8681121E-01
          1   -1    0    0  501    0  0.00000000000E+00  0.00000000000E+00  0.16879191007E+04  0.16879191007E+04  0.00000000000E+00 0. -1.
         -1   -1    0    0    0  501 -0.00000000000E+00 -0.00000000000E+00 -0.14808554006E+03  0.14808554006E+03  0.00000000000E+00 0. -1.
         36    2    1    2    0    0  0.00000000000E+00  0.00000000000E+00  0.15398335607E+04  0.18360046408E+04  0.99991281942E+03 0.  0.
         25    2    3    3    0    0 -0.10337173365E+03 -0.76120925393E+02  0.18630636947E+03  0.25850849078E+03  0.12504585520E+03 0.  0.
         35    2    3    3    0    0  0.10337173365E+03  0.76120925393E+02  0.13535271912E+04  0.15774961500E+04  0.79998633448E+03 0.  0.
         22    1    5    5    0    0  0.36688716776E+02  0.29827825291E+03  0.13067690384E+04  0.13408807918E+04  0.00000000000E+00 0. -1.
         22    1    5    5    0    0  0.66683016870E+02 -0.22215732751E+03  0.46758152864E+02  0.23661535826E+03  0.00000000000E+00 0. -1.
          5    1    4    4  502    0 -0.34532461698E+01  0.17790818462E+02  0.87368506553E+02  0.89352023301E+02  0.47000000000E+01 0. -1.
         -5    1    4    4    0  502 -0.99918487477E+02 -0.93911743854E+02  0.98937862914E+02  0.16915646748E+03  0.47000000000E+01 0. -1.
<mgrwt>
<rscale>  0 0.99991282E+03</rscale>
<asrwt>0</asrwt>
<pdfrwt beam="1">  1        1 0.25967985E+00 0.99991282E+03</pdfrwt>
<pdfrwt beam="2">  1       -1 0.22782392E-01 0.99991282E+03</pdfrwt>
<totfact> 0.84976676E+01</totfact>
</mgrwt>
</event>
<event>
 9    1  0.4488205E-036  0.9999745E+03  0.7818608E-02  0.8681062E-01
          3   -1    0    0  501    0  0.00000000000E+00  0.00000000000E+00  0.23755066864E+03  0.23755066864E+03  0.00000000000E+00 0. -1.
         -3   -1    0    0    0  501 -0.00000000000E+00 -0.00000000000E+00 -0.10523533714E+04  0.10523533714E+04  0.00000000000E+00 0. -1.
         36    2    1    2    0    0  0.28421709430E-13 -0.14210854715E-13 -0.81480270278E+03  0.12899040401E+04  0.99997449372E+03 0.  0.
         25    2    3    3    0    0 -0.26339449677E+02  0.87694571267E+02 -0.18085114334E+02  0.15677085527E+03  0.12596001454E+03 0.  0.
         35    2    3    3    0    0  0.26339449677E+02 -0.87694571267E+02 -0.79671758844E+03  0.11331331848E+04  0.80052969606E+03 0.  0.
         22    1    5    5    0    0  0.15456626772E+03  0.57728213832E+02  0.11494262463E+03  0.20108477005E+03  0.00000000000E+00 0.  1.
         22    1    5    5    0    0 -0.12822681804E+03 -0.14542278510E+03 -0.91166021308E+03  0.93204841473E+03  0.00000000000E+00 0.  1.
          5    1    4    4  502    0  0.42874941888E+02  0.57405981872E+01 -0.23131165778E+02  0.49278351634E+02  0.47000000000E+01 0. -1.
         -5    1    4    4    0  502 -0.69214391566E+02  0.81953973080E+02  0.50460514439E+01  0.10749250364E+03  0.47000000000E+01 0. -1.
<mgrwt>
<rscale>  0 0.99997449E+03</rscale>
<asrwt>0</asrwt>
<pdfrwt beam="1">  1        3 0.36546258E-01 0.99997449E+03</pdfrwt>
<pdfrwt beam="2">  1       -3 0.16190051E+00 0.99997449E+03</pdfrwt>
<totfact> 0.60643764E+00</totfact>
</mgrwt>
</event>
<event>
 9    1  0.4488205E-036  0.1001521E+04  0.7818608E-02  0.8679591E-01
          2   -1    0    0  501    0  0.00000000000E+00  0.00000000000E+00  0.21225513952E+04  0.21225513952E+04  0.00000000000E+00 0. -1.
         -2   -1    0    0    0  501 -0.00000000000E+00 -0.00000000000E+00 -0.11814138718E+03  0.11814138718E+03  0.00000000000E+00 0. -1.
         36    2    1    2    0    0  0.00000000000E+00  0.71054273576E-14  0.20044100081E+04  0.22406927824E+04  0.10015211754E+04 0.  0.
         25    2    3    3    0    0  0.21551731262E+02  0.39083515379E+02  0.67268985896E+03  0.68642394056E+03  0.12912854651E+03 0.  0.
         35    2    3    3    0    0 -0.21551731262E+02 -0.39083515379E+02  0.13317201491E+04  0.15542688419E+04  0.80017565507E+03 0.  0.
         22    1    5    5    0    0 -0.54539319348E+02 -0.13222155769E+03 -0.62831938417E+02  0.15622077377E+03  0.00000000000E+00 0. -1.
         22    1    5    5    0    0  0.32987588086E+02  0.93138042313E+02  0.13945520875E+04  0.13980480681E+04  0.00000000000E+00 0. -1.
          5    1    4    4  502    0  0.46420582582E+02  0.51168008236E+02  0.17883756926E+03  0.19177591542E+03  0.47000000000E+01 0. -1.
         -5    1    4    4    0  502 -0.24868851320E+02 -0.12084492857E+02  0.49385228970E+03  0.49464802514E+03  0.47000000000E+01 0. -1.
<mgrwt>
<rscale>  0 0.10015212E+04</rscale>
<asrwt>0</asrwt>
<pdfrwt beam="1">  1        2 0.32654634E+00 0.10015212E+04</pdfrwt>
<pdfrwt beam="2">  1       -2 0.18175600E-01 0.10015212E+04</pdfrwt>
<totfact> 0.16813520E+02</totfact>
</mgrwt>
</event>
<event>
 9    1  0.4488205E-036  0.9988258E+03  0.7818608E-02  0.8682157E-01
         -1   -1    0    0    0  501 -0.00000000000E+00  0.00000000000E+00  0.85624687274E+02  0.85624687274E+02  0.00000000000E+00 0. -1.
          1   -1    0    0  501    0  0.00000000000E+00 -0.00000000000E+00 -0.29128659160E+04  0.29128659160E+04  0.00000000000E+00 0. -1.
         36    2    1    2    0    0  0.00000000000E+00  0.00000000000E+00 -0.28272412287E+04  0.29984906033E+04  0.99882577686E+03 0.  0.
         25    2    3    3    0    0 -0.95582724521E+02 -0.10937402762E+03 -0.62963716675E+03  0.65813765880E+03  0.12491389445E+03 0.  0.
         35    2    3    3    0    0  0.95582724521E+02  0.10937402762E+03 -0.21976040620E+04  0.23403529445E+04  0.79163726313E+03 0.  0.
         22    1    5    5    0    0  0.14315690579E+03 -0.79169375058E+01 -0.43416566492E+01  0.14344137324E+03  0.00000000000E+00 0.  1.
         22    1    5    5    0    0 -0.47574181270E+02  0.11729096512E+03 -0.21932624053E+04  0.21969115712E+04  0.00000000000E+00 0.  1.
          5    1    4    4  502    0 -0.29400133289E+02 -0.76334375823E+02 -0.13456152313E+03  0.15754427402E+03  0.47000000000E+01 0. -1.
         -5    1    4    4    0  502 -0.66182591232E+02 -0.33039651792E+02 -0.49507564362E+03  0.50059338477E+03  0.47000000000E+01 0. -1.
<mgrwt>
<rscale>  0 0.99882578E+03</rscale>
<asrwt>0</asrwt>
<pdfrwt beam="1">  1        1 0.44813316E+00 0.99882578E+03</pdfrwt>
<pdfrwt beam="2">  1       -1 0.13173030E-01 0.99882578E+03</pdfrwt>
<totfact> 0.28534590E+01</totfact>
</mgrwt>
</event>
<event>
 9    1  0.4488205E-036  0.1010508E+04  0.7818608E-02  0.8671095E-01
         -1   -1    0    0    0  501 -0.00000000000E+00  0.00000000000E+00  0.48583659769E+03  0.48583659769E+03  0.00000000000E+00 0.  1.
          1   -1    0    0  501    0  0.00000000000E+00 -0.00000000000E+00 -0.52544751231E+03  0.52544751231E+03  0.00000000000E+00 0.  1.
         36    2    1    2    0    0  0.00000000000E+00  0.00000000000E+00 -0.39610914621E+02  0.10112841100E+04  0.10105080537E+04 0.  0.
         25    2    3    3    0    0  0.90707791628E+02 -0.79123387690E+02  0.83240459743E+02  0.19264536812E+03  0.12527908755E+03 0.  0.
         35    2    3    3    0    0 -0.90707791628E+02  0.79123387690E+02 -0.12285137436E+03  0.81863874189E+03  0.80036773773E+03 0.  0.
         22    1    5    5    0    0  0.30857023342E+03  0.12660798198E+03 -0.22678479573E+03  0.40333176620E+03  0.00000000000E+00 0. -1.
         22    1    5    5    0    0 -0.39927802505E+03 -0.47484594288E+02  0.10393342136E+03  0.41530697569E+03  0.00000000000E+00 0. -1.
          5    1    4    4  502    0  0.94868064526E+02 -0.62509491814E+02  0.11150954240E+03  0.15926033493E+03  0.47000000000E+01 0.  1.
         -5    1    4    4    0  502 -0.41602728980E+01 -0.16613895877E+02 -0.28269082659E+02  0.33385033191E+02  0.47000000000E+01 0.  1.
<mgrwt>
<rscale>  0 0.10105081E+04</rscale>
<asrwt>0</asrwt>
<pdfrwt beam="1">  1        1 0.80838079E-01 0.10105081E+04</pdfrwt>
<pdfrwt beam="2">  1       -1 0.74744092E-01 0.10105081E+04</pdfrwt>
<totfact> 0.87647938E+01</totfact>
</mgrwt>
</event>
<event>
 9    1  0.4488205E-036  0.9999600E+03  0.7818608E-02  0.8681076E-01
         -2   -1    0    0    0  501 -0.00000000000E+00  0.00000000000E+00  0.12425935889E+04  0.12425935889E+04  0.00000000000E+00 0. -1.
          2   -1    0    0  501    0  0.00000000000E+00 -0.00000000000E+00 -0.20117601356E+03  0.20117601356E+03  0.00000000000E+00 0. -1.
         36    2    1    2    0    0  0.00000000000E+00  0.42632564146E-13  0.10414175754E+04  0.14437696025E+04  0.99996004861E+03 0.  0.
         25    2    3    3    0    0  0.11469367026E+03 -0.75277539981E+02  0.23752741926E+03  0.30162199091E+03  0.12544004337E+03 0.  0.
         35    2    3    3    0    0 -0.11469367026E+03  0.75277539981E+02  0.80389015612E+03  0.11421476116E+04  0.79965019699E+03 0.  0.
         22    1    5    5    0    0  0.72129235889E+02 -0.30240921548E+03  0.10892868861E+03  0.32942285816E+03  0.00000000000E+00 0. -1.
         22    1    5    5    0    0 -0.18682290615E+03  0.37768675546E+03  0.69496146752E+03  0.81272475344E+03  0.00000000000E+00 0. -1.
          5    1    4    4  502    0  0.35009756638E+01 -0.69504759004E+02  0.12564488072E+03  0.14370766996E+03  0.47000000000E+01 0. -1.
         -5    1    4    4    0  502  0.11119269460E+03 -0.57727809762E+01  0.11188253854E+03  0.15791432095E+03  0.47000000000E+01 0. -1.
<mgrwt>
<rscale>  0 0.99996005E+03</rscale>
<asrwt>0</asrwt>
<pdfrwt beam="1">  1        2 0.30950157E-01 0.99996005E+03</pdfrwt>
<pdfrwt beam="2">  1       -2 0.19116824E+00 0.99996005E+03</pdfrwt>
<totfact> 0.28656129E+01</totfact>
</mgrwt>
</event>
<event>
 9    1  0.4488205E-036  0.9966097E+03  0.7818608E-02  0.8684273E-01
          3   -1    0    0  501    0  0.00000000000E+00  0.00000000000E+00  0.83201926500E+03  0.83201926500E+03  0.00000000000E+00 0.  1.
         -3   -1    0    0    0  501 -0.00000000000E+00 -0.00000000000E+00 -0.29843989759E+03  0.29843989759E+03  0.00000000000E+00 0.  1.
         36    2    1    2    0    0 -0.71054273576E-14 -0.17763568394E-14  0.53357936741E+03  0.11304591626E+04  0.99660974155E+03 0.  0.
         25    2    3    3    0    0 -0.23023302554E+02 -0.88900763929E+01 -0.52543639015E+02  0.13775789546E+03  0.12492917130E+03 0.  0.
         35    2    3    3    0    0  0.23023302554E+02  0.88900763929E+01  0.58612300642E+03  0.99270126713E+03  0.80081615941E+03 0.  0.
         22    1    5    5    0    0 -0.35094844423E+03 -0.28706981840E+02  0.77968289199E+02  0.36064935247E+03  0.00000000000E+00 0. -1.
         22    1    5    5    0    0  0.37397174679E+03  0.37597058233E+02  0.50815471722E+03  0.63205191466E+03  0.00000000000E+00 0. -1.
          5    1    4    4  502    0  0.42072628309E+02  0.68333161518E+00 -0.57728340488E+02  0.71590671811E+02  0.47000000000E+01 0. -1.
         -5    1    4    4    0  502 -0.65095930863E+02 -0.95734080080E+01  0.51847014723E+01  0.66167223647E+02  0.47000000000E+01 0. -1.
<mgrwt>
<rscale>  0 0.99660974E+03</rscale>
<asrwt>0</asrwt>
<pdfrwt beam="1">  1        3 0.12800296E+00 0.99660974E+03</pdfrwt>
<pdfrwt beam="2">  1       -3 0.45913831E-01 0.99660974E+03</pdfrwt>
<totfact> 0.95701641E+00</totfact>
</mgrwt>
</event>
<event>
 9    1  0.4488205E-036  0.9960482E+03  0.7818608E-02  0.8684810E-01
         -2   -1    0    0    0  501 -0.00000000000E+00  0.00000000000E+00  0.19956998994E+03  0.19956998994E+03  0.00000000000E+00 0. -1.
          2   -1    0    0  501    0  0.00000000000E+00 -0.00000000000E+00 -0.12428121364E+04  0.12428121364E+04  0.00000000000E+00 0. -1.
         36    2    1    2    0    0 -0.14210854715E-13  0.00000000000E+00 -0.10432421465E+04  0.14423821264E+04  0.99604820279E+03 0.  0.
         25    2    3    3    0    0 -0.74909814733E+02  0.34376053092E+02 -0.38319120042E+02  0.15492958416E+03  0.12546564358E+03 0.  0.
         35    2    3    3    0    0  0.74909814733E+02 -0.34376053092E+02 -0.10049230264E+04  0.12874525422E+04  0.80054391885E+03 0.  0.
         22    1    5    5    0    0  0.34725892823E+03 -0.16323012178E+03 -0.88236728917E+03  0.96218754351E+03  0.00000000000E+00 0. -1.
         22    1    5    5    0    0 -0.27234911350E+03  0.12885406869E+03 -0.12255573727E+03  0.32526499870E+03  0.00000000000E+00 0. -1.
          5    1    4    4  502    0 -0.35230809832E+02  0.26330097745E+02 -0.83246725731E+02  0.94268718850E+02  0.47000000000E+01 0. -1.
         -5    1    4    4    0  502 -0.39679004900E+02  0.80459553476E+01  0.44927605689E+02  0.60660865311E+02  0.47000000000E+01 0. -1.
<mgrwt>
<rscale>  0 0.99604820E+03</rscale>
<asrwt>0</asrwt>
<pdfrwt beam="1">  1        2 0.19120187E+00 0.99604820E+03</pdfrwt>
<pdfrwt beam="2">  1       -2 0.30703075E-01 0.99604820E+03</pdfrwt>
<totfact> 0.21093051E+02</totfact>
</mgrwt>
</event>
<event>
 9    1  0.4488205E-036  0.1000508E+04  0.7818608E-02  0.8680554E-01
         -1   -1    0    0    0  501 -0.00000000000E+00  0.00000000000E+00  0.26247088981E+03  0.26247088981E+03  0.00000000000E+00 0.  1.
          1   -1    0    0  501    0  0.00000000000E+00 -0.00000000000E+00 -0.95345445354E+03  0.95345445354E+03  0.00000000000E+00 0.  1.
         36    2    1    2    0    0  0.14210854715E-13 -0.14210854715E-13 -0.69098356373E+03  0.12159253433E+04  0.10005079486E+04 0.  0.
         25    2    3    3    0    0 -0.52204877829E+01  0.75515432146E+02  0.15225888334E+02  0.14628204218E+03  0.12424481560E+03 0.  0.
         35    2    3    3    0    0  0.52204877829E+01 -0.75515432146E+02 -0.70620945207E+03  0.10696433012E+04  0.79979695395E+03 0.  0.
         22    1    5    5    0    0 -0.22800939645E+03 -0.28589755040E+03 -0.65672305687E+03  0.75167204792E+03  0.00000000000E+00 0. -1.
         22    1    5    5    0    0  0.23322988424E+03  0.21038211825E+03 -0.49486395199E+02  0.31797125325E+03  0.00000000000E+00 0. -1.
          5    1    4    4  502    0  0.29108128301E+02  0.80129769159E+02  0.48353272253E+02  0.98123350820E+02  0.47000000000E+01 0. -1.
         -5    1    4    4    0  502 -0.34328616084E+02 -0.46143370128E+01 -0.33127383919E+02  0.48158691361E+02  0.47000000000E+01 0. -1.
<mgrwt>
<rscale>  0 0.10005079E+04</rscale>
<asrwt>0</asrwt>
<pdfrwt beam="1">  1        1 0.14668530E+00 0.10005079E+04</pdfrwt>
<pdfrwt beam="2">  1       -1 0.40380136E-01 0.10005079E+04</pdfrwt>
<totfact> 0.11076424E+02</totfact>
</mgrwt>
</event>
<event>
 9    1  0.4488205E-036  0.1001052E+04  0.7818608E-02  0.8680037E-01
          1   -1    0    0  501    0  0.00000000000E+00  0.00000000000E+00  0.75992721473E+03  0.75992721473E+03  0.00000000000E+00 0.  1.
         -1   -1    0    0    0  501 -0.00000000000E+00 -0.00000000000E+00 -0.32967127706E+03  0.32967127706E+03  0.00000000000E+00 0.  1.
         36    2    1    2    0    0  0.28421709430E-13 -0.14210854715E-13  0.43025593768E+03  0.10895984918E+04  0.10010517976E+04 0.  0.
         25    2    3    3    0    0 -0.11791816372E+03  0.64355321837E+02  0.13159340689E+03  0.22540169516E+03  0.12426905754E+03 0.  0.
         35    2    3    3    0    0  0.11791816372E+03 -0.64355321837E+02  0.29866253078E+03  0.86419679663E+03  0.79974401856E+03 0.  0.
         22    1    5    5    0    0 -0.18015848143E+03  0.77632028122E+02  0.45751821616E+03  0.49780189668E+03  0.00000000000E+00 0.  1.
         22    1    5    5    0    0  0.29807664515E+03 -0.14198734996E+03 -0.15885568537E+03  0.36639489995E+03  0.00000000000E+00 0.  1.
          5    1    4    4  502    0 -0.90656869571E+02  0.70132725076E+02  0.15208260092E+03  0.19049534018E+03  0.47000000000E+01 0.  1.
         -5    1    4    4    0  502 -0.27261294150E+02 -0.57774032392E+01 -0.20489194023E+02  0.34906354989E+02  0.47000000000E+01 0.  1.
<mgrwt>
<rscale>  0 0.10010518E+04</rscale>
<asrwt>0</asrwt>
<pdfrwt beam="1">  1        1 0.11691188E+00 0.10010518E+04</pdfrwt>
<pdfrwt beam="2">  1       -1 0.50718658E-01 0.10010518E+04</pdfrwt>
<totfact> 0.10714225E+02</totfact>
</mgrwt>
</event>
<event>
 9    1  0.4488205E-036  0.1001245E+04  0.7818608E-02  0.8679853E-01
          1   -1    0    0  501    0  0.00000000000E+00  0.00000000000E+00  0.27028324204E+03  0.27028324204E+03  0.00000000000E+00 0. -1.
         -1   -1    0    0    0  501 -0.00000000000E+00 -0.00000000000E+00 -0.92726095639E+03  0.92726095639E+03  0.00000000000E+00 0. -1.
         36    2    1    2    0    0 -0.35527136788E-13  0.28421709430E-13 -0.65697771435E+03  0.11975441984E+04  0.10012454195E+04 0.  0.
         25    2    3    3    0    0  0.56609076018E+02 -0.11452013484E+03 -0.44217909834E+02  0.18241374867E+03  0.12247490920E+03 0.  0.
         35    2    3    3    0    0 -0.56609076018E+02  0.11452013484E+03 -0.61275980452E+03  0.10151304498E+04  0.79918446132E+03 0.  0.
         22    1    5    5    0    0 -0.30903916121E+03  0.17549759478E+03 -0.63451050685E+01  0.35545023462E+03  0.00000000000E+00 0. -1.
         22    1    5    5    0    0  0.25243008519E+03 -0.60977459945E+02 -0.60641469945E+03  0.65968021513E+03  0.00000000000E+00 0. -1.
          5    1    4    4  502    0 -0.10619616395E+01  0.25227038967E+02 -0.77524117425E+01  0.26827619078E+02  0.47000000000E+01 0. -1.
         -5    1    4    4    0  502  0.57671037658E+02 -0.13974717380E+03 -0.36465498091E+02  0.15558612959E+03  0.47000000000E+01 0. -1.
<mgrwt>
<rscale>  0 0.10012454E+04</rscale>
<asrwt>0</asrwt>
<pdfrwt beam="1">  1        1 0.41582037E-01 0.10012454E+04</pdfrwt>
<pdfrwt beam="2">  1       -1 0.14265553E+00 0.10012454E+04</pdfrwt>
<totfact> 0.47489101E+01</totfact>
</mgrwt>
</event>
<event>
 9    1  0.4488205E-036  0.1000617E+04  0.7818608E-02  0.8680451E-01
         -2   -1    0    0    0  501 -0.00000000000E+00  0.00000000000E+00  0.91757133754E+02  0.91757133754E+02  0.00000000000E+00 0. -1.
          2   -1    0    0  501    0  0.00000000000E+00 -0.00000000000E+00 -0.27279453534E+04  0.27279453534E+04  0.00000000000E+00 0. -1.
         36    2    1    2    0    0 -0.28421709430E-13 -0.17763568394E-14 -0.26361882197E+04  0.28197024872E+04  0.10006167032E+04 0.  0.
         25    2    3    3    0    0 -0.67358518411E+02  0.76732942520E+01 -0.14897931420E+03  0.20586657340E+03  0.12486056437E+03 0.  0.
         35    2    3    3    0    0  0.67358518411E+02 -0.76732942520E+01 -0.24872089055E+04  0.26138359138E+04  0.80083331305E+03 0.  0.
         22    1    5    5    0    0 -0.15637003310E+03 -0.24311113633E+03 -0.35862068396E+03  0.46061199161E+03  0.00000000000E+00 0. -1.
         22    1    5    5    0    0  0.22372855151E+03  0.23543784208E+03 -0.21285882215E+04  0.21532239222E+04  0.00000000000E+00 0. -1.
          5    1    4    4  502    0  0.21275857123E+02 -0.15201448511E+02  0.46502867812E+01  0.26971490509E+02  0.47000000000E+01 0.  1.
         -5    1    4    4    0  502 -0.88634375534E+02  0.22874742763E+02 -0.15362960099E+03  0.17889508289E+03  0.47000000000E+01 0.  1.
<mgrwt>
<rscale>  0 0.10006167E+04</rscale>
<asrwt>0</asrwt>
<pdfrwt beam="1">  1        2 0.41968380E+00 0.10006167E+04</pdfrwt>
<pdfrwt beam="2">  1       -2 0.14116485E-01 0.10006167E+04</pdfrwt>
<totfact> 0.11127893E+02</totfact>
</mgrwt>
</event>
<event>
 9    1  0.4488205E-036  0.9999211E+03  0.7818608E-02  0.8681113E-01
          2   -1    0    0  501    0  0.00000000000E+00  0.00000000000E+00  0.14173022481E+04  0.14173022481E+04  0.00000000000E+00 0. -1.
         -2   -1    0    0    0  501 -0.00000000000E+00 -0.00000000000E+00 -0.17636362509E+03  0.17636362509E+03  0.00000000000E+00 0. -1.
         36    2    1    2    0    0  0.00000000000E+00 -0.28421709430E-13  0.12409386230E+04  0.15936658732E+04  0.99992112154E+03 0.  0.
         25    2    3    3    0    0  0.87698047727E+02 -0.86386240322E+02  0.12818290522E+03  0.21750455015E+03  0.12539474493E+03 0.  0.
         35    2    3    3    0    0 -0.87698047727E+02  0.86386240322E+02  0.11127557178E+04  0.13761613230E+04  0.80027568341E+03 0.  0.
         22    1    5    5    0    0  0.25062475520E+03  0.13178509331E+03  0.88727194814E+02  0.29673657314E+03  0.00000000000E+00 0.  1.
         22    1    5    5    0    0 -0.33832280293E+03 -0.45398852989E+02  0.10240285230E+04  0.10794247499E+04  0.00000000000E+00 0.  1.
          5    1    4    4  502    0  0.94489694200E+02 -0.11167773423E+03  0.93063217764E+02  0.17344472068E+03  0.47000000000E+01 0.  1.
         -5    1    4    4    0  502 -0.67916464723E+01  0.25291493909E+02  0.35119687454E+02  0.44059829469E+02  0.47000000000E+01 0.  1.
<mgrwt>
<rscale>  0 0.99992112E+03</rscale>
<asrwt>0</asrwt>
<pdfrwt beam="1">  1        2 0.21804649E+00 0.99992112E+03</pdfrwt>
<pdfrwt beam="2">  1       -2 0.27132866E-01 0.99992112E+03</pdfrwt>
<totfact> 0.20925714E+02</totfact>
</mgrwt>
</event>
<event>
 9    1  0.4488205E-036  0.9995977E+03  0.7818608E-02  0.8681421E-01
          2   -1    0    0  501    0  0.00000000000E+00  0.00000000000E+00  0.99406670374E+03  0.99406670374E+03  0.00000000000E+00 0. -1.
         -2   -1    0    0    0  501 -0.00000000000E+00 -0.00000000000E+00 -0.25128988011E+03  0.25128988011E+03  0.00000000000E+00 0. -1.
         36    2    1    2    0    0  0.28421709430E-13  0.35527136788E-14  0.74277682363E+03  0.12453565839E+04  0.99959772470E+03 0.  0.
         25    2    3    3    0    0 -0.13706023480E+03  0.17488047873E+01  0.10698712573E+03  0.21408174780E+03  0.12488468036E+03 0.  0.
         35    2    3    3    0    0  0.13706023480E+03 -0.17488047873E+01  0.63578969790E+03  0.10312748361E+04  0.80031911213E+03 0.  0.
         22    1    5    5    0    0  0.44055382066E+03  0.17839030102E+02  0.56911128454E+03  0.71992607543E+03  0.00000000000E+00 0. -1.
         22    1    5    5    0    0 -0.30349358586E+03 -0.19587834890E+02  0.66678413360E+02  0.31134876062E+03  0.00000000000E+00 0. -1.
          5    1    4    4  502    0 -0.24002340147E+02 -0.53981810973E+02  0.36059116756E+02  0.69372171291E+02  0.47000000000E+01 0. -1.
         -5    1    4    4    0  502 -0.11305789466E+03  0.55730615760E+02  0.70928008976E+02  0.14470957651E+03  0.47000000000E+01 0. -1.
<mgrwt>
<rscale>  0 0.99959772E+03</rscale>
<asrwt>0</asrwt>
<pdfrwt beam="1">  1        2 0.15293334E+00 0.99959772E+03</pdfrwt>
<pdfrwt beam="2">  1       -2 0.38659982E-01 0.99959772E+03</pdfrwt>
<totfact> 0.19416498E+02</totfact>
</mgrwt>
</event>
<event>
 9    1  0.4488205E-036  0.1000304E+04  0.7818608E-02  0.8680749E-01
          2   -1    0    0  501    0  0.00000000000E+00  0.00000000000E+00  0.90502703402E+03  0.90502703402E+03  0.00000000000E+00 0. -1.
         -2   -1    0    0    0  501 -0.00000000000E+00 -0.00000000000E+00 -0.27640281482E+03  0.27640281482E+03  0.00000000000E+00 0. -1.
         36    2    1    2    0    0  0.00000000000E+00 -0.71054273576E-14  0.62862421920E+03  0.11814298488E+04  0.10003039932E+04 0.  0.
         25    2    3    3    0    0  0.13865943449E+03  0.11454562870E+02  0.92796484085E+02  0.20863775699E+03  0.12474325795E+03 0.  0.
         35    2    3    3    0    0 -0.13865943449E+03 -0.11454562870E+02  0.53582773511E+03  0.97279209185E+03  0.79990964893E+03 0.  0.
         22    1    5    5    0    0 -0.24557508267E+03  0.23487260777E+03  0.60642038396E+03  0.69513879564E+03  0.00000000000E+00 0. -1.
         22    1    5    5    0    0  0.10691564819E+03 -0.24632717064E+03 -0.70592648851E+02  0.27765329621E+03  0.00000000000E+00 0. -1.
          5    1    4    4  502    0  0.13809270963E+03  0.28669130041E+02  0.11364659550E+03  0.18118817329E+03  0.47000000000E+01 0.  1.
         -5    1    4    4    0  502  0.56672485433E+00 -0.17214567171E+02 -0.20850111411E+02  0.27449583709E+02  0.47000000000E+01 0.  1.
<mgrwt>
<rscale>  0 0.10003040E+04</rscale>
<asrwt>0</asrwt>
<pdfrwt beam="1">  1        2 0.13923493E+00 0.10003040E+04</pdfrwt>
<pdfrwt beam="2">  1       -2 0.42523511E-01 0.10003040E+04</pdfrwt>
<totfact> 0.18450402E+02</totfact>
</mgrwt>
</event>
<event>
 9    1  0.4488205E-036  0.1000755E+04  0.7818608E-02  0.8680319E-01
         -2   -1    0    0    0  501 -0.00000000000E+00  0.00000000000E+00  0.12011194547E+04  0.12011194547E+04  0.00000000000E+00 0. -1.
          2   -1    0    0  501    0  0.00000000000E+00 -0.00000000000E+00 -0.20845371997E+03  0.20845371997E+03  0.00000000000E+00 0. -1.
         36    2    1    2    0    0 -0.42632564146E-13  0.00000000000E+00  0.99266573475E+03  0.14095731747E+04  0.10007553517E+04 0.  0.
         25    2    3    3    0    0  0.65848370782E+02 -0.11317530374E+03  0.25946245772E+03  0.31644003669E+03  0.12517536716E+03 0.  0.
         35    2    3    3    0    0 -0.65848370782E+02  0.11317530374E+03  0.73320327703E+03  0.10931331380E+04  0.80013021105E+03 0.  0.
         22    1    5    5    0    0 -0.36865431147E+03  0.25562931928E+03  0.55617890983E+03  0.71455393777E+03  0.00000000000E+00 0.  1.
         22    1    5    5    0    0  0.30280594069E+03 -0.14245401554E+03  0.17702436720E+03  0.37857920023E+03  0.00000000000E+00 0.  1.
          5    1    4    4  502    0 -0.91857427701E+01  0.38133446149E+01  0.11643029310E+03  0.11694880341E+03  0.47000000000E+01 0. -1.
         -5    1    4    4    0  502  0.75034113552E+02 -0.11698864836E+03  0.14303216462E+03  0.19949123328E+03  0.47000000000E+01 0. -1.
<mgrwt>
<rscale>  0 0.10007554E+04</rscale>
<asrwt>0</asrwt>
<pdfrwt beam="1">  1        2 0.32069804E-01 0.10007554E+04</pdfrwt>
<pdfrwt beam="2">  1       -2 0.18478760E+00 0.10007554E+04</pdfrwt>
<totfact> 0.30531511E+01</totfact>
</mgrwt>
</event>
<event>
 9    1  0.4488205E-036  0.1000821E+04  0.7818608E-02  0.8680257E-01
         -1   -1    0    0    0  501 -0.00000000000E+00  0.00000000000E+00  0.67197006190E+02  0.67197006190E+02  0.00000000000E+00 0. -1.
          1   -1    0    0  501    0  0.00000000000E+00 -0.00000000000E+00 -0.37265143688E+04  0.37265143688E+04  0.00000000000E+00 0. -1.
         36    2    1    2    0    0 -0.28421709430E-13  0.00000000000E+00 -0.36593173626E+04  0.37937113750E+04  0.10008208813E+04 0.  0.
         25    2    3    3    0    0 -0.13107721020E+03  0.29252162619E+02 -0.94229221860E+03  0.95834797091E+03  0.11171071597E+03 0.  0.
         35    2    3    3    0    0  0.13107721020E+03 -0.29252162619E+02 -0.27170251440E+04  0.28353634041E+04  0.79938918929E+03 0.  0.
         22    1    5    5    0    0  0.36021532716E+03 -0.33844920941E+01 -0.24749836550E+04  0.25010619003E+04  0.00000000000E+00 0.  1.
         22    1    5    5    0    0 -0.22913811696E+03 -0.25867670525E+02 -0.24204148905E+03  0.33430150380E+03  0.00000000000E+00 0.  1.
          5    1    4    4  502    0 -0.10985534292E+02  0.26103162648E+02 -0.47402531649E+03  0.47489382786E+03  0.47000000000E+01 0. -1.
         -5    1    4    4    0  502 -0.12009167591E+03  0.31489999704E+01 -0.46826690211E+03  0.48345414305E+03  0.47000000000E+01 0. -1.
<mgrwt>
<rscale>  0 0.10008209E+04</rscale>
<asrwt>0</asrwt>
<pdfrwt beam="1">  1        1 0.57331001E+00 0.10008209E+04</pdfrwt>
<pdfrwt beam="2">  1       -1 0.10337999E-01 0.10008209E+04</pdfrwt>
<totfact> 0.10604741E+01</totfact>
</mgrwt>
</event>
<event>
 9    1  0.4488205E-036  0.1000070E+04  0.7818608E-02  0.8680971E-01
         -1   -1    0    0    0  501 -0.00000000000E+00  0.00000000000E+00  0.37089303504E+03  0.37089303504E+03  0.00000000000E+00 0.  1.
          1   -1    0    0  501    0  0.00000000000E+00 -0.00000000000E+00 -0.67414376109E+03  0.67414376109E+03  0.00000000000E+00 0.  1.
         36    2    1    2    0    0 -0.35527136788E-13  0.00000000000E+00 -0.30325072605E+03  0.10450367961E+04  0.10000704487E+04 0.  0.
         25    2    3    3    0    0 -0.32690909318E+02 -0.12965180482E+03 -0.10105400975E+03  0.20887942619E+03  0.12466120387E+03 0.  0.
         35    2    3    3    0    0  0.32690909318E+02  0.12965180482E+03 -0.20219671629E+03  0.83615736995E+03  0.80024830471E+03 0.  0.
         22    1    5    5    0    0 -0.31323964863E+03 -0.72860654348E+02  0.97053735034E+02  0.33592734320E+03  0.00000000000E+00 0. -1.
         22    1    5    5    0    0  0.34593055795E+03  0.20251245917E+03 -0.29925045133E+03  0.50023002675E+03  0.00000000000E+00 0. -1.
          5    1    4    4  502    0  0.46951569858E+02 -0.50871575933E+02 -0.50885670118E+02  0.86045386706E+02  0.47000000000E+01 0.  1.
         -5    1    4    4    0  502 -0.79642479175E+02 -0.78780228890E+02 -0.50168339635E+02  0.12283403948E+03  0.47000000000E+01 0.  1.
<mgrwt>
<rscale>  0 0.10000704E+04</rscale>
<asrwt>0</asrwt>
<pdfrwt beam="1">  1        1 0.10371443E+00 0.10000704E+04</pdfrwt>
<pdfrwt beam="2">  1       -1 0.57060466E-01 0.10000704E+04</pdfrwt>
<totfact> 0.10343813E+02</totfact>
</mgrwt>
</event>
<event>
 9    1  0.4488205E-036  0.9891406E+03  0.7818608E-02  0.8691449E-01
          1   -1    0    0  501    0  0.00000000000E+00  0.00000000000E+00  0.11774111238E+04  0.11774111238E+04  0.00000000000E+00 0.  1.
         -1   -1    0    0    0  501 -0.00000000000E+00 -0.00000000000E+00 -0.20774372103E+03  0.20774372103E+03  0.00000000000E+00 0.  1.
         36    2    1    2    0    0 -0.14210854715E-13  0.00000000000E+00  0.96966740274E+03  0.13851548448E+04  0.98914057248E+03 0.  0.
         25    2    3    3    0    0 -0.82945743212E+02 -0.49356062237E+02  0.56278129408E+02  0.16774984828E+03  0.12512700169E+03 0.  0.
         35    2    3    3    0    0  0.82945743212E+02  0.49356062237E+02  0.91338927333E+03  0.12174049965E+04  0.79904877430E+03 0.  0.
         22    1    5    5    0    0 -0.12317130480E+03  0.13856473432E+03  0.96855194516E+03  0.98613600807E+03  0.00000000000E+00 0. -1.
         22    1    5    5    0    0  0.20611704801E+03 -0.89208672084E+02 -0.55162671832E+02  0.23126898845E+03  0.00000000000E+00 0. -1.
          5    1    4    4  502    0 -0.27297578922E+02 -0.82793916828E+02  0.53925299125E+02  0.10261587774E+03  0.47000000000E+01 0.  1.
         -5    1    4    4    0  502 -0.55648164290E+02  0.33437854590E+02  0.23528302831E+01  0.65133970543E+02  0.47000000000E+01 0.  1.
<mgrwt>
<rscale>  0 0.98914057E+03</rscale>
<asrwt>0</asrwt>
<pdfrwt beam="1">  1        1 0.18114017E+00 0.98914057E+03</pdfrwt>
<pdfrwt beam="2">  1       -1 0.31960573E-01 0.98914057E+03</pdfrwt>
<totfact> 0.11185080E+02</totfact>
</mgrwt>
</event>
<event>
 9    1  0.4488205E-036  0.9997017E+03  0.7818608E-02  0.8681322E-01
         -1   -1    0    0    0  501 -0.00000000000E+00  0.00000000000E+00  0.11767820909E+04  0.11767820909E+04  0.00000000000E+00 0.  1.
          1   -1    0    0  501    0  0.00000000000E+00 -0.00000000000E+00 -0.21231704541E+03  0.21231704541E+03  0.00000000000E+00 0.  1.
         36    2    1    2    0    0  0.00000000000E+00  0.28421709430E-13  0.96446504550E+03  0.13890991363E+04  0.99970174880E+03 0.  0.
         25    2    3    3    0    0  0.12948967676E+03  0.45516317030E+02  0.15463228785E+03  0.24185272364E+03  0.12546825886E+03 0.  0.
         35    2    3    3    0    0 -0.12948967676E+03 -0.45516317030E+02  0.80983275766E+03  0.11472464127E+04  0.80094064984E+03 0.  0.
         22    1    5    5    0    0 -0.77187263920E+02 -0.36834212629E+03  0.71291517135E+03  0.80615249008E+03  0.00000000000E+00 0.  1.
         22    1    5    5    0    0 -0.52302412844E+02  0.32282580926E+03  0.96917586302E+02  0.34109392262E+03  0.00000000000E+00 0.  1.
          5    1    4    4  502    0  0.10404157343E+03  0.34684139961E+02  0.17542117447E+03  0.20693553832E+03  0.47000000000E+01 0.  1.
         -5    1    4    4    0  502  0.25448103331E+02  0.10832177068E+02 -0.20788886626E+02  0.34917185315E+02  0.47000000000E+01 0.  1.
<mgrwt>
<rscale>  0 0.99970175E+03</rscale>
<asrwt>0</asrwt>
<pdfrwt beam="1">  1        1 0.32664162E-01 0.99970175E+03</pdfrwt>
<pdfrwt beam="2">  1       -1 0.18104339E+00 0.99970175E+03</pdfrwt>
<totfact> 0.30976436E+01</totfact>
</mgrwt>
</event>
<event>
 9    1  0.4488205E-036  0.1000733E+04  0.7818608E-02  0.8680340E-01
          2   -1    0    0  501    0  0.00000000000E+00  0.00000000000E+00  0.20864615844E+03  0.20864615844E+03  0.00000000000E+00 0. -1.
         -2   -1    0    0    0  501 -0.00000000000E+00 -0.00000000000E+00 -0.11999581694E+04  0.11999581694E+04  0.00000000000E+00 0. -1.
         36    2    1    2    0    0  0.14210854715E-13  0.71054273576E-14 -0.99131201100E+03  0.14086043279E+04  0.10007330560E+04 0.  0.
         25    2    3    3    0    0  0.11611576685E+03 -0.44412204011E+02 -0.28642653867E+03  0.33477144844E+03  0.12073295100E+03 0.  0.
         35    2    3    3    0    0 -0.11611576685E+03  0.44412204011E+02 -0.70488547233E+03  0.10738328794E+04  0.80049872498E+03 0.  0.
         22    1    5    5    0    0 -0.43602156434E+03 -0.11444597672E+03 -0.43167894906E+03  0.62414693881E+03  0.00000000000E+00 0.  1.
         22    1    5    5    0    0  0.31990579749E+03  0.15885818073E+03 -0.27320652326E+03  0.44968594064E+03  0.00000000000E+00 0.  1.
          5    1    4    4  502    0  0.28994675452E+02 -0.65077786485E+02 -0.67751621930E+02  0.98428561772E+02  0.47000000000E+01 0.  1.
         -5    1    4    4    0  502  0.87121091403E+02  0.20665582474E+02 -0.21867491674E+03  0.23634288667E+03  0.47000000000E+01 0.  1.
<mgrwt>
<rscale>  0 0.10007331E+04</rscale>
<asrwt>0</asrwt>
<pdfrwt beam="1">  1        2 0.32099410E-01 0.10007331E+04</pdfrwt>
<pdfrwt beam="2">  1       -2 0.18460894E+00 0.10007331E+04</pdfrwt>
<totfact> 0.30589158E+01</totfact>
</mgrwt>
</event>
<event>
 9    1  0.4488205E-036  0.9984649E+03  0.7818608E-02  0.8682501E-01
          1   -1    0    0  501    0  0.00000000000E+00  0.00000000000E+00  0.19471007183E+04  0.19471007183E+04  0.00000000000E+00 0.  1.
         -1   -1    0    0    0  501 -0.00000000000E+00 -0.00000000000E+00 -0.12800213189E+03  0.12800213189E+03  0.00000000000E+00 0.  1.
         36    2    1    2    0    0 -0.17763568394E-13  0.00000000000E+00  0.18190985864E+04  0.20751028502E+04  0.99846490766E+03 0.  0.
         25    2    3    3    0    0  0.21492966713E+02 -0.13326598347E+03  0.35925607067E+03  0.40479769403E+03  0.12874190774E+03 0.  0.
         35    2    3    3    0    0 -0.21492966713E+02  0.13326598347E+03  0.14598425157E+04  0.16703051562E+04  0.80034828294E+03 0.  0.
         22    1    5    5    0    0  0.21343517825E+03  0.85244896510E+02  0.43626247138E+02  0.23393271925E+03  0.00000000000E+00 0.  1.
         22    1    5    5    0    0 -0.23492814497E+03  0.48021086959E+02  0.14162162686E+04  0.14363724369E+04  0.00000000000E+00 0.  1.
          5    1    4    4  502    0  0.60470798178E+01 -0.15299037277E+03  0.25501159485E+03  0.29748214206E+03  0.47000000000E+01 0. -1.
         -5    1    4    4    0  502  0.15445886896E+02  0.19724389306E+02  0.10424447583E+03  0.10731555198E+03  0.47000000000E+01 0. -1.
<mgrwt>
<rscale>  0 0.99846491E+03</rscale>
<asrwt>0</asrwt>
<pdfrwt beam="1">  1        1 0.29955393E+00 0.99846491E+03</pdfrwt>
<pdfrwt beam="2">  1       -1 0.19692637E-01 0.99846491E+03</pdfrwt>
<totfact> 0.71174761E+01</totfact>
</mgrwt>
</event>
<event>
 9    1  0.4488205E-036  0.9992385E+03  0.7818608E-02  0.8681763E-01
         -2   -1    0    0    0  501 -0.00000000000E+00  0.00000000000E+00  0.15857053160E+03  0.15857053160E+03  0.00000000000E+00 0.  1.
          2   -1    0    0  501    0  0.00000000000E+00 -0.00000000000E+00 -0.15741853509E+04  0.15741853509E+04  0.00000000000E+00 0.  1.
         36    2    1    2    0    0  0.00000000000E+00  0.28421709430E-13 -0.14156148193E+04  0.17327558825E+04  0.99923852591E+03 0.  0.
         25    2    3    3    0    0 -0.69070231014E+02 -0.11175538449E+03 -0.33334249874E+03  0.37965929322E+03  0.12555474777E+03 0.  0.
         35    2    3    3    0    0  0.69070231014E+02  0.11175538449E+03 -0.10822723205E+04  0.13530965892E+04  0.80143436491E+03 0.  0.
         22    1    5    5    0    0 -0.50650089528E+02 -0.29843294125E+03 -0.17354885229E+03  0.34892242135E+03  0.00000000000E+00 0.  1.
         22    1    5    5    0    0  0.11972032054E+03  0.41018832574E+03 -0.90872346824E+03  0.10041741679E+04  0.00000000000E+00 0.  1.
          5    1    4    4  502    0  0.10032328919E+02 -0.56603218721E+02 -0.23450195832E+03  0.24149084962E+03  0.47000000000E+01 0.  1.
         -5    1    4    4    0  502 -0.79102559933E+02 -0.55152165771E+02 -0.98840540421E+02  0.13816844360E+03  0.47000000000E+01 0.  1.
<mgrwt>
<rscale>  0 0.99923853E+03</rscale>
<asrwt>0</asrwt>
<pdfrwt beam="1">  1        2 0.24218236E+00 0.99923853E+03</pdfrwt>
<pdfrwt beam="2">  1       -2 0.24395467E-01 0.99923853E+03</pdfrwt>
<totfact> 0.20607788E+02</totfact>
</mgrwt>
</event>
<event>
 9    1  0.4488205E-036  0.9994275E+03  0.7818608E-02  0.8681583E-01
          1   -1    0    0  501    0  0.00000000000E+00  0.00000000000E+00  0.14575762526E+04  0.14575762526E+04  0.00000000000E+00 0. -1.
         -1   -1    0    0    0  501 -0.00000000000E+00 -0.00000000000E+00 -0.17132128101E+03  0.17132128101E+03  0.00000000000E+00 0. -1.
         36    2    1    2    0    0 -0.14210854715E-13  0.00000000000E+00  0.12862549716E+04  0.16288975336E+04  0.99942749764E+03 0.  0.
         25    2    3    3    0    0  0.41155359538E+02  0.12785348853E+03  0.15638059260E+03  0.24105148955E+03  0.12494259773E+03 0.  0.
         35    2    3    3    0    0 -0.41155359538E+02 -0.12785348853E+03  0.11298743790E+04  0.13878460440E+04  0.79464473290E+03 0.  0.
         22    1    5    5    0    0 -0.97876005145E-01 -0.13721506403E+02  0.12302990685E+04  0.12303755879E+04  0.00000000000E+00 0. -1.
         22    1    5    5    0    0 -0.41057483533E+02 -0.11413198212E+03 -0.10042468952E+03  0.15747045616E+03  0.00000000000E+00 0. -1.
          5    1    4    4  502    0  0.74725274632E+02  0.11319193932E+03  0.83491923581E+02  0.15934011767E+03  0.47000000000E+01 0. -1.
         -5    1    4    4    0  502 -0.33569915094E+02  0.14661549212E+02  0.72888669016E+02  0.81711371887E+02  0.47000000000E+01 0. -1.
<mgrwt>
<rscale>  0 0.99942750E+03</rscale>
<asrwt>0</asrwt>
<pdfrwt beam="1">  1        1 0.22424249E+00 0.99942750E+03</pdfrwt>
<pdfrwt beam="2">  1       -1 0.26357121E-01 0.99942750E+03</pdfrwt>
<totfact> 0.96942689E+01</totfact>
</mgrwt>
</event>
<event>
 9    1  0.4488205E-036  0.9990974E+03  0.7818608E-02  0.8681898E-01
          2   -1    0    0  501    0  0.00000000000E+00  0.00000000000E+00  0.15544988412E+04  0.15544988412E+04  0.00000000000E+00 0. -1.
         -2   -1    0    0    0  501 -0.00000000000E+00 -0.00000000000E+00 -0.16053335522E+03  0.16053335522E+03  0.00000000000E+00 0. -1.
         36    2    1    2    0    0  0.14210854715E-13  0.28421709430E-13  0.13939654860E+04  0.17150321964E+04  0.99909742198E+03 0.  0.
         25    2    3    3    0    0 -0.73990558581E+02 -0.10069150746E+03  0.15285282711E+03  0.23339438029E+03  0.12448119360E+03 0.  0.
         35    2    3    3    0    0  0.73990558581E+02  0.10069150746E+03  0.12411126588E+04  0.14816378161E+04  0.79954774949E+03 0.  0.
         22    1    5    5    0    0  0.26634444165E+02  0.45296991047E+03  0.68749462391E+03  0.82373538914E+03  0.00000000000E+00 0. -1.
         22    1    5    5    0    0  0.47356114416E+02 -0.35227840301E+03  0.55361803493E+03  0.65790242696E+03  0.00000000000E+00 0. -1.
          5    1    4    4  502    0 -0.27922006479E+02 -0.11901967926E+03  0.13026841067E+03  0.17871002018E+03  0.47000000000E+01 0.  1.
         -5    1    4    4    0  502 -0.46068552103E+02  0.18328171796E+02  0.22584416446E+02  0.54684360108E+02  0.47000000000E+01 0.  1.
<mgrwt>
<rscale>  0 0.99909742E+03</rscale>
<asrwt>0</asrwt>
<pdfrwt beam="1">  1        2 0.23915366E+00 0.99909742E+03</pdfrwt>
<pdfrwt beam="2">  1       -2 0.24697440E-01 0.99909742E+03</pdfrwt>
<totfact> 0.20686727E+02</totfact>
</mgrwt>
</event>
<event>
 9    1  0.4488205E-036  0.1000153E+04  0.7818608E-02  0.8680892E-01
         -1   -1    0    0    0  501 -0.00000000000E+00  0.00000000000E+00  0.23853719955E+03  0.23853719955E+03  0.00000000000E+00 0. -1.
          1   -1    0    0  501    0  0.00000000000E+00 -0.00000000000E+00 -0.10483763045E+04  0.10483763045E+04  0.00000000000E+00 0. -1.
         36    2    1    2    0    0  0.00000000000E+00  0.28421709430E-13 -0.80983910500E+03  0.12869135041E+04  0.10001534837E+04 0.  0.
         25    2    3    3    0    0 -0.75361024624E+02 -0.10402472569E+03 -0.78337894277E+02  0.19552630997E+03  0.12487307405E+03 0.  0.
         35    2    3    3    0    0  0.75361024624E+02  0.10402472569E+03 -0.73150121072E+03  0.10913871941E+04  0.79970717055E+03 0.  0.
         22    1    5    5    0    0  0.40783791922E+03 -0.95381400182E+02 -0.32966575427E+03  0.53301865764E+03  0.00000000000E+00 0.  1.
         22    1    5    5    0    0 -0.33247689459E+03  0.19940612587E+03 -0.40183545645E+03  0.55836853648E+03  0.00000000000E+00 0.  1.
          5    1    4    4  502    0 -0.52575742789E+02  0.94575163405E+01  0.34253508824E+01  0.53735243312E+02  0.47000000000E+01 0.  1.
         -5    1    4    4    0  502 -0.22785281835E+02 -0.11348224203E+03 -0.81763245160E+02  0.14179106666E+03  0.47000000000E+01 0.  1.
<mgrwt>
<rscale>  0 0.10001535E+04</rscale>
<asrwt>0</asrwt>
<pdfrwt beam="1">  1        1 0.16128866E+00 0.10001535E+04</pdfrwt>
<pdfrwt beam="2">  1       -1 0.36698031E-01 0.10001535E+04</pdfrwt>
<totfact> 0.11027424E+02</totfact>
</mgrwt>
</event>
<event>
 9    1  0.4488205E-036  0.9988493E+03  0.7818608E-02  0.8682135E-01
         -1   -1    0    0    0  501 -0.00000000000E+00  0.00000000000E+00  0.31512904787E+03  0.31512904787E+03  0.00000000000E+00 0. -1.
          1   -1    0    0  501    0  0.00000000000E+00 -0.00000000000E+00 -0.79150099946E+03  0.79150099946E+03  0.00000000000E+00 0. -1.
         36    2    1    2    0    0  0.00000000000E+00 -0.71054273576E-14 -0.47637195159E+03  0.11066300473E+04  0.99884925059E+03 0.  0.
         25    2    3    3    0    0 -0.10805593598E+03  0.11900034996E+01 -0.18700905230E+03  0.24941932396E+03  0.12474017844E+03 0.  0.
         35    2    3    3    0    0  0.10805593598E+03 -0.11900034996E+01 -0.28936289929E+03  0.85721072337E+03  0.79962605971E+03 0.  0.
         22    1    5    5    0    0  0.14311029252E+03  0.25136232035E+03  0.16733151560E+03  0.33416075178E+03  0.00000000000E+00 0.  1.
         22    1    5    5    0    0 -0.35054356537E+02 -0.25255232385E+03 -0.45669441489E+03  0.52304997159E+03  0.00000000000E+00 0.  1.
          5    1    4    4  502    0 -0.10950083082E+03 -0.21166308737E+02 -0.19540173564E+03  0.22503860306E+03  0.47000000000E+01 0. -1.
         -5    1    4    4    0  502  0.14448948412E+01  0.22356312237E+02  0.83926833459E+01  0.24380720902E+02  0.47000000000E+01 0. -1.
<mgrwt>
<rscale>  0 0.99884925E+03</rscale>
<asrwt>0</asrwt>
<pdfrwt beam="1">  1        1 0.12176938E+00 0.99884925E+03</pdfrwt>
<pdfrwt beam="2">  1       -1 0.48481392E-01 0.99884925E+03</pdfrwt>
<totfact> 0.10910808E+02</totfact>
</mgrwt>
</event>
<event>
 9    1  0.4488205E-036  0.1001489E+04  0.7818608E-02  0.8679621E-01
          2   -1    0    0  501    0  0.00000000000E+00  0.00000000000E+00  0.14354581145E+04  0.14354581145E+04  0.00000000000E+00 0.  1.
         -2   -1    0    0    0  501 -0.00000000000E+00 -0.00000000000E+00 -0.17467954366E+03  0.17467954366E+03  0.00000000000E+00 0.  1.
         36    2    1    2    0    0  0.00000000000E+00  0.00000000000E+00  0.12607785708E+04  0.16101376582E+04  0.10014892279E+04 0.  0.
         25    2    3    3    0    0 -0.11117125460E+03 -0.85891604978E+02  0.18993240669E+03  0.26749840907E+03  0.12547774341E+03 0.  0.
         35    2    3    3    0    0  0.11117125460E+03  0.85891604978E+02  0.10708461641E+04  0.13426392491E+04  0.79764166784E+03 0.  0.
         22    1    5    5    0    0 -0.10495653835E+03  0.22381171842E+03  0.10573904958E+04  0.10859015705E+04  0.00000000000E+00 0. -1.
         22    1    5    5    0    0  0.21612779295E+03 -0.13792011345E+03  0.13455668325E+02  0.25673767855E+03  0.00000000000E+00 0. -1.
          5    1    4    4  502    0 -0.48017344824E+02 -0.10308009362E+03  0.78767561905E+02  0.13841094579E+03  0.47000000000E+01 0. -1.
         -5    1    4    4    0  502 -0.63153909777E+02  0.17188488643E+02  0.11116484478E+03  0.12908746329E+03  0.47000000000E+01 0. -1.
<mgrwt>
<rscale>  0 0.10014892E+04</rscale>
<asrwt>0</asrwt>
<pdfrwt beam="1">  1        2 0.22083970E+00 0.10014892E+04</pdfrwt>
<pdfrwt beam="2">  1       -2 0.26873777E-01 0.10014892E+04</pdfrwt>
<totfact> 0.20787467E+02</totfact>
</mgrwt>
</event>
<event>
 9    1  0.4488205E-036  0.1000287E+04  0.7818608E-02  0.8680765E-01
         -2   -1    0    0    0  501 -0.00000000000E+00  0.00000000000E+00  0.13544905329E+03  0.13544905329E+03  0.00000000000E+00 0. -1.
          2   -1    0    0  501    0  0.00000000000E+00 -0.00000000000E+00 -0.18467725620E+04  0.18467725620E+04  0.00000000000E+00 0. -1.
         36    2    1    2    0    0  0.42632564146E-13 -0.28421709430E-13 -0.17113235087E+04  0.19822216153E+04  0.10002871491E+04 0.  0.
         25    2    3    3    0    0 -0.15986897882E+02  0.13446039125E+03 -0.25682059381E+03  0.31674167404E+03  0.12662263996E+03 0.  0.
         35    2    3    3    0    0  0.15986897882E+02 -0.13446039125E+03 -0.14545029149E+04  0.16654799413E+04  0.79994345269E+03 0.  0.
         22    1    5    5    0    0 -0.32453793739E+03 -0.16027139053E+03 -0.11579055880E+04  0.12131599821E+04  0.00000000000E+00 0. -1.
         22    1    5    5    0    0  0.34052483527E+03  0.25810999279E+02 -0.29659732690E+03  0.45231995915E+03  0.00000000000E+00 0. -1.
          5    1    4    4  502    0 -0.71545499108E+02  0.80197748673E+02 -0.14750636912E+03  0.18256685424E+03  0.47000000000E+01 0.  1.
         -5    1    4    4    0  502  0.55558601226E+02  0.54262642582E+02 -0.10931422469E+03  0.13417481980E+03  0.47000000000E+01 0.  1.
<mgrwt>
<rscale>  0 0.10002871E+04</rscale>
<asrwt>0</asrwt>
<pdfrwt beam="1">  1        2 0.28411884E+00 0.10002871E+04</pdfrwt>
<pdfrwt beam="2">  1       -2 0.20838317E-01 0.10002871E+04</pdfrwt>
<totfact> 0.19069706E+02</totfact>
</mgrwt>
</event>
<event>
 9    1  0.4488205E-036  0.9999819E+03  0.7818608E-02  0.8681055E-01
          2   -1    0    0  501    0  0.00000000000E+00  0.00000000000E+00  0.52577189024E+03  0.52577189024E+03  0.00000000000E+00 0.  1.
         -2   -1    0    0    0  501 -0.00000000000E+00 -0.00000000000E+00 -0.47547420733E+03  0.47547420733E+03  0.00000000000E+00 0.  1.
         36    2    1    2    0    0 -0.14210854715E-13 -0.10658141036E-13  0.50297682911E+02  0.10012460976E+04  0.99998194533E+03 0.  0.
         25    2    3    3    0    0  0.48457985736E+02  0.28207535712E+02  0.13640796695E+03  0.19372173183E+03  0.12560706383E+03 0.  0.
         35    2    3    3    0    0 -0.48457985736E+02 -0.28207535712E+02 -0.86110284037E+02  0.80752436573E+03  0.80095991085E+03 0.  0.
         22    1    5    5    0    0  0.83167599381E+02  0.12825305357E+03  0.31900459684E+03  0.35373666497E+03  0.00000000000E+00 0. -1.
         22    1    5    5    0    0 -0.13162558512E+03 -0.15646058928E+03 -0.40511488088E+03  0.45378770076E+03  0.00000000000E+00 0. -1.
          5    1    4    4  502    0  0.78568235606E+02  0.49560242855E+02  0.12291329189E+03  0.15413939354E+03  0.47000000000E+01 0.  1.
         -5    1    4    4    0  502 -0.30110249870E+02 -0.21352707143E+02  0.13494675060E+02  0.39582338291E+02  0.47000000000E+01 0.  1.
<mgrwt>
<rscale>  0 0.99998195E+03</rscale>
<asrwt>0</asrwt>
<pdfrwt beam="1">  1        2 0.80887983E-01 0.99998195E+03</pdfrwt>
<pdfrwt beam="2">  1       -2 0.73149878E-01 0.99998195E+03</pdfrwt>
<totfact> 0.11844063E+02</totfact>
</mgrwt>
</event>
<event>
 9    1  0.4488205E-036  0.1000442E+04  0.7818608E-02  0.8680617E-01
         -1   -1    0    0    0  501 -0.00000000000E+00  0.00000000000E+00  0.33759719864E+03  0.33759719864E+03  0.00000000000E+00 0.  1.
          1   -1    0    0  501    0  0.00000000000E+00 -0.00000000000E+00 -0.74118285778E+03  0.74118285778E+03  0.00000000000E+00 0.  1.
         36    2    1    2    0    0 -0.14210854715E-13  0.00000000000E+00 -0.40358565915E+03  0.10787800564E+04  0.10004424151E+04 0.  0.
         25    2    3    3    0    0  0.91508769890E+02 -0.75059166157E+02 -0.15496352960E+03  0.23166794287E+03  0.12509439179E+03 0.  0.
         35    2    3    3    0    0 -0.91508769890E+02  0.75059166157E+02 -0.24862212954E+03  0.84711211354E+03  0.80111062671E+03 0.  0.
         22    1    5    5    0    0  0.34948701430E+02 -0.32551168338E+03 -0.27310746143E+03  0.42634135764E+03  0.00000000000E+00 0. -1.
         22    1    5    5    0    0 -0.12645747132E+03  0.40057084953E+03  0.24485331883E+02  0.42077075591E+03  0.00000000000E+00 0. -1.
          5    1    4    4  502    0 -0.15759180185E+02 -0.74784855191E+01 -0.84773913337E+02  0.86677482013E+02  0.47000000000E+01 0. -1.
         -5    1    4    4    0  502  0.10726795008E+03 -0.67580680638E+02 -0.70189616264E+02  0.14499046086E+03  0.47000000000E+01 0. -1.
<mgrwt>
<rscale>  0 0.10004424E+04</rscale>
<asrwt>0</asrwt>
<pdfrwt beam="1">  1        1 0.11402813E+00 0.10004424E+04</pdfrwt>
<pdfrwt beam="2">  1       -1 0.51938031E-01 0.10004424E+04</pdfrwt>
<totfact> 0.10664963E+02</totfact>
</mgrwt>
</event>
<event>
 9    1  0.4488205E-036  0.1000045E+04  0.7818608E-02  0.8680995E-01
         -1   -1    0    0    0  501 -0.00000000000E+00  0.00000000000E+00  0.95848740916E+02  0.95848740916E+02  0.00000000000E+00 0. -1.
          1   -1    0    0  501    0  0.00000000000E+00 -0.00000000000E+00 -0.26085134869E+04  0.26085134869E+04  0.00000000000E+00 0. -1.
         36    2    1    2    0    0  0.00000000000E+00  0.14210854715E-13 -0.25126647459E+04  0.27043622278E+04  0.10000454657E+04 0.  0.
         25    2    3    3    0    0  0.52868800674E+02 -0.66626907750E+02 -0.77119622100E+03  0.78588202457E+03  0.12503075758E+03 0.  0.
         35    2    3    3    0    0 -0.52868800674E+02  0.66626907750E+02 -0.17414685249E+04  0.19184802032E+04  0.80038703875E+03 0.  0.
         22    1    5    5    0    0 -0.90026404284E+02 -0.31538297229E+03 -0.12640717234E+04  0.13059282119E+04  0.00000000000E+00 0. -1.
         22    1    5    5    0    0  0.37157603609E+02  0.38200988004E+03 -0.47739680155E+03  0.61255199134E+03  0.00000000000E+00 0. -1.
          5    1    4    4  502    0 -0.89160995098E+00 -0.50341650591E+02 -0.97517600899E+02  0.10984921137E+03  0.47000000000E+01 0.  1.
         -5    1    4    4    0  502  0.53760410625E+02 -0.16285257159E+02 -0.67367862010E+03  0.67603281321E+03  0.47000000000E+01 0.  1.
<mgrwt>
<rscale>  0 0.10000455E+04</rscale>
<asrwt>0</asrwt>
<pdfrwt beam="1">  1        1 0.40130981E+00 0.10000455E+04</pdfrwt>
<pdfrwt beam="2">  1       -1 0.14745959E-01 0.10000455E+04</pdfrwt>
<totfact> 0.39162130E+01</totfact>
</mgrwt>
</event>
<event>
 9    1  0.4488205E-036  0.9995461E+03  0.7818608E-02  0.8681470E-01
         -1   -1    0    0    0  501 -0.00000000000E+00  0.00000000000E+00  0.28898170076E+03  0.28898170076E+03  0.00000000000E+00 0. -1.
          1   -1    0    0  501    0  0.00000000000E+00 -0.00000000000E+00 -0.86432146302E+03  0.86432146302E+03  0.00000000000E+00 0. -1.
         36    2    1    2    0    0  0.00000000000E+00  0.14210854715E-13 -0.57533976226E+03  0.11533031638E+04  0.99954606975E+03 0.  0.
         25    2    3    3    0    0  0.83607578358E+02  0.94058225036E+02 -0.42292170211E+02  0.18213550213E+03  0.12468976148E+03 0.  0.
         35    2    3    3    0    0 -0.83607578358E+02 -0.94058225036E+02 -0.53304759204E+03  0.97116766165E+03  0.80199109397E+03 0.  0.
         22    1    5    5    0    0  0.21887594042E+03 -0.48881484229E+02  0.11686437391E+03  0.25289001302E+03  0.00000000000E+00 0.  1.
         22    1    5    5    0    0 -0.30248351878E+03 -0.45176740807E+02 -0.64991196595E+03  0.71827764864E+03  0.00000000000E+00 0.  1.
          5    1    4    4  502    0  0.96884995309E+02  0.11472447286E+03 -0.45373093677E+02  0.15693697658E+03  0.47000000000E+01 0. -1.
         -5    1    4    4    0  502 -0.13277416952E+02 -0.20666247826E+02  0.30809234655E+01  0.25198525543E+02  0.47000000000E+01 0. -1.
<mgrwt>
<rscale>  0 0.99954607E+03</rscale>
<asrwt>0</asrwt>
<pdfrwt beam="1">  1        1 0.13297253E+00 0.99954607E+03</pdfrwt>
<pdfrwt beam="2">  1       -1 0.44458725E-01 0.99954607E+03</pdfrwt>
<totfact> 0.11046862E+02</totfact>
</mgrwt>
</event>
<event>
 9    1  0.4488205E-036  0.9919568E+03  0.7818608E-02  0.8688735E-01
          2   -1    0    0  501    0  0.00000000000E+00  0.00000000000E+00  0.14929206062E+04  0.14929206062E+04  0.00000000000E+00 0.  1.
         -2   -1    0    0    0  501 -0.00000000000E+00 -0.00000000000E+00 -0.16477404050E+03  0.16477404050E+03  0.00000000000E+00 0.  1.
         36    2    1    2    0    0  0.14210854715E-13  0.00000000000E+00  0.13281465657E+04  0.16576946467E+04  0.99195677410E+03 0.  0.
         25    2    3    3    0    0  0.34643059026E+02  0.96399823234E+02  0.38209560707E+03  0.41499063485E+03  0.12540776139E+03 0.  0.
         35    2    3    3    0    0 -0.34643059026E+02 -0.96399823234E+02  0.94605095861E+03  0.12427040118E+04  0.79925451344E+03 0.  0.
         22    1    5    5    0    0  0.32884432269E+02 -0.76220232084E+02  0.10843285120E+04  0.10875013709E+04  0.00000000000E+00 0. -1.
         22    1    5    5    0    0 -0.67527491295E+02 -0.20179591150E+02 -0.13827755341E+03  0.15520264095E+03  0.00000000000E+00 0. -1.
          5    1    4    4  502    0  0.44009777206E+02  0.86522742699E+02  0.12913211463E+03  0.16161756873E+03  0.47000000000E+01 0. -1.
         -5    1    4    4    0  502 -0.93667181799E+01  0.98770805346E+01  0.25296349244E+03  0.25337306612E+03  0.47000000000E+01 0. -1.
<mgrwt>
<rscale>  0 0.99195677E+03</rscale>
<asrwt>0</asrwt>
<pdfrwt beam="1">  1        2 0.22968008E+00 0.99195677E+03</pdfrwt>
<pdfrwt beam="2">  1       -2 0.25349853E-01 0.99195677E+03</pdfrwt>
<totfact> 0.21401560E+02</totfact>
</mgrwt>
</event>
<event>
 9    1  0.4488205E-036  0.1000445E+04  0.7818608E-02  0.8680615E-01
          2   -1    0    0  501    0  0.00000000000E+00  0.00000000000E+00  0.20526948290E+04  0.20526948290E+04  0.00000000000E+00 0.  1.
         -2   -1    0    0    0  501 -0.00000000000E+00 -0.00000000000E+00 -0.12189947052E+03  0.12189947052E+03  0.00000000000E+00 0.  1.
         36    2    1    2    0    0  0.00000000000E+00 -0.10658141036E-13  0.19307953584E+04  0.21745942995E+04  0.10004447267E+04 0.  0.
         25    2    3    3    0    0  0.13548922789E+03 -0.71142317221E+01  0.34354069059E+03  0.39118261840E+03  0.12882426666E+03 0.  0.
         35    2    3    3    0    0 -0.13548922789E+03  0.71142317221E+01  0.15872546678E+04  0.17834116811E+04  0.80173056597E+03 0.  0.
         22    1    5    5    0    0 -0.85057849084E+02 -0.35104673321E+03  0.38493990398E+03  0.52787060561E+03  0.00000000000E+00 0. -1.
         22    1    5    5    0    0 -0.50431378804E+02  0.35816096493E+03  0.12023147639E+04  0.12555410755E+04  0.00000000000E+00 0. -1.
          5    1    4    4  502    0  0.45488428702E+02 -0.17524074673E+02  0.16324216663E+02  0.51622285775E+02  0.47000000000E+01 0. -1.
         -5    1    4    4    0  502  0.90000799186E+02  0.10409842951E+02  0.32721647392E+03  0.33956033262E+03  0.47000000000E+01 0. -1.
<mgrwt>
<rscale>  0 0.10004447E+04</rscale>
<asrwt>0</asrwt>
<pdfrwt beam="1">  1        2 0.31579918E+00 0.10004447E+04</pdfrwt>
<pdfrwt beam="2">  1       -2 0.18753766E-01 0.10004447E+04</pdfrwt>
<totfact> 0.17475713E+02</totfact>
</mgrwt>
</event>
<event>
 9    1  0.4488205E-036  0.9988377E+03  0.7818608E-02  0.8682146E-01
         -2   -1    0    0    0  501 -0.00000000000E+00  0.00000000000E+00  0.10343734114E+03  0.10343734114E+03  0.00000000000E+00 0. -1.
          2   -1    0    0  501    0  0.00000000000E+00 -0.00000000000E+00 -0.24113068542E+04  0.24113068542E+04  0.00000000000E+00 0. -1.
         36    2    1    2    0    0  0.00000000000E+00  0.00000000000E+00 -0.23078695131E+04  0.25147441953E+04  0.99883766381E+03 0.  0.
         25    2    3    3    0    0  0.39859529391E+02 -0.12720672669E+03 -0.35561732232E+03  0.39984267584E+03  0.12506059368E+03 0.  0.
         35    2    3    3    0    0 -0.39859529391E+02  0.12720672669E+03 -0.19522521907E+04  0.21149015195E+04  0.80234000741E+03 0.  0.
         22    1    5    5    0    0 -0.28344151377E+02  0.11329039465E+03 -0.20308752906E+04  0.20342302107E+04  0.00000000000E+00 0.  1.
         22    1    5    5    0    0 -0.11515378014E+02  0.13916332043E+02  0.78623099831E+02  0.80671308750E+02  0.00000000000E+00 0.  1.
          5    1    4    4  502    0  0.25131456355E+02 -0.13668136661E+03 -0.20244099184E+03  0.24559688771E+03  0.47000000000E+01 0. -1.
         -5    1    4    4    0  502  0.14728073036E+02  0.94746399167E+01 -0.15317633048E+03  0.15424578813E+03  0.47000000000E+01 0. -1.
<mgrwt>
<rscale>  0 0.99883766E+03</rscale>
<asrwt>0</asrwt>
<pdfrwt beam="1">  1        2 0.37097026E+00 0.99883766E+03</pdfrwt>
<pdfrwt beam="2">  1       -2 0.15913438E-01 0.99883766E+03</pdfrwt>
<totfact> 0.14262853E+02</totfact>
</mgrwt>
</event>
<event>
 9    1  0.4488205E-036  0.9995490E+03  0.7818608E-02  0.8681468E-01
         -2   -1    0    0    0  501 -0.00000000000E+00  0.00000000000E+00  0.37980841298E+03  0.37980841298E+03  0.00000000000E+00 0.  1.
          2   -1    0    0  501    0  0.00000000000E+00 -0.00000000000E+00 -0.65763304392E+03  0.65763304392E+03  0.00000000000E+00 0.  1.
         36    2    1    2    0    0  0.14210854715E-13 -0.14210854715E-13 -0.27782463094E+03  0.10374414569E+04  0.99954902377E+03 0.  0.
         25    2    3    3    0    0  0.89964419112E+02 -0.44417342857E+02 -0.15159074735E+03  0.22034617370E+03  0.12452383118E+03 0.  0.
         35    2    3    3    0    0 -0.89964419112E+02  0.44417342857E+02 -0.12623388359E+03  0.81709528319E+03  0.80102634875E+03 0.  0.
         22    1    5    5    0    0 -0.23619195138E+03  0.13313021000E+03  0.27177700098E+03  0.38389194961E+03  0.00000000000E+00 0. -1.
         22    1    5    5    0    0  0.14622753227E+03 -0.88712867145E+02 -0.39801088457E+03  0.43320333358E+03  0.00000000000E+00 0. -1.
          5    1    4    4  502    0 -0.32784583759E+01 -0.11050718303E+01  0.19682364537E+02  0.20529367911E+02  0.47000000000E+01 0. -1.
         -5    1    4    4    0  502  0.93242877488E+02 -0.43312271026E+02 -0.17127311188E+03  0.19981680579E+03  0.47000000000E+01 0. -1.
<mgrwt>
<rscale>  0 0.99954902E+03</rscale>
<asrwt>0</asrwt>
<pdfrwt beam="1">  1        2 0.10117431E+00 0.99954902E+03</pdfrwt>
<pdfrwt beam="2">  1       -2 0.58432064E-01 0.99954902E+03</pdfrwt>
<totfact> 0.14685543E+02</totfact>
</mgrwt>
</event>
<event>
 9    1  0.4488205E-036  0.1000208E+04  0.7818608E-02  0.8680839E-01
          2   -1    0    0  501    0  0.00000000000E+00  0.00000000000E+00  0.27107706659E+04  0.27107706659E+04  0.00000000000E+00 0.  1.
         -2   -1    0    0    0  501 -0.00000000000E+00 -0.00000000000E+00 -0.92263153048E+02  0.92263153048E+02  0.00000000000E+00 0.  1.
         36    2    1    2    0    0  0.00000000000E+00  0.56843418861E-13  0.26185075128E+04  0.28030338189E+04  0.10002084759E+04 0.  0.
         25    2    3    3    0    0 -0.72969905422E+02  0.11720340947E+03  0.57626856957E+03  0.60534292453E+03  0.12366626749E+03 0.  0.
         35    2    3    3    0    0  0.72969905422E+02 -0.11720340947E+03  0.20422389433E+04  0.21976908944E+04  0.80002757432E+03 0.  0.
         22    1    5    5    0    0  0.25347933318E+03  0.25743829175E+03  0.63826787986E+03  0.73342493335E+03  0.00000000000E+00 0. -1.
         22    1    5    5    0    0 -0.18050942775E+03 -0.37464170122E+03  0.14039710634E+04  0.14642659610E+04  0.00000000000E+00 0. -1.
          5    1    4    4  502    0  0.11601164502E+02  0.74524936672E+02  0.37896726730E+03  0.38642830239E+03  0.47000000000E+01 0.  1.
         -5    1    4    4    0  502 -0.84571069923E+02  0.42678472796E+02  0.19730130227E+03  0.21891462214E+03  0.47000000000E+01 0.  1.
<mgrwt>
<rscale>  0 0.10002085E+04</rscale>
<asrwt>0</asrwt>
<pdfrwt beam="1">  1        2 0.41704158E+00 0.10002085E+04</pdfrwt>
<pdfrwt beam="2">  1       -2 0.14194333E-01 0.10002085E+04</pdfrwt>
<totfact> 0.11305614E+02</totfact>
</mgrwt>
</event>
<event>
 9    1  0.4488205E-036  0.1000011E+04  0.7818608E-02  0.8681028E-01
          2   -1    0    0  501    0  0.00000000000E+00  0.00000000000E+00  0.65365131972E+03  0.65365131972E+03  0.00000000000E+00 0.  1.
         -2   -1    0    0    0  501 -0.00000000000E+00 -0.00000000000E+00 -0.38247504397E+03  0.38247504397E+03  0.00000000000E+00 0.  1.
         36    2    1    2    0    0  0.71054273576E-14 -0.14210854715E-13  0.27117627575E+03  0.10361263637E+04  0.10000106345E+04 0.  0.
         25    2    3    3    0    0 -0.28853484725E+01  0.96532034850E+02  0.15612061408E+03  0.22203027458E+03  0.12488810071E+03 0.  0.
         35    2    3    3    0    0  0.28853484725E+01 -0.96532034850E+02  0.11505566167E+03  0.81409608912E+03  0.80011741517E+03 0.  0.
         22    1    5    5    0    0  0.46262532487E+02 -0.15544224280E+03  0.44630805688E+03  0.47486144757E+03  0.00000000000E+00 0. -1.
         22    1    5    5    0    0 -0.43377184015E+02  0.58910207951E+02 -0.33125239521E+03  0.33923464155E+03  0.00000000000E+00 0. -1.
          5    1    4    4  502    0 -0.47204239198E+02  0.78690016354E+02  0.47853470280E+02  0.10359731411E+03  0.47000000000E+01 0.  1.
         -5    1    4    4    0  502  0.44318890726E+02  0.17842018496E+02  0.10826714380E+03  0.11843296047E+03  0.47000000000E+01 0.  1.
<mgrwt>
<rscale>  0 0.10000106E+04</rscale>
<asrwt>0</asrwt>
<pdfrwt beam="1">  1        2 0.10056174E+00 0.10000106E+04</pdfrwt>
<pdfrwt beam="2">  1       -2 0.58842314E-01 0.10000106E+04</pdfrwt>
<totfact> 0.14580337E+02</totfact>
</mgrwt>
</event>
<event>
 9    1  0.4488205E-036  0.1000104E+04  0.7818608E-02  0.8680939E-01
         -2   -1    0    0    0  501 -0.00000000000E+00  0.00000000000E+00  0.10930018805E+04  0.10930018805E+04  0.00000000000E+00 0. -1.
          2   -1    0    0  501    0  0.00000000000E+00 -0.00000000000E+00 -0.22877553677E+03  0.22877553677E+03  0.00000000000E+00 0. -1.
         36    2    1    2    0    0 -0.14210854715E-13 -0.28421709430E-13  0.86422634368E+03  0.13217774172E+04  0.10001041784E+04 0.  0.
         25    2    3    3    0    0  0.84685127986E+02 -0.24153463379E+02  0.18673147393E+02  0.15477149147E+03  0.12589903670E+03 0.  0.
         35    2    3    3    0    0 -0.84685127986E+02  0.24153463379E+02  0.84555319629E+03  0.11670059258E+04  0.79949212774E+03 0.  0.
         22    1    5    5    0    0  0.99442307741E+02  0.35374712984E+03  0.19793776044E+03  0.41737891830E+03  0.00000000000E+00 0. -1.
         22    1    5    5    0    0 -0.18412743573E+03 -0.32959366646E+03  0.64761543585E+03  0.74962700746E+03  0.00000000000E+00 0. -1.
          5    1    4    4  502    0 -0.21127314840E+02 -0.37253492723E+02  0.21199760266E+02  0.48017767417E+02  0.47000000000E+01 0.  1.
         -5    1    4    4    0  502  0.10581244283E+03  0.13100029344E+02 -0.25266128726E+01  0.10675372405E+03  0.47000000000E+01 0.  1.
<mgrwt>
<rscale>  0 0.10001042E+04</rscale>
<asrwt>0</asrwt>
<pdfrwt beam="1">  1        2 0.35196237E-01 0.10001042E+04</pdfrwt>
<pdfrwt beam="2">  1       -2 0.16815413E+00 0.10001042E+04</pdfrwt>
<totfact> 0.36400501E+01</totfact>
</mgrwt>
</event>
<event>
 9    1  0.4488205E-036  0.1000246E+04  0.7818608E-02  0.8680804E-01
          2   -1    0    0  501    0  0.00000000000E+00  0.00000000000E+00  0.12687490888E+04  0.12687490888E+04  0.00000000000E+00 0.  1.
         -2   -1    0    0    0  501 -0.00000000000E+00 -0.00000000000E+00 -0.19714131530E+03  0.19714131530E+03  0.00000000000E+00 0.  1.
         36    2    1    2    0    0  0.00000000000E+00  0.14210854715E-13  0.10716077735E+04  0.14658904041E+04  0.10002456981E+04 0.  0.
         25    2    3    3    0    0 -0.12347540013E+03  0.23775008210E+02  0.10298657857E+03  0.20373570033E+03  0.12284370059E+03 0.  0.
         35    2    3    3    0    0  0.12347540013E+03 -0.23775008210E+02  0.96862119492E+03  0.12621547038E+04  0.79937228594E+03 0.  0.
         22    1    5    5    0    0 -0.60246464930E+02  0.34152820321E+03  0.67458967435E+03  0.75851326875E+03  0.00000000000E+00 0.  1.
         22    1    5    5    0    0  0.18372186506E+03 -0.36530321142E+03  0.29403152056E+03  0.50364143501E+03  0.00000000000E+00 0.  1.
          5    1    4    4  502    0 -0.91560328298E+02  0.52876672193E+02  0.16723365991E+02  0.10714941507E+03  0.47000000000E+01 0.  1.
         -5    1    4    4    0  502 -0.31915071827E+02 -0.29101663984E+02  0.86263212579E+02  0.96586285262E+02  0.47000000000E+01 0.  1.
<mgrwt>
<rscale>  0 0.10002457E+04</rscale>
<asrwt>0</asrwt>
<pdfrwt beam="1">  1        2 0.19519216E+00 0.10002457E+04</pdfrwt>
<pdfrwt beam="2">  1       -2 0.30329434E-01 0.10002457E+04</pdfrwt>
<totfact> 0.20830587E+02</totfact>
</mgrwt>
</event>
<event>
 9    1  0.4488205E-036  0.9998901E+03  0.7818608E-02  0.8681143E-01
         -1   -1    0    0    0  501 -0.00000000000E+00  0.00000000000E+00  0.12514820516E+04  0.12514820516E+04  0.00000000000E+00 0.  1.
          1   -1    0    0  501    0  0.00000000000E+00 -0.00000000000E+00 -0.19971923223E+03  0.19971923223E+03  0.00000000000E+00 0.  1.
         36    2    1    2    0    0  0.00000000000E+00  0.14210854715E-13  0.10517628194E+04  0.14512012839E+04  0.99989006298E+03 0.  0.
         25    2    3    3    0    0 -0.48351488335E+02  0.55023320690E+02  0.23230619381E+02  0.14622905179E+03  0.12440997414E+03 0.  0.
         35    2    3    3    0    0  0.48351488335E+02 -0.55023320690E+02  0.10285322000E+04  0.13049722321E+04  0.79981785913E+03 0.  0.
         22    1    5    5    0    0 -0.21543640126E+02 -0.42507521284E+03  0.51396497224E+03  0.66731780862E+03  0.00000000000E+00 0. -1.
         22    1    5    5    0    0  0.69895128461E+02  0.37005189215E+03  0.51456722779E+03  0.63765442348E+03  0.00000000000E+00 0. -1.
          5    1    4    4  502    0 -0.62014605314E+02  0.55519081109E+02 -0.31878347084E+02  0.89255244397E+02  0.47000000000E+01 0.  1.
         -5    1    4    4    0  502  0.13663116979E+02 -0.49576041881E+00  0.55108966465E+02  0.56973807393E+02  0.47000000000E+01 0.  1.
<mgrwt>
<rscale>  0 0.99989006E+03</rscale>
<asrwt>0</asrwt>
<pdfrwt beam="1">  1        1 0.30726036E-01 0.99989006E+03</pdfrwt>
<pdfrwt beam="2">  1       -1 0.19253570E+00 0.99989006E+03</pdfrwt>
<totfact> 0.26842948E+01</totfact>
</mgrwt>
</event>
<event>
 9    1  0.4488205E-036  0.1000544E+04  0.7818608E-02  0.8680520E-01
          1   -1    0    0  501    0  0.00000000000E+00  0.00000000000E+00  0.66799959296E+03  0.66799959296E+03  0.00000000000E+00 0. -1.
         -1   -1    0    0    0  501 -0.00000000000E+00 -0.00000000000E+00 -0.37465935084E+03  0.37465935084E+03  0.00000000000E+00 0. -1.
         36    2    1    2    0    0  0.00000000000E+00 -0.28421709430E-13  0.29334024212E+03  0.10426589438E+04  0.10005444395E+04 0.  0.
         25    2    3    3    0    0 -0.12432785569E+03 -0.31157111283E+02  0.11679695506E+03  0.21337976413E+03  0.12434312906E+03 0.  0.
         35    2    3    3    0    0  0.12432785569E+03  0.31157111283E+02  0.17654328705E+03  0.82927917967E+03  0.80006764986E+03 0.  0.
         22    1    5    5    0    0  0.19638259489E+03 -0.33750251568E+03 -0.45185351576E+02  0.39308496240E+03  0.00000000000E+00 0. -1.
         22    1    5    5    0    0 -0.72054739195E+02  0.36865962696E+03  0.22172863863E+03  0.43619421727E+03  0.00000000000E+00 0. -1.
          5    1    4    4  502    0 -0.54175656004E+02  0.31064517086E+02  0.10001365150E+03  0.11800350169E+03  0.47000000000E+01 0.  1.
         -5    1    4    4    0  502 -0.70152199687E+02 -0.62221628368E+02  0.16783303561E+02  0.95376262436E+02  0.47000000000E+01 0.  1.
<mgrwt>
<rscale>  0 0.10005444E+04</rscale>
<asrwt>0</asrwt>
<pdfrwt beam="1">  1        1 0.10276917E+00 0.10005444E+04</pdfrwt>
<pdfrwt beam="2">  1       -1 0.57639900E-01 0.10005444E+04</pdfrwt>
<totfact> 0.10287995E+02</totfact>
</mgrwt>
</event>
<event>
 9    1  0.4488205E-036  0.1000002E+04  0.7818608E-02  0.8681036E-01
         -3   -1    0    0    0  501 -0.00000000000E+00  0.00000000000E+00  0.11314567584E+03  0.11314567584E+03  0.00000000000E+00 0.  1.
          3   -1    0    0  501    0  0.00000000000E+00 -0.00000000000E+00 -0.22095504488E+04  0.22095504488E+04  0.00000000000E+00 0.  1.
         36    2    1    2    0    0  0.00000000000E+00 -0.42632564146E-13 -0.20964047729E+04  0.23226961246E+04  0.10000021577E+04 0.  0.
         25    2    3    3    0    0  0.69275359476E+02  0.10015572483E+03 -0.22910241907E+03  0.28806481422E+03  0.12515260332E+03 0.  0.
         35    2    3    3    0    0 -0.69275359476E+02 -0.10015572483E+03 -0.18673023539E+04  0.20346313104E+04  0.79879674754E+03 0.  0.
         22    1    5    5    0    0 -0.15599460296E+02  0.27668729851E+03 -0.14222630574E+04  0.14490104930E+04  0.00000000000E+00 0.  1.
         22    1    5    5    0    0 -0.53675899180E+02 -0.37684302334E+03 -0.44503929642E+03  0.58562081738E+03  0.00000000000E+00 0.  1.
          5    1    4    4  502    0  0.98953566452E+02  0.49863890762E+02 -0.18093559395E+03  0.21222157071E+03  0.47000000000E+01 0. -1.
         -5    1    4    4    0  502 -0.29678206976E+02  0.50291834073E+02 -0.48166825118E+02  0.75843243507E+02  0.47000000000E+01 0. -1.
<mgrwt>
<rscale>  0 0.10000022E+04</rscale>
<asrwt>0</asrwt>
<pdfrwt beam="1">  1        3 0.33993081E+00 0.10000022E+04</pdfrwt>
<pdfrwt beam="2">  1       -3 0.17407029E-01 0.10000022E+04</pdfrwt>
<totfact> 0.36958909E+00</totfact>
</mgrwt>
</event>
<event>
 9    1  0.4488205E-036  0.9972947E+03  0.7818608E-02  0.8683618E-01
         -2   -1    0    0    0  501 -0.00000000000E+00  0.00000000000E+00  0.11914240722E+03  0.11914240722E+03  0.00000000000E+00 0.  1.
          2   -1    0    0  501    0  0.00000000000E+00 -0.00000000000E+00 -0.20869913155E+04  0.20869913155E+04  0.00000000000E+00 0.  1.
         36    2    1    2    0    0 -0.56843418861E-13  0.14210854715E-13 -0.19678489083E+04  0.22061337228E+04  0.99729467898E+03 0.  0.
         25    2    3    3    0    0 -0.74867402452E+02  0.11293841158E+03 -0.38448611469E+03  0.42655816614E+03  0.12554713836E+03 0.  0.
         35    2    3    3    0    0  0.74867402452E+02 -0.11293841158E+03 -0.15833627936E+04  0.17795755566E+04  0.80093146568E+03 0.  0.
         22    1    5    5    0    0  0.43899496625E+03 -0.38735021385E+02 -0.85994340381E+03  0.96629169511E+03  0.00000000000E+00 0. -1.
         22    1    5    5    0    0 -0.36412756380E+03 -0.74203390194E+02 -0.72341938982E+03  0.81328386151E+03  0.00000000000E+00 0. -1.
          5    1    4    4  502    0 -0.10193448952E+03  0.63911672596E+02 -0.31475954203E+03  0.33700296935E+03  0.47000000000E+01 0. -1.
         -5    1    4    4    0  502  0.27067087071E+02  0.49026738983E+02 -0.69726572661E+02  0.89555196795E+02  0.47000000000E+01 0. -1.
<mgrwt>
<rscale>  0 0.99729468E+03</rscale>
<asrwt>0</asrwt>
<pdfrwt beam="1">  1        2 0.32107559E+00 0.99729468E+03</pdfrwt>
<pdfrwt beam="2">  1       -2 0.18329601E-01 0.99729468E+03</pdfrwt>
<totfact> 0.17371972E+02</totfact>
</mgrwt>
</event>
<event>
 9    1  0.4488205E-036  0.1001657E+04  0.7818608E-02  0.8679462E-01
          2   -1    0    0  501    0  0.00000000000E+00  0.00000000000E+00  0.88996346931E+03  0.88996346931E+03  0.00000000000E+00 0. -1.
         -2   -1    0    0    0  501 -0.00000000000E+00 -0.00000000000E+00 -0.28184194847E+03  0.28184194847E+03  0.00000000000E+00 0. -1.
         36    2    1    2    0    0  0.35527136788E-14  0.42632564146E-13  0.60812152084E+03  0.11718054178E+04  0.10016567042E+04 0.  0.
         25    2    3    3    0    0  0.85077778693E+01 -0.88342559758E+02 -0.11582440326E+02  0.15400301951E+03  0.12532352910E+03 0.  0.
         35    2    3    3    0    0 -0.85077778693E+01  0.88342559758E+02  0.61970396117E+03  0.10178023983E+04  0.80250354036E+03 0.  0.
         22    1    5    5    0    0  0.23200829234E+03  0.35243429823E+03  0.46683883740E+03  0.62926646374E+03  0.00000000000E+00 0.  1.
         22    1    5    5    0    0 -0.24051607021E+03 -0.26409173847E+03  0.15286512376E+03  0.38853593453E+03  0.00000000000E+00 0.  1.
          5    1    4    4  502    0  0.17105505681E+02  0.27477237723E+02  0.13005961443E+02  0.35197186685E+02  0.47000000000E+01 0. -1.
         -5    1    4    4    0  502 -0.85977278117E+01 -0.11581979748E+03 -0.24588401769E+02  0.11880583283E+03  0.47000000000E+01 0. -1.
<mgrwt>
<rscale>  0 0.10016567E+04</rscale>
<asrwt>0</asrwt>
<pdfrwt beam="1">  1        2 0.13691746E+00 0.10016567E+04</pdfrwt>
<pdfrwt beam="2">  1       -2 0.43360300E-01 0.10016567E+04</pdfrwt>
<totfact> 0.18176627E+02</totfact>
</mgrwt>
</event>
<event>
 9    1  0.4488205E-036  0.1000504E+04  0.7818608E-02  0.8680558E-01
         -1   -1    0    0    0  501 -0.00000000000E+00  0.00000000000E+00  0.10662270621E+03  0.10662270621E+03  0.00000000000E+00 0.  1.
          1   -1    0    0  501    0  0.00000000000E+00 -0.00000000000E+00 -0.23470814430E+04  0.23470814430E+04  0.00000000000E+00 0.  1.
         36    2    1    2    0    0 -0.56843418861E-13 -0.71054273576E-14 -0.22404587368E+04  0.24537041492E+04  0.10005042231E+04 0.  0.
         25    2    3    3    0    0 -0.12353291062E+03 -0.41838280908E+02 -0.54791435776E+03  0.57691194056E+03  0.12492566578E+03 0.  0.
         35    2    3    3    0    0  0.12353291062E+03  0.41838280908E+02 -0.16925443790E+04  0.18767922086E+04  0.80039471366E+03 0.  0.
         22    1    5    5    0    0 -0.25824625300E+03  0.13227545145E+03 -0.25373067076E+03  0.38544412764E+03  0.00000000000E+00 0. -1.
         22    1    5    5    0    0  0.38177916362E+03 -0.90437170547E+02 -0.14388137082E+04  0.14913480810E+04  0.00000000000E+00 0. -1.
          5    1    4    4  502    0 -0.79303722997E+02  0.36049561601E+02 -0.32816125947E+03  0.33955935209E+03  0.47000000000E+01 0. -1.
         -5    1    4    4    0  502 -0.44229187621E+02 -0.77887842509E+02 -0.21975309829E+03  0.23735258847E+03  0.47000000000E+01 0. -1.
<mgrwt>
<rscale>  0 0.10005042E+04</rscale>
<asrwt>0</asrwt>
<pdfrwt beam="1">  1        1 0.36108943E+00 0.10005042E+04</pdfrwt>
<pdfrwt beam="2">  1       -1 0.16403494E-01 0.10005042E+04</pdfrwt>
<totfact> 0.50301000E+01</totfact>
</mgrwt>
</event>
<event>
 9    1  0.4488205E-036  0.9949429E+03  0.7818608E-02  0.8685869E-01
          2   -1    0    0  501    0  0.00000000000E+00  0.00000000000E+00  0.14993021538E+04  0.14993021538E+04  0.00000000000E+00 0. -1.
         -2   -1    0    0    0  501 -0.00000000000E+00 -0.00000000000E+00 -0.16506200608E+03  0.16506200608E+03  0.00000000000E+00 0. -1.
         36    2    1    2    0    0  0.00000000000E+00  0.00000000000E+00  0.13342401477E+04  0.16643641599E+04  0.99494285509E+03 0.  0.
         25    2    3    3    0    0 -0.30146922292E+02  0.12283803859E+03  0.32132580221E+03  0.36729241144E+03  0.12512163556E+03 0.  0.
         35    2    3    3    0    0  0.30146922292E+02 -0.12283803859E+03  0.10129143455E+04  0.12970717485E+04  0.80025097851E+03 0.  0.
         22    1    5    5    0    0  0.70354336817E+02 -0.30013966838E+03  0.44179331235E+02  0.31142473658E+03  0.00000000000E+00 0. -1.
         22    1    5    5    0    0 -0.40207414525E+02  0.17730162979E+03  0.96873501429E+03  0.98564701188E+03  0.00000000000E+00 0. -1.
          5    1    4    4  502    0  0.41657960316E+02  0.86181205401E+01  0.71737695281E+02  0.83534690899E+02  0.47000000000E+01 0. -1.
         -5    1    4    4    0  502 -0.71804882608E+02  0.11421991805E+03  0.24958810693E+03  0.28375772054E+03  0.47000000000E+01 0. -1.
<mgrwt>
<rscale>  0 0.99494286E+03</rscale>
<asrwt>0</asrwt>
<pdfrwt beam="1">  1        2 0.23066186E+00 0.99494286E+03</pdfrwt>
<pdfrwt beam="2">  1       -2 0.25394156E-01 0.99494286E+03</pdfrwt>
<totfact> 0.21158287E+02</totfact>
</mgrwt>
</event>
<event>
 9    1  0.4488205E-036  0.9975771E+03  0.7818608E-02  0.8683349E-01
         -2   -1    0    0    0  501 -0.00000000000E+00  0.00000000000E+00  0.74820125077E+02  0.74820125077E+02  0.00000000000E+00 0.  1.
          2   -1    0    0  501    0  0.00000000000E+00 -0.00000000000E+00 -0.33251749986E+04  0.33251749986E+04  0.00000000000E+00 0.  1.
         36    2    1    2    0    0  0.00000000000E+00  0.00000000000E+00 -0.32503548735E+04  0.33999951236E+04  0.99757708333E+03 0.  0.
         25    2    3    3    0    0 -0.13162427706E+03  0.17558661104E+02 -0.73265860512E+03  0.75486927506E+03  0.12411983677E+03 0.  0.
         35    2    3    3    0    0  0.13162427706E+03 -0.17558661104E+02 -0.25176962684E+04  0.26451258486E+04  0.80016435699E+03 0.  0.
         22    1    5    5    0    0  0.16887291750E+03 -0.70680073795E+02 -0.25607341203E+04  0.25672695553E+04  0.00000000000E+00 0.  1.
         22    1    5    5    0    0 -0.37248640438E+02  0.53121412692E+02  0.43037851899E+02  0.77856293239E+02  0.00000000000E+00 0.  1.
          5    1    4    4  502    0 -0.12646691568E+03  0.39432701141E+02 -0.71118364181E+03  0.72343146259E+03  0.47000000000E+01 0. -1.
         -5    1    4    4    0  502 -0.51573613750E+01 -0.21874040037E+02 -0.21474963313E+02  0.31437812475E+02  0.47000000000E+01 0. -1.
<mgrwt>
<rscale>  0 0.99757708E+03</rscale>
<asrwt>0</asrwt>
<pdfrwt beam="1">  1        2 0.51156550E+00 0.99757708E+03</pdfrwt>
<pdfrwt beam="2">  1       -2 0.11510786E-01 0.99757708E+03</pdfrwt>
<totfact> 0.61761460E+01</totfact>
</mgrwt>
</event>
<event>
 9    1  0.4488205E-036  0.1000322E+04  0.7818608E-02  0.8680732E-01
          1   -1    0    0  501    0  0.00000000000E+00  0.00000000000E+00  0.18989800795E+04  0.18989800795E+04  0.00000000000E+00 0.  1.
         -1   -1    0    0    0  501 -0.00000000000E+00 -0.00000000000E+00 -0.13173434889E+03  0.13173434889E+03  0.00000000000E+00 0.  1.
         36    2    1    2    0    0 -0.14210854715E-13  0.10658141036E-13  0.17672457306E+04  0.20307144284E+04  0.10003217569E+04 0.  0.
         25    2    3    3    0    0 -0.10781576065E+03  0.31078412633E+02  0.50900724614E+03  0.53579365567E+03  0.12408206501E+03 0.  0.
         35    2    3    3    0    0  0.10781576065E+03 -0.31078412633E+02  0.12582384845E+04  0.14949207728E+04  0.79939597630E+03 0.  0.
         22    1    5    5    0    0 -0.14524169447E+03  0.72349071071E+02 -0.40892974229E+02  0.16733730379E+03  0.00000000000E+00 0. -1.
         22    1    5    5    0    0  0.25305745513E+03 -0.10342748370E+03  0.12991314587E+04  0.13275834690E+04  0.00000000000E+00 0. -1.
          5    1    4    4  502    0  0.65400775334E+01  0.14854580259E+02  0.35236073980E+01  0.17260851019E+02  0.47000000000E+01 0. -1.
         -5    1    4    4    0  502 -0.11435583819E+03  0.16223832374E+02  0.50548363874E+03  0.51853280465E+03  0.47000000000E+01 0. -1.
<mgrwt>
<rscale>  0 0.10003218E+04</rscale>
<asrwt>0</asrwt>
<pdfrwt beam="1">  1        1 0.29215076E+00 0.10003218E+04</pdfrwt>
<pdfrwt beam="2">  1       -1 0.20266824E-01 0.10003218E+04</pdfrwt>
<totfact> 0.73348847E+01</totfact>
</mgrwt>
</event>
<event>
 9    1  0.4488205E-036  0.1000085E+04  0.7818608E-02  0.8680957E-01
          1   -1    0    0  501    0  0.00000000000E+00  0.00000000000E+00  0.10219172920E+04  0.10219172920E+04  0.00000000000E+00 0. -1.
         -1   -1    0    0    0  501 -0.00000000000E+00 -0.00000000000E+00 -0.24468000417E+03  0.24468000417E+03  0.00000000000E+00 0. -1.
         36    2    1    2    0    0  0.00000000000E+00  0.53290705182E-14  0.77723728780E+03  0.12665972961E+04  0.10000854509E+04 0.  0.
         25    2    3    3    0    0  0.60450945548E+02 -0.11824207427E+02  0.29785980839E+03  0.32885012422E+03  0.12501123969E+03 0.  0.
         35    2    3    3    0    0 -0.60450945548E+02  0.11824207427E+02  0.47937747942E+03  0.93774717193E+03  0.80359993902E+03 0.  0.
         22    1    5    5    0    0  0.34939068710E+03  0.13649602230E+03  0.26046344214E+03  0.45666861183E+03  0.00000000000E+00 0.  1.
         22    1    5    5    0    0 -0.40984163265E+03 -0.12467181488E+03  0.21891403728E+03  0.48107856010E+03  0.00000000000E+00 0.  1.
          5    1    4    4  502    0  0.54032693373E+02 -0.45235561052E+01  0.30875256676E+03  0.31351273019E+03  0.47000000000E+01 0.  1.
         -5    1    4    4    0  502  0.64182521755E+01 -0.73006513220E+01 -0.10892758371E+02  0.15337394030E+02  0.47000000000E+01 0.  1.
<mgrwt>
<rscale>  0 0.10000855E+04</rscale>
<asrwt>0</asrwt>
<pdfrwt beam="1">  1        1 0.15721804E+00 0.10000855E+04</pdfrwt>
<pdfrwt beam="2">  1       -1 0.37643078E-01 0.10000855E+04</pdfrwt>
<totfact> 0.11060935E+02</totfact>
</mgrwt>
</event>
<event>
 9    1  0.4488205E-036  0.9992328E+03  0.7818608E-02  0.8681769E-01
          2   -1    0    0  501    0  0.00000000000E+00  0.00000000000E+00  0.16189845114E+04  0.16189845114E+04  0.00000000000E+00 0. -1.
         -2   -1    0    0    0  501 -0.00000000000E+00 -0.00000000000E+00 -0.15418093177E+03  0.15418093177E+03  0.00000000000E+00 0. -1.
         36    2    1    2    0    0 -0.17763568394E-14  0.28421709430E-13  0.14648035796E+04  0.17731654432E+04  0.99923278667E+03 0.  0.
         25    2    3    3    0    0 -0.32481009250E+01 -0.73926908206E+02  0.65393187596E+02  0.15923012671E+03  0.12490887219E+03 0.  0.
         35    2    3    3    0    0  0.32481009250E+01  0.73926908206E+02  0.13994103920E+04  0.16139353165E+04  0.80060103826E+03 0.  0.
         22    1    5    5    0    0  0.21492440071E+03 -0.27020498431E+03  0.94391241293E+03  0.10050740644E+04  0.00000000000E+00 0.  1.
         22    1    5    5    0    0 -0.21167629979E+03  0.34413189252E+03  0.45549797912E+03  0.60886125211E+03  0.00000000000E+00 0.  1.
          5    1    4    4  502    0  0.48116441160E+01 -0.63906992409E+02  0.10177131832E+03  0.12036090241E+03  0.47000000000E+01 0. -1.
         -5    1    4    4    0  502 -0.80597450411E+01 -0.10019915797E+02 -0.36378130720E+02  0.38869224297E+02  0.47000000000E+01 0. -1.
<mgrwt>
<rscale>  0 0.99923279E+03</rscale>
<asrwt>0</asrwt>
<pdfrwt beam="1">  1        2 0.24907453E+00 0.99923279E+03</pdfrwt>
<pdfrwt beam="2">  1       -2 0.23720145E-01 0.99923279E+03</pdfrwt>
<totfact> 0.20431883E+02</totfact>
</mgrwt>
</event>
<event>
 9    1  0.4488205E-036  0.9997065E+03  0.7818608E-02  0.8681317E-01
          1   -1    0    0  501    0  0.00000000000E+00  0.00000000000E+00  0.14130670833E+04  0.14130670833E+04  0.00000000000E+00 0. -1.
         -1   -1    0    0    0  501 -0.00000000000E+00 -0.00000000000E+00 -0.17681630065E+03  0.17681630065E+03  0.00000000000E+00 0. -1.
         36    2    1    2    0    0  0.00000000000E+00 -0.21316282073E-13  0.12362507827E+04  0.15898833840E+04  0.99970654542E+03 0.  0.
         25    2    3    3    0    0 -0.13361445819E+03  0.40194077701E+02  0.20816652345E+03  0.28008521324E+03  0.12508412317E+03 0.  0.
         35    2    3    3    0    0  0.13361445819E+03 -0.40194077701E+02  0.10280842592E+04  0.13097981707E+04  0.79946583207E+03 0.  0.
         22    1    5    5    0    0 -0.22271941216E+03 -0.29765074505E+03  0.45706206921E+03  0.58915671743E+03  0.00000000000E+00 0.  1.
         22    1    5    5    0    0  0.35633387035E+03  0.25745666735E+03  0.57102219000E+03  0.72064145329E+03  0.00000000000E+00 0.  1.
          5    1    4    4  502    0 -0.45491531256E+02  0.57195659819E+02  0.27362047699E+02  0.78176688164E+02  0.47000000000E+01 0. -1.
         -5    1    4    4    0  502 -0.88122926938E+02 -0.17001582118E+02  0.18080447576E+03  0.20190852508E+03  0.47000000000E+01 0. -1.
<mgrwt>
<rscale>  0 0.99970655E+03</rscale>
<asrwt>0</asrwt>
<pdfrwt beam="1">  1        1 0.21739493E+00 0.99970655E+03</pdfrwt>
<pdfrwt beam="2">  1       -1 0.27202509E-01 0.99970655E+03</pdfrwt>
<totfact> 0.98906063E+01</totfact>
</mgrwt>
</event>
<event>
 9    1  0.4488205E-036  0.1001010E+04  0.7818608E-02  0.8680077E-01
          1   -1    0    0  501    0  0.00000000000E+00  0.00000000000E+00  0.69291875018E+03  0.69291875018E+03  0.00000000000E+00 0.  1.
         -1   -1    0    0    0  501 -0.00000000000E+00 -0.00000000000E+00 -0.36152147877E+03  0.36152147877E+03  0.00000000000E+00 0.  1.
         36    2    1    2    0    0  0.00000000000E+00  0.14210854715E-13  0.33139727141E+03  0.10544402289E+04  0.10010095129E+04 0.  0.
         25    2    3    3    0    0  0.12154073592E+03  0.20056084287E+02 -0.10428563141E+02  0.17627096212E+03  0.12565150279E+03 0.  0.
         35    2    3    3    0    0 -0.12154073592E+03 -0.20056084287E+02  0.34182583455E+03  0.87816926682E+03  0.79947605531E+03 0.  0.
         22    1    5    5    0    0  0.96031601196E+02  0.35135737454E+03  0.75483604815E+02  0.37198366586E+03  0.00000000000E+00 0. -1.
         22    1    5    5    0    0 -0.21757233712E+03 -0.37141345883E+03  0.26634222974E+03  0.50618560096E+03  0.00000000000E+00 0. -1.
          5    1    4    4  502    0  0.12009141068E+03 -0.21514582846E+02 -0.35909311711E+02  0.12726504965E+03  0.47000000000E+01 0.  1.
         -5    1    4    4    0  502  0.14493252378E+01  0.41570667134E+02  0.25480748571E+02  0.49005912473E+02  0.47000000000E+01 0.  1.
<mgrwt>
<rscale>  0 0.10010095E+04</rscale>
<asrwt>0</asrwt>
<pdfrwt beam="1">  1        1 0.10660288E+00 0.10010095E+04</pdfrwt>
<pdfrwt beam="2">  1       -1 0.55618689E-01 0.10010095E+04</pdfrwt>
<totfact> 0.10411956E+02</totfact>
</mgrwt>
</event>
<event>
 9    1  0.4488205E-036  0.1000338E+04  0.7818608E-02  0.8680716E-01
          2   -1    0    0  501    0  0.00000000000E+00  0.00000000000E+00  0.15998715597E+04  0.15998715597E+04  0.00000000000E+00 0.  1.
         -2   -1    0    0    0  501 -0.00000000000E+00 -0.00000000000E+00 -0.15636824860E+03  0.15636824860E+03  0.00000000000E+00 0.  1.
         36    2    1    2    0    0  0.00000000000E+00  0.14210854715E-13  0.14435033111E+04  0.17562398083E+04  0.10003381704E+04 0.  0.
         25    2    3    3    0    0 -0.38068115912E+01 -0.10795887945E+03  0.43467105026E+03  0.46497591730E+03  0.12487621978E+03 0.  0.
         35    2    3    3    0    0  0.38068115912E+01  0.10795887945E+03  0.10088322608E+04  0.12912638910E+04  0.79871790652E+03 0.  0.
         22    1    5    5    0    0  0.25701343336E+03 -0.20169389035E+03  0.74114585043E+03  0.80995895077E+03  0.00000000000E+00 0.  1.
         22    1    5    5    0    0 -0.25320662177E+03  0.30965276980E+03  0.26768641040E+03  0.48130494020E+03  0.00000000000E+00 0.  1.
          5    1    4    4  502    0  0.40316174710E+02 -0.41136079193E+02  0.66202333279E+02  0.87877243278E+02  0.47000000000E+01 0. -1.
         -5    1    4    4    0  502 -0.44122986301E+02 -0.66822800260E+02  0.36846871698E+03  0.37709867402E+03  0.47000000000E+01 0. -1.
<mgrwt>
<rscale>  0 0.10003382E+04</rscale>
<asrwt>0</asrwt>
<pdfrwt beam="1">  1        2 0.24613408E+00 0.10003382E+04</pdfrwt>
<pdfrwt beam="2">  1       -2 0.24056655E-01 0.10003382E+04</pdfrwt>
<totfact> 0.20430548E+02</totfact>
</mgrwt>
</event>
<event>
 9    1  0.4488205E-036  0.9996019E+03  0.7818608E-02  0.8681417E-01
          2   -1    0    0  501    0  0.00000000000E+00  0.00000000000E+00  0.57874922039E+03  0.57874922039E+03  0.00000000000E+00 0. -1.
         -2   -1    0    0    0  501 -0.00000000000E+00 -0.00000000000E+00 -0.43162219324E+03  0.43162219324E+03  0.00000000000E+00 0. -1.
         36    2    1    2    0    0  0.00000000000E+00  0.00000000000E+00  0.14712702715E+03  0.10103714136E+04  0.99960193646E+03 0.  0.
         25    2    3    3    0    0  0.93229194330E+02 -0.94393902805E+02  0.13690089609E+02  0.18882372024E+03  0.13366034270E+03 0.  0.
         35    2    3    3    0    0 -0.93229194330E+02  0.94393902805E+02  0.13343693754E+03  0.82154769339E+03  0.79970826222E+03 0.  0.
         22    1    5    5    0    0 -0.32899086609E+03  0.32275459772E+03 -0.15446289593E+02  0.46113350364E+03  0.00000000000E+00 0. -1.
         22    1    5    5    0    0  0.23576167176E+03 -0.22836069492E+03  0.14888322713E+03  0.36041418975E+03  0.00000000000E+00 0. -1.
          5    1    4    4  502    0  0.13558162864E+02 -0.62712140622E+01  0.59413859647E+02  0.61443051879E+02  0.47000000000E+01 0. -1.
         -5    1    4    4    0  502  0.79671031466E+02 -0.88122688742E+02 -0.45723770039E+02  0.12738066836E+03  0.47000000000E+01 0. -1.
<mgrwt>
<rscale>  0 0.99960194E+03</rscale>
<asrwt>0</asrwt>
<pdfrwt beam="1">  1        2 0.89038342E-01 0.99960194E+03</pdfrwt>
<pdfrwt beam="2">  1       -2 0.66403414E-01 0.99960194E+03</pdfrwt>
<totfact> 0.13066119E+02</totfact>
</mgrwt>
</event>
<event>
 9    1  0.4488205E-036  0.9966236E+03  0.7818608E-02  0.8684260E-01
          1   -1    0    0  501    0  0.00000000000E+00  0.00000000000E+00  0.26402534368E+03  0.26402534368E+03  0.00000000000E+00 0.  1.
         -1   -1    0    0    0  501 -0.00000000000E+00 -0.00000000000E+00 -0.94049550042E+03  0.94049550042E+03  0.00000000000E+00 0.  1.
         36    2    1    2    0    0  0.00000000000E+00 -0.21316282073E-13 -0.67647015675E+03  0.12045208441E+04  0.99662359539E+03 0.  0.
         25    2    3    3    0    0  0.31817310461E+02 -0.27308755970E+02  0.30521363346E+02  0.13504771977E+03  0.12469251620E+03 0.  0.
         35    2    3    3    0    0 -0.31817310461E+02  0.27308755970E+02 -0.70699152009E+03  0.10694731243E+04  0.80135987220E+03 0.  0.
         22    1    5    5    0    0 -0.84438506080E+02 -0.36751380700E+03 -0.48209003825E+03  0.61205152122E+03  0.00000000000E+00 0.  1.
         22    1    5    5    0    0  0.52621195619E+02  0.39482256297E+03 -0.22490148184E+03  0.45742160311E+03  0.00000000000E+00 0.  1.
          5    1    4    4  502    0 -0.10232622458E+01  0.36905809541E+02 -0.24198026273E+02  0.44392795801E+02  0.47000000000E+01 0. -1.
         -5    1    4    4    0  502  0.32840572707E+02 -0.64214565511E+02  0.54719389619E+02  0.90654923969E+02  0.47000000000E+01 0. -1.
<mgrwt>
<rscale>  0 0.99662360E+03</rscale>
<asrwt>0</asrwt>
<pdfrwt beam="1">  1        1 0.40619284E-01 0.99662360E+03</pdfrwt>
<pdfrwt beam="2">  1       -1 0.14469161E+00 0.99662360E+03</pdfrwt>
<totfact> 0.47080362E+01</totfact>
</mgrwt>
</event>
<event>
 9    1  0.4488205E-036  0.9999241E+03  0.7818608E-02  0.8681110E-01
          1   -1    0    0  501    0  0.00000000000E+00  0.00000000000E+00  0.51825071150E+03  0.51825071150E+03  0.00000000000E+00 0. -1.
         -1   -1    0    0    0  501 -0.00000000000E+00 -0.00000000000E+00 -0.48231876951E+03  0.48231876951E+03  0.00000000000E+00 0. -1.
         36    2    1    2    0    0 -0.14210854715E-13 -0.14210854715E-13  0.35931941986E+02  0.10005694810E+04  0.99992408805E+03 0.  0.
         25    2    3    3    0    0  0.11287269845E+03  0.48231673602E+02  0.79747118671E+02  0.19233945777E+03  0.12477308878E+03 0.  0.
         35    2    3    3    0    0 -0.11287269845E+03 -0.48231673602E+02 -0.43815176685E+02  0.80823002324E+03  0.79765246841E+03 0.  0.
         22    1    5    5    0    0 -0.14795025083E+03 -0.17586858388E+03  0.33539446598E+03  0.40658145964E+03  0.00000000000E+00 0.  1.
         22    1    5    5    0    0  0.35077552382E+02  0.12763691028E+03 -0.37920964266E+03  0.40164856359E+03  0.00000000000E+00 0.  1.
          5    1    4    4  502    0  0.94642803889E+02 -0.82977221610E+01  0.29869690270E+01  0.95168926153E+02  0.47000000000E+01 0. -1.
         -5    1    4    4    0  502  0.18229894557E+02  0.56529395763E+02  0.76760149644E+02  0.97170531614E+02  0.47000000000E+01 0. -1.
<mgrwt>
<rscale>  0 0.99992409E+03</rscale>
<asrwt>0</asrwt>
<pdfrwt beam="1">  1        1 0.79730879E-01 0.99992409E+03</pdfrwt>
<pdfrwt beam="2">  1       -1 0.74202887E-01 0.99992409E+03</pdfrwt>
<totfact> 0.90777509E+01</totfact>
</mgrwt>
</event>
<event>
 9    1  0.4488205E-036  0.1000858E+04  0.7818608E-02  0.8680221E-01
          3   -1    0    0  501    0  0.00000000000E+00  0.00000000000E+00  0.57623733642E+03  0.57623733642E+03  0.00000000000E+00 0.  1.
         -3   -1    0    0    0  501 -0.00000000000E+00 -0.00000000000E+00 -0.43459393945E+03  0.43459393945E+03  0.00000000000E+00 0.  1.
         36    2    1    2    0    0 -0.14210854715E-13  0.00000000000E+00  0.14164339697E+03  0.10108312759E+04  0.10008581400E+04 0.  0.
         25    2    3    3    0    0  0.98359599868E+02  0.48115051957E+02 -0.62503213954E+02  0.17786105293E+03  0.12545211550E+03 0.  0.
         35    2    3    3    0    0 -0.98359599868E+02 -0.48115051957E+02  0.20414661092E+03  0.83297022295E+03  0.80010867040E+03 0.  0.
         22    1    5    5    0    0 -0.40073754250E+02 -0.22142949212E+02 -0.31076512065E+03  0.31411968451E+03  0.00000000000E+00 0.  1.
         22    1    5    5    0    0 -0.58285845618E+02 -0.25972102745E+02  0.51491173158E+03  0.51885053844E+03  0.00000000000E+00 0.  1.
          5    1    4    4  502    0  0.93915376364E+02 -0.13237558381E+02 -0.75796341796E+01  0.95262121139E+02  0.47000000000E+01 0. -1.
         -5    1    4    4    0  502  0.44442235036E+01  0.61352610338E+02 -0.54923579774E+02  0.82598931791E+02  0.47000000000E+01 0. -1.
<mgrwt>
<rscale>  0 0.10008581E+04</rscale>
<asrwt>0</asrwt>
<pdfrwt beam="1">  1        3 0.88651898E-01 0.10008581E+04</pdfrwt>
<pdfrwt beam="2">  1       -3 0.66860606E-01 0.10008581E+04</pdfrwt>
<totfact> 0.10120567E+01</totfact>
</mgrwt>
</event>
<event>
 9    1  0.4488205E-036  0.9999973E+03  0.7818608E-02  0.8681040E-01
          2   -1    0    0  501    0  0.00000000000E+00  0.00000000000E+00  0.42210068898E+03  0.42210068898E+03  0.00000000000E+00 0.  1.
         -2   -1    0    0    0  501 -0.00000000000E+00 -0.00000000000E+00 -0.59227257856E+03  0.59227257856E+03  0.00000000000E+00 0.  1.
         36    2    1    2    0    0  0.56843418861E-13  0.00000000000E+00 -0.17017188959E+03  0.10143732675E+04  0.99999732694E+03 0.  0.
         25    2    3    3    0    0 -0.70489798914E+02  0.10552145264E+03  0.29735471295E+02  0.18038896102E+03  0.12470922294E+03 0.  0.
         35    2    3    3    0    0  0.70489798914E+02 -0.10552145264E+03 -0.19990736088E+03  0.83398430652E+03  0.79966448081E+03 0.  0.
         22    1    5    5    0    0  0.33400512295E+03  0.14736989837E+03 -0.27998736985E+03  0.46007633755E+03  0.00000000000E+00 0.  1.
         22    1    5    5    0    0 -0.26351532404E+03 -0.25289135101E+03  0.80080008967E+02  0.37390796896E+03  0.00000000000E+00 0.  1.
          5    1    4    4  502    0 -0.54222944482E+02  0.46358853876E+02  0.75288414346E+02  0.10382536480E+03  0.47000000000E+01 0.  1.
         -5    1    4    4    0  502 -0.16266854432E+02  0.59162598766E+02 -0.45552943052E+02  0.76563596222E+02  0.47000000000E+01 0.  1.
<mgrwt>
<rscale>  0 0.99999733E+03</rscale>
<asrwt>0</asrwt>
<pdfrwt beam="1">  1        2 0.64938568E-01 0.99999733E+03</pdfrwt>
<pdfrwt beam="2">  1       -2 0.91118858E-01 0.99999733E+03</pdfrwt>
<totfact> 0.91779527E+01</totfact>
</mgrwt>
</event>
<event>
 9    1  0.4488205E-036  0.1000178E+04  0.7818608E-02  0.8680869E-01
          1   -1    0    0  501    0  0.00000000000E+00  0.00000000000E+00  0.23427943755E+03  0.23427943755E+03  0.00000000000E+00 0. -1.
         -1   -1    0    0    0  501 -0.00000000000E+00 -0.00000000000E+00 -0.10674814164E+04  0.10674814164E+04  0.00000000000E+00 0. -1.
         36    2    1    2    0    0  0.56843418861E-13 -0.71054273576E-14 -0.83320197883E+03  0.13017608539E+04  0.10001778758E+04 0.  0.
         25    2    3    3    0    0 -0.80940773224E+02  0.44447866143E+02 -0.29608001754E+03  0.33368840099E+03  0.12311600463E+03 0.  0.
         35    2    3    3    0    0  0.80940773224E+02 -0.44447866143E+02 -0.53712196129E+03  0.96807245294E+03  0.80008577745E+03 0.  0.
         22    1    5    5    0    0  0.37198817435E+03  0.19632444536E+03 -0.21892177614E+03  0.47417848303E+03  0.00000000000E+00 0. -1.
         22    1    5    5    0    0 -0.29104740112E+03 -0.24077231150E+03 -0.31820018515E+03  0.49389396991E+03  0.00000000000E+00 0. -1.
          5    1    4    4  502    0 -0.71651835559E+02  0.64708392662E+02 -0.11089890349E+03  0.14711158491E+03  0.47000000000E+01 0.  1.
         -5    1    4    4    0  502 -0.92889376647E+01 -0.20260526520E+02 -0.18518111405E+03  0.18657681608E+03  0.47000000000E+01 0.  1.
<mgrwt>
<rscale>  0 0.10001779E+04</rscale>
<asrwt>0</asrwt>
<pdfrwt beam="1">  1        1 0.36042990E-01 0.10001779E+04</pdfrwt>
<pdfrwt beam="2">  1       -1 0.16422791E+00 0.10001779E+04</pdfrwt>
<totfact> 0.37686903E+01</totfact>
</mgrwt>
</event>
<event>
 9    1  0.4488205E-036  0.1000031E+04  0.7818608E-02  0.8681008E-01
         -2   -1    0    0    0  501 -0.00000000000E+00  0.00000000000E+00  0.29621379935E+03  0.29621379935E+03  0.00000000000E+00 0.  1.
          2   -1    0    0  501    0  0.00000000000E+00 -0.00000000000E+00 -0.84403816019E+03  0.84403816019E+03  0.00000000000E+00 0.  1.
         36    2    1    2    0    0 -0.17763568394E-14  0.00000000000E+00 -0.54782436084E+03  0.11402519595E+04  0.10000315000E+04 0.  0.
         25    2    3    3    0    0  0.13469591305E+02  0.42961647972E+01  0.44580443910E+02  0.14399566685E+03  0.13618902000E+03 0.  0.
         35    2    3    3    0    0 -0.13469591305E+02 -0.42961647972E+01 -0.59240480475E+03  0.99625629269E+03  0.80086407156E+03 0.  0.
         22    1    5    5    0    0 -0.17375934552E+02 -0.35638322090E+03 -0.65867410956E+02  0.36283527815E+03  0.00000000000E+00 0.  1.
         22    1    5    5    0    0  0.39063432468E+01  0.35208705611E+03 -0.52653739380E+03  0.63342101454E+03  0.00000000000E+00 0.  1.
          5    1    4    4  502    0  0.56957039013E+02  0.41014429557E+02 -0.18873584917E+01  0.70370020940E+02  0.47000000000E+01 0.  1.
         -5    1    4    4    0  502 -0.43487447708E+02 -0.36718264760E+02  0.46467802402E+02  0.73625645907E+02  0.47000000000E+01 0.  1.
<mgrwt>
<rscale>  0 0.10000315E+04</rscale>
<asrwt>0</asrwt>
<pdfrwt beam="1">  1        2 0.12985202E+00 0.10000315E+04</pdfrwt>
<pdfrwt beam="2">  1       -2 0.45571354E-01 0.10000315E+04</pdfrwt>
<totfact> 0.17707407E+02</totfact>
</mgrwt>
</event>
<event>
 9    1  0.4488205E-036  0.1002116E+04  0.7818608E-02  0.8679026E-01
         -2   -1    0    0    0  501 -0.00000000000E+00  0.00000000000E+00  0.98056292557E+02  0.98056292557E+02  0.00000000000E+00 0. -1.
          2   -1    0    0  501    0  0.00000000000E+00 -0.00000000000E+00 -0.25603559818E+04  0.25603559818E+04  0.00000000000E+00 0. -1.
         36    2    1    2    0    0  0.71054273576E-14  0.00000000000E+00 -0.24622996892E+04  0.26584122743E+04  0.10021157921E+04 0.  0.
         25    2    3    3    0    0 -0.22537619691E+02 -0.96945704314E+02 -0.73931055027E+03  0.75634861622E+03  0.12480675318E+03 0.  0.
         35    2    3    3    0    0  0.22537619691E+02  0.96945704314E+02 -0.17229891390E+04  0.19020636581E+04  0.79952996984E+03 0.  0.
         22    1    5    5    0    0  0.20099346525E+03 -0.16580811982E+03 -0.14783785648E+04  0.15011641771E+04  0.00000000000E+00 0.  1.
         22    1    5    5    0    0 -0.17845584556E+03  0.26275382414E+03 -0.24461057417E+03  0.40089948105E+03  0.00000000000E+00 0.  1.
          5    1    4    4  502    0 -0.59835595203E+02 -0.10441934156E+03 -0.59249494387E+03  0.60461231037E+03  0.47000000000E+01 0.  1.
         -5    1    4    4    0  502  0.37297975512E+02  0.74736372431E+01 -0.14681560640E+03  0.15173630585E+03  0.47000000000E+01 0.  1.
<mgrwt>
<rscale>  0 0.10021158E+04</rscale>
<asrwt>0</asrwt>
<pdfrwt beam="1">  1        2 0.39390090E+00 0.10021158E+04</pdfrwt>
<pdfrwt beam="2">  1       -2 0.15085584E-01 0.10021158E+04</pdfrwt>
<totfact> 0.12668838E+02</totfact>
</mgrwt>
</event>
<event>
 9    1  0.4488205E-036  0.1000775E+04  0.7818608E-02  0.8680300E-01
         -1   -1    0    0    0  501 -0.00000000000E+00  0.00000000000E+00  0.21651255715E+03  0.21651255715E+03  0.00000000000E+00 0.  1.
          1   -1    0    0  501    0  0.00000000000E+00 -0.00000000000E+00 -0.11564580113E+04  0.11564580113E+04  0.00000000000E+00 0.  1.
         36    2    1    2    0    0  0.00000000000E+00 -0.71054273576E-14 -0.93994545416E+03  0.13729705685E+04  0.10007750622E+04 0.  0.
         25    2    3    3    0    0  0.98269517745E+02  0.54900148814E+02 -0.54440710290E+02  0.17591761395E+03  0.12374284426E+03 0.  0.
         35    2    3    3    0    0 -0.98269517745E+02 -0.54900148814E+02 -0.88550474387E+03  0.11970529545E+04  0.79758773813E+03 0.  0.
         22    1    5    5    0    0 -0.30056969576E+03  0.26318357652E+03 -0.61383825293E+03  0.73239684442E+03  0.00000000000E+00 0.  1.
         22    1    5    5    0    0  0.20230017801E+03 -0.31808372533E+03 -0.27166649095E+03  0.46465611009E+03  0.00000000000E+00 0.  1.
          5    1    4    4  502    0  0.94068802089E+02  0.65420739530E+02  0.54278056184E+01  0.11480576536E+03  0.47000000000E+01 0.  1.
         -5    1    4    4    0  502  0.42007156558E+01 -0.10520590716E+02 -0.59868515908E+02  0.61111848590E+02  0.47000000000E+01 0.  1.
<mgrwt>
<rscale>  0 0.10007751E+04</rscale>
<asrwt>0</asrwt>
<pdfrwt beam="1">  1        1 0.17791662E+00 0.10007751E+04</pdfrwt>
<pdfrwt beam="2">  1       -1 0.33309624E-01 0.10007751E+04</pdfrwt>
<totfact> 0.10788119E+02</totfact>
</mgrwt>
</event>
<event>
 9    1  0.4488205E-036  0.1001399E+04  0.7818608E-02  0.8679707E-01
          1   -1    0    0  501    0  0.00000000000E+00  0.00000000000E+00  0.35041517607E+04  0.35041517607E+04  0.00000000000E+00 0.  1.
         -1   -1    0    0    0  501 -0.00000000000E+00 -0.00000000000E+00 -0.71543743890E+02  0.71543743890E+02  0.00000000000E+00 0.  1.
         36    2    1    2    0    0  0.00000000000E+00 -0.71054273576E-14  0.34326080168E+04  0.35756955046E+04  0.10013992932E+04 0.  0.
         25    2    3    3    0    0 -0.13862025613E+03 -0.13795929326E+02  0.77921499271E+03  0.80086347536E+03  0.12165688733E+03 0.  0.
         35    2    3    3    0    0  0.13862025613E+03  0.13795929326E+02  0.26533930241E+04  0.27748320293E+04  0.79987020634E+03 0.  0.
         22    1    5    5    0    0  0.25514524754E+03 -0.67369730241E+02  0.23828427527E+03  0.35555192833E+03  0.00000000000E+00 0. -1.
         22    1    5    5    0    0 -0.11652499141E+03  0.81165659567E+02  0.24151087489E+04  0.24192801009E+04  0.00000000000E+00 0. -1.
          5    1    4    4  502    0 -0.13331723827E+03  0.30210292047E+02  0.64820301781E+03  0.66247670907E+03  0.47000000000E+01 0. -1.
         -5    1    4    4    0  502 -0.53030178611E+01 -0.44006221373E+02  0.13101197489E+03  0.13838676629E+03  0.47000000000E+01 0. -1.
<mgrwt>
<rscale>  0 0.10013993E+04</rscale>
<asrwt>0</asrwt>
<pdfrwt beam="1">  1        1 0.53910014E+00 0.10013993E+04</pdfrwt>
<pdfrwt beam="2">  1       -1 0.11006733E-01 0.10013993E+04</pdfrwt>
<totfact> 0.14006489E+01</totfact>
</mgrwt>
</event>
<event>
 9    1  0.4488205E-036  0.9998706E+03  0.7818608E-02  0.8681161E-01
         -2   -1    0    0    0  501 -0.00000000000E+00  0.00000000000E+00  0.24060421465E+03  0.24060421465E+03  0.00000000000E+00 0. -1.
          2   -1    0    0  501    0  0.00000000000E+00 -0.00000000000E+00 -0.10387819734E+04  0.10387819734E+04  0.00000000000E+00 0. -1.
         36    2    1    2    0    0 -0.14210854715E-13  0.71054273576E-14 -0.79817775873E+03  0.12793861880E+04  0.99987063343E+03 0.  0.
         25    2    3    3    0    0  0.17787035332E+02 -0.19085801367E+02 -0.32625577523E+03  0.35025413338E+03  0.12471760357E+03 0.  0.
         35    2    3    3    0    0 -0.17787035332E+02  0.19085801367E+02 -0.47192198350E+03  0.92913205465E+03  0.79993460360E+03 0.  0.
         22    1    5    5    0    0 -0.29897130115E+03 -0.67233172122E+02  0.68362998928E+02  0.31397075973E+03  0.00000000000E+00 0. -1.
         22    1    5    5    0    0  0.28118426582E+03  0.86318973490E+02 -0.54028498243E+03  0.61516129492E+03  0.00000000000E+00 0. -1.
          5    1    4    4  502    0  0.38601953605E+02 -0.46905030985E+02 -0.75307570233E+02  0.96868534046E+02  0.47000000000E+01 0.  1.
         -5    1    4    4    0  502 -0.20814918274E+02  0.27819229618E+02 -0.25094820499E+03  0.25338559933E+03  0.47000000000E+01 0.  1.
<mgrwt>
<rscale>  0 0.99987063E+03</rscale>
<asrwt>0</asrwt>
<pdfrwt beam="1">  1        2 0.15981261E+00 0.99987063E+03</pdfrwt>
<pdfrwt beam="2">  1       -2 0.37016032E-01 0.99987063E+03</pdfrwt>
<totfact> 0.19769155E+02</totfact>
</mgrwt>
</event>
<event>
 9    1  0.4488205E-036  0.1000704E+04  0.7818608E-02  0.8680367E-01
         -1   -1    0    0    0  501 -0.00000000000E+00  0.00000000000E+00  0.31846135805E+03  0.31846135805E+03  0.00000000000E+00 0.  1.
          1   -1    0    0  501    0  0.00000000000E+00 -0.00000000000E+00 -0.78613092102E+03  0.78613092102E+03  0.00000000000E+00 0.  1.
         36    2    1    2    0    0  0.14210854715E-13  0.42632564146E-13 -0.46766956297E+03  0.11045922791E+04  0.10007043933E+04 0.  0.
         25    2    3    3    0    0 -0.61525460024E+02 -0.69341599038E+02  0.28273822665E+02  0.15924497529E+03  0.12635629592E+03 0.  0.
         35    2    3    3    0    0  0.61525460024E+02  0.69341599038E+02 -0.49594338564E+03  0.94534730379E+03  0.79945484140E+03 0.  0.
         22    1    5    5    0    0 -0.88043285785E+02 -0.34809099303E+03 -0.18623858800E+03  0.40447963021E+03  0.00000000000E+00 0. -1.
         22    1    5    5    0    0  0.14956874581E+03  0.41743259206E+03 -0.30970479764E+03  0.54086767357E+03  0.00000000000E+00 0. -1.
          5    1    4    4  502    0  0.30169159659E+02 -0.15698926257E+02  0.39479003164E+02  0.52319367074E+02  0.47000000000E+01 0. -1.
         -5    1    4    4    0  502 -0.91694619683E+02 -0.53642672781E+02 -0.11205180499E+02  0.10692560821E+03  0.47000000000E+01 0. -1.
<mgrwt>
<rscale>  0 0.10007044E+04</rscale>
<asrwt>0</asrwt>
<pdfrwt beam="1">  1        1 0.12094322E+00 0.10007044E+04</pdfrwt>
<pdfrwt beam="2">  1       -1 0.48994056E-01 0.10007044E+04</pdfrwt>
<totfact> 0.10818323E+02</totfact>
</mgrwt>
</event>
<event>
 9    1  0.4488205E-036  0.9998489E+03  0.7818608E-02  0.8681182E-01
          1   -1    0    0  501    0  0.00000000000E+00  0.00000000000E+00  0.11463483769E+04  0.11463483769E+04  0.00000000000E+00 0. -1.
         -1   -1    0    0    0  501 -0.00000000000E+00 -0.00000000000E+00 -0.21801790318E+03  0.21801790318E+03  0.00000000000E+00 0. -1.
         36    2    1    2    0    0  0.00000000000E+00  0.00000000000E+00  0.92833047368E+03  0.13643662800E+04  0.99984892745E+03 0.  0.
         25    2    3    3    0    0  0.13617573272E+03  0.32611922580E+02  0.17090509783E+03  0.25375795277E+03  0.12480856724E+03 0.  0.
         35    2    3    3    0    0 -0.13617573272E+03 -0.32611922580E+02  0.75742537585E+03  0.11106083273E+04  0.80009392506E+03 0.  0.
         22    1    5    5    0    0 -0.43681630216E+03  0.50250734965E+02  0.22584811294E+03  0.49430859624E+03  0.00000000000E+00 0. -1.
         22    1    5    5    0    0  0.30064056944E+03 -0.82862657545E+02  0.53157726292E+03  0.61629973103E+03  0.00000000000E+00 0. -1.
          5    1    4    4  502    0  0.63652456641E+01 -0.60246309656E+01 -0.18417128638E+02  0.20930675047E+02  0.47000000000E+01 0.  1.
         -5    1    4    4    0  502  0.12981048705E+03  0.38636553546E+02  0.18932222647E+03  0.23282727772E+03  0.47000000000E+01 0.  1.
<mgrwt>
<rscale>  0 0.99984893E+03</rscale>
<asrwt>0</asrwt>
<pdfrwt beam="1">  1        1 0.17636129E+00 0.99984893E+03</pdfrwt>
<pdfrwt beam="2">  1       -1 0.33541216E-01 0.99984893E+03</pdfrwt>
<totfact> 0.10849440E+02</totfact>
</mgrwt>
</event>
<event>
 9    1  0.4488205E-036  0.1000249E+04  0.7818608E-02  0.8680801E-01
          2   -1    0    0  501    0  0.00000000000E+00  0.00000000000E+00  0.95329406429E+03  0.95329406429E+03  0.00000000000E+00 0. -1.
         -2   -1    0    0    0  501 -0.00000000000E+00 -0.00000000000E+00 -0.26237900249E+03  0.26237900249E+03  0.00000000000E+00 0. -1.
         36    2    1    2    0    0  0.14210854715E-13  0.00000000000E+00  0.69091506179E+03  0.12156730668E+04  0.10002486604E+04 0.  0.
         25    2    3    3    0    0  0.17201891430E+02  0.13751282236E+03  0.10544282965E+03  0.21412518949E+03  0.12460226751E+03 0.  0.
         35    2    3    3    0    0 -0.17201891430E+02 -0.13751282236E+03  0.58547223215E+03  0.10015478773E+04  0.80069640596E+03 0.  0.
         22    1    5    5    0    0  0.27022620068E+03  0.18074706275E+03  0.72781739339E+02  0.33314993892E+03  0.00000000000E+00 0. -1.
         22    1    5    5    0    0 -0.28742809211E+03 -0.31825988511E+03  0.51269049281E+03  0.66839793837E+03  0.00000000000E+00 0. -1.
          5    1    4    4  502    0 -0.21665472983E+02  0.27787619910E+01  0.64057143572E+02  0.67841888833E+02  0.47000000000E+01 0. -1.
         -5    1    4    4    0  502  0.38867364413E+02  0.13473406037E+03  0.41385686075E+02  0.14628330066E+03  0.47000000000E+01 0. -1.
<mgrwt>
<rscale>  0 0.10002487E+04</rscale>
<asrwt>0</asrwt>
<pdfrwt beam="1">  1        2 0.14666062E+00 0.10002487E+04</pdfrwt>
<pdfrwt beam="2">  1       -2 0.40366001E-01 0.10002487E+04</pdfrwt>
<totfact> 0.18978429E+02</totfact>
</mgrwt>
</event>
<event>
 9    1  0.4488205E-036  0.9938411E+03  0.7818608E-02  0.8686925E-01
         -1   -1    0    0    0  501 -0.00000000000E+00  0.00000000000E+00  0.47798241767E+03  0.47798241767E+03  0.00000000000E+00 0. -1.
          1   -1    0    0  501    0  0.00000000000E+00 -0.00000000000E+00 -0.51660907505E+03  0.51660907505E+03  0.00000000000E+00 0. -1.
         36    2    1    2    0    0 -0.71054273576E-14 -0.28421709430E-13 -0.38626657375E+02  0.99459149272E+03  0.99384114361E+03 0.  0.
         25    2    3    3    0    0 -0.62574774300E+02  0.27331465777E+02  0.10735918300E+03  0.17861791005E+03  0.12536248328E+03 0.  0.
         35    2    3    3    0    0  0.62574774300E+02 -0.27331465777E+02 -0.14598584038E+03  0.81597358267E+03  0.79989900027E+03 0.  0.
         22    1    5    5    0    0 -0.74340170850E+02  0.37019203467E+03 -0.24706221199E+02  0.37839001163E+03  0.00000000000E+00 0. -1.
         22    1    5    5    0    0  0.13691494515E+03 -0.39752350045E+03 -0.12127961918E+03  0.43758357104E+03  0.00000000000E+00 0. -1.
          5    1    4    4  502    0 -0.23875015520E+02  0.48227935274E+02 -0.84257537918E+01  0.54672053499E+02  0.47000000000E+01 0. -1.
         -5    1    4    4    0  502 -0.38699758780E+02 -0.20896469497E+02  0.11578493679E+03  0.12394585655E+03  0.47000000000E+01 0. -1.
<mgrwt>
<rscale>  0 0.99384114E+03</rscale>
<asrwt>0</asrwt>
<pdfrwt beam="1">  1        1 0.79478319E-01 0.99384114E+03</pdfrwt>
<pdfrwt beam="2">  1       -1 0.73535757E-01 0.99384114E+03</pdfrwt>
<totfact> 0.92914231E+01</totfact>
</mgrwt>
</event>
<event>
 9    1  0.4488205E-036  0.1006025E+04  0.7818608E-02  0.8675321E-01
          1   -1    0    0  501    0  0.00000000000E+00  0.00000000000E+00  0.31257945994E+03  0.31257945994E+03  0.00000000000E+00 0. -1.
         -1   -1    0    0    0  501 -0.00000000000E+00 -0.00000000000E+00 -0.80946377241E+03  0.80946377241E+03  0.00000000000E+00 0. -1.
         36    2    1    2    0    0 -0.28421709430E-13  0.71054273576E-14 -0.49688431248E+03  0.11220432324E+04  0.10060253452E+04 0.  0.
         25    2    3    3    0    0 -0.11471023930E+03 -0.50560544712E+02 -0.17903422515E+03  0.25207251044E+03  0.12558857058E+03 0.  0.
         35    2    3    3    0    0  0.11471023930E+03  0.50560544712E+02 -0.31785008732E+03  0.86997072192E+03  0.80006597934E+03 0.  0.
         22    1    5    5    0    0 -0.24506358189E+03 -0.18361860169E+03  0.42936595129E+02  0.30921756298E+03  0.00000000000E+00 0.  1.
         22    1    5    5    0    0  0.35977382119E+03  0.23417914640E+03 -0.36078668245E+03  0.56075315894E+03  0.00000000000E+00 0.  1.
          5    1    4    4  502    0 -0.39281021892E+02  0.42001589897E+02 -0.52107846703E+02  0.77746060497E+02  0.47000000000E+01 0.  1.
         -5    1    4    4    0  502 -0.75429217407E+02 -0.92562134609E+02 -0.12692637845E+03  0.17432644994E+03  0.47000000000E+01 0.  1.
<mgrwt>
<rscale>  0 0.10060253E+04</rscale>
<asrwt>0</asrwt>
<pdfrwt beam="1">  1        1 0.48089148E-01 0.10060253E+04</pdfrwt>
<pdfrwt beam="2">  1       -1 0.12453289E+00 0.10060253E+04</pdfrwt>
<totfact> 0.56308114E+01</totfact>
</mgrwt>
</event>
<event>
 9    1  0.4488205E-036  0.1000978E+04  0.7818608E-02  0.8680107E-01
         -2   -1    0    0    0  501 -0.00000000000E+00  0.00000000000E+00  0.20229389519E+03  0.20229389519E+03  0.00000000000E+00 0.  1.
          2   -1    0    0  501    0  0.00000000000E+00 -0.00000000000E+00 -0.12382438938E+04  0.12382438938E+04  0.00000000000E+00 0.  1.
         36    2    1    2    0    0  0.28421709430E-13  0.00000000000E+00 -0.10359499986E+04  0.14405377890E+04  0.10009778828E+04 0.  0.
         25    2    3    3    0    0 -0.12034142927E+03  0.29535301895E+02 -0.97273666130E+02  0.20126046361E+03  0.12525659436E+03 0.  0.
         35    2    3    3    0    0  0.12034142927E+03 -0.29535301895E+02 -0.93867633243E+03  0.12392773253E+04  0.79958779280E+03 0.  0.
         22    1    5    5    0    0 -0.33488422274E+03  0.67522411531E+02 -0.44126434412E+03  0.55805101925E+03  0.00000000000E+00 0. -1.
         22    1    5    5    0    0  0.45522565202E+03 -0.97057713426E+02 -0.49741198832E+03  0.68122630609E+03  0.00000000000E+00 0. -1.
          5    1    4    4  502    0 -0.79987525457E+02  0.96737078582E+01  0.13300931839E+02  0.81796024599E+02  0.47000000000E+01 0.  1.
         -5    1    4    4    0  502 -0.40353903818E+02  0.19861594037E+02 -0.11057459797E+03  0.11946443901E+03  0.47000000000E+01 0.  1.
<mgrwt>
<rscale>  0 0.10009779E+04</rscale>
<asrwt>0</asrwt>
<pdfrwt beam="1">  1        2 0.19049906E+00 0.10009779E+04</pdfrwt>
<pdfrwt beam="2">  1       -2 0.31122137E-01 0.10009779E+04</pdfrwt>
<totfact> 0.20702948E+02</totfact>
</mgrwt>
</event>
<event>
 9    1  0.4488205E-036  0.9999555E+03  0.7818608E-02  0.8681080E-01
         -2   -1    0    0    0  501 -0.00000000000E+00  0.00000000000E+00  0.96982914908E+02  0.96982914908E+02  0.00000000000E+00 0.  1.
          2   -1    0    0  501    0  0.00000000000E+00 -0.00000000000E+00 -0.25775444236E+04  0.25775444236E+04  0.00000000000E+00 0.  1.
         36    2    1    2    0    0  0.14210854715E-13  0.00000000000E+00 -0.24805615087E+04  0.26745273385E+04  0.99995554202E+03 0.  0.
         25    2    3    3    0    0  0.89103551271E+02 -0.26611740077E+02 -0.18622308972E+03  0.24296810374E+03  0.12532690347E+03 0.  0.
         35    2    3    3    0    0 -0.89103551271E+02  0.26611740077E+02 -0.22943384190E+04  0.24315592348E+04  0.79990243395E+03 0.  0.
         22    1    5    5    0    0 -0.23763261799E+03  0.66972996331E+02 -0.16564683338E+03  0.29731047203E+03  0.00000000000E+00 0. -1.
         22    1    5    5    0    0  0.14852906672E+03 -0.40361256254E+02 -0.21286915856E+04  0.21342487627E+04  0.00000000000E+00 0. -1.
          5    1    4    4  502    0  0.55936841491E+02 -0.28764637031E+01 -0.19330157142E+03  0.20130770425E+03  0.47000000000E+01 0.  1.
         -5    1    4    4    0  502  0.33166709780E+02 -0.23735276374E+02  0.70784817017E+01  0.41660399486E+02  0.47000000000E+01 0.  1.
<mgrwt>
<rscale>  0 0.99995554E+03</rscale>
<asrwt>0</asrwt>
<pdfrwt beam="1">  1        2 0.39654523E+00 0.99995554E+03</pdfrwt>
<pdfrwt beam="2">  1       -2 0.14920451E-01 0.99995554E+03</pdfrwt>
<totfact> 0.12594956E+02</totfact>
</mgrwt>
</event>
<event>
 9    1  0.4488205E-036  0.9985178E+03  0.7818608E-02  0.8682451E-01
         -1   -1    0    0    0  501 -0.00000000000E+00  0.00000000000E+00  0.12175738270E+04  0.12175738270E+04  0.00000000000E+00 0. -1.
          1   -1    0    0  501    0  0.00000000000E+00 -0.00000000000E+00 -0.20471815333E+03  0.20471815333E+03  0.00000000000E+00 0. -1.
         36    2    1    2    0    0  0.00000000000E+00  0.00000000000E+00  0.10128556737E+04  0.14222919803E+04  0.99851783240E+03 0.  0.
         25    2    3    3    0    0 -0.83306702459E+02 -0.84925194589E+02  0.28948095839E+03  0.33726663763E+03  0.12568716816E+03 0.  0.
         35    2    3    3    0    0  0.83306702459E+02  0.84925194589E+02  0.72337471528E+03  0.10850253427E+04  0.79991044513E+03 0.  0.
         22    1    5    5    0    0  0.42789459560E+03  0.33617191558E+02  0.54472153730E+03  0.69350230981E+03  0.00000000000E+00 0. -1.
         22    1    5    5    0    0 -0.34458789314E+03  0.51308003031E+02  0.17865317798E+03  0.39152303288E+03  0.00000000000E+00 0. -1.
          5    1    4    4  502    0  0.28196619576E+02 -0.45607348258E+02  0.10708964712E+03  0.11985558848E+03  0.47000000000E+01 0. -1.
         -5    1    4    4    0  502 -0.11150332204E+03 -0.39317846331E+02  0.18239131127E+03  0.21741104915E+03  0.47000000000E+01 0. -1.
<mgrwt>
<rscale>  0 0.99851783E+03</rscale>
<asrwt>0</asrwt>
<pdfrwt beam="1">  1        1 0.31495101E-01 0.99851783E+03</pdfrwt>
<pdfrwt beam="2">  1       -1 0.18731905E+00 0.99851783E+03</pdfrwt>
<totfact> 0.28768869E+01</totfact>
</mgrwt>
</event>
<event>
 9    1  0.4488205E-036  0.1002875E+04  0.7818608E-02  0.8678305E-01
          2   -1    0    0  501    0  0.00000000000E+00  0.00000000000E+00  0.10951368488E+04  0.10951368488E+04  0.00000000000E+00 0.  1.
         -2   -1    0    0    0  501 -0.00000000000E+00 -0.00000000000E+00 -0.22959664253E+03  0.22959664253E+03  0.00000000000E+00 0.  1.
         36    2    1    2    0    0  0.00000000000E+00 -0.71054273576E-14  0.86554020627E+03  0.13247334913E+04  0.10028753534E+04 0.  0.
         25    2    3    3    0    0  0.12272803073E+03 -0.29758697123E+02  0.25291779299E+03  0.30912521990E+03  0.12507294666E+03 0.  0.
         35    2    3    3    0    0 -0.12272803073E+03  0.29758697123E+02  0.61262241328E+03  0.10156082714E+04  0.80012885847E+03 0.  0.
         22    1    5    5    0    0 -0.41550634546E+03 -0.17255947822E+03  0.29015751239E+03  0.53536312782E+03  0.00000000000E+00 0.  1.
         22    1    5    5    0    0  0.29277831473E+03  0.20231817534E+03  0.32246490089E+03  0.48024514361E+03  0.00000000000E+00 0.  1.
          5    1    4    4  502    0  0.90783350165E+01  0.33034575989E+02  0.11305311085E+03  0.11822349703E+03  0.47000000000E+01 0.  1.
         -5    1    4    4    0  502  0.11364969571E+03 -0.62793273112E+02  0.13986468214E+03  0.19090172287E+03  0.47000000000E+01 0.  1.
<mgrwt>
<rscale>  0 0.10028754E+04</rscale>
<asrwt>0</asrwt>
<pdfrwt beam="1">  1        2 0.16848259E+00 0.10028754E+04</pdfrwt>
<pdfrwt beam="2">  1       -2 0.35322561E-01 0.10028754E+04</pdfrwt>
<totfact> 0.19934094E+02</totfact>
</mgrwt>
</event>
<event>
 9    1  0.4488205E-036  0.9998019E+03  0.7818608E-02  0.8681227E-01
          2   -1    0    0  501    0  0.00000000000E+00  0.00000000000E+00  0.95597732296E+03  0.95597732296E+03  0.00000000000E+00 0. -1.
         -2   -1    0    0    0  501 -0.00000000000E+00 -0.00000000000E+00 -0.26140889668E+03  0.26140889668E+03  0.00000000000E+00 0. -1.
         36    2    1    2    0    0  0.28421709430E-13  0.21316282073E-13  0.69456842629E+03  0.12173862196E+04  0.99980193488E+03 0.  0.
         25    2    3    3    0    0 -0.89772970309E+02 -0.81394867065E+01  0.25348098907E+03  0.29648118140E+03  0.12459149914E+03 0.  0.
         35    2    3    3    0    0  0.89772970309E+02  0.81394867065E+01  0.44108743721E+03  0.92090503825E+03  0.80335703443E+03 0.  0.
         22    1    5    5    0    0  0.29161436590E+03  0.32154096382E+03  0.20889297205E+03  0.48173001109E+03  0.00000000000E+00 0. -1.
         22    1    5    5    0    0 -0.20184139559E+03 -0.31340147711E+03  0.23219446517E+03  0.43917502716E+03  0.00000000000E+00 0. -1.
          5    1    4    4  502    0 -0.10040152916E+03  0.13254762579E+02  0.25252448347E+03  0.27211552793E+03  0.47000000000E+01 0. -1.
         -5    1    4    4    0  502  0.10628558852E+02 -0.21394249285E+02  0.95650560236E+00  0.24365653464E+02  0.47000000000E+01 0. -1.
<mgrwt>
<rscale>  0 0.99980193E+03</rscale>
<asrwt>0</asrwt>
<pdfrwt beam="1">  1        2 0.14707343E+00 0.99980193E+03</pdfrwt>
<pdfrwt beam="2">  1       -2 0.40216754E-01 0.99980193E+03</pdfrwt>
<totfact> 0.19038220E+02</totfact>
</mgrwt>
</event>
<event>
 9    1  0.4488205E-036  0.1000521E+04  0.7818608E-02  0.8680542E-01
         -2   -1    0    0    0  501 -0.00000000000E+00  0.00000000000E+00  0.11318815560E+03  0.11318815560E+03  0.00000000000E+00 0. -1.
          2   -1    0    0  501    0  0.00000000000E+00 -0.00000000000E+00 -0.22110118536E+04  0.22110118536E+04  0.00000000000E+00 0. -1.
         36    2    1    2    0    0  0.00000000000E+00  0.28421709430E-13 -0.20978236980E+04  0.23242000092E+04  0.10005205719E+04 0.  0.
         25    2    3    3    0    0  0.38338976588E+02  0.81349824588E+02 -0.14176074715E+03  0.20899748664E+03  0.12448360897E+03 0.  0.
         35    2    3    3    0    0 -0.38338976588E+02 -0.81349824588E+02 -0.19560629509E+04  0.21152025226E+04  0.79988234926E+03 0.  0.
         22    1    5    5    0    0 -0.15071798734E+03 -0.67995555546E+02 -0.19901530066E+04  0.19970098390E+04  0.00000000000E+00 0.  1.
         22    1    5    5    0    0  0.11237901075E+03 -0.13354269042E+02  0.34090055722E+02  0.11819268361E+03  0.00000000000E+00 0.  1.
          5    1    4    4  502    0  0.42475521345E+02  0.23249915501E+01  0.40929108583E+01  0.42993225264E+02  0.47000000000E+01 0.  1.
         -5    1    4    4    0  502 -0.41365447570E+01  0.79024833038E+02 -0.14585365801E+03  0.16600426137E+03  0.47000000000E+01 0.  1.
<mgrwt>
<rscale>  0 0.10005206E+04</rscale>
<asrwt>0</asrwt>
<pdfrwt beam="1">  1        2 0.34015567E+00 0.10005206E+04</pdfrwt>
<pdfrwt beam="2">  1       -2 0.17413562E-01 0.10005206E+04</pdfrwt>
<totfact> 0.16076272E+02</totfact>
</mgrwt>
</event>
<event>
 9    1  0.4488205E-036  0.9999805E+03  0.7818608E-02  0.8681056E-01
         -1   -1    0    0    0  501 -0.00000000000E+00  0.00000000000E+00  0.94595039001E+03  0.94595039001E+03  0.00000000000E+00 0. -1.
          1   -1    0    0  501    0  0.00000000000E+00 -0.00000000000E+00 -0.26427418130E+03  0.26427418130E+03  0.00000000000E+00 0. -1.
         36    2    1    2    0    0 -0.14210854715E-13  0.00000000000E+00  0.68167620872E+03  0.12102245713E+04  0.99998052955E+03 0.  0.
         25    2    3    3    0    0 -0.59149343411E+02  0.11784765889E+03  0.19314055774E+03  0.26473186344E+03  0.12406840430E+03 0.  0.
         35    2    3    3    0    0  0.59149343411E+02 -0.11784765889E+03  0.48853565098E+03  0.94549270787E+03  0.79868808857E+03 0.  0.
         22    1    5    5    0    0 -0.77049719411E+02  0.32312712745E+03  0.29770647191E+03  0.44606831671E+03  0.00000000000E+00 0. -1.
         22    1    5    5    0    0  0.13619906282E+03 -0.44097478634E+03  0.19082917907E+03  0.49942439116E+03  0.00000000000E+00 0. -1.
          5    1    4    4  502    0 -0.61621853242E+01  0.14463067252E+02 -0.17589744916E+02  0.24054978040E+02  0.47000000000E+01 0.  1.
         -5    1    4    4    0  502 -0.52987158087E+02  0.10338459164E+03  0.21073030266E+03  0.24067688540E+03  0.47000000000E+01 0.  1.
<mgrwt>
<rscale>  0 0.99998053E+03</rscale>
<asrwt>0</asrwt>
<pdfrwt beam="1">  1        1 0.40657567E-01 0.99998053E+03</pdfrwt>
<pdfrwt beam="2">  1       -1 0.14553083E+00 0.99998053E+03</pdfrwt>
<totfact> 0.46240581E+01</totfact>
</mgrwt>
</event>
<event>
 9    1  0.4488205E-036  0.1001308E+04  0.7818608E-02  0.8679793E-01
          2   -1    0    0  501    0  0.00000000000E+00  0.00000000000E+00  0.27924184737E+03  0.27924184737E+03  0.00000000000E+00 0.  1.
         -2   -1    0    0    0  501 -0.00000000000E+00 -0.00000000000E+00 -0.89762571752E+03  0.89762571752E+03  0.00000000000E+00 0.  1.
         36    2    1    2    0    0  0.00000000000E+00  0.14210854715E-13 -0.61838387015E+03  0.11768675649E+04  0.10013084712E+04 0.  0.
         25    2    3    3    0    0 -0.98807257372E+02 -0.65672720159E+02 -0.20862897904E+03  0.27019466856E+03  0.12411014358E+03 0.  0.
         35    2    3    3    0    0  0.98807257372E+02  0.65672720159E+02 -0.40975489111E+03  0.90667289633E+03  0.80005055457E+03 0.  0.
         22    1    5    5    0    0  0.63778964049E+02  0.25872017420E+03 -0.58549173969E+03  0.64327634967E+03  0.00000000000E+00 0.  1.
         22    1    5    5    0    0  0.35028293323E+02 -0.19304745404E+03  0.17573684858E+03  0.26339654666E+03  0.00000000000E+00 0.  1.
          5    1    4    4  502    0 -0.37697669232E+02 -0.44316661376E+02 -0.74977126751E+01  0.58850543213E+02  0.47000000000E+01 0.  1.
         -5    1    4    4    0  502 -0.61109588140E+02 -0.21356058782E+02 -0.20113126636E+03  0.21134412535E+03  0.47000000000E+01 0.  1.
<mgrwt>
<rscale>  0 0.10013085E+04</rscale>
<asrwt>0</asrwt>
<pdfrwt beam="1">  1        2 0.42960284E-01 0.10013085E+04</pdfrwt>
<pdfrwt beam="2">  1       -2 0.13809627E+00 0.10013085E+04</pdfrwt>
<totfact> 0.50669264E+01</totfact>
</mgrwt>
</event>
<event>
 9    1  0.4488205E-036  0.9999435E+03  0.7818608E-02  0.8681092E-01
         -1   -1    0    0    0  501 -0.00000000000E+00  0.00000000000E+00  0.38912553091E+03  0.38912553091E+03  0.00000000000E+00 0.  1.
          1   -1    0    0  501    0  0.00000000000E+00 -0.00000000000E+00 -0.64239358703E+03  0.64239358703E+03  0.00000000000E+00 0.  1.
         36    2    1    2    0    0  0.00000000000E+00  0.71054273576E-14 -0.25326805611E+03  0.10315191179E+04  0.99994348962E+03 0.  0.
         25    2    3    3    0    0  0.13781130044E+03  0.17340978766E+02 -0.32225899740E+02  0.18993721183E+03  0.12547896936E+03 0.  0.
         35    2    3    3    0    0 -0.13781130044E+03 -0.17340978766E+02 -0.22104215637E+03  0.84158190611E+03  0.80006737574E+03 0.  0.
         22    1    5    5    0    0  0.32437354435E+03  0.58405248700E+02 -0.16887425147E+03  0.37033482439E+03  0.00000000000E+00 0. -1.
         22    1    5    5    0    0 -0.46218484478E+03 -0.75746227466E+02 -0.52167904900E+02  0.47124708172E+03  0.00000000000E+00 0. -1.
          5    1    4    4  502    0  0.89189580902E+02  0.68542083351E+02 -0.38281805867E+02  0.11891335161E+03  0.47000000000E+01 0. -1.
         -5    1    4    4    0  502  0.48621719535E+02 -0.51201104585E+02  0.60559061268E+01  0.71023860219E+02  0.47000000000E+01 0. -1.
<mgrwt>
<rscale>  0 0.99994349E+03</rscale>
<asrwt>0</asrwt>
<pdfrwt beam="1">  1        1 0.98829783E-01 0.99994349E+03</pdfrwt>
<pdfrwt beam="2">  1       -1 0.59865466E-01 0.99994349E+03</pdfrwt>
<totfact> 0.10148658E+02</totfact>
</mgrwt>
</event>
<event>
 9    1  0.4488205E-036  0.1000407E+04  0.7818608E-02  0.8680650E-01
          2   -1    0    0  501    0  0.00000000000E+00  0.00000000000E+00  0.16186439696E+03  0.16186439696E+03  0.00000000000E+00 0.  1.
         -2   -1    0    0    0  501 -0.00000000000E+00 -0.00000000000E+00 -0.15457603901E+04  0.15457603901E+04  0.00000000000E+00 0.  1.
         36    2    1    2    0    0 -0.14210854715E-13  0.00000000000E+00 -0.13838959932E+04  0.17076247871E+04  0.10004070639E+04 0.  0.
         25    2    3    3    0    0  0.94538664182E+02  0.81593688553E+02 -0.36813111177E+03  0.40834204539E+03  0.12501048573E+03 0.  0.
         35    2    3    3    0    0 -0.94538664182E+02 -0.81593688553E+02 -0.10157648814E+04  0.12992827417E+04  0.80047627045E+03 0.  0.
         22    1    5    5    0    0  0.17397505050E+03  0.27086074883E+03 -0.64760641356E+03  0.72320600822E+03  0.00000000000E+00 0. -1.
         22    1    5    5    0    0 -0.26851371468E+03 -0.35245443738E+03 -0.36815846783E+03  0.57607673347E+03  0.00000000000E+00 0. -1.
          5    1    4    4  502    0 -0.64263169101E+01  0.60523876584E+02 -0.70209745953E+02  0.93037280767E+02  0.47000000000E+01 0.  1.
         -5    1    4    4    0  502  0.10096498109E+03  0.21069811970E+02 -0.29792136581E+03  0.31530476462E+03  0.47000000000E+01 0.  1.
<mgrwt>
<rscale>  0 0.10004071E+04</rscale>
<asrwt>0</asrwt>
<pdfrwt beam="1">  1        2 0.24902215E-01 0.10004071E+04</pdfrwt>
<pdfrwt beam="2">  1       -2 0.23780929E+00 0.10004071E+04</pdfrwt>
<totfact> 0.18066374E+01</totfact>
</mgrwt>
</event>
<event>
 9    1  0.4488205E-036  0.1000892E+04  0.7818608E-02  0.8680189E-01
          1   -1    0    0  501    0  0.00000000000E+00  0.00000000000E+00  0.14593970818E+04  0.14593970818E+04  0.00000000000E+00 0. -1.
         -1   -1    0    0    0  501 -0.00000000000E+00 -0.00000000000E+00 -0.17160945992E+03  0.17160945992E+03  0.00000000000E+00 0. -1.
         36    2    1    2    0    0  0.10658141036E-13  0.28421709430E-13  0.12877876219E+04  0.16310065417E+04  0.10008922920E+04 0.  0.
         25    2    3    3    0    0  0.11504072921E+02  0.14130721189E+03  0.24210776115E+03  0.30709621032E+03  0.12486729978E+03 0.  0.
         35    2    3    3    0    0 -0.11504072921E+02 -0.14130721189E+03  0.10456798607E+04  0.13239103314E+04  0.79949491722E+03 0.  0.
         22    1    5    5    0    0 -0.13270390035E+03 -0.45545902384E+03  0.64123758881E+03  0.79764584426E+03  0.00000000000E+00 0.  1.
         22    1    5    5    0    0  0.12119982743E+03  0.31415181195E+03  0.40444227191E+03  0.52626448715E+03  0.00000000000E+00 0.  1.
          5    1    4    4  502    0 -0.23647721827E+02  0.52640639072E+02  0.18933186687E+03  0.19798711433E+03  0.47000000000E+01 0.  1.
         -5    1    4    4    0  502  0.35151794748E+02  0.88666572817E+02  0.52775894285E+02  0.10910909599E+03  0.47000000000E+01 0.  1.
<mgrwt>
<rscale>  0 0.10008923E+04</rscale>
<asrwt>0</asrwt>
<pdfrwt beam="1">  1        1 0.22452262E+00 0.10008923E+04</pdfrwt>
<pdfrwt beam="2">  1       -1 0.26401456E-01 0.10008923E+04</pdfrwt>
<totfact> 0.96367005E+01</totfact>
</mgrwt>
</event>
<event>
 9    1  0.4488205E-036  0.9997394E+03  0.7818608E-02  0.8681286E-01
          2   -1    0    0  501    0  0.00000000000E+00  0.00000000000E+00  0.15366357003E+04  0.15366357003E+04  0.00000000000E+00 0.  1.
         -2   -1    0    0    0  501 -0.00000000000E+00 -0.00000000000E+00 -0.16260828744E+03  0.16260828744E+03  0.00000000000E+00 0.  1.
         36    2    1    2    0    0 -0.21316282073E-13  0.14210854715E-13  0.13740274128E+04  0.16992439877E+04  0.99973936532E+03 0.  0.
         25    2    3    3    0    0  0.12408002245E+02  0.97730372809E+02  0.90214510512E+02  0.18317802083E+03  0.12534091558E+03 0.  0.
         35    2    3    3    0    0 -0.12408002245E+02 -0.97730372809E+02  0.12838129023E+04  0.15160659669E+04  0.80035945893E+03 0.  0.
         22    1    5    5    0    0  0.14745104247E+03  0.32155139635E+03  0.49244903797E+03  0.60633585200E+03  0.00000000000E+00 0.  1.
         22    1    5    5    0    0 -0.15985904472E+03 -0.41928176916E+03  0.79136386432E+03  0.90973011486E+03  0.00000000000E+00 0.  1.
          5    1    4    4  502    0  0.60331226142E+02  0.44005757069E+02  0.10322650706E+02  0.75531520708E+02  0.47000000000E+01 0. -1.
         -5    1    4    4    0  502 -0.47923223896E+02  0.53724615741E+02  0.79891859806E+02  0.10764650012E+03  0.47000000000E+01 0. -1.
<mgrwt>
<rscale>  0 0.99973937E+03</rscale>
<asrwt>0</asrwt>
<pdfrwt beam="1">  1        2 0.23640548E+00 0.99973937E+03</pdfrwt>
<pdfrwt beam="2">  1       -2 0.25016661E-01 0.99973937E+03</pdfrwt>
<totfact> 0.20696665E+02</totfact>
</mgrwt>
</event>
<event>
 9    1  0.4488205E-036  0.9996079E+03  0.7818608E-02  0.8681411E-01
          2   -1    0    0  501    0  0.00000000000E+00  0.00000000000E+00  0.53216937112E+03  0.53216937112E+03  0.00000000000E+00 0.  1.
         -2   -1    0    0    0  501 -0.00000000000E+00 -0.00000000000E+00 -0.46940691038E+03  0.46940691038E+03  0.00000000000E+00 0.  1.
         36    2    1    2    0    0 -0.28421709430E-13  0.71054273576E-14  0.62762460746E+02  0.10015762815E+04  0.99960788372E+03 0.  0.
         25    2    3    3    0    0  0.56522721872E+02  0.35310144281E+02 -0.10136294848E+03  0.18225651587E+03  0.13601972606E+03 0.  0.
         35    2    3    3    0    0 -0.56522721872E+02 -0.35310144281E+02  0.16412540922E+03  0.81931976563E+03  0.79994131286E+03 0.  0.
         22    1    5    5    0    0  0.33769148074E+03  0.98224542057E+02 -0.43190893106E+02  0.35432901388E+03  0.00000000000E+00 0. -1.
         22    1    5    5    0    0 -0.39421420262E+03 -0.13353468634E+03  0.20731630233E+03  0.46499075175E+03  0.00000000000E+00 0. -1.
          5    1    4    4  502    0  0.19292360442E+02 -0.50824282171E+02 -0.55040836416E+02  0.77504106363E+02  0.47000000000E+01 0. -1.
         -5    1    4    4    0  502  0.37230361430E+02  0.86134426452E+02 -0.46322112060E+02  0.10475240951E+03  0.47000000000E+01 0. -1.
<mgrwt>
<rscale>  0 0.99960788E+03</rscale>
<asrwt>0</asrwt>
<pdfrwt beam="1">  1        2 0.81872211E-01 0.99960788E+03</pdfrwt>
<pdfrwt beam="2">  1       -2 0.72216447E-01 0.99960788E+03</pdfrwt>
<totfact> 0.12014535E+02</totfact>
</mgrwt>
</event>
<event>
 9    1  0.4488205E-036  0.1000318E+04  0.7818608E-02  0.8680735E-01
         -2   -1    0    0    0  501 -0.00000000000E+00  0.00000000000E+00  0.19688389975E+03  0.19688389975E+03  0.00000000000E+00 0.  1.
          2   -1    0    0  501    0  0.00000000000E+00 -0.00000000000E+00 -0.12705915375E+04  0.12705915375E+04  0.00000000000E+00 0.  1.
         36    2    1    2    0    0  0.00000000000E+00  0.00000000000E+00 -0.10737076377E+04  0.14674754372E+04  0.10003179832E+04 0.  0.
         25    2    3    3    0    0 -0.78052206889E+02  0.15560891436E+02 -0.35237995468E+03  0.38249509017E+03  0.12568441910E+03 0.  0.
         35    2    3    3    0    0  0.78052206889E+02 -0.15560891436E+02 -0.72132768305E+03  0.10849803471E+04  0.80655715162E+03 0.  0.
         22    1    5    5    0    0  0.30530258652E+03  0.20655274746E+03 -0.91910249097E+02  0.37989630257E+03  0.00000000000E+00 0.  1.
         22    1    5    5    0    0 -0.22725037963E+03 -0.22211363890E+03 -0.62941743395E+03  0.70508404448E+03  0.00000000000E+00 0.  1.
          5    1    4    4  502    0 -0.78998847789E+02 -0.40208577718E+02 -0.25706079207E+03  0.27195567376E+03  0.47000000000E+01 0. -1.
         -5    1    4    4    0  502  0.94664090056E+00  0.55769469154E+02 -0.95319162614E+02  0.11053941641E+03  0.47000000000E+01 0. -1.
<mgrwt>
<rscale>  0 0.10003180E+04</rscale>
<asrwt>0</asrwt>
<pdfrwt beam="1">  1        2 0.19547562E+00 0.10003180E+04</pdfrwt>
<pdfrwt beam="2">  1       -2 0.30289830E-01 0.10003180E+04</pdfrwt>
<totfact> 0.20828750E+02</totfact>
</mgrwt>
</event>
<event>
 9    1  0.4488205E-036  0.9992790E+03  0.7818608E-02  0.8681725E-01
         -2   -1    0    0    0  501 -0.00000000000E+00  0.00000000000E+00  0.73914558550E+03  0.73914558550E+03  0.00000000000E+00 0.  1.
          2   -1    0    0  501    0  0.00000000000E+00 -0.00000000000E+00 -0.33774080347E+03  0.33774080347E+03  0.00000000000E+00 0.  1.
         36    2    1    2    0    0  0.00000000000E+00  0.14210854715E-13  0.40140478203E+03  0.10768863890E+04  0.99927898793E+03 0.  0.
         25    2    3    3    0    0 -0.73160377553E+02 -0.86351554343E+02  0.16479952418E+03  0.23545557113E+03  0.12438412690E+03 0.  0.
         35    2    3    3    0    0  0.73160377553E+02  0.86351554343E+02  0.23660525785E+03  0.84143081784E+03  0.79950906273E+03 0.  0.
         22    1    5    5    0    0 -0.13854458253E+03  0.55084078609E+01 -0.26050353740E+03  0.29510512856E+03  0.00000000000E+00 0. -1.
         22    1    5    5    0    0  0.21170496009E+03  0.80843146482E+02  0.49710879524E+03  0.54632568928E+03  0.00000000000E+00 0. -1.
          5    1    4    4  502    0 -0.40206079691E+02 -0.11641900154E+03  0.12347271707E+03  0.17446350514E+03  0.47000000000E+01 0.  1.
         -5    1    4    4    0  502 -0.32954297862E+02  0.30067447197E+02  0.41326807110E+02  0.60992065996E+02  0.47000000000E+01 0.  1.
<mgrwt>
<rscale>  0 0.99927899E+03</rscale>
<asrwt>0</asrwt>
<pdfrwt beam="1">  1        2 0.51960124E-01 0.99927899E+03</pdfrwt>
<pdfrwt beam="2">  1       -2 0.11371471E+00 0.99927899E+03</pdfrwt>
<totfact> 0.68440334E+01</totfact>
</mgrwt>
</event>
<event>
 9    1  0.4488205E-036  0.9986743E+03  0.7818608E-02  0.8682301E-01
          2   -1    0    0  501    0  0.00000000000E+00  0.00000000000E+00  0.15457951061E+04  0.15457951061E+04  0.00000000000E+00 0.  1.
         -2   -1    0    0    0  501 -0.00000000000E+00 -0.00000000000E+00 -0.16130053546E+03  0.16130053546E+03  0.00000000000E+00 0.  1.
         36    2    1    2    0    0  0.28421709430E-13 -0.71054273576E-14  0.13844945707E+04  0.17070956416E+04  0.99867427788E+03 0.  0.
         25    2    3    3    0    0 -0.10083322185E+03 -0.36694645117E+02  0.10500936542E+03  0.19429465453E+03  0.12332724899E+03 0.  0.
         35    2    3    3    0    0  0.10083322185E+03  0.36694645117E+02  0.12794852053E+04  0.15128009871E+04  0.79998162503E+03 0.  0.
         22    1    5    5    0    0  0.20442861378E+03 -0.20471118392E+03  0.12057237576E+04  0.12399465741E+04  0.00000000000E+00 0. -1.
         22    1    5    5    0    0 -0.10359539193E+03  0.24140582904E+03  0.73761447662E+02  0.27285441298E+03  0.00000000000E+00 0. -1.
          5    1    4    4  502    0 -0.10277105043E+03 -0.44356003205E+02  0.26337554780E+02  0.11508736081E+03  0.47000000000E+01 0.  1.
         -5    1    4    4    0  502  0.19378285860E+01  0.76613580886E+01  0.78671810645E+02  0.79207293714E+02  0.47000000000E+01 0.  1.
<mgrwt>
<rscale>  0 0.99867428E+03</rscale>
<asrwt>0</asrwt>
<pdfrwt beam="1">  1        2 0.23781462E+00 0.99867428E+03</pdfrwt>
<pdfrwt beam="2">  1       -2 0.24815468E-01 0.99867428E+03</pdfrwt>
<totfact> 0.20746379E+02</totfact>
</mgrwt>
</event>
<event>
 9    1  0.4488205E-036  0.9994193E+03  0.7818608E-02  0.8681591E-01
         -1   -1    0    0    0  501 -0.00000000000E+00  0.00000000000E+00  0.48846775172E+03  0.48846775172E+03  0.00000000000E+00 0.  1.
          1   -1    0    0  501    0  0.00000000000E+00 -0.00000000000E+00 -0.51121032580E+03  0.51121032580E+03  0.00000000000E+00 0.  1.
         36    2    1    2    0    0 -0.71054273576E-14 -0.71054273576E-14 -0.22742574084E+02  0.99967807753E+03  0.99941934843E+03 0.  0.
         25    2    3    3    0    0 -0.63615618562E+02 -0.38345431074E+02 -0.12422410808E+03  0.19050275510E+03  0.12386424692E+03 0.  0.
         35    2    3    3    0    0  0.63615618562E+02  0.38345431074E+02  0.10148153399E+03  0.80917532242E+03  0.79934278108E+03 0.  0.
         22    1    5    5    0    0  0.12744788628E+03  0.31522208110E+03 -0.20034447083E+03  0.39464646346E+03  0.00000000000E+00 0. -1.
         22    1    5    5    0    0 -0.63832267716E+02 -0.27687665002E+03  0.30182600482E+03  0.41452885897E+03  0.00000000000E+00 0. -1.
          5    1    4    4  502    0 -0.33823932946E+02 -0.82504903128E+02 -0.63388573152E+02  0.10950487974E+03  0.47000000000E+01 0.  1.
         -5    1    4    4    0  502 -0.29791685616E+02  0.44159472055E+02 -0.60835534926E+02  0.80997875366E+02  0.47000000000E+01 0.  1.
<mgrwt>
<rscale>  0 0.99941935E+03</rscale>
<asrwt>0</asrwt>
<pdfrwt beam="1">  1        1 0.78647742E-01 0.99941935E+03</pdfrwt>
<pdfrwt beam="2">  1       -1 0.75148885E-01 0.99941935E+03</pdfrwt>
<totfact> 0.90187718E+01</totfact>
</mgrwt>
</event>
<event>
 9    1  0.4488205E-036  0.1000116E+04  0.7818608E-02  0.8680928E-01
         -2   -1    0    0    0  501 -0.00000000000E+00  0.00000000000E+00  0.36968222590E+03  0.36968222590E+03  0.00000000000E+00 0.  1.
          2   -1    0    0  501    0  0.00000000000E+00 -0.00000000000E+00 -0.67641320975E+03  0.67641320975E+03  0.00000000000E+00 0.  1.
         36    2    1    2    0    0  0.71054273576E-14  0.00000000000E+00 -0.30673098384E+03  0.10460954356E+04  0.10001158753E+04 0.  0.
         25    2    3    3    0    0  0.34763294097E+02  0.11681488604E+03  0.14405436516E+02  0.17518207870E+03  0.12500815926E+03 0.  0.
         35    2    3    3    0    0 -0.34763294097E+02 -0.11681488604E+03 -0.32113642036E+03  0.87091335695E+03  0.80031698134E+03 0.  0.
         22    1    5    5    0    0 -0.23535855800E+03 -0.38657869521E+03 -0.28008614894E+03  0.53224523412E+03  0.00000000000E+00 0.  1.
         22    1    5    5    0    0  0.20059526390E+03  0.26976380917E+03 -0.41050271417E+02  0.33866812283E+03  0.00000000000E+00 0.  1.
          5    1    4    4  502    0 -0.36949986153E+02  0.12415629871E+02  0.27244672238E+02  0.47789240496E+02  0.47000000000E+01 0.  1.
         -5    1    4    4    0  502  0.71713280251E+02  0.10439925616E+03 -0.12839235721E+02  0.12739283820E+03  0.47000000000E+01 0.  1.
<mgrwt>
<rscale>  0 0.10001159E+04</rscale>
<asrwt>0</asrwt>
<pdfrwt beam="1">  1        2 0.10406357E+00 0.10001159E+04</pdfrwt>
<pdfrwt beam="2">  1       -2 0.56874190E-01 0.10001159E+04</pdfrwt>
<totfact> 0.15007799E+02</totfact>
</mgrwt>
</event>
<event>
 9    1  0.4488205E-036  0.1003188E+04  0.7818608E-02  0.8678008E-01
          2   -1    0    0  501    0  0.00000000000E+00  0.00000000000E+00  0.15024208516E+04  0.15024208516E+04  0.00000000000E+00 0. -1.
         -2   -1    0    0    0  501 -0.00000000000E+00 -0.00000000000E+00 -0.16746086488E+03  0.16746086488E+03  0.00000000000E+00 0. -1.
         36    2    1    2    0    0 -0.17763568394E-13  0.00000000000E+00  0.13349599867E+04  0.16698817165E+04  0.10031883078E+04 0.  0.
         25    2    3    3    0    0 -0.10257453709E+02  0.13664205072E+03  0.32494358347E+03  0.37420016843E+03  0.12514458932E+03 0.  0.
         35    2    3    3    0    0  0.10257453709E+02 -0.13664205072E+03  0.10100164032E+04  0.12956815480E+04  0.79992579264E+03 0.  0.
         22    1    5    5    0    0  0.29884352657E+03  0.18423356937E+01  0.76033098386E+02  0.30836971256E+03  0.00000000000E+00 0.  1.
         22    1    5    5    0    0 -0.28858607286E+03 -0.13848438642E+03  0.93398330485E+03  0.98731183547E+03  0.00000000000E+00 0.  1.
          5    1    4    4  502    0  0.17848309987E+02  0.15192772873E+03  0.27450036474E+03  0.31428193898E+03  0.47000000000E+01 0.  1.
         -5    1    4    4    0  502 -0.28105763696E+02 -0.15285678010E+02  0.50443218727E+02  0.59918229452E+02  0.47000000000E+01 0.  1.
<mgrwt>
<rscale>  0 0.10031883E+04</rscale>
<asrwt>0</asrwt>
<pdfrwt beam="1">  1        2 0.23114166E+00 0.10031883E+04</pdfrwt>
<pdfrwt beam="2">  1       -2 0.25763211E-01 0.10031883E+04</pdfrwt>
<totfact> 0.20537563E+02</totfact>
</mgrwt>
</event>
<event>
 9    1  0.4488205E-036  0.9998580E+03  0.7818608E-02  0.8681173E-01
         -2   -1    0    0    0  501 -0.00000000000E+00  0.00000000000E+00  0.16607314633E+03  0.16607314633E+03  0.00000000000E+00 0. -1.
          2   -1    0    0  501    0  0.00000000000E+00 -0.00000000000E+00 -0.15049333011E+04  0.15049333011E+04  0.00000000000E+00 0. -1.
         36    2    1    2    0    0 -0.14210854715E-13 -0.14210854715E-13 -0.13388601548E+04  0.16710064474E+04  0.99985800657E+03 0.  0.
         25    2    3    3    0    0 -0.86090020831E+02 -0.15887337837E+02 -0.69925109321E+02  0.16833012414E+03  0.12562488046E+03 0.  0.
         35    2    3    3    0    0  0.86090020831E+02  0.15887337837E+02 -0.12689350454E+04  0.15026763233E+04  0.80011004479E+03 0.  0.
         22    1    5    5    0    0  0.81305015234E+02 -0.14792238373E+03  0.48076833271E+02  0.17550760385E+03  0.00000000000E+00 0. -1.
         22    1    5    5    0    0  0.47850055966E+01  0.16380972157E+03 -0.13170118787E+04  0.13271687194E+04  0.00000000000E+00 0. -1.
          5    1    4    4  502    0 -0.32076612705E+01  0.47730406252E+02 -0.28168950608E+02  0.55714096512E+02  0.47000000000E+01 0. -1.
         -5    1    4    4    0  502 -0.82882359560E+02 -0.63617744089E+02 -0.41756158713E+02  0.11261602763E+03  0.47000000000E+01 0. -1.
<mgrwt>
<rscale>  0 0.99985801E+03</rscale>
<asrwt>0</asrwt>
<pdfrwt beam="1">  1        2 0.23152820E+00 0.99985801E+03</pdfrwt>
<pdfrwt beam="2">  1       -2 0.25549715E-01 0.99985801E+03</pdfrwt>
<totfact> 0.20776269E+02</totfact>
</mgrwt>
</event>
<event>
 9    1  0.4488205E-036  0.1004568E+04  0.7818608E-02  0.8676700E-01
          1   -1    0    0  501    0  0.00000000000E+00  0.00000000000E+00  0.70618043395E+03  0.70618043395E+03  0.00000000000E+00 0. -1.
         -1   -1    0    0    0  501 -0.00000000000E+00 -0.00000000000E+00 -0.35725873750E+03  0.35725873750E+03  0.00000000000E+00 0. -1.
         36    2    1    2    0    0  0.71054273576E-14 -0.28421709430E-13  0.34892169645E+03  0.10634391714E+04  0.10045678280E+04 0.  0.
         25    2    3    3    0    0  0.95295876240E+00  0.13608352057E+03  0.10072866656E+02  0.18452369491E+03  0.12420909242E+03 0.  0.
         35    2    3    3    0    0 -0.95295876240E+00 -0.13608352057E+03  0.33884882979E+03  0.87891547653E+03  0.79947123321E+03 0.  0.
         22    1    5    5    0    0 -0.54108190441E+02  0.28900355319E+03 -0.52500132053E+02  0.29867543235E+03  0.00000000000E+00 0.  1.
         22    1    5    5    0    0  0.53155231679E+02 -0.42508707376E+03  0.39134896185E+03  0.58024004418E+03  0.00000000000E+00 0.  1.
          5    1    4    4  502    0 -0.43948592424E+02  0.13162800337E+03  0.61159121718E+01  0.13898526695E+03  0.47000000000E+01 0.  1.
         -5    1    4    4    0  502  0.44901551186E+02  0.44555172033E+01  0.39569544837E+01  0.45538427962E+02  0.47000000000E+01 0.  1.
<mgrwt>
<rscale>  0 0.10045678E+04</rscale>
<asrwt>0</asrwt>
<pdfrwt beam="1">  1        1 0.10864314E+00 0.10045678E+04</pdfrwt>
<pdfrwt beam="2">  1       -1 0.54962883E-01 0.10045678E+04</pdfrwt>
<totfact> 0.10338540E+02</totfact>
</mgrwt>
</event>
<event>
 9    1  0.4488205E-036  0.9993100E+03  0.7818608E-02  0.8681695E-01
         -1   -1    0    0    0  501 -0.00000000000E+00  0.00000000000E+00  0.71994033407E+03  0.71994033407E+03  0.00000000000E+00 0. -1.
          1   -1    0    0  501    0  0.00000000000E+00 -0.00000000000E+00 -0.34677194692E+03  0.34677194692E+03  0.00000000000E+00 0. -1.
         36    2    1    2    0    0  0.35527136788E-14  0.00000000000E+00  0.37316838715E+03  0.10667122810E+04  0.99930998456E+03 0.  0.
         25    2    3    3    0    0 -0.23449273277E+02 -0.29158087598E+02  0.21266102162E+03  0.25001143800E+03  0.12601962754E+03 0.  0.
         35    2    3    3    0    0  0.23449273277E+02  0.29158087598E+02  0.16050736552E+03  0.81670084298E+03  0.79989848734E+03 0.  0.
         22    1    5    5    0    0 -0.83315544394E+01  0.24118606609E+02 -0.32706947705E+03  0.32806335486E+03  0.00000000000E+00 0.  1.
         22    1    5    5    0    0  0.31780827716E+02  0.50394809883E+01  0.48757684258E+03  0.48863748812E+03  0.00000000000E+00 0.  1.
          5    1    4    4  502    0 -0.47839360541E+02  0.15278612054E+02  0.26423453905E+02  0.56941455193E+02  0.47000000000E+01 0.  1.
         -5    1    4    4    0  502  0.24390087265E+02 -0.44436699651E+02  0.18623756772E+03  0.19306998281E+03  0.47000000000E+01 0.  1.
<mgrwt>
<rscale>  0 0.99930998E+03</rscale>
<asrwt>0</asrwt>
<pdfrwt beam="1">  1        1 0.53349530E-01 0.99930998E+03</pdfrwt>
<pdfrwt beam="2">  1       -1 0.11076005E+00 0.99930998E+03</pdfrwt>
<totfact> 0.65477998E+01</totfact>
</mgrwt>
</event>
<event>
 9    1  0.4488205E-036  0.1000013E+04  0.7818608E-02  0.8681025E-01
          2   -1    0    0  501    0  0.00000000000E+00  0.00000000000E+00  0.42078994422E+03  0.42078994422E+03  0.00000000000E+00 0. -1.
         -2   -1    0    0    0  501 -0.00000000000E+00 -0.00000000000E+00 -0.59413654095E+03  0.59413654095E+03  0.00000000000E+00 0. -1.
         36    2    1    2    0    0  0.71054273576E-14  0.00000000000E+00 -0.17334659673E+03  0.10149264852E+04  0.10000133638E+04 0.  0.
         25    2    3    3    0    0 -0.19797251338E+02  0.13247696893E+03  0.61685752814E+01  0.18427460706E+03  0.12640016230E+03 0.  0.
         35    2    3    3    0    0  0.19797251338E+02 -0.13247696893E+03 -0.17951517201E+03  0.83065187811E+03  0.79988422110E+03 0.  0.
         22    1    5    5    0    0 -0.31402369429E+03  0.91070121571E+02 -0.26384145233E+03  0.42013921453E+03  0.00000000000E+00 0.  1.
         22    1    5    5    0    0  0.33382094562E+03 -0.22354709050E+03  0.84326280321E+02  0.41051266358E+03  0.00000000000E+00 0.  1.
          5    1    4    4  502    0 -0.42240374746E+02  0.11366978621E+03 -0.41396400873E+02  0.12822176711E+03  0.47000000000E+01 0. -1.
         -5    1    4    4    0  502  0.22443123408E+02  0.18807182716E+02  0.47564976154E+02  0.56052839951E+02  0.47000000000E+01 0. -1.
<mgrwt>
<rscale>  0 0.10000134E+04</rscale>
<asrwt>0</asrwt>
<pdfrwt beam="1">  1        2 0.64736915E-01 0.10000134E+04</pdfrwt>
<pdfrwt beam="2">  1       -2 0.91405621E-01 0.10000134E+04</pdfrwt>
<totfact> 0.91421783E+01</totfact>
</mgrwt>
</event>
<event>
 9    1  0.4488205E-036  0.9990217E+03  0.7818608E-02  0.8681970E-01
         -1   -1    0    0    0  501 -0.00000000000E+00  0.00000000000E+00  0.92013605032E+02  0.92013605032E+02  0.00000000000E+00 0.  1.
          1   -1    0    0  501    0  0.00000000000E+00 -0.00000000000E+00 -0.27116762991E+04  0.27116762991E+04  0.00000000000E+00 0.  1.
         36    2    1    2    0    0  0.00000000000E+00 -0.14210854715E-13 -0.26196626941E+04  0.28036899042E+04  0.99902174543E+03 0.  0.
         25    2    3    3    0    0  0.10124219541E+03 -0.50433958878E+02 -0.72710386784E+03  0.74608947914E+03  0.12319054315E+03 0.  0.
         35    2    3    3    0    0 -0.10124219541E+03  0.50433958878E+02 -0.18925588263E+04  0.20576004250E+04  0.79946671716E+03 0.  0.
         22    1    5    5    0    0 -0.38191582588E+03 -0.19792005972E+03 -0.93029891260E+03  0.10249332246E+04  0.00000000000E+00 0.  1.
         22    1    5    5    0    0  0.28067363047E+03  0.24835401859E+03 -0.96225991367E+03  0.10326672004E+04  0.00000000000E+00 0.  1.
          5    1    4    4  502    0 -0.82552749358E+01  0.22453616265E+02 -0.24925489304E+03  0.25044441729E+03  0.47000000000E+01 0.  1.
         -5    1    4    4    0  502  0.10949747035E+03 -0.72887575142E+02 -0.47784897480E+03  0.49564506185E+03  0.47000000000E+01 0.  1.
<mgrwt>
<rscale>  0 0.99902175E+03</rscale>
<asrwt>0</asrwt>
<pdfrwt beam="1">  1        1 0.41718098E+00 0.99902175E+03</pdfrwt>
<pdfrwt beam="2">  1       -1 0.14155939E-01 0.99902175E+03</pdfrwt>
<totfact> 0.35379878E+01</totfact>
</mgrwt>
</event>
<event>
 9    1  0.4488205E-036  0.1000760E+04  0.7818608E-02  0.8680315E-01
          1   -1    0    0  501    0  0.00000000000E+00  0.00000000000E+00  0.38448097345E+03  0.38448097345E+03  0.00000000000E+00 0.  1.
         -1   -1    0    0    0  501 -0.00000000000E+00 -0.00000000000E+00 -0.65121541566E+03  0.65121541566E+03  0.00000000000E+00 0.  1.
         36    2    1    2    0    0  0.00000000000E+00  0.21316282073E-13 -0.26673444222E+03  0.10356963891E+04  0.10007595854E+04 0.  0.
         25    2    3    3    0    0  0.10484115994E+03 -0.39137110429E+02  0.38819604720E+02  0.17213941323E+03  0.12490649962E+03 0.  0.
         35    2    3    3    0    0 -0.10484115994E+03  0.39137110429E+02 -0.30555404694E+03  0.86355697588E+03  0.79990248953E+03 0.  0.
         22    1    5    5    0    0  0.70796651508E+02  0.24990095389E+03 -0.47479959991E+03  0.54119988239E+03  0.00000000000E+00 0. -1.
         22    1    5    5    0    0 -0.17563781145E+03 -0.21076384346E+03  0.16924555297E+03  0.32235709349E+03  0.00000000000E+00 0. -1.
          5    1    4    4  502    0 -0.12316768310E+02 -0.21309200017E+02  0.46995311958E+02  0.53258183718E+02  0.47000000000E+01 0. -1.
         -5    1    4    4    0  502  0.11715792825E+03 -0.17827910412E+02 -0.81757072372E+01  0.11888122952E+03  0.47000000000E+01 0. -1.
<mgrwt>
<rscale>  0 0.10007596E+04</rscale>
<asrwt>0</asrwt>
<pdfrwt beam="1">  1        1 0.59150919E-01 0.10007596E+04</pdfrwt>
<pdfrwt beam="2">  1       -1 0.10018699E+00 0.10007596E+04</pdfrwt>
<totfact> 0.71906869E+01</totfact>
</mgrwt>
</event>
<event>
 9    1  0.4488205E-036  0.1000462E+04  0.7818608E-02  0.8680598E-01
          2   -1    0    0  501    0  0.00000000000E+00  0.00000000000E+00  0.21414127819E+04  0.21414127819E+04  0.00000000000E+00 0. -1.
         -2   -1    0    0    0  501 -0.00000000000E+00 -0.00000000000E+00 -0.11685318692E+03  0.11685318692E+03  0.00000000000E+00 0. -1.
         36    2    1    2    0    0  0.14210854715E-13  0.00000000000E+00  0.20245595950E+04  0.22582659689E+04  0.10004617096E+04 0.  0.
         25    2    3    3    0    0 -0.66776410931E+02 -0.11850680440E+03  0.29975497459E+03  0.35199578034E+03  0.12467972106E+03 0.  0.
         35    2    3    3    0    0  0.66776410931E+02  0.11850680440E+03  0.17248046204E+04  0.19062701885E+04  0.80025752184E+03 0.  0.
         22    1    5    5    0    0  0.79833317947E+02 -0.32855379360E+03  0.51143511812E+03  0.61309610502E+03  0.00000000000E+00 0. -1.
         22    1    5    5    0    0 -0.13056907016E+02  0.44706059800E+03  0.12133695023E+04  0.12931740835E+04  0.00000000000E+00 0. -1.
          5    1    4    4  502    0 -0.38845605520E+02 -0.13867139272E+03  0.27081222517E+03  0.30675737568E+03  0.47000000000E+01 0.  1.
         -5    1    4    4    0  502 -0.27930805412E+02  0.20164588323E+02  0.28942749411E+02  0.45238404665E+02  0.47000000000E+01 0.  1.
<mgrwt>
<rscale>  0 0.10004617E+04</rscale>
<asrwt>0</asrwt>
<pdfrwt beam="1">  1        2 0.32944809E+00 0.10004617E+04</pdfrwt>
<pdfrwt beam="2">  1       -2 0.17977415E-01 0.10004617E+04</pdfrwt>
<totfact> 0.16707956E+02</totfact>
</mgrwt>
</event>
<event>
 9    1  0.4488205E-036  0.1000360E+04  0.7818608E-02  0.8680695E-01
          1   -1    0    0  501    0  0.00000000000E+00  0.00000000000E+00  0.34506845318E+04  0.34506845318E+04  0.00000000000E+00 0. -1.
         -1   -1    0    0    0  501 -0.00000000000E+00 -0.00000000000E+00 -0.72501563053E+02  0.72501563053E+02  0.00000000000E+00 0. -1.
         36    2    1    2    0    0  0.00000000000E+00 -0.14210854715E-13  0.33781829687E+04  0.35231860948E+04  0.10003599795E+04 0.  0.
         25    2    3    3    0    0 -0.63097980269E+02  0.78228314994E+02  0.28769853509E+03  0.32924371207E+03  0.12461922189E+03 0.  0.
         35    2    3    3    0    0  0.63097980269E+02 -0.78228314994E+02  0.30904844336E+04  0.31939423828E+04  0.80004555213E+03 0.  0.
         22    1    5    5    0    0  0.34525216889E+03 -0.17473012620E+03  0.85286973705E+03  0.93654496182E+03  0.00000000000E+00 0.  1.
         22    1    5    5    0    0 -0.28215418862E+03  0.96501811208E+02  0.22376146966E+04  0.22573974209E+04  0.00000000000E+00 0.  1.
          5    1    4    4  502    0 -0.62634866212E+02  0.10758150641E+03  0.19063904617E+03  0.22773283230E+03  0.47000000000E+01 0.  1.
         -5    1    4    4    0  502 -0.46311405667E+00 -0.29353191411E+02  0.97059488928E+02  0.10151087977E+03  0.47000000000E+01 0.  1.
<mgrwt>
<rscale>  0 0.10003600E+04</rscale>
<asrwt>0</asrwt>
<pdfrwt beam="1">  1        1 0.53087442E+00 0.10003600E+04</pdfrwt>
<pdfrwt beam="2">  1       -1 0.11154089E-01 0.10003600E+04</pdfrwt>
<totfact> 0.15015949E+01</totfact>
</mgrwt>
</event>
<event>
 9    1  0.4488205E-036  0.9995788E+03  0.7818608E-02  0.8681439E-01
         -3   -1    0    0    0  501 -0.00000000000E+00  0.00000000000E+00  0.24787271379E+03  0.24787271379E+03  0.00000000000E+00 0.  1.
          3   -1    0    0  501    0  0.00000000000E+00 -0.00000000000E+00 -0.10077326960E+04  0.10077326960E+04  0.00000000000E+00 0.  1.
         36    2    1    2    0    0  0.71054273576E-14 -0.28421709430E-13 -0.75985998224E+03  0.12556054098E+04  0.99957878757E+03 0.  0.
         25    2    3    3    0    0 -0.49314038138E+02 -0.71585681704E+02 -0.58825580572E+01  0.15283687129E+03  0.12557117725E+03 0.  0.
         35    2    3    3    0    0  0.49314038138E+02  0.71585681704E+02 -0.75397742419E+03  0.11027685385E+04  0.80003756737E+03 0.  0.
         22    1    5    5    0    0 -0.24745216095E+03 -0.77961558958E+02 -0.72402418227E+03  0.76910440978E+03  0.00000000000E+00 0. -1.
         22    1    5    5    0    0  0.29676619909E+03  0.14954724066E+03 -0.29953241922E+02  0.33366412875E+03  0.00000000000E+00 0. -1.
          5    1    4    4  502    0 -0.39628466769E+02  0.15474679418E+02  0.35719914663E+02  0.55748393565E+02  0.47000000000E+01 0. -1.
         -5    1    4    4    0  502 -0.96855713683E+01 -0.87060361122E+02 -0.41602472720E+02  0.97088477730E+02  0.47000000000E+01 0. -1.
<mgrwt>
<rscale>  0 0.99957879E+03</rscale>
<asrwt>0</asrwt>
<pdfrwt beam="1">  1        3 0.15503580E+00 0.99957879E+03</pdfrwt>
<pdfrwt beam="2">  1       -3 0.38134264E-01 0.99957879E+03</pdfrwt>
<totfact> 0.84098961E+00</totfact>
</mgrwt>
</event>
<event>
 9    1  0.4488205E-036  0.9999659E+03  0.7818608E-02  0.8681070E-01
          1   -1    0    0  501    0  0.00000000000E+00  0.00000000000E+00  0.27390767394E+04  0.27390767394E+04  0.00000000000E+00 0. -1.
         -1   -1    0    0    0  501 -0.00000000000E+00 -0.00000000000E+00 -0.91265403880E+02  0.91265403880E+02  0.00000000000E+00 0. -1.
         36    2    1    2    0    0  0.14210854715E-13 -0.71054273576E-14  0.26478113355E+04  0.28303421433E+04  0.99996588918E+03 0.  0.
         25    2    3    3    0    0 -0.12386477621E+03 -0.55289525132E+02  0.57514695452E+03  0.60412012023E+03  0.12556944693E+03 0.  0.
         35    2    3    3    0    0  0.12386477621E+03  0.55289525132E+02  0.20726643810E+04  0.22262220231E+04  0.80107892574E+03 0.  0.
         22    1    5    5    0    0 -0.27116163380E+03  0.21812787792E+02  0.28056115022E+03  0.39079276908E+03  0.00000000000E+00 0. -1.
         22    1    5    5    0    0  0.39502641000E+03  0.33476737339E+02  0.17921032308E+04  0.18354292540E+04  0.00000000000E+00 0. -1.
          5    1    4    4  502    0 -0.79666349211E+02 -0.66102399530E+02  0.52932558773E+03  0.53937363881E+03  0.47000000000E+01 0.  1.
         -5    1    4    4    0  502 -0.44198426997E+02  0.10812874399E+02  0.45821366791E+02  0.64746481421E+02  0.47000000000E+01 0.  1.
<mgrwt>
<rscale>  0 0.99996589E+03</rscale>
<asrwt>0</asrwt>
<pdfrwt beam="1">  1        1 0.42139636E+00 0.99996589E+03</pdfrwt>
<pdfrwt beam="2">  1       -1 0.14040833E-01 0.99996589E+03</pdfrwt>
<totfact> 0.34279216E+01</totfact>
</mgrwt>
</event>
<event>
 9    1  0.4488205E-036  0.9986588E+03  0.7818608E-02  0.8682316E-01
          1   -1    0    0  501    0  0.00000000000E+00  0.00000000000E+00  0.13550425807E+04  0.13550425807E+04  0.00000000000E+00 0. -1.
         -1   -1    0    0    0  501 -0.00000000000E+00 -0.00000000000E+00 -0.18400147771E+03  0.18400147771E+03  0.00000000000E+00 0. -1.
         36    2    1    2    0    0  0.00000000000E+00  0.00000000000E+00  0.11710411030E+04  0.15390440585E+04  0.99865877500E+03 0.  0.
         25    2    3    3    0    0 -0.11142390468E+02  0.17919082561E+01  0.62494072137E+01  0.12593000455E+03  0.12526750239E+03 0.  0.
         35    2    3    3    0    0  0.11142390468E+02 -0.17919082561E+01  0.11647916958E+04  0.14131140539E+04  0.80001516918E+03 0.  0.
         22    1    5    5    0    0 -0.13564547108E+03 -0.88182692309E+02  0.12225918679E+04  0.12332504841E+04  0.00000000000E+00 0.  1.
         22    1    5    5    0    0  0.14678786154E+03  0.86390784052E+02 -0.57800172063E+02  0.17986356984E+03  0.00000000000E+00 0.  1.
          5    1    4    4  502    0 -0.56374045029E+02 -0.19460809398E+02 -0.27089397337E+02  0.65671009612E+02  0.47000000000E+01 0. -1.
         -5    1    4    4    0  502  0.45231654560E+02  0.21252717655E+02  0.33338804550E+02  0.60258994937E+02  0.47000000000E+01 0. -1.
<mgrwt>
<rscale>  0 0.99865878E+03</rscale>
<asrwt>0</asrwt>
<pdfrwt beam="1">  1        1 0.20846808E+00 0.99865878E+03</pdfrwt>
<pdfrwt beam="2">  1       -1 0.28307921E-01 0.99865878E+03</pdfrwt>
<totfact> 0.10179482E+02</totfact>
</mgrwt>
</event>
<event>
 9    1  0.4488205E-036  0.1000949E+04  0.7818608E-02  0.8680134E-01
         -2   -1    0    0    0  501 -0.00000000000E+00  0.00000000000E+00  0.22797307132E+03  0.22797307132E+03  0.00000000000E+00 0. -1.
          2   -1    0    0  501    0  0.00000000000E+00 -0.00000000000E+00 -0.10987041786E+04  0.10987041786E+04  0.00000000000E+00 0. -1.
         36    2    1    2    0    0  0.71054273576E-14  0.00000000000E+00 -0.87073110726E+03  0.13266772499E+04  0.10009494814E+04 0.  0.
         25    2    3    3    0    0  0.57315595323E+02  0.11964329030E+03 -0.22798086937E+03  0.29255091379E+03  0.12653523610E+03 0.  0.
         35    2    3    3    0    0 -0.57315595323E+02 -0.11964329030E+03 -0.64275023789E+03  0.10341263361E+04  0.79918071570E+03 0.  0.
         22    1    5    5    0    0  0.10089821119E+03  0.27464856053E+03 -0.37991312793E+02  0.29505189488E+03  0.00000000000E+00 0. -1.
         22    1    5    5    0    0 -0.15821380652E+03 -0.39429185083E+03 -0.60475892509E+03  0.73907444123E+03  0.00000000000E+00 0. -1.
          5    1    4    4  502    0 -0.25243328662E+02  0.46490856942E+02 -0.14505157552E+03  0.15446900977E+03  0.47000000000E+01 0. -1.
         -5    1    4    4    0  502  0.82558923985E+02  0.73152433361E+02 -0.82929293858E+02  0.13808190401E+03  0.47000000000E+01 0. -1.
<mgrwt>
<rscale>  0 0.10009495E+04</rscale>
<asrwt>0</asrwt>
<pdfrwt beam="1">  1        2 0.16903141E+00 0.10009495E+04</pdfrwt>
<pdfrwt beam="2">  1       -2 0.35072781E-01 0.10009495E+04</pdfrwt>
<totfact> 0.20099949E+02</totfact>
</mgrwt>
</event>
<event>
 9    1  0.4488205E-036  0.1000235E+04  0.7818608E-02  0.8680814E-01
         -2   -1    0    0    0  501 -0.00000000000E+00  0.00000000000E+00  0.98409431330E+02  0.98409431330E+02  0.00000000000E+00 0. -1.
          2   -1    0    0  501    0  0.00000000000E+00 -0.00000000000E+00 -0.25416022811E+04  0.25416022811E+04  0.00000000000E+00 0. -1.
         36    2    1    2    0    0 -0.46185277824E-13 -0.14210854715E-13 -0.24431928498E+04  0.26400117125E+04  0.10002352426E+04 0.  0.
         25    2    3    3    0    0 -0.15673511715E+02  0.10511352252E+03 -0.70977743692E+03  0.72851834157E+03  0.12514172949E+03 0.  0.
         35    2    3    3    0    0  0.15673511715E+02 -0.10511352252E+03 -0.17334154129E+04  0.19114933709E+04  0.79861342448E+03 0.  0.
         22    1    5    5    0    0  0.39503336442E+03 -0.29879000094E+02 -0.65107348648E+03  0.76212912190E+03  0.00000000000E+00 0. -1.
         22    1    5    5    0    0 -0.37935985271E+03 -0.75234522423E+02 -0.10823419264E+04  0.11493642490E+04  0.00000000000E+00 0. -1.
          5    1    4    4  502    0 -0.19447116580E+02  0.10339343902E+03 -0.71349878609E+03  0.72122881343E+03  0.47000000000E+01 0. -1.
         -5    1    4    4    0  502  0.37736048645E+01  0.17200835005E+01  0.37213491652E+01  0.72895281419E+01  0.47000000000E+01 0. -1.
<mgrwt>
<rscale>  0 0.10002352E+04</rscale>
<asrwt>0</asrwt>
<pdfrwt beam="1">  1        2 0.39101574E+00 0.10002352E+04</pdfrwt>
<pdfrwt beam="2">  1       -2 0.15139912E-01 0.10002352E+04</pdfrwt>
<totfact> 0.12931213E+02</totfact>
</mgrwt>
</event>
<event>
 9    1  0.4488205E-036  0.9997069E+03  0.7818608E-02  0.8681317E-01
         -1   -1    0    0    0  501 -0.00000000000E+00  0.00000000000E+00  0.22294814499E+03  0.22294814499E+03  0.00000000000E+00 0. -1.
          1   -1    0    0  501    0  0.00000000000E+00 -0.00000000000E+00 -0.11206796903E+04  0.11206796903E+04  0.00000000000E+00 0. -1.
         36    2    1    2    0    0  0.00000000000E+00  0.14210854715E-13 -0.89773154533E+03  0.13436278353E+04  0.99970687321E+03 0.  0.
         25    2    3    3    0    0 -0.10073430607E+03  0.64900580742E+02 -0.26163681747E+03  0.31434767633E+03  0.12649565826E+03 0.  0.
         35    2    3    3    0    0  0.10073430607E+03 -0.64900580742E+02 -0.63609472786E+03  0.10292801590E+04  0.80027598805E+03 0.  0.
         22    1    5    5    0    0  0.11740861054E+03 -0.17580083660E+03 -0.80179528930E+03  0.82919623848E+03  0.00000000000E+00 0.  1.
         22    1    5    5    0    0 -0.16674304470E+02  0.11090025586E+03  0.16570056144E+03  0.20008392049E+03  0.00000000000E+00 0.  1.
          5    1    4    4  502    0 -0.10854180142E+03  0.47383841570E+02 -0.26845634473E+03  0.29345774845E+03  0.47000000000E+01 0.  1.
         -5    1    4    4    0  502  0.78074953530E+01  0.17516739171E+02  0.68195272604E+01  0.20889927882E+02  0.47000000000E+01 0.  1.
<mgrwt>
<rscale>  0 0.99970687E+03</rscale>
<asrwt>0</asrwt>
<pdfrwt beam="1">  1        1 0.17241226E+00 0.99970687E+03</pdfrwt>
<pdfrwt beam="2">  1       -1 0.34299715E-01 0.99970687E+03</pdfrwt>
<totfact> 0.10915120E+02</totfact>
</mgrwt>
</event>
<event>
 9    1  0.4488205E-036  0.1001611E+04  0.7818608E-02  0.8679505E-01
          2   -1    0    0  501    0  0.00000000000E+00  0.00000000000E+00  0.57546197287E+03  0.57546197287E+03  0.00000000000E+00 0. -1.
         -2   -1    0    0    0  501 -0.00000000000E+00 -0.00000000000E+00 -0.43583446473E+03  0.43583446473E+03  0.00000000000E+00 0. -1.
         36    2    1    2    0    0  0.00000000000E+00  0.00000000000E+00  0.13962750814E+03  0.10112964376E+04  0.10016110241E+04 0.  0.
         25    2    3    3    0    0 -0.84396034872E+02 -0.10527807275E+03 -0.21137501942E+02  0.18438924731E+03  0.12388073794E+03 0.  0.
         35    2    3    3    0    0  0.84396034872E+02  0.10527807275E+03  0.16076501008E+03  0.82690719028E+03  0.79982744987E+03 0.  0.
         22    1    5    5    0    0  0.11892085489E+03 -0.86542001417E+02  0.45264253443E+03  0.47593797045E+03  0.00000000000E+00 0. -1.
         22    1    5    5    0    0 -0.34524820019E+02  0.19182007416E+03 -0.29187752435E+03  0.35096921983E+03  0.00000000000E+00 0. -1.
          5    1    4    4  502    0  0.16667182863E+02  0.16345884013E+02 -0.98943810816E+01  0.25787044920E+02  0.47000000000E+01 0. -1.
         -5    1    4    4    0  502 -0.10106321773E+03 -0.12162395676E+03 -0.11243120860E+02  0.15860220239E+03  0.47000000000E+01 0. -1.
<mgrwt>
<rscale>  0 0.10016110E+04</rscale>
<asrwt>0</asrwt>
<pdfrwt beam="1">  1        2 0.88532612E-01 0.10016110E+04</pdfrwt>
<pdfrwt beam="2">  1       -2 0.67051456E-01 0.10016110E+04</pdfrwt>
<totfact> 0.12882272E+02</totfact>
</mgrwt>
</event>
<event>
 9    1  0.4488205E-036  0.1001493E+04  0.7818608E-02  0.8679617E-01
          1   -1    0    0  501    0  0.00000000000E+00  0.00000000000E+00  0.69641225183E+03  0.69641225183E+03  0.00000000000E+00 0. -1.
         -1   -1    0    0    0  501 -0.00000000000E+00 -0.00000000000E+00 -0.36005553543E+03  0.36005553543E+03  0.00000000000E+00 0. -1.
         36    2    1    2    0    0  0.00000000000E+00  0.00000000000E+00  0.33635671640E+03  0.10564677873E+04  0.10014930578E+04 0.  0.
         25    2    3    3    0    0 -0.27061754470E+02 -0.13247749460E+03  0.96972172131E+02  0.20845453045E+03  0.12556697005E+03 0.  0.
         35    2    3    3    0    0  0.27061754470E+02  0.13247749460E+03  0.23938454427E+03  0.84801325681E+03  0.80220876245E+03 0.  0.
         22    1    5    5    0    0  0.28393355575E+03  0.57944859231E+02 -0.18685493630E+03  0.34480521750E+03  0.00000000000E+00 0. -1.
         22    1    5    5    0    0 -0.25687180128E+03  0.74532635367E+02  0.42623948057E+03  0.50320803931E+03  0.00000000000E+00 0. -1.
          5    1    4    4  502    0 -0.73585745336E+02 -0.86637370827E+02  0.36926821994E+02  0.11961010042E+03  0.47000000000E+01 0.  1.
         -5    1    4    4    0  502  0.46523990866E+02 -0.45840123770E+02  0.60045350137E+02  0.88844430025E+02  0.47000000000E+01 0.  1.
<mgrwt>
<rscale>  0 0.10014931E+04</rscale>
<asrwt>0</asrwt>
<pdfrwt beam="1">  1        1 0.10714035E+00 0.10014931E+04</pdfrwt>
<pdfrwt beam="2">  1       -1 0.55393159E-01 0.10014931E+04</pdfrwt>
<totfact> 0.10411144E+02</totfact>
</mgrwt>
</event>
<event>
 9    1  0.4488205E-036  0.1000024E+04  0.7818608E-02  0.8681015E-01
          1   -1    0    0  501    0  0.00000000000E+00  0.00000000000E+00  0.59502575249E+03  0.59502575249E+03  0.00000000000E+00 0.  1.
         -1   -1    0    0    0  501 -0.00000000000E+00 -0.00000000000E+00 -0.42016992543E+03  0.42016992543E+03  0.00000000000E+00 0.  1.
         36    2    1    2    0    0  0.71054273576E-14  0.00000000000E+00  0.17485582706E+03  0.10151956779E+04  0.10000238518E+04 0.  0.
         25    2    3    3    0    0 -0.38225260172E+02  0.13538849134E+03  0.32283399661E+02  0.18952301870E+03  0.12282321695E+03 0.  0.
         35    2    3    3    0    0  0.38225260172E+02 -0.13538849134E+03  0.14257242740E+03  0.82567265921E+03  0.80101013041E+03 0.  0.
         22    1    5    5    0    0 -0.33291850899E+02 -0.32952244995E+03  0.38441342786E+03  0.50741213611E+03  0.00000000000E+00 0.  1.
         22    1    5    5    0    0  0.71517111071E+02  0.19413395862E+03 -0.24184100046E+03  0.31826052310E+03  0.00000000000E+00 0.  1.
          5    1    4    4  502    0 -0.52805398839E+02  0.33997323692E+01  0.15773320426E+01  0.53146460871E+02  0.47000000000E+01 0.  1.
         -5    1    4    4    0  502  0.14580138667E+02  0.13198875897E+03  0.30706067618E+02  0.13637655783E+03  0.47000000000E+01 0.  1.
<mgrwt>
<rscale>  0 0.10000239E+04</rscale>
<asrwt>0</asrwt>
<pdfrwt beam="1">  1        1 0.91542423E-01 0.10000239E+04</pdfrwt>
<pdfrwt beam="2">  1       -1 0.64641527E-01 0.10000239E+04</pdfrwt>
<totfact> 0.97962579E+01</totfact>
</mgrwt>
</event>
<event>
 9    1  0.4488205E-036  0.9986483E+03  0.7818608E-02  0.8682326E-01
         -2   -1    0    0    0  501 -0.00000000000E+00  0.00000000000E+00  0.87358798719E+02  0.87358798719E+02  0.00000000000E+00 0.  1.
          2   -1    0    0  501    0  0.00000000000E+00 -0.00000000000E+00 -0.28540298535E+04  0.28540298535E+04  0.00000000000E+00 0.  1.
         36    2    1    2    0    0 -0.14210854715E-13  0.14210854715E-13 -0.27666710547E+04  0.29413886522E+04  0.99864832550E+03 0.  0.
         25    2    3    3    0    0  0.11605323413E+03 -0.52771120545E+02 -0.35820592093E+03  0.39982802529E+03  0.12368437130E+03 0.  0.
         35    2    3    3    0    0 -0.11605323413E+03  0.52771120545E+02 -0.24084651338E+04  0.25415606269E+04  0.80160649638E+03 0.  0.
         22    1    5    5    0    0 -0.47855933073E+02  0.42151458398E+03 -0.10547282654E+04  0.11368449536E+04  0.00000000000E+00 0. -1.
         22    1    5    5    0    0 -0.68197301059E+02 -0.36874346343E+03 -0.13537368684E+04  0.14047156733E+04  0.00000000000E+00 0. -1.
          5    1    4    4  502    0  0.66047980658E+02 -0.81302540784E+02 -0.30011972130E+03  0.31790938331E+03  0.47000000000E+01 0.  1.
         -5    1    4    4    0  502  0.50005253475E+02  0.28531420239E+02 -0.58086199630E+02  0.81918641977E+02  0.47000000000E+01 0.  1.
<mgrwt>
<rscale>  0 0.99864833E+03</rscale>
<asrwt>0</asrwt>
<pdfrwt beam="1">  1        2 0.43908145E+00 0.99864833E+03</pdfrwt>
<pdfrwt beam="2">  1       -2 0.13439817E-01 0.99864833E+03</pdfrwt>
<totfact> 0.10027059E+02</totfact>
</mgrwt>
</event>
<event>
 9    1  0.4488205E-036  0.1000963E+04  0.7818608E-02  0.8680121E-01
          2   -1    0    0  501    0  0.00000000000E+00  0.00000000000E+00  0.92612323076E+03  0.92612323076E+03  0.00000000000E+00 0. -1.
         -2   -1    0    0    0  501 -0.00000000000E+00 -0.00000000000E+00 -0.27046276307E+03  0.27046276307E+03  0.00000000000E+00 0. -1.
         36    2    1    2    0    0  0.00000000000E+00  0.00000000000E+00  0.65566046769E+03  0.11965859938E+04  0.10009632320E+04 0.  0.
         25    2    3    3    0    0  0.11907882681E+03 -0.77800721844E+02  0.89330861568E+02  0.20796011446E+03  0.12261601471E+03 0.  0.
         35    2    3    3    0    0 -0.11907882681E+03  0.77800721844E+02  0.56632960613E+03  0.98862587938E+03  0.79775885284E+03 0.  0.
         22    1    5    5    0    0 -0.59995568277E+02  0.33447975563E+03 -0.25559148103E+02  0.34077770642E+03  0.00000000000E+00 0.  1.
         22    1    5    5    0    0 -0.59083258530E+02 -0.25667903379E+03  0.59188875423E+03  0.64784817296E+03  0.00000000000E+00 0.  1.
          5    1    4    4  502    0  0.53328449706E+02 -0.70269145341E+02  0.10752891368E+03  0.13916261571E+03  0.47000000000E+01 0.  1.
         -5    1    4    4    0  502  0.65750377101E+02 -0.75315765036E+01 -0.18198052108E+02  0.68797498749E+02  0.47000000000E+01 0.  1.
<mgrwt>
<rscale>  0 0.10009632E+04</rscale>
<asrwt>0</asrwt>
<pdfrwt beam="1">  1        2 0.14248050E+00 0.10009632E+04</pdfrwt>
<pdfrwt beam="2">  1       -2 0.41609656E-01 0.10009632E+04</pdfrwt>
<totfact> 0.18640294E+02</totfact>
</mgrwt>
</event>
<event>
 9    1  0.4488205E-036  0.9987259E+03  0.7818608E-02  0.8682252E-01
          2   -1    0    0  501    0  0.00000000000E+00  0.00000000000E+00  0.13545860863E+04  0.13545860863E+04  0.00000000000E+00 0. -1.
         -2   -1    0    0    0  501 -0.00000000000E+00 -0.00000000000E+00 -0.18408821949E+03  0.18408821949E+03  0.00000000000E+00 0. -1.
         36    2    1    2    0    0 -0.14210854715E-13  0.14210854715E-13  0.11704978668E+04  0.15386743058E+04  0.99872586983E+03 0.  0.
         25    2    3    3    0    0 -0.54583276171E+02  0.11974376893E+03  0.28215747209E+03  0.33587026738E+03  0.12600830615E+03 0.  0.
         35    2    3    3    0    0  0.54583276171E+02 -0.11974376893E+03  0.88834039468E+03  0.12028040384E+04  0.80016935312E+03 0.  0.
         22    1    5    5    0    0  0.25506086596E+03  0.19959380232E+03  0.11721372772E+03  0.34443110957E+03  0.00000000000E+00 0.  1.
         22    1    5    5    0    0 -0.20047758979E+03 -0.31933757125E+03  0.77112666696E+03  0.85837292881E+03  0.00000000000E+00 0.  1.
          5    1    4    4  502    0 -0.67784470873E+02  0.10197319242E+03  0.11785037243E+03  0.17001196060E+03  0.47000000000E+01 0.  1.
         -5    1    4    4    0  502  0.13201194702E+02  0.17770576509E+02  0.16430709965E+03  0.16585830678E+03  0.47000000000E+01 0.  1.
<mgrwt>
<rscale>  0 0.99872587E+03</rscale>
<asrwt>0</asrwt>
<pdfrwt beam="1">  1        2 0.20839785E+00 0.99872587E+03</pdfrwt>
<pdfrwt beam="2">  1       -2 0.28321265E-01 0.99872587E+03</pdfrwt>
<totfact> 0.21039973E+02</totfact>
</mgrwt>
</event>
<event>
 9    1  0.4488205E-036  0.1001786E+04  0.7818608E-02  0.8679339E-01
          2   -1    0    0  501    0  0.00000000000E+00  0.00000000000E+00  0.25077868210E+03  0.25077868210E+03  0.00000000000E+00 0. -1.
         -2   -1    0    0    0  501 -0.00000000000E+00 -0.00000000000E+00 -0.10004599032E+04  0.10004599032E+04  0.00000000000E+00 0. -1.
         36    2    1    2    0    0 -0.42632564146E-13 -0.71054273576E-14 -0.74968122115E+03  0.12512385853E+04  0.10017864364E+04 0.  0.
         25    2    3    3    0    0  0.92604378382E+02 -0.29552096327E+02 -0.27184309563E+03  0.31436445785E+03  0.12440838567E+03 0.  0.
         35    2    3    3    0    0 -0.92604378382E+02  0.29552096327E+02 -0.47783812552E+03  0.93687412750E+03  0.79997184906E+03 0.  0.
         22    1    5    5    0    0  0.28232404156E+03 -0.16348926748E+03 -0.38578390539E+03  0.50523739636E+03  0.00000000000E+00 0.  1.
         22    1    5    5    0    0 -0.37492841994E+03  0.19304136381E+03 -0.92054220130E+02  0.43163673114E+03  0.00000000000E+00 0.  1.
          5    1    4    4  502    0 -0.53034945511E-01  0.12049707020E+02 -0.16987106763E+03  0.17036275376E+03  0.47000000000E+01 0. -1.
         -5    1    4    4    0  502  0.92657413327E+02 -0.41601803347E+02 -0.10197202801E+03  0.14400170409E+03  0.47000000000E+01 0. -1.
<mgrwt>
<rscale>  0 0.10017864E+04</rscale>
<asrwt>0</asrwt>
<pdfrwt beam="1">  1        2 0.38581335E-01 0.10017864E+04</pdfrwt>
<pdfrwt beam="2">  1       -2 0.15391691E+00 0.10017864E+04</pdfrwt>
<totfact> 0.42320170E+01</totfact>
</mgrwt>
</event>
<event>
 9    1  0.4488205E-036  0.9998863E+03  0.7818608E-02  0.8681146E-01
          2   -1    0    0  501    0  0.00000000000E+00  0.00000000000E+00  0.40011065660E+03  0.40011065660E+03  0.00000000000E+00 0. -1.
         -2   -1    0    0    0  501 -0.00000000000E+00 -0.00000000000E+00 -0.62468504820E+03  0.62468504820E+03  0.00000000000E+00 0. -1.
         36    2    1    2    0    0  0.00000000000E+00  0.00000000000E+00 -0.22457439160E+03  0.10247957048E+04  0.99988628315E+03 0.  0.
         25    2    3    3    0    0  0.13379030487E+03 -0.38322847673E+02 -0.26379125010E+02  0.18894712109E+03  0.12504667129E+03 0.  0.
         35    2    3    3    0    0 -0.13379030487E+03  0.38322847673E+02 -0.19819526659E+03  0.83584858372E+03  0.79999562804E+03 0.  0.
         22    1    5    5    0    0  0.28633922908E+02 -0.28110484831E+02  0.30257329548E+03  0.30522237801E+03  0.00000000000E+00 0. -1.
         22    1    5    5    0    0 -0.16242422778E+03  0.66433332503E+02 -0.50076856206E+03  0.53062620571E+03  0.00000000000E+00 0. -1.
          5    1    4    4  502    0  0.15429930434E+03 -0.36593887490E+02 -0.40264313065E+02  0.16367862667E+03  0.47000000000E+01 0.  1.
         -5    1    4    4    0  502 -0.20508999473E+02 -0.17289601825E+01  0.13885188055E+02  0.25268494416E+02  0.47000000000E+01 0.  1.
<mgrwt>
<rscale>  0 0.99988628E+03</rscale>
<asrwt>0</asrwt>
<pdfrwt beam="1">  1        2 0.61555485E-01 0.99988628E+03</pdfrwt>
<pdfrwt beam="2">  1       -2 0.96105392E-01 0.99988628E+03</pdfrwt>
<totfact> 0.85890153E+01</totfact>
</mgrwt>
</event>
<event>
 9    1  0.4488205E-036  0.1000209E+04  0.7818608E-02  0.8680839E-01
         -2   -1    0    0    0  501 -0.00000000000E+00  0.00000000000E+00  0.11881112705E+03  0.11881112705E+03  0.00000000000E+00 0. -1.
          2   -1    0    0  501    0  0.00000000000E+00 -0.00000000000E+00 -0.21050587919E+04  0.21050587919E+04  0.00000000000E+00 0. -1.
         36    2    1    2    0    0  0.28421709430E-13 -0.14210854715E-13 -0.19862476649E+04  0.22238699190E+04  0.10002087934E+04 0.  0.
         25    2    3    3    0    0  0.27145314160E+02 -0.10315906608E+03 -0.16942191145E+03  0.23598430791E+03  0.12492457126E+03 0.  0.
         35    2    3    3    0    0 -0.27145314160E+02  0.10315906608E+03 -0.18168257534E+04  0.19878856111E+04  0.79965912950E+03 0.  0.
         22    1    5    5    0    0  0.34509476030E+03 -0.12010644051E+02 -0.12721809911E+04  0.13182105762E+04  0.00000000000E+00 0.  1.
         22    1    5    5    0    0 -0.37224007446E+03  0.11516971013E+03 -0.54464476231E+03  0.66967503483E+03  0.00000000000E+00 0.  1.
          5    1    4    4  502    0  0.17415619583E+02  0.25917154001E+02 -0.16666013744E+02  0.35705023331E+02  0.47000000000E+01 0. -1.
         -5    1    4    4    0  502  0.97296945773E+01 -0.12907622008E+03 -0.15275589771E+03  0.20027928458E+03  0.47000000000E+01 0. -1.
<mgrwt>
<rscale>  0 0.10002088E+04</rscale>
<asrwt>0</asrwt>
<pdfrwt beam="1">  1        2 0.32385515E+00 0.10002088E+04</pdfrwt>
<pdfrwt beam="2">  1       -2 0.18278638E-01 0.10002088E+04</pdfrwt>
<totfact> 0.17042453E+02</totfact>
</mgrwt>
</event>
<event>
 9    1  0.4488205E-036  0.9971763E+03  0.7818608E-02  0.8683732E-01
         -1   -1    0    0    0  501 -0.00000000000E+00  0.00000000000E+00  0.29701463104E+03  0.29701463104E+03  0.00000000000E+00 0.  1.
          1   -1    0    0  501    0  0.00000000000E+00 -0.00000000000E+00 -0.83696258712E+03  0.83696258712E+03  0.00000000000E+00 0.  1.
         36    2    1    2    0    0  0.21316282073E-13  0.71054273576E-14 -0.53994795608E+03  0.11339772182E+04  0.99717628133E+03 0.  0.
         25    2    3    3    0    0 -0.23743962784E+02 -0.35615966454E+02 -0.24858867378E+03  0.28138403448E+03  0.12469311646E+03 0.  0.
         35    2    3    3    0    0  0.23743962784E+02  0.35615966454E+02 -0.29135928229E+03  0.85259318369E+03  0.80012038635E+03 0.  0.
         22    1    5    5    0    0  0.18048797901E+03  0.25222983310E+03 -0.44635990142E+03  0.54353745121E+03  0.00000000000E+00 0.  1.
         22    1    5    5    0    0 -0.15674401623E+03 -0.21661386664E+03  0.15500061913E+03  0.30905573247E+03  0.00000000000E+00 0.  1.
          5    1    4    4  502    0  0.18439851940E+02  0.68407366608E+01 -0.20785183296E+03  0.20883318291E+03  0.47000000000E+01 0. -1.
         -5    1    4    4    0  502 -0.42183814724E+02 -0.42456703115E+02 -0.40736840824E+02  0.72550851576E+02  0.47000000000E+01 0. -1.
<mgrwt>
<rscale>  0 0.99717628E+03</rscale>
<asrwt>0</asrwt>
<pdfrwt beam="1">  1        1 0.12876347E+00 0.99717628E+03</pdfrwt>
<pdfrwt beam="2">  1       -1 0.45694559E-01 0.99717628E+03</pdfrwt>
<totfact> 0.11095081E+02</totfact>
</mgrwt>
</event>
<event>
 9    1  0.4488205E-036  0.1000776E+04  0.7818608E-02  0.8680299E-01
         -2   -1    0    0    0  501 -0.00000000000E+00  0.00000000000E+00  0.20275870490E+03  0.20275870490E+03  0.00000000000E+00 0. -1.
          2   -1    0    0  501    0  0.00000000000E+00 -0.00000000000E+00 -0.12349069878E+04  0.12349069878E+04  0.00000000000E+00 0. -1.
         36    2    1    2    0    0  0.00000000000E+00 -0.28421709430E-13 -0.10321482829E+04  0.14376656927E+04  0.10007759820E+04 0.  0.
         25    2    3    3    0    0 -0.79798603980E+02  0.15463382547E+02 -0.31825226354E+02  0.15305944561E+03  0.12572754456E+03 0.  0.
         35    2    3    3    0    0  0.79798603980E+02 -0.15463382547E+02 -0.10003230565E+04  0.12846062471E+04  0.80184790279E+03 0.  0.
         22    1    5    5    0    0 -0.11501061980E+03  0.35731490896E+03 -0.37183914609E+03  0.52836137009E+03  0.00000000000E+00 0. -1.
         22    1    5    5    0    0  0.19480922378E+03 -0.37277829151E+03 -0.62848391045E+03  0.75624487700E+03  0.00000000000E+00 0. -1.
          5    1    4    4  502    0 -0.98744159661E+02  0.84769635691E+01 -0.61593944110E+02  0.11678258402E+03  0.47000000000E+01 0.  1.
         -5    1    4    4    0  502  0.18945555681E+02  0.69864189776E+01  0.29768717756E+02  0.36276861593E+02  0.47000000000E+01 0.  1.
<mgrwt>
<rscale>  0 0.10007760E+04</rscale>
<asrwt>0</asrwt>
<pdfrwt beam="1">  1        2 0.18998570E+00 0.10007760E+04</pdfrwt>
<pdfrwt beam="2">  1       -2 0.31193646E-01 0.10007760E+04</pdfrwt>
<totfact> 0.20709136E+02</totfact>
</mgrwt>
</event>
<event>
 9    1  0.4488205E-036  0.1000163E+04  0.7818608E-02  0.8680883E-01
          2   -1    0    0  501    0  0.00000000000E+00  0.00000000000E+00  0.30343616780E+04  0.30343616780E+04  0.00000000000E+00 0.  1.
         -2   -1    0    0    0  501 -0.00000000000E+00 -0.00000000000E+00 -0.82416537003E+02  0.82416537003E+02  0.00000000000E+00 0.  1.
         36    2    1    2    0    0 -0.28421709430E-13  0.56843418861E-13  0.29519451410E+04  0.31167782150E+04  0.10001631497E+04 0.  0.
         25    2    3    3    0    0 -0.36259239756E+02  0.13338268200E+03  0.59461352868E+03  0.62340275092E+03  0.12633316679E+03 0.  0.
         35    2    3    3    0    0  0.36259239756E+02 -0.13338268200E+03  0.23573316123E+04  0.24933754641E+04  0.80050184395E+03 0.  0.
         22    1    5    5    0    0  0.18471504881E+03  0.14467178289E+03  0.18633698874E+03  0.29961816933E+03  0.00000000000E+00 0.  1.
         22    1    5    5    0    0 -0.14845580906E+03 -0.27805446489E+03  0.21709946236E+04  0.21937572948E+04  0.00000000000E+00 0.  1.
          5    1    4    4  502    0 -0.81200455360E+02  0.99720627593E+02  0.36658280999E+03  0.38851353143E+03  0.47000000000E+01 0. -1.
         -5    1    4    4    0  502  0.44941215604E+02  0.33662054409E+02  0.22803071869E+03  0.23488921949E+03  0.47000000000E+01 0. -1.
<mgrwt>
<rscale>  0 0.10001631E+04</rscale>
<asrwt>0</asrwt>
<pdfrwt beam="1">  1        2 0.46682479E+00 0.10001631E+04</pdfrwt>
<pdfrwt beam="2">  1       -2 0.12679470E-01 0.10001631E+04</pdfrwt>
<totfact> 0.83946951E+01</totfact>
</mgrwt>
</event>
<event>
 9    1  0.4488205E-036  0.1000007E+04  0.7818608E-02  0.8681031E-01
          1   -1    0    0  501    0  0.00000000000E+00  0.00000000000E+00  0.29936740817E+03  0.29936740817E+03  0.00000000000E+00 0.  1.
         -1   -1    0    0    0  501 -0.00000000000E+00 -0.00000000000E+00 -0.83510594743E+03  0.83510594743E+03  0.00000000000E+00 0.  1.
         36    2    1    2    0    0  0.00000000000E+00  0.71054273576E-14 -0.53573853926E+03  0.11344733556E+04  0.10000070060E+04 0.  0.
         25    2    3    3    0    0  0.12394048139E+03 -0.16102406302E+02 -0.17166249067E+03  0.24675990567E+03  0.12570564795E+03 0.  0.
         35    2    3    3    0    0 -0.12394048139E+03  0.16102406302E+02 -0.36407604859E+03  0.88771344993E+03  0.79991453894E+03 0.  0.
         22    1    5    5    0    0 -0.36929799992E+03 -0.23243348990E+03 -0.94349662559E+02  0.44643946823E+03  0.00000000000E+00 0.  1.
         22    1    5    5    0    0  0.24535751853E+03  0.24853589620E+03 -0.26972638603E+03  0.44127398169E+03  0.00000000000E+00 0.  1.
          5    1    4    4  502    0  0.19685375981E+02  0.48027523806E+02 -0.32738371838E+02  0.61547120656E+02  0.47000000000E+01 0. -1.
         -5    1    4    4    0  502  0.10425510541E+03 -0.64129930108E+02 -0.13892411884E+03  0.18521278502E+03  0.47000000000E+01 0. -1.
<mgrwt>
<rscale>  0 0.10000070E+04</rscale>
<asrwt>0</asrwt>
<pdfrwt beam="1">  1        1 0.46056525E-01 0.10000070E+04</pdfrwt>
<pdfrwt beam="2">  1       -1 0.12847784E+00 0.10000070E+04</pdfrwt>
<totfact> 0.55049816E+01</totfact>
</mgrwt>
</event>
<event>
 9    1  0.4488205E-036  0.1000337E+04  0.7818608E-02  0.8680717E-01
          1   -1    0    0  501    0  0.00000000000E+00  0.00000000000E+00  0.13768008953E+04  0.13768008953E+04  0.00000000000E+00 0.  1.
         -1   -1    0    0    0  501 -0.00000000000E+00 -0.00000000000E+00 -0.18170289201E+03  0.18170289201E+03  0.00000000000E+00 0.  1.
         36    2    1    2    0    0  0.00000000000E+00 -0.71054273576E-14  0.11950980033E+04  0.15585037873E+04  0.10003373519E+04 0.  0.
         25    2    3    3    0    0 -0.63177310121E+02  0.19195506818E+01  0.42150753547E+03  0.44403861108E+03  0.12452561374E+03 0.  0.
         35    2    3    3    0    0  0.63177310121E+02 -0.19195506818E+01  0.77359046786E+03  0.11144651763E+04  0.79974705999E+03 0.  0.
         22    1    5    5    0    0 -0.18740453056E+03 -0.86562496924E+02 -0.79579256638E+02  0.22123829242E+03  0.00000000000E+00 0.  1.
         22    1    5    5    0    0  0.25058184068E+03  0.84642946243E+02  0.85316972450E+03  0.89322688384E+03  0.00000000000E+00 0.  1.
          5    1    4    4  502    0 -0.50429326999E+02  0.27191457398E+02  0.66620660512E+02  0.87993720140E+02  0.47000000000E+01 0. -1.
         -5    1    4    4    0  502 -0.12747983122E+02 -0.25271906716E+02  0.35488687496E+03  0.35604489094E+03  0.47000000000E+01 0. -1.
<mgrwt>
<rscale>  0 0.10003374E+04</rscale>
<asrwt>0</asrwt>
<pdfrwt beam="1">  1        1 0.21181551E+00 0.10003374E+04</pdfrwt>
<pdfrwt beam="2">  1       -1 0.27954292E-01 0.10003374E+04</pdfrwt>
<totfact> 0.10028295E+02</totfact>
</mgrwt>
</event>
<event>
 9    1  0.4488205E-036  0.1000738E+04  0.7818608E-02  0.8680335E-01
          2   -1    0    0  501    0  0.00000000000E+00  0.00000000000E+00  0.34754501659E+03  0.34754501659E+03  0.00000000000E+00 0.  1.
         -2   -1    0    0    0  501 -0.00000000000E+00 -0.00000000000E+00 -0.72039362192E+03  0.72039362192E+03  0.00000000000E+00 0.  1.
         36    2    1    2    0    0  0.28421709430E-13  0.00000000000E+00 -0.37284860533E+03  0.10679386385E+04  0.10007381541E+04 0.  0.
         25    2    3    3    0    0  0.44965734754E+02  0.85414276435E+02 -0.18311434697E+03  0.24200201313E+03  0.12536584213E+03 0.  0.
         35    2    3    3    0    0 -0.44965734754E+02 -0.85414276435E+02 -0.18973425836E+03  0.82593662538E+03  0.79803176906E+03 0.  0.
         22    1    5    5    0    0 -0.15303233247E+03  0.31583552814E+03  0.36407443590E+02  0.35284058378E+03  0.00000000000E+00 0. -1.
         22    1    5    5    0    0  0.10806659772E+03 -0.40124980457E+03 -0.22614170195E+03  0.47309604159E+03  0.00000000000E+00 0. -1.
          5    1    4    4  502    0 -0.22571502700E+02  0.74960107043E+02 -0.52083798976E+02  0.94145114041E+02  0.47000000000E+01 0.  1.
         -5    1    4    4    0  502  0.67537237454E+02  0.10454169392E+02 -0.13103054799E+03  0.14785689909E+03  0.47000000000E+01 0.  1.
<mgrwt>
<rscale>  0 0.10007382E+04</rscale>
<asrwt>0</asrwt>
<pdfrwt beam="1">  1        2 0.53468464E-01 0.10007382E+04</pdfrwt>
<pdfrwt beam="2">  1       -2 0.11082979E+00 0.10007382E+04</pdfrwt>
<totfact> 0.70756765E+01</totfact>
</mgrwt>
</event>
<event>
 9    1  0.4488205E-036  0.9998519E+03  0.7818608E-02  0.8681179E-01
         -1   -1    0    0    0  501 -0.00000000000E+00  0.00000000000E+00  0.63787979479E+03  0.63787979479E+03  0.00000000000E+00 0.  1.
          1   -1    0    0  501    0  0.00000000000E+00 -0.00000000000E+00 -0.39180728112E+03  0.39180728112E+03  0.00000000000E+00 0.  1.
         36    2    1    2    0    0  0.14210854715E-13  0.28421709430E-13  0.24607251366E+03  0.10296870759E+04  0.99985188519E+03 0.  0.
         25    2    3    3    0    0  0.53048294102E+02 -0.12694545832E+03  0.19357302850E+02  0.18689426172E+03  0.12500195596E+03 0.  0.
         35    2    3    3    0    0 -0.53048294102E+02  0.12694545832E+03  0.22671521081E+03  0.84279281419E+03  0.79998166850E+03 0.  0.
         22    1    5    5    0    0  0.58785101504E+02  0.15821874783E+03  0.50969401593E+03  0.53691419258E+03  0.00000000000E+00 0. -1.
         22    1    5    5    0    0 -0.11183339561E+03 -0.31273289503E+02 -0.28297880512E+03  0.30587862160E+03  0.00000000000E+00 0. -1.
          5    1    4    4  502    0  0.19758604822E+02  0.22248455195E+02  0.15574660757E+02  0.33912479720E+02  0.47000000000E+01 0. -1.
         -5    1    4    4    0  502  0.33289689280E+02 -0.14919391352E+03  0.37826420930E+01  0.15298178200E+03  0.47000000000E+01 0. -1.
<mgrwt>
<rscale>  0 0.99985189E+03</rscale>
<asrwt>0</asrwt>
<pdfrwt beam="1">  1        1 0.60278043E-01 0.99985189E+03</pdfrwt>
<pdfrwt beam="2">  1       -1 0.98135353E-01 0.99985189E+03</pdfrwt>
<totfact> 0.73447021E+01</totfact>
</mgrwt>
</event>
<event>
 9    1  0.4488205E-036  0.9999467E+03  0.7818608E-02  0.8681089E-01
         -1   -1    0    0    0  501 -0.00000000000E+00  0.00000000000E+00  0.20583338796E+03  0.20583338796E+03  0.00000000000E+00 0. -1.
          1   -1    0    0  501    0  0.00000000000E+00 -0.00000000000E+00 -0.12144451489E+04  0.12144451489E+04  0.00000000000E+00 0. -1.
         36    2    1    2    0    0  0.14210854715E-13  0.00000000000E+00 -0.10086117609E+04  0.14202785368E+04  0.99994671754E+03 0.  0.
         25    2    3    3    0    0 -0.71021760718E+02  0.11167818006E+03 -0.25170212254E+03  0.31087668171E+03  0.12559556656E+03 0.  0.
         35    2    3    3    0    0  0.71021760718E+02 -0.11167818006E+03 -0.75690963837E+03  0.11094018551E+04  0.80021507677E+03 0.  0.
         22    1    5    5    0    0  0.29016267856E+03 -0.22938510532E+03 -0.66846429497E+02  0.37587278660E+03  0.00000000000E+00 0. -1.
         22    1    5    5    0    0 -0.21914091784E+03  0.11770692526E+03 -0.69006320887E+03  0.73352906852E+03  0.00000000000E+00 0. -1.
          5    1    4    4  502    0 -0.10148108256E+03  0.11031488221E+03 -0.22302647748E+03  0.26875766596E+03  0.47000000000E+01 0. -1.
         -5    1    4    4    0  502  0.30459321841E+02  0.13632978566E+01 -0.28675645066E+02  0.42119015753E+02  0.47000000000E+01 0. -1.
<mgrwt>
<rscale>  0 0.99994672E+03</rscale>
<asrwt>0</asrwt>
<pdfrwt beam="1">  1        1 0.18683771E+00 0.99994672E+03</pdfrwt>
<pdfrwt beam="2">  1       -1 0.31666676E-01 0.99994672E+03</pdfrwt>
<totfact> 0.10652323E+02</totfact>
</mgrwt>
</event>
<event>
 9    1  0.4488205E-036  0.1000035E+04  0.7818608E-02  0.8681005E-01
         -2   -1    0    0    0  501 -0.00000000000E+00  0.00000000000E+00  0.98883348605E+02  0.98883348605E+02  0.00000000000E+00 0. -1.
          2   -1    0    0  501    0  0.00000000000E+00 -0.00000000000E+00 -0.25284075192E+04  0.25284075192E+04  0.00000000000E+00 0. -1.
         36    2    1    2    0    0  0.00000000000E+00 -0.14210854715E-13 -0.24295241706E+04  0.26272908678E+04  0.10000348037E+04 0.  0.
         25    2    3    3    0    0 -0.84698017863E+02  0.11841306055E+03 -0.44245414589E+03  0.48015115945E+03  0.11655066523E+03 0.  0.
         35    2    3    3    0    0  0.84698017863E+02 -0.11841306055E+03 -0.19870700247E+04  0.21471397084E+04  0.80035381987E+03 0.  0.
         22    1    5    5    0    0  0.93256350735E+02 -0.94667516244E+02 -0.20629224006E+04  0.20671979867E+04  0.00000000000E+00 0.  1.
         22    1    5    5    0    0 -0.85583328723E+01 -0.23745544310E+02  0.75852375850E+02  0.79941721637E+02  0.00000000000E+00 0.  1.
          5    1    4    4  502    0 -0.85402268790E+02  0.14017936798E+03 -0.38923982810E+03  0.42246128403E+03  0.47000000000E+01 0.  1.
         -5    1    4    4    0  502  0.70425092666E+00 -0.21766307427E+02 -0.53214317795E+02  0.57689875426E+02  0.47000000000E+01 0.  1.
<mgrwt>
<rscale>  0 0.10000348E+04</rscale>
<asrwt>0</asrwt>
<pdfrwt beam="1">  1        2 0.38898577E+00 0.10000348E+04</pdfrwt>
<pdfrwt beam="2">  1       -2 0.15212823E-01 0.10000348E+04</pdfrwt>
<totfact> 0.13068180E+02</totfact>
</mgrwt>
</event>
<event>
 9    1  0.4488205E-036  0.9997498E+03  0.7818608E-02  0.8681276E-01
         -2   -1    0    0    0  501 -0.00000000000E+00  0.00000000000E+00  0.11393672712E+03  0.11393672712E+03  0.00000000000E+00 0.  1.
          2   -1    0    0  501    0  0.00000000000E+00 -0.00000000000E+00 -0.21931024343E+04  0.21931024343E+04  0.00000000000E+00 0.  1.
         36    2    1    2    0    0 -0.28421709430E-13  0.00000000000E+00 -0.20791657072E+04  0.23070391614E+04  0.99974979592E+03 0.  0.
         25    2    3    3    0    0  0.18534553208E+02  0.13145302171E+03 -0.29998698370E+03  0.35162077928E+03  0.12657628315E+03 0.  0.
         35    2    3    3    0    0 -0.18534553208E+02 -0.13145302171E+03 -0.17791787235E+04  0.19554183821E+04  0.80035035613E+03 0.  0.
         22    1    5    5    0    0  0.25741132671E+03 -0.13146646032E+02 -0.15663102225E+04  0.15873755506E+04  0.00000000000E+00 0.  1.
         22    1    5    5    0    0 -0.27594587992E+03 -0.11830637567E+03 -0.21286850098E+03  0.36804283158E+03  0.00000000000E+00 0.  1.
          5    1    4    4  502    0  0.24152306322E+02  0.15072410785E+03 -0.21217948704E+03  0.26142554448E+03  0.47000000000E+01 0.  1.
         -5    1    4    4    0  502 -0.56177531140E+01 -0.19271086139E+02 -0.87807496663E+02  0.90195234803E+02  0.47000000000E+01 0.  1.
<mgrwt>
<rscale>  0 0.99974980E+03</rscale>
<asrwt>0</asrwt>
<pdfrwt beam="1">  1        2 0.33740040E+00 0.99974980E+03</pdfrwt>
<pdfrwt beam="2">  1       -2 0.17528726E-01 0.99974980E+03</pdfrwt>
<totfact> 0.16282470E+02</totfact>
</mgrwt>
</event>
<event>
 9    1  0.4488205E-036  0.9994407E+03  0.7818608E-02  0.8681571E-01
         -2   -1    0    0    0  501 -0.00000000000E+00  0.00000000000E+00  0.13117198197E+03  0.13117198197E+03  0.00000000000E+00 0.  1.
          2   -1    0    0  501    0  0.00000000000E+00 -0.00000000000E+00 -0.19037634893E+04  0.19037634893E+04  0.00000000000E+00 0.  1.
         36    2    1    2    0    0  0.00000000000E+00  0.42632564146E-13 -0.17725915073E+04  0.20349354713E+04  0.99944070379E+03 0.  0.
         25    2    3    3    0    0  0.80678950271E+02 -0.88761683417E+02 -0.18207185844E+03  0.25062306170E+03  0.12358813844E+03 0.  0.
         35    2    3    3    0    0 -0.80678950271E+02  0.88761683417E+02 -0.15905196489E+04  0.17843124096E+04  0.79976889911E+03 0.  0.
         22    1    5    5    0    0 -0.16320655111E+03  0.40407829418E+03 -0.11938934034E+04  0.12709433917E+04  0.00000000000E+00 0.  1.
         22    1    5    5    0    0  0.82527600839E+02 -0.31531661076E+03 -0.39662624546E+03  0.51336901787E+03  0.00000000000E+00 0.  1.
          5    1    4    4  502    0 -0.20894568253E+02 -0.52962512694E+02 -0.99878842757E+02  0.11506295652E+03  0.47000000000E+01 0. -1.
         -5    1    4    4    0  502  0.10157351852E+03 -0.35799170723E+02 -0.82193015682E+02  0.13556010518E+03  0.47000000000E+01 0. -1.
<mgrwt>
<rscale>  0 0.99944070E+03</rscale>
<asrwt>0</asrwt>
<pdfrwt beam="1">  1        2 0.29288671E+00 0.99944070E+03</pdfrwt>
<pdfrwt beam="2">  1       -2 0.20180303E-01 0.99944070E+03</pdfrwt>
<totfact> 0.18718601E+02</totfact>
</mgrwt>
</event>
<event>
 9    1  0.4488205E-036  0.1001112E+04  0.7818608E-02  0.8679980E-01
         -2   -1    0    0    0  501 -0.00000000000E+00  0.00000000000E+00  0.24907560014E+03  0.24907560014E+03  0.00000000000E+00 0.  1.
          2   -1    0    0  501    0  0.00000000000E+00 -0.00000000000E+00 -0.10059450250E+04  0.10059450250E+04  0.00000000000E+00 0.  1.
         36    2    1    2    0    0  0.00000000000E+00  0.00000000000E+00 -0.75686942491E+03  0.12550206252E+04  0.10011121032E+04 0.  0.
         25    2    3    3    0    0  0.52623328716E+02 -0.58255666000E+02  0.23100092705E+01  0.14938413564E+03  0.12707220975E+03 0.  0.
         35    2    3    3    0    0 -0.52623328716E+02  0.58255666000E+02 -0.75917943418E+03  0.11056364895E+04  0.79994730851E+03 0.  0.
         22    1    5    5    0    0 -0.21448335261E+03 -0.32052025029E+03 -0.29870537021E+03  0.48781270748E+03  0.00000000000E+00 0.  1.
         22    1    5    5    0    0  0.16186002389E+03  0.37877591629E+03 -0.46047406397E+03  0.61782378206E+03  0.00000000000E+00 0.  1.
          5    1    4    4  502    0  0.42145816390E+02 -0.78182373757E+02 -0.42833652995E+02  0.98719629428E+02  0.47000000000E+01 0. -1.
         -5    1    4    4    0  502  0.10477512326E+02  0.19926707757E+02  0.45143662265E+02  0.50664506208E+02  0.47000000000E+01 0. -1.
<mgrwt>
<rscale>  0 0.10011121E+04</rscale>
<asrwt>0</asrwt>
<pdfrwt beam="1">  1        2 0.15476078E+00 0.10011121E+04</pdfrwt>
<pdfrwt beam="2">  1       -2 0.38319322E-01 0.10011121E+04</pdfrwt>
<totfact> 0.19409149E+02</totfact>
</mgrwt>
</event>
<event>
 9    1  0.4488205E-036  0.9994446E+03  0.7818608E-02  0.8681567E-01
         -2   -1    0    0    0  501 -0.00000000000E+00  0.00000000000E+00  0.23039170428E+03  0.23039170428E+03  0.00000000000E+00 0.  1.
          2   -1    0    0  501    0  0.00000000000E+00 -0.00000000000E+00 -0.10839034250E+04  0.10839034250E+04  0.00000000000E+00 0.  1.
         36    2    1    2    0    0 -0.12434497876E-13 -0.14210854715E-13 -0.85351172068E+03  0.13142951292E+04  0.99944456045E+03 0.  0.
         25    2    3    3    0    0  0.15594828213E+02  0.12638723982E+03 -0.76600600251E+02  0.19409231008E+03  0.12484886790E+03 0.  0.
         35    2    3    3    0    0 -0.15594828213E+02 -0.12638723982E+03 -0.77691112043E+03  0.11202028192E+04  0.79689807000E+03 0.  0.
         22    1    5    5    0    0  0.30558977199E+03 -0.17159205550E+03 -0.70598247003E+03  0.78818791556E+03  0.00000000000E+00 0. -1.
         22    1    5    5    0    0 -0.32118460020E+03  0.45204815675E+02 -0.70928650402E+02  0.33201490361E+03  0.00000000000E+00 0. -1.
          5    1    4    4  502    0 -0.19014828506E+01  0.14908201471E+03 -0.66819421941E+02  0.16345026123E+03  0.47000000000E+01 0.  1.
         -5    1    4    4    0  502  0.17496311063E+02 -0.22694774893E+02 -0.97811783108E+01  0.30642048845E+02  0.47000000000E+01 0.  1.
<mgrwt>
<rscale>  0 0.99944456E+03</rscale>
<asrwt>0</asrwt>
<pdfrwt beam="1">  1        2 0.16675438E+00 0.99944456E+03</pdfrwt>
<pdfrwt beam="2">  1       -2 0.35444877E-01 0.99944456E+03</pdfrwt>
<totfact> 0.20120436E+02</totfact>
</mgrwt>
</event>
<event>
 9    1  0.4488205E-036  0.9988746E+03  0.7818608E-02  0.8682110E-01
          2   -1    0    0  501    0  0.00000000000E+00  0.00000000000E+00  0.16512880726E+04  0.16512880726E+04  0.00000000000E+00 0. -1.
         -2   -1    0    0    0  501 -0.00000000000E+00 -0.00000000000E+00 -0.15105638279E+03  0.15105638279E+03  0.00000000000E+00 0. -1.
         36    2    1    2    0    0  0.71054273576E-14 -0.14210854715E-13  0.15002316898E+04  0.18023444553E+04  0.99887457307E+03 0.  0.
         25    2    3    3    0    0  0.41671337477E+02 -0.12758549411E+03  0.37422035717E+03  0.41532836390E+03  0.12017576905E+03 0.  0.
         35    2    3    3    0    0 -0.41671337477E+02  0.12758549411E+03  0.11260113326E+04  0.13870160914E+04  0.79868489287E+03 0.  0.
         22    1    5    5    0    0 -0.30377892071E+03 -0.91181981183E+02  0.14584788692E+03  0.34909510521E+03  0.00000000000E+00 0. -1.
         22    1    5    5    0    0  0.26210758323E+03  0.21876747529E+03  0.98016344567E+03  0.10379209862E+04  0.00000000000E+00 0. -1.
          5    1    4    4  502    0  0.43011397427E+02 -0.12727064023E+03  0.19963361587E+03  0.24067294563E+03  0.47000000000E+01 0. -1.
         -5    1    4    4    0  502 -0.13400599498E+01 -0.31485387752E+00  0.17458674130E+03  0.17465541827E+03  0.47000000000E+01 0. -1.
<mgrwt>
<rscale>  0 0.99887457E+03</rscale>
<asrwt>0</asrwt>
<pdfrwt beam="1">  1        2 0.25404431E+00 0.99887457E+03</pdfrwt>
<pdfrwt beam="2">  1       -2 0.23239445E-01 0.99887457E+03</pdfrwt>
<totfact> 0.20312272E+02</totfact>
</mgrwt>
</event>
<event>
 9    1  0.4488205E-036  0.9985652E+03  0.7818608E-02  0.8682406E-01
         -2   -1    0    0    0  501 -0.00000000000E+00  0.00000000000E+00  0.28914084670E+03  0.28914084670E+03  0.00000000000E+00 0.  1.
          2   -1    0    0  501    0  0.00000000000E+00 -0.00000000000E+00 -0.86215106902E+03  0.86215106902E+03  0.00000000000E+00 0.  1.
         36    2    1    2    0    0  0.49737991503E-13 -0.28421709430E-13 -0.57301022233E+03  0.11512919157E+04  0.99856515076E+03 0.  0.
         25    2    3    3    0    0 -0.63039228487E+02  0.12367595765E+03 -0.11009886361E+03  0.21596886018E+03  0.12349535202E+03 0.  0.
         35    2    3    3    0    0  0.63039228487E+02 -0.12367595765E+03 -0.46291135871E+03  0.93532305554E+03  0.80079498336E+03 0.  0.
         22    1    5    5    0    0  0.41600407581E+03 -0.10782713363E+03 -0.37707149922E+03  0.57172458174E+03  0.00000000000E+00 0. -1.
         22    1    5    5    0    0 -0.35296484733E+03 -0.15848824020E+02 -0.85839859490E+02  0.36359847380E+03  0.00000000000E+00 0. -1.
          5    1    4    4  502    0 -0.99538512688E+02  0.78115089381E+02 -0.83303450515E+02  0.15156331207E+03  0.47000000000E+01 0.  1.
         -5    1    4    4    0  502  0.36499284202E+02  0.45560868268E+02 -0.26795413100E+02  0.64405548113E+02  0.47000000000E+01 0.  1.
<mgrwt>
<rscale>  0 0.99856515E+03</rscale>
<asrwt>0</asrwt>
<pdfrwt beam="1">  1        2 0.13263862E+00 0.99856515E+03</pdfrwt>
<pdfrwt beam="2">  1       -2 0.44483208E-01 0.99856515E+03</pdfrwt>
<totfact> 0.18049363E+02</totfact>
</mgrwt>
</event>
<event>
 9    1  0.4488205E-036  0.9999323E+03  0.7818608E-02  0.8681102E-01
         -2   -1    0    0    0  501 -0.00000000000E+00  0.00000000000E+00  0.21124725956E+03  0.21124725956E+03  0.00000000000E+00 0.  1.
          2   -1    0    0  501    0  0.00000000000E+00 -0.00000000000E+00 -0.11832871277E+04  0.11832871277E+04  0.00000000000E+00 0.  1.
         36    2    1    2    0    0  0.00000000000E+00  0.00000000000E+00 -0.97203986819E+03  0.13945343873E+04  0.99993232372E+03 0.  0.
         25    2    3    3    0    0 -0.10331917400E+03  0.81306040068E+02 -0.25446730337E+03  0.31246167654E+03  0.12487260290E+03 0.  0.
         35    2    3    3    0    0  0.10331917400E+03 -0.81306040068E+02 -0.71757256482E+03  0.10820727108E+04  0.79917797875E+03 0.  0.
         22    1    5    5    0    0  0.12202312326E+03 -0.48335092637E+02  0.15815726251E+03  0.20552285390E+03  0.00000000000E+00 0. -1.
         22    1    5    5    0    0 -0.18703949269E+02 -0.32970947430E+02 -0.87572982733E+03  0.87654985686E+03  0.00000000000E+00 0. -1.
          5    1    4    4  502    0 -0.34206367184E+02  0.53320346283E+02 -0.20336380640E+02  0.66699274817E+02  0.47000000000E+01 0. -1.
         -5    1    4    4    0  502 -0.69112806812E+02  0.27985693785E+02 -0.23413092273E+03  0.24576240173E+03  0.47000000000E+01 0. -1.
<mgrwt>
<rscale>  0 0.99993232E+03</rscale>
<asrwt>0</asrwt>
<pdfrwt beam="1">  1        2 0.18204417E+00 0.99993232E+03</pdfrwt>
<pdfrwt beam="2">  1       -2 0.32499579E-01 0.99993232E+03</pdfrwt>
<totfact> 0.20600363E+02</totfact>
</mgrwt>
</event>
<event>
 9    1  0.4488205E-036  0.1000579E+04  0.7818608E-02  0.8680487E-01
         -1   -1    0    0    0  501 -0.00000000000E+00  0.00000000000E+00  0.21384669832E+03  0.21384669832E+03  0.00000000000E+00 0.  1.
          1   -1    0    0  501    0  0.00000000000E+00 -0.00000000000E+00 -0.11704155130E+04  0.11704155130E+04  0.00000000000E+00 0.  1.
         36    2    1    2    0    0  0.00000000000E+00  0.14210854715E-13 -0.95656881464E+03  0.13842622113E+04  0.10005788187E+04 0.  0.
         25    2    3    3    0    0 -0.59694653479E+02 -0.91882941526E+02 -0.30415279460E+03  0.34659568549E+03  0.12495487243E+03 0.  0.
         35    2    3    3    0    0  0.59694653479E+02  0.91882941526E+02 -0.65241602005E+03  0.10376665258E+04  0.79943681984E+03 0.  0.
         22    1    5    5    0    0 -0.71578761992E+02 -0.10630337876E+03  0.15202559682E+03  0.19883588608E+03  0.00000000000E+00 0. -1.
         22    1    5    5    0    0  0.13127341547E+03  0.19818632029E+03 -0.80444161687E+03  0.83883063970E+03  0.00000000000E+00 0. -1.
          5    1    4    4  502    0 -0.12553328081E+02  0.30961837441E+02 -0.49263628912E+02  0.59709434407E+02  0.47000000000E+01 0.  1.
         -5    1    4    4    0  502 -0.47141325398E+02 -0.12284477897E+03 -0.25488916568E+03  0.28688625109E+03  0.47000000000E+01 0.  1.
<mgrwt>
<rscale>  0 0.10005788E+04</rscale>
<asrwt>0</asrwt>
<pdfrwt beam="1">  1        1 0.18006393E+00 0.10005788E+04</pdfrwt>
<pdfrwt beam="2">  1       -1 0.32899492E-01 0.10005788E+04</pdfrwt>
<totfact> 0.10758401E+02</totfact>
</mgrwt>
</event>
<event>
 9    1  0.4488205E-036  0.9897915E+03  0.7818608E-02  0.8690821E-01
          2   -1    0    0  501    0  0.00000000000E+00  0.00000000000E+00  0.13941113208E+04  0.13941113208E+04  0.00000000000E+00 0.  1.
         -2   -1    0    0    0  501 -0.00000000000E+00 -0.00000000000E+00 -0.17568309723E+03  0.17568309723E+03  0.00000000000E+00 0.  1.
         36    2    1    2    0    0  0.35527136788E-14  0.14210854715E-13  0.12184282235E+04  0.15697944180E+04  0.98979148251E+03 0.  0.
         25    2    3    3    0    0  0.30995314371E+02 -0.88761915357E+02  0.72899073871E+02  0.16930328690E+03  0.12045721586E+03 0.  0.
         35    2    3    3    0    0 -0.30995314371E+02  0.88761915357E+02  0.11455291497E+04  0.14004911311E+04  0.80018684594E+03 0.  0.
         22    1    5    5    0    0  0.16300528830E+03 -0.31380329119E+03  0.58582368494E+03  0.68427525120E+03  0.00000000000E+00 0. -1.
         22    1    5    5    0    0 -0.19400060268E+03  0.40256520655E+03  0.55970546473E+03  0.71621587989E+03  0.00000000000E+00 0. -1.
          5    1    4    4  502    0  0.55131197886E+00 -0.10047744205E+03  0.87439675789E+02  0.13328093340E+03  0.47000000000E+01 0.  1.
         -5    1    4    4    0  502  0.30444002392E+02  0.11715526696E+02 -0.14540601918E+02  0.36022353498E+02  0.47000000000E+01 0.  1.
<mgrwt>
<rscale>  0 0.98979148E+03</rscale>
<asrwt>0</asrwt>
<pdfrwt beam="1">  1        2 0.21447866E+00 0.98979148E+03</pdfrwt>
<pdfrwt beam="2">  1       -2 0.27028170E-01 0.98979148E+03</pdfrwt>
<totfact> 0.21725171E+02</totfact>
</mgrwt>
</event>
<event>
 9    1  0.4488205E-036  0.1000209E+04  0.7818608E-02  0.8680839E-01
          2   -1    0    0  501    0  0.00000000000E+00  0.00000000000E+00  0.16049158946E+04  0.16049158946E+04  0.00000000000E+00 0.  1.
         -2   -1    0    0    0  501 -0.00000000000E+00 -0.00000000000E+00 -0.15583647369E+03  0.15583647369E+03  0.00000000000E+00 0.  1.
         36    2    1    2    0    0 -0.14210854715E-13 -0.28421709430E-13  0.14490794209E+04  0.17607523683E+04  0.10002088454E+04 0.  0.
         25    2    3    3    0    0  0.37993518433E+02  0.93465292034E+02  0.90276782390E+02  0.18041925810E+03  0.11925578811E+03 0.  0.
         35    2    3    3    0    0 -0.37993518433E+02 -0.93465292034E+02  0.13588026385E+04  0.15803331102E+04  0.80058032731E+03 0.  0.
         22    1    5    5    0    0 -0.17333641068E+03 -0.38857139730E+03  0.10471774080E+04  0.11303157815E+04  0.00000000000E+00 0.  1.
         22    1    5    5    0    0  0.13534289224E+03  0.29510610527E+03  0.31162523056E+03  0.45001732874E+03  0.00000000000E+00 0.  1.
          5    1    4    4  502    0 -0.13549268526E+02  0.68644678160E+01  0.77043232286E+02  0.78666722552E+02  0.47000000000E+01 0. -1.
         -5    1    4    4    0  502  0.51542786959E+02  0.86600824218E+02  0.13233550104E+02  0.10175253555E+03  0.47000000000E+01 0. -1.
<mgrwt>
<rscale>  0 0.10002088E+04</rscale>
<asrwt>0</asrwt>
<pdfrwt beam="1">  1        2 0.24691013E+00 0.10002088E+04</pdfrwt>
<pdfrwt beam="2">  1       -2 0.23974843E-01 0.10002088E+04</pdfrwt>
<totfact> 0.20419760E+02</totfact>
</mgrwt>
</event>
<event>
 9    1  0.4488205E-036  0.1000363E+04  0.7818608E-02  0.8680692E-01
         -1   -1    0    0    0  501 -0.00000000000E+00  0.00000000000E+00  0.18081946946E+03  0.18081946946E+03  0.00000000000E+00 0.  1.
          1   -1    0    0  501    0  0.00000000000E+00 -0.00000000000E+00 -0.13835994931E+04  0.13835994931E+04  0.00000000000E+00 0.  1.
         36    2    1    2    0    0  0.71054273576E-14  0.00000000000E+00 -0.12027800237E+04  0.15644189626E+04  0.10003633866E+04 0.  0.
         25    2    3    3    0    0 -0.39946280272E+02  0.11002831127E+03 -0.10546939581E+03  0.20106270286E+03  0.12490189126E+03 0.  0.
         35    2    3    3    0    0  0.39946280272E+02 -0.11002831127E+03 -0.10973106279E+04  0.13633562598E+04  0.80059211984E+03 0.  0.
         22    1    5    5    0    0 -0.45282478657E+02  0.34329116213E+03 -0.51294343036E+03  0.61887824943E+03  0.00000000000E+00 0.  1.
         22    1    5    5    0    0  0.85228758929E+02 -0.45331947339E+03 -0.58436719752E+03  0.74447801032E+03  0.00000000000E+00 0.  1.
          5    1    4    4  502    0  0.12504074920E+02  0.10883362537E+03 -0.99474560032E+02  0.14804860011E+03  0.47000000000E+01 0. -1.
         -5    1    4    4    0  502 -0.52450355192E+02  0.11946858953E+01 -0.59948357741E+01  0.53014102747E+02  0.47000000000E+01 0. -1.
<mgrwt>
<rscale>  0 0.10003634E+04</rscale>
<asrwt>0</asrwt>
<pdfrwt beam="1">  1        1 0.21286145E+00 0.10003634E+04</pdfrwt>
<pdfrwt beam="2">  1       -1 0.27818381E-01 0.10003634E+04</pdfrwt>
<totfact> 0.99981185E+01</totfact>
</mgrwt>
</event>
<event>
 9    1  0.4488205E-036  0.1002304E+04  0.7818608E-02  0.8678847E-01
          2   -1    0    0  501    0  0.00000000000E+00  0.00000000000E+00  0.14750202855E+04  0.14750202855E+04  0.00000000000E+00 0. -1.
         -2   -1    0    0    0  501 -0.00000000000E+00 -0.00000000000E+00 -0.17027095732E+03  0.17027095732E+03  0.00000000000E+00 0. -1.
         36    2    1    2    0    0 -0.93258734069E-14  0.00000000000E+00  0.13047493282E+04  0.16452912429E+04  0.10023035789E+04 0.  0.
         25    2    3    3    0    0  0.30837815167E+01 -0.12034399548E+03  0.11999493812E+03  0.21094451914E+03  0.12492645046E+03 0.  0.
         35    2    3    3    0    0 -0.30837815167E+01  0.12034399548E+03  0.11847543901E+04  0.14343467237E+04  0.79950945712E+03 0.  0.
         22    1    5    5    0    0 -0.24492597981E+03 -0.19841352475E+03  0.20491414022E+03  0.37596072568E+03  0.00000000000E+00 0. -1.
         22    1    5    5    0    0  0.24184219829E+03  0.31875752022E+03  0.97984024986E+03  0.10583859980E+04  0.00000000000E+00 0. -1.
          5    1    4    4  502    0 -0.18183865276E+01 -0.38252247516E+01 -0.24439809055E+02  0.25245457821E+02  0.47000000000E+01 0.  1.
         -5    1    4    4    0  502  0.49021680443E+01 -0.11651877073E+03  0.14443474718E+03  0.18569906132E+03  0.47000000000E+01 0.  1.
<mgrwt>
<rscale>  0 0.10023036E+04</rscale>
<asrwt>0</asrwt>
<pdfrwt beam="1">  1        2 0.22692619E+00 0.10023036E+04</pdfrwt>
<pdfrwt beam="2">  1       -2 0.26195533E-01 0.10023036E+04</pdfrwt>
<totfact> 0.20662279E+02</totfact>
</mgrwt>
</event>
<event>
 9    1  0.4488205E-036  0.9991878E+03  0.7818608E-02  0.8681812E-01
         -2   -1    0    0    0  501 -0.00000000000E+00  0.00000000000E+00  0.13914533207E+03  0.13914533207E+03  0.00000000000E+00 0.  1.
          2   -1    0    0  501    0  0.00000000000E+00 -0.00000000000E+00 -0.17937653070E+04  0.17937653070E+04  0.00000000000E+00 0.  1.
         36    2    1    2    0    0 -0.21316282073E-13 -0.14210854715E-13 -0.16546199749E+04  0.19329106390E+04  0.99918780876E+03 0.  0.
         25    2    3    3    0    0 -0.55674726312E+02 -0.31241214345E+02 -0.71501943082E+02  0.15837552183E+03  0.12607374598E+03 0.  0.
         35    2    3    3    0    0  0.55674726312E+02  0.31241214345E+02 -0.15831180318E+04  0.17745351172E+04  0.79914735245E+03 0.  0.
         22    1    5    5    0    0 -0.22231586050E+03  0.28956816435E+03 -0.11072443859E+04  0.11658748619E+04  0.00000000000E+00 0. -1.
         22    1    5    5    0    0  0.27799058681E+03 -0.25832695000E+03 -0.47587364593E+03  0.60866025527E+03  0.00000000000E+00 0. -1.
          5    1    4    4  502    0  0.68777556062E+01  0.43153306672E+02 -0.20208132315E+02  0.48373236512E+02  0.47000000000E+01 0.  1.
         -5    1    4    4    0  502 -0.62552481918E+02 -0.74394521018E+02 -0.51293810767E+02  0.11000228532E+03  0.47000000000E+01 0.  1.
<mgrwt>
<rscale>  0 0.99918781E+03</rscale>
<asrwt>0</asrwt>
<pdfrwt beam="1">  1        2 0.27596387E+00 0.99918781E+03</pdfrwt>
<pdfrwt beam="2">  1       -2 0.21406976E-01 0.99918781E+03</pdfrwt>
<totfact> 0.19494620E+02</totfact>
</mgrwt>
</event>
<event>
 9    1  0.4488205E-036  0.1001206E+04  0.7818608E-02  0.8679890E-01
          1   -1    0    0  501    0  0.00000000000E+00  0.00000000000E+00  0.10301663494E+04  0.10301663494E+04  0.00000000000E+00 0.  1.
         -1   -1    0    0    0  501 -0.00000000000E+00 -0.00000000000E+00 -0.24326509221E+03  0.24326509221E+03  0.00000000000E+00 0.  1.
         36    2    1    2    0    0 -0.14210854715E-13  0.28421709430E-13  0.78690125716E+03  0.12734314416E+04  0.10012062964E+04 0.  0.
         25    2    3    3    0    0  0.11916620546E+03  0.45620394988E+02  0.67774423137E+02  0.19087451410E+03  0.12473132220E+03 0.  0.
         35    2    3    3    0    0 -0.11916620546E+03 -0.45620394988E+02  0.71912683402E+03  0.10825569275E+04  0.79906463623E+03 0.  0.
         22    1    5    5    0    0  0.53029955581E+02 -0.40615678571E+03  0.36922170169E+03  0.55145278652E+03  0.00000000000E+00 0. -1.
         22    1    5    5    0    0 -0.17219616104E+03  0.36053639072E+03  0.34990513233E+03  0.53110414096E+03  0.00000000000E+00 0.  1.
          5    1    4    4  502    0  0.13724648503E+03  0.53630567499E+02  0.79409561728E+02  0.16745388594E+03  0.47000000000E+01 0.  1.
         -5    1    4    4    0  502 -0.18080279570E+02 -0.80101725108E+01 -0.11635138591E+02  0.23420628152E+02  0.47000000000E+01 0.  1.
<mgrwt>
<rscale>  0 0.10012063E+04</rscale>
<asrwt>0</asrwt>
<pdfrwt beam="1">  1        1 0.15848713E+00 0.10012063E+04</pdfrwt>
<pdfrwt beam="2">  1       -1 0.37425399E-01 0.10012063E+04</pdfrwt>
<totfact> 0.11007757E+02</totfact>
</mgrwt>
</event>
<event>
 9    1  0.4488205E-036  0.9877069E+03  0.7818608E-02  0.8692834E-01
         -2   -1    0    0    0  501 -0.00000000000E+00  0.00000000000E+00  0.43392274099E+03  0.43392274099E+03  0.00000000000E+00 0.  1.
          2   -1    0    0  501    0  0.00000000000E+00 -0.00000000000E+00 -0.56206146082E+03  0.56206146082E+03  0.00000000000E+00 0.  1.
         36    2    1    2    0    0 -0.71054273576E-14 -0.28421709430E-13 -0.12813871983E+03  0.99598420181E+03  0.98770693970E+03 0.  0.
         25    2    3    3    0    0  0.37341581095E+02  0.93309994279E+02  0.50534621414E+02  0.16875543214E+03  0.12579149098E+03 0.  0.
         35    2    3    3    0    0 -0.37341581095E+02 -0.93309994279E+02 -0.17867334125E+03  0.82722876968E+03  0.80142505938E+03 0.  0.
         22    1    5    5    0    0  0.11358227496E+03  0.31040287300E+03  0.57907903313E+02  0.33556549587E+03  0.00000000000E+00 0. -1.
         22    1    5    5    0    0 -0.15092385606E+03 -0.40371286728E+03 -0.23658124456E+03  0.49166327381E+03  0.00000000000E+00 0. -1.
          5    1    4    4  502    0 -0.46548031285E+02  0.29953866172E+02  0.13210721051E+02  0.57101370087E+02  0.47000000000E+01 0.  1.
         -5    1    4    4    0  502  0.83889612380E+02  0.63356128107E+02  0.37323900363E+02  0.11165406205E+03  0.47000000000E+01 0.  1.
<mgrwt>
<rscale>  0 0.98770694E+03</rscale>
<asrwt>0</asrwt>
<pdfrwt beam="1">  1        2 0.86470994E-01 0.98770694E+03</pdfrwt>
<pdfrwt beam="2">  1       -2 0.66757345E-01 0.98770694E+03</pdfrwt>
<totfact> 0.13373612E+02</totfact>
</mgrwt>
</event>
<event>
 9    1  0.4488205E-036  0.9989185E+03  0.7818608E-02  0.8682069E-01
         -2   -1    0    0    0  501 -0.00000000000E+00  0.00000000000E+00  0.23552135349E+03  0.23552135349E+03  0.00000000000E+00 0.  1.
          2   -1    0    0  501    0  0.00000000000E+00 -0.00000000000E+00 -0.10591802052E+04  0.10591802052E+04  0.00000000000E+00 0.  1.
         36    2    1    2    0    0  0.56843418861E-13  0.00000000000E+00 -0.82365885166E+03  0.12947015586E+04  0.99891852623E+03 0.  0.
         25    2    3    3    0    0  0.12103722974E+03 -0.88462588674E+02 -0.12398042246E+03  0.23185669634E+03  0.12613778937E+03 0.  0.
         35    2    3    3    0    0 -0.12103722974E+03  0.88462588674E+02 -0.69967842920E+03  0.10628448623E+04  0.78588399682E+03 0.  0.
         22    1    5    5    0    0  0.25671226708E+03 -0.73141481518E+02 -0.57425610058E+03  0.63326213643E+03  0.00000000000E+00 0. -1.
         22    1    5    5    0    0 -0.37774949682E+03  0.16160407019E+03 -0.12542232863E+03  0.42958272587E+03  0.00000000000E+00 0. -1.
          5    1    4    4  502    0  0.85626019161E+02  0.13705047000E+02 -0.44537088246E+02  0.97597570155E+02  0.47000000000E+01 0. -1.
         -5    1    4    4    0  502  0.35411210582E+02 -0.10216763567E+03 -0.79443334215E+02  0.13425912619E+03  0.47000000000E+01 0. -1.
<mgrwt>
<rscale>  0 0.99891853E+03</rscale>
<asrwt>0</asrwt>
<pdfrwt beam="1">  1        2 0.16295080E+00 0.99891853E+03</pdfrwt>
<pdfrwt beam="2">  1       -2 0.36234055E-01 0.99891853E+03</pdfrwt>
<totfact> 0.19991870E+02</totfact>
</mgrwt>
</event>
<event>
 9    1  0.4488205E-036  0.9996046E+03  0.7818608E-02  0.8681415E-01
          1   -1    0    0  501    0  0.00000000000E+00  0.00000000000E+00  0.18151596976E+04  0.18151596976E+04  0.00000000000E+00 0.  1.
         -1   -1    0    0    0  501 -0.00000000000E+00 -0.00000000000E+00 -0.13762003192E+03  0.13762003192E+03  0.00000000000E+00 0.  1.
         36    2    1    2    0    0  0.00000000000E+00 -0.14210854715E-13  0.16775396657E+04  0.19527797295E+04  0.99960459286E+03 0.  0.
         25    2    3    3    0    0  0.61064048832E+02  0.49659597302E+02  0.86236406531E+02  0.17027614332E+03  0.12394496161E+03 0.  0.
         35    2    3    3    0    0 -0.61064048832E+02 -0.49659597302E+02  0.15913032591E+04  0.17825035862E+04  0.79929849153E+03 0.  0.
         22    1    5    5    0    0  0.23373634559E+03  0.16055609411E+03  0.20555476332E+03  0.35023377811E+03  0.00000000000E+00 0.  1.
         22    1    5    5    0    0 -0.29480039443E+03 -0.21021569141E+03  0.13857484958E+04  0.14322698081E+04  0.00000000000E+00 0.  1.
          5    1    4    4  502    0  0.40229559437E+02  0.86814786189E+02  0.83919762548E+02  0.12735713996E+03  0.47000000000E+01 0. -1.
         -5    1    4    4    0  502  0.20834489395E+02 -0.37155188887E+02  0.23166439829E+01  0.42919003354E+02  0.47000000000E+01 0. -1.
<mgrwt>
<rscale>  0 0.99960459E+03</rscale>
<asrwt>0</asrwt>
<pdfrwt beam="1">  1        1 0.27925532E+00 0.99960459E+03</pdfrwt>
<pdfrwt beam="2">  1       -1 0.21172314E-01 0.99960459E+03</pdfrwt>
<totfact> 0.78120032E+01</totfact>
</mgrwt>
</event>
<event>
 9    1  0.4488205E-036  0.1008111E+04  0.7818608E-02  0.8673352E-01
          1   -1    0    0  501    0  0.00000000000E+00  0.00000000000E+00  0.99684101297E+03  0.99684101297E+03  0.00000000000E+00 0.  1.
         -1   -1    0    0    0  501 -0.00000000000E+00 -0.00000000000E+00 -0.25487733769E+03  0.25487733769E+03  0.00000000000E+00 0.  1.
         36    2    1    2    0    0 -0.14210854715E-13 -0.28421709430E-13  0.74196367528E+03  0.12517183507E+04  0.10081114690E+04 0.  0.
         25    2    3    3    0    0  0.48729272406E+02  0.12846304233E+03  0.66147038686E+02  0.19715350595E+03  0.12496711146E+03 0.  0.
         35    2    3    3    0    0 -0.48729272406E+02 -0.12846304233E+03  0.67581663659E+03  0.10545648447E+04  0.79781049767E+03 0.  0.
         22    1    5    5    0    0 -0.12351353632E+03 -0.21552170611E+03 -0.10185025354E+03  0.26847471688E+03  0.00000000000E+00 0.  1.
         22    1    5    5    0    0  0.74784263913E+02  0.87058663780E+02  0.77766689013E+03  0.78609012784E+03  0.00000000000E+00 0.  1.
          5    1    4    4  502    0 -0.13058050923E+02  0.81240589557E+02  0.83512977159E+02  0.11733308757E+03  0.47000000000E+01 0. -1.
         -5    1    4    4    0  502  0.61787323329E+02  0.47222452775E+02 -0.17365938473E+02  0.79820418374E+02  0.47000000000E+01 0. -1.
<mgrwt>
<rscale>  0 0.10081115E+04</rscale>
<asrwt>0</asrwt>
<pdfrwt beam="1">  1        1 0.15336015E+00 0.10081115E+04</pdfrwt>
<pdfrwt beam="2">  1       -1 0.39211899E-01 0.10081115E+04</pdfrwt>
<totfact> 0.10763106E+02</totfact>
</mgrwt>
</event>
<event>
 9    1  0.4488205E-036  0.9993347E+03  0.7818608E-02  0.8681672E-01
         -1   -1    0    0    0  501 -0.00000000000E+00  0.00000000000E+00  0.19719953114E+03  0.19719953114E+03  0.00000000000E+00 0. -1.
          1   -1    0    0  501    0  0.00000000000E+00 -0.00000000000E+00 -0.12660650643E+04  0.12660650643E+04  0.00000000000E+00 0. -1.
         36    2    1    2    0    0  0.00000000000E+00 -0.14210854715E-13 -0.10688655332E+04  0.14632645955E+04  0.99933465281E+03 0.  0.
         25    2    3    3    0    0 -0.69317108223E+02 -0.10566548058E+03 -0.28802955699E+03  0.33805732921E+03  0.12390188398E+03 0.  0.
         35    2    3    3    0    0  0.69317108223E+02  0.10566548058E+03 -0.78083597619E+03  0.11252072663E+04  0.80026027956E+03 0.  0.
         22    1    5    5    0    0  0.18888737392E+03 -0.26699269571E+03 -0.62217696001E+03  0.70289950146E+03  0.00000000000E+00 0.  1.
         22    1    5    5    0    0 -0.11957026570E+03  0.37265817628E+03 -0.15865901618E+03  0.42230776480E+03  0.00000000000E+00 0.  1.
          5    1    4    4  502    0 -0.33056232689E+02 -0.18563437515E+02 -0.36238762499E+01  0.38373665593E+02  0.47000000000E+01 0. -1.
         -5    1    4    4    0  502 -0.36260875534E+02 -0.87102043061E+02 -0.28440568074E+03  0.29968366361E+03  0.47000000000E+01 0. -1.
<mgrwt>
<rscale>  0 0.99933465E+03</rscale>
<asrwt>0</asrwt>
<pdfrwt beam="1">  1        1 0.19477924E+00 0.99933465E+03</pdfrwt>
<pdfrwt beam="2">  1       -1 0.30338389E-01 0.99933465E+03</pdfrwt>
<totfact> 0.10501878E+02</totfact>
</mgrwt>
</event>
<event>
 9    1  0.4488205E-036  0.9999568E+03  0.7818608E-02  0.8681079E-01
          1   -1    0    0  501    0  0.00000000000E+00  0.00000000000E+00  0.43672159873E+03  0.43672159873E+03  0.00000000000E+00 0. -1.
         -1   -1    0    0    0  501 -0.00000000000E+00 -0.00000000000E+00 -0.57239761633E+03  0.57239761633E+03  0.00000000000E+00 0. -1.
         36    2    1    2    0    0 -0.14210854715E-13  0.28421709430E-13 -0.13567601761E+03  0.10091192151E+04  0.99995680329E+03 0.  0.
         25    2    3    3    0    0  0.47796168039E+02 -0.11275161596E+03 -0.95016337000E+02  0.19833162691E+03  0.12373329930E+03 0.  0.
         35    2    3    3    0    0 -0.47796168039E+02  0.11275161596E+03 -0.40659680605E+02  0.81078758815E+03  0.80045356073E+03 0.  0.
         22    1    5    5    0    0 -0.37051290497E+03  0.25743516982E+03 -0.67119666772E+02  0.45613345534E+03  0.00000000000E+00 0.  1.
         22    1    5    5    0    0  0.32271673693E+03 -0.14468355386E+03  0.26459986167E+02  0.35465413281E+03  0.00000000000E+00 0.  1.
          5    1    4    4  502    0  0.89041992185E+02 -0.63426798854E+02 -0.55200589059E+02  0.12255868071E+03  0.47000000000E+01 0.  1.
         -5    1    4    4    0  502 -0.41245824146E+02 -0.49324817101E+02 -0.39815747941E+02  0.75772946199E+02  0.47000000000E+01 0.  1.
<mgrwt>
<rscale>  0 0.99995680E+03</rscale>
<asrwt>0</asrwt>
<pdfrwt beam="1">  1        1 0.67187938E-01 0.99995680E+03</pdfrwt>
<pdfrwt beam="2">  1       -1 0.88061172E-01 0.99995680E+03</pdfrwt>
<totfact> 0.80315831E+01</totfact>
</mgrwt>
</event>
<event>
 9    1  0.4488205E-036  0.9997242E+03  0.7818608E-02  0.8681301E-01
          2   -1    0    0  501    0  0.00000000000E+00  0.00000000000E+00  0.38887124428E+03  0.38887124428E+03  0.00000000000E+00 0.  1.
         -2   -1    0    0    0  501 -0.00000000000E+00 -0.00000000000E+00 -0.64253174226E+03  0.64253174226E+03  0.00000000000E+00 0.  1.
         36    2    1    2    0    0  0.00000000000E+00 -0.71054273576E-14 -0.25366049798E+03  0.10314029865E+04  0.99972419817E+03 0.  0.
         25    2    3    3    0    0  0.11680221056E+03  0.41052411977E+02 -0.11493962542E+03  0.20979305698E+03  0.12439434210E+03 0.  0.
         35    2    3    3    0    0 -0.11680221056E+03 -0.41052411977E+02 -0.13872087256E+03  0.82160992955E+03  0.80029453262E+03 0.  0.
         22    1    5    5    0    0 -0.43076723248E+03 -0.90910010370E+02 -0.22189020483E+03  0.49301146190E+03  0.00000000000E+00 0. -1.
         22    1    5    5    0    0  0.31396502193E+03  0.49857598393E+02  0.83169332275E+02  0.32859846765E+03  0.00000000000E+00 0. -1.
          5    1    4    4  502    0  0.29458223693E+02  0.26354787424E+02 -0.11436545096E+03  0.12109462473E+03  0.47000000000E+01 0.  1.
         -5    1    4    4    0  502  0.87343986865E+02  0.14697624553E+02 -0.57417445583E+00  0.88698432259E+02  0.47000000000E+01 0.  1.
<mgrwt>
<rscale>  0 0.99972420E+03</rscale>
<asrwt>0</asrwt>
<pdfrwt beam="1">  1        2 0.59826346E-01 0.99972420E+03</pdfrwt>
<pdfrwt beam="2">  1       -2 0.98851035E-01 0.99972420E+03</pdfrwt>
<totfact> 0.82858235E+01</totfact>
</mgrwt>
</event>
<event>
 9    1  0.4488205E-036  0.1002504E+04  0.7818608E-02  0.8678657E-01
         -2   -1    0    0    0  501 -0.00000000000E+00  0.00000000000E+00  0.93691843924E+02  0.93691843924E+02  0.00000000000E+00 0. -1.
          2   -1    0    0  501    0  0.00000000000E+00 -0.00000000000E+00 -0.26817032897E+04  0.26817032897E+04  0.00000000000E+00 0. -1.
         36    2    1    2    0    0  0.71054273576E-14 -0.14210854715E-13 -0.25880114458E+04  0.27753951336E+04  0.10025043163E+04 0.  0.
         25    2    3    3    0    0 -0.10110541547E+02  0.83923458242E+02 -0.77980323945E+03  0.79621840551E+03  0.13684037093E+03 0.  0.
         35    2    3    3    0    0  0.10110541547E+02 -0.83923458242E+02 -0.18082082063E+04  0.19791767281E+04  0.80023636120E+03 0.  0.
         22    1    5    5    0    0  0.88243467558E+02  0.18469810451E+03 -0.16400460995E+04  0.16527708577E+04  0.00000000000E+00 0. -1.
         22    1    5    5    0    0 -0.78132926010E+02 -0.26862156275E+03 -0.16816210679E+03  0.32640587044E+03  0.00000000000E+00 0. -1.
          5    1    4    4  502    0  0.19068575843E+02  0.59753644462E+02 -0.73355575703E+03  0.73624740902E+03  0.47000000000E+01 0. -1.
         -5    1    4    4    0  502 -0.29179117391E+02  0.24169813780E+02 -0.46247482419E+02  0.59970996489E+02  0.47000000000E+01 0. -1.
<mgrwt>
<rscale>  0 0.10025043E+04</rscale>
<asrwt>0</asrwt>
<pdfrwt beam="1">  1        2 0.41256969E+00 0.10025043E+04</pdfrwt>
<pdfrwt beam="2">  1       -2 0.14414131E-01 0.10025043E+04</pdfrwt>
<totfact> 0.11492649E+02</totfact>
</mgrwt>
</event>
<event>
 9    1  0.4488205E-036  0.1000469E+04  0.7818608E-02  0.8680591E-01
         -2   -1    0    0    0  501 -0.00000000000E+00  0.00000000000E+00  0.13905349895E+03  0.13905349895E+03  0.00000000000E+00 0. -1.
          2   -1    0    0  501    0  0.00000000000E+00 -0.00000000000E+00 -0.17995562934E+04  0.17995562934E+04  0.00000000000E+00 0. -1.
         36    2    1    2    0    0 -0.28421709430E-13  0.00000000000E+00 -0.16605027944E+04  0.19386097923E+04  0.10004690883E+04 0.  0.
         25    2    3    3    0    0 -0.13654460571E+03 -0.19433160855E+02 -0.26810204521E+03  0.32630042652E+03  0.12478455279E+03 0.  0.
         35    2    3    3    0    0  0.13654460571E+03  0.19433160855E+02 -0.13924007492E+04  0.16123093658E+04  0.80108649193E+03 0.  0.
         22    1    5    5    0    0 -0.27584370092E+03  0.89722874088E+02 -0.21005631688E+03  0.35813907597E+03  0.00000000000E+00 0. -1.
         22    1    5    5    0    0  0.41238830663E+03 -0.70289713233E+02 -0.11823444323E+04  0.12541702898E+04  0.00000000000E+00 0. -1.
          5    1    4    4  502    0 -0.13852934809E+03 -0.44775315541E+02 -0.26195437257E+03  0.29972886494E+03  0.47000000000E+01 0. -1.
         -5    1    4    4    0  502  0.19847423829E+01  0.25342154686E+02 -0.61476726352E+01  0.26571561589E+02  0.47000000000E+01 0. -1.
<mgrwt>
<rscale>  0 0.10004691E+04</rscale>
<asrwt>0</asrwt>
<pdfrwt beam="1">  1        2 0.27685480E+00 0.10004691E+04</pdfrwt>
<pdfrwt beam="2">  1       -2 0.21392847E-01 0.10004691E+04</pdfrwt>
<totfact> 0.19370728E+02</totfact>
</mgrwt>
</event>
<event>
 9    1  0.4488205E-036  0.1000257E+04  0.7818608E-02  0.8680793E-01
          1   -1    0    0  501    0  0.00000000000E+00  0.00000000000E+00  0.33083397067E+03  0.33083397067E+03  0.00000000000E+00 0.  1.
         -1   -1    0    0    0  501 -0.00000000000E+00 -0.00000000000E+00 -0.75605457703E+03  0.75605457703E+03  0.00000000000E+00 0.  1.
         36    2    1    2    0    0  0.39079850467E-13 -0.14210854715E-13 -0.42522060635E+03  0.10868885477E+04  0.10002570425E+04 0.  0.
         25    2    3    3    0    0  0.30052098248E+02  0.10994980740E+03 -0.17143253663E+03  0.24106222715E+03  0.12541847546E+03 0.  0.
         35    2    3    3    0    0 -0.30052098248E+02 -0.10994980740E+03 -0.25378806973E+03  0.84582632055E+03  0.79876260018E+03 0.  0.
         22    1    5    5    0    0  0.36477341255E+03  0.25015385543E+02 -0.16911968743E+02  0.36602107412E+03  0.00000000000E+00 0. -1.
         22    1    5    5    0    0 -0.39482551080E+03 -0.13496519295E+03 -0.23687610098E+03  0.47980524643E+03  0.00000000000E+00 0. -1.
          5    1    4    4  502    0  0.26228002718E+02 -0.23563908980E+02 -0.41560709835E+02  0.54704191201E+02  0.47000000000E+01 0. -1.
         -5    1    4    4    0  502  0.38240955307E+01  0.13351371638E+03 -0.12987182679E+03  0.18635803595E+03  0.47000000000E+01 0. -1.
<mgrwt>
<rscale>  0 0.10002570E+04</rscale>
<asrwt>0</asrwt>
<pdfrwt beam="1">  1        1 0.50897535E-01 0.10002570E+04</pdfrwt>
<pdfrwt beam="2">  1       -1 0.11631609E+00 0.10002570E+04</pdfrwt>
<totfact> 0.61955258E+01</totfact>
</mgrwt>
</event>
<event>
 9    1  0.4488205E-036  0.1000187E+04  0.7818608E-02  0.8680860E-01
          1   -1    0    0  501    0  0.00000000000E+00  0.00000000000E+00  0.10678427407E+04  0.10678427407E+04  0.00000000000E+00 0.  1.
         -1   -1    0    0    0  501 -0.00000000000E+00 -0.00000000000E+00 -0.23420433788E+03  0.23420433788E+03  0.00000000000E+00 0.  1.
         36    2    1    2    0    0 -0.17763568394E-14  0.28421709430E-13  0.83363840280E+03  0.13020470786E+04  0.10001867866E+04 0.  0.
         25    2    3    3    0    0  0.61984823430E+01 -0.12184065734E+03  0.25457523000E+03  0.30900113138E+03  0.12565661345E+03 0.  0.
         35    2    3    3    0    0 -0.61984823430E+01  0.12184065734E+03  0.57906317280E+03  0.99304594717E+03  0.79746004799E+03 0.  0.
         22    1    5    5    0    0 -0.43221051787E+01 -0.26477436575E+02 -0.19908610053E+03  0.20088556609E+03  0.00000000000E+00 0. -1.
         22    1    5    5    0    0 -0.18763771642E+01  0.14831809391E+03  0.77814927333E+03  0.79216038108E+03  0.00000000000E+00 0. -1.
          5    1    4    4  502    0 -0.18296084500E+02 -0.11589462916E+03  0.25767969799E+03  0.28317349546E+03  0.47000000000E+01 0.  1.
         -5    1    4    4    0  502  0.24494566843E+02 -0.59460281796E+01 -0.31044679885E+01  0.25827635924E+02  0.47000000000E+01 0.  1.
<mgrwt>
<rscale>  0 0.10001868E+04</rscale>
<asrwt>0</asrwt>
<pdfrwt beam="1">  1        1 0.16428350E+00 0.10001868E+04</pdfrwt>
<pdfrwt beam="2">  1       -1 0.36031437E-01 0.10001868E+04</pdfrwt>
<totfact> 0.10997360E+02</totfact>
</mgrwt>
</event>
<event>
 9    1  0.4488205E-036  0.9997393E+03  0.7818608E-02  0.8681286E-01
         -1   -1    0    0    0  501 -0.00000000000E+00  0.00000000000E+00  0.68255885330E+03  0.68255885330E+03  0.00000000000E+00 0.  1.
          1   -1    0    0  501    0  0.00000000000E+00 -0.00000000000E+00 -0.36607780769E+03  0.36607780769E+03  0.00000000000E+00 0.  1.
         36    2    1    2    0    0  0.21316282073E-13  0.00000000000E+00  0.31648104561E+03  0.10486366610E+04  0.99973926328E+03 0.  0.
         25    2    3    3    0    0  0.60116461540E+02 -0.12635374591E+03  0.96752373404E+02  0.21086291977E+03  0.12459089502E+03 0.  0.
         35    2    3    3    0    0 -0.60116461540E+02  0.12635374591E+03  0.21972867221E+03  0.83777374122E+03  0.79624424271E+03 0.  0.
         22    1    5    5    0    0 -0.41300136419E+03 -0.13358894511E+02  0.32291779060E+02  0.41447719585E+03  0.00000000000E+00 0. -1.
         22    1    5    5    0    0  0.35288490265E+03  0.13971264042E+03  0.18743689315E+03  0.42329654537E+03  0.00000000000E+00 0. -1.
          5    1    4    4  502    0  0.70215353827E+02 -0.76427346629E+02  0.11644079825E+03  0.15605090427E+03  0.47000000000E+01 0. -1.
         -5    1    4    4    0  502 -0.10098892287E+02 -0.49926399277E+02 -0.19688424845E+02  0.54812015499E+02  0.47000000000E+01 0. -1.
<mgrwt>
<rscale>  0 0.99973926E+03</rscale>
<asrwt>0</asrwt>
<pdfrwt beam="1">  1        1 0.56319663E-01 0.99973926E+03</pdfrwt>
<pdfrwt beam="2">  1       -1 0.10500905E+00 0.99973926E+03</pdfrwt>
<totfact> 0.68992270E+01</totfact>
</mgrwt>
</event>
<event>
 9    1  0.4488205E-036  0.9980893E+03  0.7818608E-02  0.8682860E-01
         -2   -1    0    0    0  501 -0.00000000000E+00  0.00000000000E+00  0.11402787463E+04  0.11402787463E+04  0.00000000000E+00 0.  1.
          2   -1    0    0  501    0  0.00000000000E+00 -0.00000000000E+00 -0.21840759597E+03  0.21840759597E+03  0.00000000000E+00 0.  1.
         36    2    1    2    0    0 -0.71054273576E-14  0.28421709430E-13  0.92187115030E+03  0.13586863422E+04  0.99808925393E+03 0.  0.
         25    2    3    3    0    0  0.54332855373E+02 -0.11733514210E+03  0.99875422047E+02  0.20563210244E+03  0.12485938844E+03 0.  0.
         35    2    3    3    0    0 -0.54332855373E+02  0.11733514210E+03  0.82199572825E+03  0.11530542398E+04  0.79820893749E+03 0.  0.
         22    1    5    5    0    0 -0.16593365918E+03 -0.31714828271E+03  0.32385152287E+03  0.48269744286E+03  0.00000000000E+00 0. -1.
         22    1    5    5    0    0  0.11160080381E+03  0.43448342481E+03  0.49814420538E+03  0.67035679693E+03  0.00000000000E+00 0. -1.
          5    1    4    4  502    0 -0.40652911728E+02 -0.35175018778E+02  0.33297473334E+02  0.63409407097E+02  0.47000000000E+01 0.  1.
         -5    1    4    4    0  502  0.94985767101E+02 -0.82160123321E+02  0.66577948712E+02  0.14222269534E+03  0.47000000000E+01 0.  1.
<mgrwt>
<rscale>  0 0.99808925E+03</rscale>
<asrwt>0</asrwt>
<pdfrwt beam="1">  1        2 0.33601169E-01 0.99808925E+03</pdfrwt>
<pdfrwt beam="2">  1       -2 0.17542749E+00 0.99808925E+03</pdfrwt>
<totfact> 0.33857444E+01</totfact>
</mgrwt>
</event>
<event>
 9    1  0.4488205E-036  0.1000985E+04  0.7818608E-02  0.8680101E-01
         -2   -1    0    0    0  501 -0.00000000000E+00  0.00000000000E+00  0.19329029025E+03  0.19329029025E+03  0.00000000000E+00 0.  1.
          2   -1    0    0  501    0  0.00000000000E+00 -0.00000000000E+00 -0.12959402740E+04  0.12959402740E+04  0.00000000000E+00 0.  1.
         36    2    1    2    0    0  0.00000000000E+00  0.00000000000E+00 -0.11026499837E+04  0.14892305642E+04  0.10009848584E+04 0.  0.
         25    2    3    3    0    0 -0.12932440868E+03 -0.52958131672E+02 -0.24332772079E+03  0.30699188550E+03  0.12452418103E+03 0.  0.
         35    2    3    3    0    0  0.12932440868E+03  0.52958131672E+02 -0.85932226294E+03  0.11822386787E+04  0.79982759114E+03 0.  0.
         22    1    5    5    0    0  0.94390067231E+02 -0.35848455202E+03 -0.25355440389E+03  0.44912191504E+03  0.00000000000E+00 0.  1.
         22    1    5    5    0    0  0.34934341451E+02  0.41144268370E+03 -0.60576785905E+03  0.73311676371E+03  0.00000000000E+00 0.  1.
          5    1    4    4  502    0 -0.84162770290E+02 -0.89191585968E+02 -0.19949391144E+03  0.23421874736E+03  0.47000000000E+01 0.  1.
         -5    1    4    4    0  502 -0.45161638392E+02  0.36233454296E+02 -0.43833809352E+02  0.72773138141E+02  0.47000000000E+01 0.  1.
<mgrwt>
<rscale>  0 0.10009849E+04</rscale>
<asrwt>0</asrwt>
<pdfrwt beam="1">  1        2 0.19937542E+00 0.10009849E+04</pdfrwt>
<pdfrwt beam="2">  1       -2 0.29736969E-01 0.10009849E+04</pdfrwt>
<totfact> 0.20820843E+02</totfact>
</mgrwt>
</event>
<event>
 9    1  0.4488205E-036  0.1000029E+04  0.7818608E-02  0.8681010E-01
          2   -1    0    0  501    0  0.00000000000E+00  0.00000000000E+00  0.15353988330E+04  0.15353988330E+04  0.00000000000E+00 0.  1.
         -2   -1    0    0    0  501 -0.00000000000E+00 -0.00000000000E+00 -0.16283355149E+03  0.16283355149E+03  0.00000000000E+00 0.  1.
         36    2    1    2    0    0 -0.14210854715E-13  0.28421709430E-13  0.13725652815E+04  0.16982323845E+04  0.10000288895E+04 0.  0.
         25    2    3    3    0    0  0.60035466947E+02  0.21966156602E+02  0.47132521812E+03  0.49189761943E+03  0.12541545933E+03 0.  0.
         35    2    3    3    0    0 -0.60035466947E+02 -0.21966156602E+02  0.90124006339E+03  0.12063347651E+04  0.79932668178E+03 0.  0.
         22    1    5    5    0    0  0.19271541059E+03 -0.33661290103E+03  0.53877111788E+03  0.66386880638E+03  0.00000000000E+00 0. -1.
         22    1    5    5    0    0 -0.25275087754E+03  0.31464674442E+03  0.36246894551E+03  0.54246595868E+03  0.00000000000E+00 0. -1.
          5    1    4    4  502    0  0.52801649280E+02  0.59536952534E+02  0.42112884592E+03  0.42860734682E+03  0.47000000000E+01 0.  1.
         -5    1    4    4    0  502  0.72338176664E+01 -0.37570795933E+02  0.50196372199E+02  0.63290272609E+02  0.47000000000E+01 0.  1.
<mgrwt>
<rscale>  0 0.10000289E+04</rscale>
<asrwt>0</asrwt>
<pdfrwt beam="1">  1        2 0.23621520E+00 0.10000289E+04</pdfrwt>
<pdfrwt beam="2">  1       -2 0.25051317E-01 0.10000289E+04</pdfrwt>
<totfact> 0.20679143E+02</totfact>
</mgrwt>
</event>
<event>
 9    1  0.4488205E-036  0.1000011E+04  0.7818608E-02  0.8681027E-01
          2   -1    0    0  501    0  0.00000000000E+00  0.00000000000E+00  0.15597602483E+04  0.15597602483E+04  0.00000000000E+00 0.  1.
         -2   -1    0    0    0  501 -0.00000000000E+00 -0.00000000000E+00 -0.16028464986E+03  0.16028464986E+03  0.00000000000E+00 0.  1.
         36    2    1    2    0    0  0.21316282073E-13  0.00000000000E+00  0.13994755984E+04  0.17200448982E+04  0.10000112505E+04 0.  0.
         25    2    3    3    0    0  0.63170894463E+02  0.74746585960E+02  0.43163195124E+03  0.46028675753E+03  0.12641259354E+03 0.  0.
         35    2    3    3    0    0 -0.63170894463E+02 -0.74746585960E+02  0.96784364721E+03  0.12597581406E+04  0.80043215419E+03 0.  0.
         22    1    5    5    0    0 -0.15606764395E+03 -0.11106501690E+03 -0.79703292707E+02  0.20747328101E+03  0.00000000000E+00 0. -1.
         22    1    5    5    0    0  0.92896749484E+02  0.36318430938E+02  0.10475469399E+04  0.10522848596E+04  0.00000000000E+00 0. -1.
          5    1    4    4  502    0  0.15742276468E+02 -0.33148036873E+02  0.61038710803E+02  0.71375246643E+02  0.47000000000E+01 0.  1.
         -5    1    4    4    0  502  0.47428617995E+02  0.10789462283E+03  0.37059324044E+03  0.38891151088E+03  0.47000000000E+01 0.  1.
<mgrwt>
<rscale>  0 0.10000113E+04</rscale>
<asrwt>0</asrwt>
<pdfrwt beam="1">  1        2 0.23996310E+00 0.10000113E+04</pdfrwt>
<pdfrwt beam="2">  1       -2 0.24659178E-01 0.10000113E+04</pdfrwt>
<totfact> 0.20602076E+02</totfact>
</mgrwt>
</event>
<event>
 9    1  0.4488205E-036  0.9971478E+03  0.7818608E-02  0.8683759E-01
          2   -1    0    0  501    0  0.00000000000E+00  0.00000000000E+00  0.19849560812E+04  0.19849560812E+04  0.00000000000E+00 0.  1.
         -2   -1    0    0    0  501 -0.00000000000E+00 -0.00000000000E+00 -0.12522993820E+03  0.12522993820E+03  0.00000000000E+00 0.  1.
         36    2    1    2    0    0 -0.28421709430E-13  0.00000000000E+00  0.18597261430E+04  0.21101860194E+04  0.99714778720E+03 0.  0.
         25    2    3    3    0    0  0.12656952303E+03  0.17060778074E+02  0.23577748004E+03  0.29536596285E+03  0.12385119139E+03 0.  0.
         35    2    3    3    0    0 -0.12656952303E+03 -0.17060778074E+02  0.16239486630E+04  0.18148200566E+04  0.80003228899E+03 0.  0.
         22    1    5    5    0    0  0.28678542326E+03  0.53465756027E+02  0.27026960959E+03  0.39768093735E+03  0.00000000000E+00 0. -1.
         22    1    5    5    0    0 -0.41335494629E+03 -0.70526534101E+02  0.13536790534E+04  0.14171391192E+04  0.00000000000E+00 0. -1.
          5    1    4    4  502    0  0.82772123947E+02 -0.50615274783E+02  0.12649679839E+03  0.15948874740E+03  0.47000000000E+01 0.  1.
         -5    1    4    4    0  502  0.43797399081E+02  0.67676052857E+02  0.10928068164E+03  0.13587721544E+03  0.47000000000E+01 0.  1.
<mgrwt>
<rscale>  0 0.99714779E+03</rscale>
<asrwt>0</asrwt>
<pdfrwt beam="1">  1        2 0.30537784E+00 0.99714779E+03</pdfrwt>
<pdfrwt beam="2">  1       -2 0.19266146E-01 0.99714779E+03</pdfrwt>
<totfact> 0.18237497E+02</totfact>
</mgrwt>
</event>
<event>
 9    1  0.4488205E-036  0.1000696E+04  0.7818608E-02  0.8680375E-01
          2   -1    0    0  501    0  0.00000000000E+00  0.00000000000E+00  0.96523701489E+03  0.96523701489E+03  0.00000000000E+00 0. -1.
         -2   -1    0    0    0  501 -0.00000000000E+00 -0.00000000000E+00 -0.25936444650E+03  0.25936444650E+03  0.00000000000E+00 0. -1.
         36    2    1    2    0    0 -0.28421709430E-13  0.14210854715E-13  0.70587256839E+03  0.12246014614E+04  0.10006960859E+04 0.  0.
         25    2    3    3    0    0  0.11006495279E+03 -0.50713153917E+02  0.21882107870E+03  0.27959771089E+03  0.12492436767E+03 0.  0.
         35    2    3    3    0    0 -0.11006495279E+03  0.50713153917E+02  0.48705148969E+03  0.94500375050E+03  0.80070395093E+03 0.  0.
         22    1    5    5    0    0  0.16110014603E+03 -0.28175887797E+03  0.38583862519E+03  0.50419516762E+03  0.00000000000E+00 0.  1.
         22    1    5    5    0    0 -0.27116509882E+03  0.33247203188E+03  0.10121286450E+03  0.44080858288E+03  0.00000000000E+00 0.  1.
          5    1    4    4  502    0  0.20818215518E+02 -0.74754342324E+02  0.12909232172E+03  0.15069348799E+03  0.47000000000E+01 0. -1.
         -5    1    4    4    0  502  0.89246737267E+02  0.24041188407E+02  0.89728756979E+02  0.12890422290E+03  0.47000000000E+01 0. -1.
<mgrwt>
<rscale>  0 0.10006961E+04</rscale>
<asrwt>0</asrwt>
<pdfrwt beam="1">  1        2 0.14849800E+00 0.10006961E+04</pdfrwt>
<pdfrwt beam="2">  1       -2 0.39902223E-01 0.10006961E+04</pdfrwt>
<totfact> 0.19064862E+02</totfact>
</mgrwt>
</event>
<event>
 9    1  0.4488205E-036  0.1001568E+04  0.7818608E-02  0.8679546E-01
          2   -1    0    0  501    0  0.00000000000E+00  0.00000000000E+00  0.93252257245E+03  0.93252257245E+03  0.00000000000E+00 0.  1.
         -2   -1    0    0    0  501 -0.00000000000E+00 -0.00000000000E+00 -0.26893143437E+03  0.26893143437E+03  0.00000000000E+00 0.  1.
         36    2    1    2    0    0 -0.28421709430E-13  0.71054273576E-14  0.66359113809E+03  0.12014540068E+04  0.10015680366E+04 0.  0.
         25    2    3    3    0    0  0.72832149540E+02  0.15605498630E+02 -0.27216941122E+02  0.14132896331E+03  0.11698316285E+03 0.  0.
         35    2    3    3    0    0 -0.72832149540E+02 -0.15605498630E+02  0.69080807921E+03  0.10601250435E+04  0.80068798667E+03 0.  0.
         22    1    5    5    0    0 -0.25953878407E+03  0.24640475825E+03  0.75459247729E+02  0.36574551725E+03  0.00000000000E+00 0.  1.
         22    1    5    5    0    0  0.18670663453E+03 -0.26201025688E+03  0.61534883148E+03  0.69437952626E+03  0.00000000000E+00 0.  1.
          5    1    4    4  502    0  0.83497083545E+02  0.45533180445E+02 -0.44220723278E+02  0.10498855104E+03  0.47000000000E+01 0.  1.
         -5    1    4    4    0  502 -0.10664934006E+02 -0.29927681816E+02  0.17003782156E+02  0.36340412268E+02  0.47000000000E+01 0.  1.
<mgrwt>
<rscale>  0 0.10015680E+04</rscale>
<asrwt>0</asrwt>
<pdfrwt beam="1">  1        2 0.14346501E+00 0.10015680E+04</pdfrwt>
<pdfrwt beam="2">  1       -2 0.41374067E-01 0.10015680E+04</pdfrwt>
<totfact> 0.18665990E+02</totfact>
</mgrwt>
</event>
<event>
 9    1  0.4488205E-036  0.9996598E+03  0.7818608E-02  0.8681362E-01
          2   -1    0    0  501    0  0.00000000000E+00  0.00000000000E+00  0.60873378925E+03  0.60873378925E+03  0.00000000000E+00 0. -1.
         -2   -1    0    0    0  501 -0.00000000000E+00 -0.00000000000E+00 -0.41040920429E+03  0.41040920429E+03  0.00000000000E+00 0. -1.
         36    2    1    2    0    0 -0.71054273576E-14  0.28421709430E-13  0.19832458496E+03  0.10191429935E+04  0.99965984228E+03 0.  0.
         25    2    3    3    0    0 -0.54527784666E+01  0.13826831117E+03  0.21005624126E+02  0.18743681299E+03  0.12467342922E+03 0.  0.
         35    2    3    3    0    0  0.54527784666E+01 -0.13826831117E+03  0.17731896084E+03  0.83170618054E+03  0.80071549143E+03 0.  0.
         22    1    5    5    0    0 -0.11883168607E+03 -0.34082576330E+03 -0.17940198131E+03  0.40307349385E+03  0.00000000000E+00 0. -1.
         22    1    5    5    0    0  0.12428446454E+03  0.20255745213E+03  0.35672094214E+03  0.42863268670E+03  0.00000000000E+00 0. -1.
          5    1    4    4  502    0  0.35491073740E+02  0.10548422009E+03  0.55529131409E+02  0.12446731072E+03  0.47000000000E+01 0. -1.
         -5    1    4    4    0  502 -0.40943852207E+02  0.32784091081E+02 -0.34523507283E+02  0.62969502274E+02  0.47000000000E+01 0. -1.
<mgrwt>
<rscale>  0 0.99965984E+03</rscale>
<asrwt>0</asrwt>
<pdfrwt beam="1">  1        2 0.93651352E-01 0.99965984E+03</pdfrwt>
<pdfrwt beam="2">  1       -2 0.63139877E-01 0.99965984E+03</pdfrwt>
<totfact> 0.13700318E+02</totfact>
</mgrwt>
</event>
<event>
 9    1  0.4488205E-036  0.1000208E+04  0.7818608E-02  0.8680840E-01
          1   -1    0    0  501    0  0.00000000000E+00  0.00000000000E+00  0.88760375156E+03  0.88760375156E+03  0.00000000000E+00 0.  1.
         -1   -1    0    0    0  501 -0.00000000000E+00 -0.00000000000E+00 -0.28177429266E+03  0.28177429266E+03  0.00000000000E+00 0.  1.
         36    2    1    2    0    0  0.00000000000E+00  0.00000000000E+00  0.60582945890E+03  0.11693780442E+04  0.10002078169E+04 0.  0.
         25    2    3    3    0    0  0.96672949482E+02  0.97882875163E+02  0.12125583827E+03  0.22152325350E+03  0.12426929272E+03 0.  0.
         35    2    3    3    0    0 -0.96672949482E+02 -0.97882875163E+02  0.48457362063E+03  0.94785479073E+03  0.80292614485E+03 0.  0.
         22    1    5    5    0    0 -0.35761332695E+03  0.10922255077E+03  0.17738501367E+02  0.37434143725E+03  0.00000000000E+00 0. -1.
         22    1    5    5    0    0  0.26094037747E+03 -0.20710542593E+03  0.46683511926E+03  0.57351335348E+03  0.00000000000E+00 0. -1.
          5    1    4    4  502    0 -0.59902543004E+01  0.28560696879E+02  0.88496802579E+02  0.93302575631E+02  0.47000000000E+01 0. -1.
         -5    1    4    4    0  502  0.10266320378E+03  0.69322178284E+02  0.32759035689E+02  0.12822067787E+03  0.47000000000E+01 0. -1.
<mgrwt>
<rscale>  0 0.10002078E+04</rscale>
<asrwt>0</asrwt>
<pdfrwt beam="1">  1        1 0.13655442E+00 0.10002078E+04</pdfrwt>
<pdfrwt beam="2">  1       -1 0.43349892E-01 0.10002078E+04</pdfrwt>
<totfact> 0.11051243E+02</totfact>
</mgrwt>
</event>
<event>
 9    1  0.4488205E-036  0.9994978E+03  0.7818608E-02  0.8681516E-01
         -1   -1    0    0    0  501 -0.00000000000E+00  0.00000000000E+00  0.12915161497E+03  0.12915161497E+03  0.00000000000E+00 0. -1.
          1   -1    0    0  501    0  0.00000000000E+00 -0.00000000000E+00 -0.19337655323E+04  0.19337655323E+04  0.00000000000E+00 0. -1.
         36    2    1    2    0    0  0.28421709430E-13 -0.14210854715E-13 -0.18046139173E+04  0.20629171473E+04  0.99949775680E+03 0.  0.
         25    2    3    3    0    0  0.76602362593E+02 -0.69094455951E+02 -0.14107898350E+03  0.21436361491E+03  0.12412297940E+03 0.  0.
         35    2    3    3    0    0 -0.76602362593E+02  0.69094455951E+02 -0.16635349338E+04  0.18485535324E+04  0.79947465255E+03 0.  0.
         22    1    5    5    0    0 -0.14236862335E+03  0.31467621912E+03 -0.28795075774E+03  0.44967275509E+03  0.00000000000E+00 0. -1.
         22    1    5    5    0    0  0.65766260755E+02 -0.24558176316E+03 -0.13755841761E+04  0.13988807773E+04  0.00000000000E+00 0. -1.
          5    1    4    4  502    0  0.96106528680E+02 -0.51837523107E+02 -0.51245927030E+02  0.12071382975E+03  0.47000000000E+01 0. -1.
         -5    1    4    4    0  502 -0.19504166087E+02 -0.17256932844E+02 -0.89833056466E+02  0.93649785157E+02  0.47000000000E+01 0. -1.
<mgrwt>
<rscale>  0 0.99949776E+03</rscale>
<asrwt>0</asrwt>
<pdfrwt beam="1">  1        1 0.29750240E+00 0.99949776E+03</pdfrwt>
<pdfrwt beam="2">  1       -1 0.19869479E-01 0.99949776E+03</pdfrwt>
<totfact> 0.71653059E+01</totfact>
</mgrwt>
</event>
<event>
 9    1  0.4488205E-036  0.1001958E+04  0.7818608E-02  0.8679175E-01
         -2   -1    0    0    0  501 -0.00000000000E+00  0.00000000000E+00  0.41215745213E+03  0.41215745213E+03  0.00000000000E+00 0.  1.
          2   -1    0    0  501    0  0.00000000000E+00 -0.00000000000E+00 -0.60894248879E+03  0.60894248879E+03  0.00000000000E+00 0.  1.
         36    2    1    2    0    0  0.00000000000E+00  0.00000000000E+00 -0.19678503665E+03  0.10210999409E+04  0.10019584516E+04 0.  0.
         25    2    3    3    0    0  0.14240651328E+03  0.89191543240E+01 -0.23174502283E+02  0.19082346902E+03  0.12456874582E+03 0.  0.
         35    2    3    3    0    0 -0.14240651328E+03 -0.89191543240E+01 -0.17361053437E+03  0.83027647190E+03  0.79928670438E+03 0.  0.
         22    1    5    5    0    0  0.14706328835E+03  0.55950730670E+02  0.26059278631E+03  0.30441204857E+03  0.00000000000E+00 0. -1.
         22    1    5    5    0    0 -0.28946980162E+03 -0.64869884994E+02 -0.43420332068E+03  0.52586442332E+03  0.00000000000E+00 0. -1.
          5    1    4    4  502    0  0.29160804083E+02 -0.35846820275E+02 -0.47632077109E+02  0.66530081830E+02  0.47000000000E+01 0.  1.
         -5    1    4    4    0  502  0.11324570919E+03  0.44765974599E+02  0.24457574826E+02  0.12429338719E+03  0.47000000000E+01 0.  1.
<mgrwt>
<rscale>  0 0.10019585E+04</rscale>
<asrwt>0</asrwt>
<pdfrwt beam="1">  1        2 0.93683459E-01 0.10019585E+04</pdfrwt>
<pdfrwt beam="2">  1       -2 0.63408839E-01 0.10019585E+04</pdfrwt>
<totfact> 0.13571485E+02</totfact>
</mgrwt>
</event>
<event>
 9    1  0.4488205E-036  0.9998892E+03  0.7818608E-02  0.8681143E-01
          2   -1    0    0  501    0  0.00000000000E+00  0.00000000000E+00  0.32127252009E+04  0.32127252009E+04  0.00000000000E+00 0. -1.
         -2   -1    0    0    0  501 -0.00000000000E+00 -0.00000000000E+00 -0.77798318053E+02  0.77798318053E+02  0.00000000000E+00 0. -1.
         36    2    1    2    0    0  0.00000000000E+00 -0.14210854715E-13  0.31349268828E+04  0.32905235189E+04  0.99988922785E+03 0.  0.
         25    2    3    3    0    0 -0.13718171020E+03  0.17526071630E+02  0.51035786583E+03  0.54343254403E+03  0.12541050155E+03 0.  0.
         35    2    3    3    0    0  0.13718171020E+03 -0.17526071630E+02  0.26245690170E+04  0.27470909749E+04  0.79938746212E+03 0.  0.
         22    1    5    5    0    0 -0.14345496147E+01  0.12359781406E+03  0.25205803845E+04  0.25236093106E+04  0.00000000000E+00 0. -1.
         22    1    5    5    0    0  0.13861625981E+03 -0.14112388569E+03  0.10398863242E+03  0.22348166428E+03  0.00000000000E+00 0. -1.
          5    1    4    4  502    0 -0.23340388167E+02 -0.38629732303E+02  0.58364964707E+02  0.73929622229E+02  0.47000000000E+01 0.  1.
         -5    1    4    4    0  502 -0.11384132203E+03  0.56155803934E+02  0.45199290112E+03  0.46950292181E+03  0.47000000000E+01 0.  1.
<mgrwt>
<rscale>  0 0.99988923E+03</rscale>
<asrwt>0</asrwt>
<pdfrwt beam="1">  1        2 0.49426531E+00 0.99988923E+03</pdfrwt>
<pdfrwt beam="2">  1       -2 0.11968975E-01 0.99988923E+03</pdfrwt>
<totfact> 0.69632783E+01</totfact>
</mgrwt>
</event>
<event>
 9    1  0.4488205E-036  0.1000131E+04  0.7818608E-02  0.8680913E-01
          2   -1    0    0  501    0  0.00000000000E+00  0.00000000000E+00  0.54786893037E+03  0.54786893037E+03  0.00000000000E+00 0. -1.
         -2   -1    0    0    0  501 -0.00000000000E+00 -0.00000000000E+00 -0.45643306432E+03  0.45643306432E+03  0.00000000000E+00 0. -1.
         36    2    1    2    0    0  0.00000000000E+00  0.00000000000E+00  0.91435866053E+02  0.10043019947E+04  0.10001309809E+04 0.  0.
         25    2    3    3    0    0 -0.27409234780E+02  0.89353966043E+02  0.12056146485E+03  0.19832818994E+03  0.12674228466E+03 0.  0.
         35    2    3    3    0    0  0.27409234780E+02 -0.89353966043E+02 -0.29125598796E+02  0.80597380474E+03  0.80000629749E+03 0.  0.
         22    1    5    5    0    0  0.47901944172E+02  0.33661174810E+03 -0.13621703179E+03  0.36627468513E+03  0.00000000000E+00 0. -1.
         22    1    5    5    0    0 -0.20492709392E+02 -0.42596571415E+03  0.10709143300E+03  0.43969911961E+03  0.00000000000E+00 0. -1.
          5    1    4    4  502    0  0.16097129974E+01 -0.25481594243E+02  0.59651783416E+02  0.65056345470E+02  0.47000000000E+01 0.  1.
         -5    1    4    4    0  502 -0.29018947778E+02  0.11483556029E+03  0.60909681432E+02  0.13327184447E+03  0.47000000000E+01 0.  1.
<mgrwt>
<rscale>  0 0.10001310E+04</rscale>
<asrwt>0</asrwt>
<pdfrwt beam="1">  1        2 0.84287528E-01 0.10001310E+04</pdfrwt>
<pdfrwt beam="2">  1       -2 0.70220471E-01 0.10001310E+04</pdfrwt>
<totfact> 0.12349200E+02</totfact>
</mgrwt>
</event>
<event>
 9    1  0.4488205E-036  0.1000200E+04  0.7818608E-02  0.8680848E-01
          2   -1    0    0  501    0  0.00000000000E+00  0.00000000000E+00  0.10724417076E+03  0.10724417076E+03  0.00000000000E+00 0. -1.
         -2   -1    0    0    0  501 -0.00000000000E+00 -0.00000000000E+00 -0.23320596939E+04  0.23320596939E+04  0.00000000000E+00 0. -1.
         36    2    1    2    0    0  0.71054273576E-14  0.14210854715E-13 -0.22248155231E+04  0.24393038646E+04  0.10001995961E+04 0.  0.
         25    2    3    3    0    0 -0.19890114728E+02 -0.42272684407E+02 -0.97725067106E+02  0.16507689113E+03  0.12456963809E+03 0.  0.
         35    2    3    3    0    0  0.19890114728E+02  0.42272684407E+02 -0.21270904560E+04  0.22742269735E+04  0.80337533099E+03 0.  0.
         22    1    5    5    0    0  0.12702132159E+03  0.24708952284E+03 -0.22326012902E+03  0.35641651708E+03  0.00000000000E+00 0.  1.
         22    1    5    5    0    0 -0.10713120687E+03 -0.20481683844E+03 -0.19038303270E+04  0.19178104564E+04  0.00000000000E+00 0.  1.
          5    1    4    4  502    0  0.43144694596E+02 -0.53300225472E+02 -0.54360029611E+02  0.87632651029E+02  0.47000000000E+01 0.  1.
         -5    1    4    4    0  502 -0.63034809324E+02  0.11027541064E+02 -0.43365037496E+02  0.77444240105E+02  0.47000000000E+01 0.  1.
<mgrwt>
<rscale>  0 0.10001996E+04</rscale>
<asrwt>0</asrwt>
<pdfrwt beam="1">  1        2 0.16499103E-01 0.10001996E+04</pdfrwt>
<pdfrwt beam="2">  1       -2 0.35877841E+00 0.10001996E+04</pdfrwt>
<totfact> 0.61837754E+00</totfact>
</mgrwt>
</event>
<event>
 9    1  0.4488205E-036  0.1000446E+04  0.7818608E-02  0.8680613E-01
         -1   -1    0    0    0  501 -0.00000000000E+00  0.00000000000E+00  0.33356181989E+03  0.33356181989E+03  0.00000000000E+00 0. -1.
          1   -1    0    0  501    0  0.00000000000E+00 -0.00000000000E+00 -0.75015563487E+03  0.75015563487E+03  0.00000000000E+00 0. -1.
         36    2    1    2    0    0  0.00000000000E+00  0.00000000000E+00 -0.41659381497E+03  0.10837174548E+04  0.10004464579E+04 0.  0.
         25    2    3    3    0    0  0.94046269315E+02 -0.77026931666E+01 -0.19090894494E+03  0.24703208499E+03  0.12519821685E+03 0.  0.
         35    2    3    3    0    0 -0.94046269315E+02  0.77026931666E+01 -0.22568487004E+03  0.83668536977E+03  0.80012793675E+03 0.  0.
         22    1    5    5    0    0 -0.25250942646E+03 -0.20640635670E+02 -0.47591362235E+03  0.53914823772E+03  0.00000000000E+00 0.  1.
         22    1    5    5    0    0  0.15846315715E+03  0.28343328837E+02  0.25022875232E+03  0.29753713205E+03  0.00000000000E+00 0.  1.
          5    1    4    4  502    0  0.46687121915E+02 -0.66306475304E+02 -0.10210567086E+03  0.13047564540E+03  0.47000000000E+01 0.  1.
         -5    1    4    4    0  502  0.47359147400E+02  0.58603782137E+02 -0.88803274076E+02  0.11655643959E+03  0.47000000000E+01 0.  1.
<mgrwt>
<rscale>  0 0.10004465E+04</rscale>
<asrwt>0</asrwt>
<pdfrwt beam="1">  1        1 0.11540856E+00 0.10004465E+04</pdfrwt>
<pdfrwt beam="2">  1       -1 0.51317204E-01 0.10004465E+04</pdfrwt>
<totfact> 0.10701273E+02</totfact>
</mgrwt>
</event>
<event>
 9    1  0.4488205E-036  0.9934011E+03  0.7818608E-02  0.8687348E-01
          2   -1    0    0  501    0  0.00000000000E+00  0.00000000000E+00  0.25776530059E+03  0.25776530059E+03  0.00000000000E+00 0. -1.
         -2   -1    0    0    0  501 -0.00000000000E+00 -0.00000000000E+00 -0.95711659430E+03  0.95711659430E+03  0.00000000000E+00 0. -1.
         36    2    1    2    0    0  0.35527136788E-13  0.28421709430E-13 -0.69935129370E+03  0.12148818949E+04  0.99340112066E+03 0.  0.
         25    2    3    3    0    0 -0.14237502447E+02 -0.12148365741E+03 -0.18901062544E+03  0.25777485694E+03  0.12554630559E+03 0.  0.
         35    2    3    3    0    0  0.14237502447E+02  0.12148365741E+03 -0.51034066826E+03  0.95710703795E+03  0.80040321021E+03 0.  0.
         22    1    5    5    0    0  0.34335708158E+03  0.28056203117E+03 -0.25931717538E+03  0.51366772943E+03  0.00000000000E+00 0.  1.
         22    1    5    5    0    0 -0.32911957914E+03 -0.15907837376E+03 -0.25102349288E+03  0.44343930852E+03  0.00000000000E+00 0.  1.
          5    1    4    4  502    0  0.34851441470E+02 -0.10623970453E+03 -0.16840611974E+03  0.20219843955E+03  0.47000000000E+01 0. -1.
         -5    1    4    4    0  502 -0.49088943917E+02 -0.15243952886E+02 -0.20604505697E+02  0.55576417387E+02  0.47000000000E+01 0. -1.
<mgrwt>
<rscale>  0 0.99340112E+03</rscale>
<asrwt>0</asrwt>
<pdfrwt beam="1">  1        2 0.39656200E-01 0.99340112E+03</pdfrwt>
<pdfrwt beam="2">  1       -2 0.14724871E+00 0.99340112E+03</pdfrwt>
<totfact> 0.46490048E+01</totfact>
</mgrwt>
</event>
<event>
 9    1  0.4488205E-036  0.9994146E+03  0.7818608E-02  0.8681596E-01
          1   -1    0    0  501    0  0.00000000000E+00  0.00000000000E+00  0.89972675579E+03  0.89972675579E+03  0.00000000000E+00 0. -1.
         -1   -1    0    0    0  501 -0.00000000000E+00 -0.00000000000E+00 -0.27753689380E+03  0.27753689380E+03  0.00000000000E+00 0. -1.
         36    2    1    2    0    0  0.00000000000E+00 -0.28421709430E-13  0.62218986199E+03  0.11772636496E+04  0.99941456677E+03 0.  0.
         25    2    3    3    0    0  0.70715487158E+02 -0.10445588685E+03  0.18924981916E+03  0.25902248393E+03  0.12395741488E+03 0.  0.
         35    2    3    3    0    0 -0.70715487158E+02  0.10445588685E+03  0.43294004283E+03  0.91824116566E+03  0.79988627017E+03 0.  0.
         22    1    5    5    0    0 -0.42269699123E+02 -0.34138677973E+03  0.91500853479E+02  0.35595514749E+03  0.00000000000E+00 0. -1.
         22    1    5    5    0    0 -0.28445788035E+02  0.44584266658E+03  0.34143918935E+03  0.56228601817E+03  0.00000000000E+00 0. -1.
          5    1    4    4  502    0  0.61254864168E+02 -0.77683374711E+02  0.39654755535E+02  0.10668390098E+03  0.47000000000E+01 0.  1.
         -5    1    4    4    0  502  0.94606229898E+01 -0.26772512142E+02  0.14959506363E+03  0.15233858295E+03  0.47000000000E+01 0.  1.
<mgrwt>
<rscale>  0 0.99941457E+03</rscale>
<asrwt>0</asrwt>
<pdfrwt beam="1">  1        1 0.13841950E+00 0.99941457E+03</pdfrwt>
<pdfrwt beam="2">  1       -1 0.42697984E-01 0.99941457E+03</pdfrwt>
<totfact> 0.11096246E+02</totfact>
</mgrwt>
</event>
<event>
 9    1  0.4488205E-036  0.9998541E+03  0.7818608E-02  0.8681177E-01
          2   -1    0    0  501    0  0.00000000000E+00  0.00000000000E+00  0.68264036913E+03  0.68264036913E+03  0.00000000000E+00 0. -1.
         -2   -1    0    0    0  501 -0.00000000000E+00 -0.00000000000E+00 -0.36611817936E+03  0.36611817936E+03  0.00000000000E+00 0. -1.
         36    2    1    2    0    0  0.00000000000E+00  0.00000000000E+00  0.31652218977E+03  0.10487585485E+04  0.99985408756E+03 0.  0.
         25    2    3    3    0    0  0.10437578055E+03 -0.94575336662E+02  0.55668477114E+02  0.19623692714E+03  0.12478443157E+03 0.  0.
         35    2    3    3    0    0 -0.10437578055E+03  0.94575336662E+02  0.26085371266E+03  0.85252162135E+03  0.79931824550E+03 0.  0.
         22    1    5    5    0    0 -0.31771879433E+03  0.80990500791E+02  0.45696119525E+03  0.56242175230E+03  0.00000000000E+00 0.  1.
         22    1    5    5    0    0  0.21334301378E+03  0.13584835871E+02 -0.19610748259E+03  0.29009986905E+03  0.00000000000E+00 0.  1.
          5    1    4    4  502    0  0.11470061368E+03 -0.83184697420E+02  0.83183308771E+02  0.16436994105E+03  0.47000000000E+01 0.  1.
         -5    1    4    4    0  502 -0.10324833131E+02 -0.11390639242E+02 -0.27514831658E+02  0.31866986093E+02  0.47000000000E+01 0.  1.
<mgrwt>
<rscale>  0 0.99985409E+03</rscale>
<asrwt>0</asrwt>
<pdfrwt beam="1">  1        2 0.10502159E+00 0.99985409E+03</pdfrwt>
<pdfrwt beam="2">  1       -2 0.56325874E-01 0.99985409E+03</pdfrwt>
<totfact> 0.15140343E+02</totfact>
</mgrwt>
</event>
<event>
 9    1  0.4488205E-036  0.9998415E+03  0.7818608E-02  0.8681189E-01
          2   -1    0    0  501    0  0.00000000000E+00  0.00000000000E+00  0.67813937799E+03  0.67813937799E+03  0.00000000000E+00 0.  1.
         -2   -1    0    0    0  501 -0.00000000000E+00 -0.00000000000E+00 -0.36853894797E+03  0.36853894797E+03  0.00000000000E+00 0.  1.
         36    2    1    2    0    0  0.19539925233E-13  0.14210854715E-13  0.30960043002E+03  0.10466783260E+04  0.99984153334E+03 0.  0.
         25    2    3    3    0    0 -0.12855000835E+02 -0.48137841593E+02 -0.78280106098E+02  0.15639051758E+03  0.12588771242E+03 0.  0.
         35    2    3    3    0    0  0.12855000835E+02  0.48137841593E+02  0.38788053611E+03  0.89028780838E+03  0.79979908016E+03 0.  0.
         22    1    5    5    0    0  0.21712100692E+03 -0.11183318046E+03 -0.15453494473E+03  0.28901425750E+03  0.00000000000E+00 0.  1.
         22    1    5    5    0    0 -0.20426600608E+03  0.15997102205E+03  0.54241548084E+03  0.60127355089E+03  0.00000000000E+00 0.  1.
          5    1    4    4  502    0 -0.12912950198E+02 -0.56959229395E+02  0.16667738236E+02  0.60917990725E+02  0.47000000000E+01 0. -1.
         -5    1    4    4    0  502  0.57949363333E-01  0.88213878024E+01 -0.94947844333E+02  0.95472526857E+02  0.47000000000E+01 0. -1.
<mgrwt>
<rscale>  0 0.99984153E+03</rscale>
<asrwt>0</asrwt>
<pdfrwt beam="1">  1        2 0.10432913E+00 0.99984153E+03</pdfrwt>
<pdfrwt beam="2">  1       -2 0.56698300E-01 0.99984153E+03</pdfrwt>
<totfact> 0.15057249E+02</totfact>
</mgrwt>
</event>
<event>
 9    1  0.4488205E-036  0.9923460E+03  0.7818608E-02  0.8688361E-01
          2   -1    0    0  501    0  0.00000000000E+00  0.00000000000E+00  0.68516750172E+03  0.68516750172E+03  0.00000000000E+00 0.  1.
         -2   -1    0    0    0  501 -0.00000000000E+00 -0.00000000000E+00 -0.35931014575E+03  0.35931014575E+03  0.00000000000E+00 0.  1.
         36    2    1    2    0    0 -0.28421709430E-13  0.00000000000E+00  0.32585735597E+03  0.10444776475E+04  0.99234597777E+03 0.  0.
         25    2    3    3    0    0 -0.49560510333E+02  0.74736166893E+02 -0.41992619766E+02  0.15971222710E+03  0.12531111899E+03 0.  0.
         35    2    3    3    0    0  0.49560510333E+02 -0.74736166893E+02  0.36784997574E+03  0.88476542037E+03  0.79965899332E+03 0.  0.
         22    1    5    5    0    0  0.40438117637E+03  0.13978822663E+02  0.64788940677E+02  0.40977695167E+03  0.00000000000E+00 0.  1.
         22    1    5    5    0    0 -0.35482066604E+03 -0.88714989555E+02  0.30306103506E+03  0.47498846869E+03  0.00000000000E+00 0.  1.
          5    1    4    4  502    0 -0.90711702258E+02  0.49247664068E+02 -0.40729645078E+02  0.11106277203E+03  0.47000000000E+01 0. -1.
         -5    1    4    4    0  502  0.41151191926E+02  0.25488502825E+02 -0.12629746875E+01  0.48649455066E+02  0.47000000000E+01 0. -1.
<mgrwt>
<rscale>  0 0.99234598E+03</rscale>
<asrwt>0</asrwt>
<pdfrwt beam="1">  1        2 0.10541038E+00 0.99234598E+03</pdfrwt>
<pdfrwt beam="2">  1       -2 0.55278484E-01 0.99234598E+03</pdfrwt>
<totfact> 0.15667554E+02</totfact>
</mgrwt>
</event>
<event>
 9    1  0.4488205E-036  0.1000330E+04  0.7818608E-02  0.8680724E-01
          1   -1    0    0  501    0  0.00000000000E+00  0.00000000000E+00  0.13377928973E+04  0.13377928973E+04  0.00000000000E+00 0.  1.
         -1   -1    0    0    0  501 -0.00000000000E+00 -0.00000000000E+00 -0.18699822509E+03  0.18699822509E+03  0.00000000000E+00 0.  1.
         36    2    1    2    0    0  0.14210854715E-13  0.14210854715E-13  0.11507946722E+04  0.15247911224E+04  0.10003297403E+04 0.  0.
         25    2    3    3    0    0  0.11279296566E+03 -0.69888511857E+02  0.29072327235E+03  0.34299605931E+03  0.12457776055E+03 0.  0.
         35    2    3    3    0    0 -0.11279296566E+03  0.69888511857E+02  0.86007139984E+03  0.11817950631E+04  0.79956869690E+03 0.  0.
         22    1    5    5    0    0 -0.41130562390E+03  0.14271117827E+03  0.72604521876E+03  0.84656981776E+03  0.00000000000E+00 0.  1.
         22    1    5    5    0    0  0.29851265824E+03 -0.72822666412E+02  0.13402618108E+03  0.33522524530E+03  0.00000000000E+00 0.  1.
          5    1    4    4  502    0  0.87121471449E+02 -0.76831744314E+02  0.29365629944E+03  0.31583125229E+03  0.47000000000E+01 0. -1.
         -5    1    4    4    0  502  0.25671494216E+02  0.69432324568E+01 -0.29330270955E+01  0.27164807015E+02  0.47000000000E+01 0. -1.
<mgrwt>
<rscale>  0 0.10003297E+04</rscale>
<asrwt>0</asrwt>
<pdfrwt beam="1">  1        1 0.20581429E+00 0.10003297E+04</pdfrwt>
<pdfrwt beam="2">  1       -1 0.28768958E-01 0.10003297E+04</pdfrwt>
<totfact> 0.10191160E+02</totfact>
</mgrwt>
</event>
<event>
 9    1  0.4488205E-036  0.9992353E+03  0.7818608E-02  0.8681767E-01
         -2   -1    0    0    0  501 -0.00000000000E+00  0.00000000000E+00  0.86236662054E+02  0.86236662054E+02  0.00000000000E+00 0.  1.
          2   -1    0    0  501    0  0.00000000000E+00 -0.00000000000E+00 -0.28945669527E+04  0.28945669527E+04  0.00000000000E+00 0.  1.
         36    2    1    2    0    0  0.00000000000E+00 -0.14210854715E-13 -0.28083302906E+04  0.29808036147E+04  0.99923529179E+03 0.  0.
         25    2    3    3    0    0 -0.54610146434E+02 -0.62426533520E+02 -0.85955675524E+03  0.87264952877E+03  0.12569822758E+03 0.  0.
         35    2    3    3    0    0  0.54610146434E+02  0.62426533520E+02 -0.19487735354E+04  0.21081540859E+04  0.79982249138E+03 0.  0.
         22    1    5    5    0    0 -0.21285570480E+02 -0.17873850018E+03 -0.18115856983E+04  0.18205063222E+04  0.00000000000E+00 0. -1.
         22    1    5    5    0    0  0.75895716914E+02  0.24116503370E+03 -0.13718783704E+03  0.28764776369E+03  0.00000000000E+00 0. -1.
          5    1    4    4  502    0  0.17250847476E+01 -0.73362337479E+02 -0.68286528326E+03  0.68681299752E+03  0.47000000000E+01 0.  1.
         -5    1    4    4    0  502 -0.56335231181E+02  0.10935803959E+02 -0.17669147198E+03  0.18583653126E+03  0.47000000000E+01 0.  1.
<mgrwt>
<rscale>  0 0.99923529E+03</rscale>
<asrwt>0</asrwt>
<pdfrwt beam="1">  1        2 0.44531790E+00 0.99923529E+03</pdfrwt>
<pdfrwt beam="2">  1       -2 0.13267182E-01 0.99923529E+03</pdfrwt>
<totfact> 0.96404430E+01</totfact>
</mgrwt>
</event>
<event>
 9    1  0.4488205E-036  0.9988860E+03  0.7818608E-02  0.8682100E-01
          1   -1    0    0  501    0  0.00000000000E+00  0.00000000000E+00  0.14931330031E+03  0.14931330031E+03  0.00000000000E+00 0. -1.
         -1   -1    0    0    0  501 -0.00000000000E+00 -0.00000000000E+00 -0.16706032761E+04  0.16706032761E+04  0.00000000000E+00 0. -1.
         36    2    1    2    0    0 -0.42632564146E-13  0.17763568394E-13 -0.15212899758E+04  0.18199165764E+04  0.99888595679E+03 0.  0.
         25    2    3    3    0    0  0.18320904861E+02 -0.41356219236E+01 -0.53230981041E+03  0.54756015230E+03  0.12694734030E+03 0.  0.
         35    2    3    3    0    0 -0.18320904861E+02  0.41356219236E+01 -0.98898016540E+03  0.12723564241E+04  0.80028516389E+03 0.  0.
         22    1    5    5    0    0 -0.31462472826E+03  0.25311516671E+03 -0.60334632612E+03  0.72600468076E+03  0.00000000000E+00 0.  1.
         22    1    5    5    0    0  0.29630382340E+03 -0.24897954479E+03 -0.38563383929E+03  0.54635174337E+03  0.00000000000E+00 0.  1.
          5    1    4    4  502    0 -0.17174260764E+02  0.31644840455E+02 -0.45909687828E+02  0.58533243517E+02  0.47000000000E+01 0.  1.
         -5    1    4    4    0  502  0.35495165625E+02 -0.35780462378E+02 -0.48640012258E+03  0.48902690879E+03  0.47000000000E+01 0.  1.
<mgrwt>
<rscale>  0 0.99888596E+03</rscale>
<asrwt>0</asrwt>
<pdfrwt beam="1">  1        1 0.22971277E-01 0.99888596E+03</pdfrwt>
<pdfrwt beam="2">  1       -1 0.25701589E+00 0.99888596E+03</pdfrwt>
<totfact> 0.10498365E+01</totfact>
</mgrwt>
</event>
<event>
 9    1  0.4488205E-036  0.9980311E+03  0.7818608E-02  0.8682915E-01
          1   -1    0    0  501    0  0.00000000000E+00  0.00000000000E+00  0.32281537086E+03  0.32281537086E+03  0.00000000000E+00 0. -1.
         -1   -1    0    0    0  501 -0.00000000000E+00 -0.00000000000E+00 -0.77138995468E+03  0.77138995468E+03  0.00000000000E+00 0. -1.
         36    2    1    2    0    0  0.00000000000E+00 -0.24868995752E-13 -0.44857458382E+03  0.10942053255E+04  0.99803113037E+03 0.  0.
         25    2    3    3    0    0 -0.12677423159E+03  0.29336668592E+02 -0.13017558596E+03  0.22331911211E+03  0.12646500201E+03 0.  0.
         35    2    3    3    0    0  0.12677423159E+03 -0.29336668592E+02 -0.31839899786E+03  0.87088621343E+03  0.80008282633E+03 0.  0.
         22    1    5    5    0    0  0.66770257338E+02 -0.16492078913E+03 -0.55990668361E+03  0.58749691769E+03  0.00000000000E+00 0.  1.
         22    1    5    5    0    0  0.60003974249E+02  0.13558412053E+03  0.24150768574E+03  0.28338929574E+03  0.00000000000E+00 0.  1.
          5    1    4    4  502    0  0.23109091795E+02 -0.82890184016E+01 -0.30210342510E+02  0.39210875331E+02  0.47000000000E+01 0. -1.
         -5    1    4    4    0  502 -0.14988332338E+03  0.37625686993E+02 -0.99965243451E+02  0.18410823677E+03  0.47000000000E+01 0. -1.
<mgrwt>
<rscale>  0 0.99803113E+03</rscale>
<asrwt>0</asrwt>
<pdfrwt beam="1">  1        1 0.49663904E-01 0.99803113E+03</pdfrwt>
<pdfrwt beam="2">  1       -1 0.11867538E+00 0.99803113E+03</pdfrwt>
<totfact> 0.60932013E+01</totfact>
</mgrwt>
</event>
<event>
 9    1  0.4488205E-036  0.9999328E+03  0.7818608E-02  0.8681102E-01
          3   -1    0    0  501    0  0.00000000000E+00  0.00000000000E+00  0.13581328830E+04  0.13581328830E+04  0.00000000000E+00 0.  1.
         -3   -1    0    0    0  501 -0.00000000000E+00 -0.00000000000E+00 -0.18405149152E+03  0.18405149152E+03  0.00000000000E+00 0.  1.
         36    2    1    2    0    0 -0.14210854715E-13  0.35527136788E-14  0.11740813914E+04  0.15421843745E+04  0.99993276334E+03 0.  0.
         25    2    3    3    0    0 -0.75210321999E+02 -0.30586747398E+02  0.40084900603E+03  0.42786793535E+03  0.12569368645E+03 0.  0.
         35    2    3    3    0    0  0.75210321999E+02  0.30586747398E+02  0.77323238542E+03  0.11143164391E+04  0.79826102438E+03 0.  0.
         22    1    5    5    0    0  0.12160184739E+03  0.30573080817E+03  0.42049610771E+02  0.33170243611E+03  0.00000000000E+00 0. -1.
         22    1    5    5    0    0 -0.46391525386E+02 -0.27514406078E+03  0.73118277465E+03  0.78261400304E+03  0.00000000000E+00 0. -1.
          5    1    4    4  502    0 -0.33866959947E+02 -0.50053653144E+02  0.64949991984E+02  0.88842166947E+02  0.47000000000E+01 0. -1.
         -5    1    4    4    0  502 -0.41343362052E+02  0.19466905746E+02  0.33589901404E+03  0.33902576840E+03  0.47000000000E+01 0. -1.
<mgrwt>
<rscale>  0 0.99993276E+03</rscale>
<asrwt>0</asrwt>
<pdfrwt beam="1">  1        3 0.20894351E+00 0.99993276E+03</pdfrwt>
<pdfrwt beam="2">  1       -3 0.28315615E-01 0.99993276E+03</pdfrwt>
<totfact> 0.62353971E+00</totfact>
</mgrwt>
</event>
<event>
 9    1  0.4488205E-036  0.9970116E+03  0.7818608E-02  0.8683889E-01
         -2   -1    0    0    0  501 -0.00000000000E+00  0.00000000000E+00  0.42630878050E+03  0.42630878050E+03  0.00000000000E+00 0. -1.
          2   -1    0    0  501    0  0.00000000000E+00 -0.00000000000E+00 -0.58292968755E+03  0.58292968755E+03  0.00000000000E+00 0. -1.
         36    2    1    2    0    0 -0.21316282073E-13  0.28421709430E-13 -0.15662090705E+03  0.10092384681E+04  0.99701162324E+03 0.  0.
         25    2    3    3    0    0  0.47498022215E+02 -0.11631705555E+03  0.30471801846E+02  0.17973712697E+03  0.12486466505E+03 0.  0.
         35    2    3    3    0    0 -0.47498022215E+02  0.11631705555E+03 -0.18709270890E+03  0.82950134108E+03  0.79830011500E+03 0.  0.
         22    1    5    5    0    0  0.34517817432E+03 -0.44652781293E+02 -0.20643975493E+03  0.40467173773E+03  0.00000000000E+00 0.  1.
         22    1    5    5    0    0 -0.39267619653E+03  0.16096983684E+03  0.19347046038E+02  0.42482960335E+03  0.00000000000E+00 0.  1.
          5    1    4    4  502    0  0.87313672875E+00 -0.12836184456E+03  0.26775132349E+02  0.13121174954E+03  0.47000000000E+01 0. -1.
         -5    1    4    4    0  502  0.46624885486E+02  0.12044789010E+02  0.36966694965E+01  0.48525377425E+02  0.47000000000E+01 0. -1.
<mgrwt>
<rscale>  0 0.99701162E+03</rscale>
<asrwt>0</asrwt>
<pdfrwt beam="1">  1        2 0.89681491E-01 0.99701162E+03</pdfrwt>
<pdfrwt beam="2">  1       -2 0.65585966E-01 0.99701162E+03</pdfrwt>
<totfact> 0.13304219E+02</totfact>
</mgrwt>
</event>
<event>
 9    1  0.4488205E-036  0.9987549E+03  0.7818608E-02  0.8682225E-01
         -2   -1    0    0    0  501 -0.00000000000E+00  0.00000000000E+00  0.14085040158E+03  0.14085040158E+03  0.00000000000E+00 0.  1.
          2   -1    0    0  501    0  0.00000000000E+00 -0.00000000000E+00 -0.17705156678E+04  0.17705156678E+04  0.00000000000E+00 0.  1.
         36    2    1    2    0    0 -0.71054273576E-14  0.14210854715E-13 -0.16296652662E+04  0.19113660694E+04  0.99875491051E+03 0.  0.
         25    2    3    3    0    0 -0.61592533741E+02  0.11333201332E+03 -0.20880843208E+03  0.27552269600E+03  0.12519588351E+03 0.  0.
         35    2    3    3    0    0  0.61592533741E+02 -0.11333201332E+03 -0.14208568341E+04  0.16358433734E+04  0.80031969467E+03 0.  0.
         22    1    5    5    0    0  0.13491249471E+03 -0.22945969018E+03 -0.14670064913E+04  0.14909598171E+04  0.00000000000E+00 0.  1.
         22    1    5    5    0    0 -0.73319960969E+02  0.11612767687E+03  0.46149657211E+02  0.14488355625E+03  0.00000000000E+00 0.  1.
          5    1    4    4  502    0 -0.92792393652E+02  0.10919925592E+03 -0.14338786656E+03  0.20277346003E+03  0.47000000000E+01 0.  1.
         -5    1    4    4    0  502  0.31199859911E+02  0.41327573940E+01 -0.65420565519E+02  0.72749235975E+02  0.47000000000E+01 0.  1.
<mgrwt>
<rscale>  0 0.99875491E+03</rscale>
<asrwt>0</asrwt>
<pdfrwt beam="1">  1        2 0.27238701E+00 0.99875491E+03</pdfrwt>
<pdfrwt beam="2">  1       -2 0.21669294E-01 0.99875491E+03</pdfrwt>
<totfact> 0.19670160E+02</totfact>
</mgrwt>
</event>
<event>
 9    1  0.4488205E-036  0.1000324E+04  0.7818608E-02  0.8680730E-01
          2   -1    0    0  501    0  0.00000000000E+00  0.00000000000E+00  0.61108846789E+03  0.61108846789E+03  0.00000000000E+00 0.  1.
         -2   -1    0    0    0  501 -0.00000000000E+00 -0.00000000000E+00 -0.40937117862E+03  0.40937117862E+03  0.00000000000E+00 0.  1.
         36    2    1    2    0    0  0.00000000000E+00  0.00000000000E+00  0.20171728927E+03  0.10204596465E+04  0.10003239602E+04 0.  0.
         25    2    3    3    0    0 -0.43641673348E+01  0.11399425565E+03 -0.47152207372E+02  0.17480467978E+03  0.12377240861E+03 0.  0.
         35    2    3    3    0    0  0.43641673348E+01 -0.11399425565E+03  0.24886949665E+03  0.84565496673E+03  0.80011409194E+03 0.  0.
         22    1    5    5    0    0  0.12156156650E+02 -0.54734591879E+02  0.54281060730E+03  0.54569863761E+03  0.00000000000E+00 0.  1.
         22    1    5    5    0    0 -0.77919893154E+01 -0.59259663771E+02 -0.29394111065E+03  0.29995632912E+03  0.00000000000E+00 0.  1.
          5    1    4    4  502    0 -0.11379010448E+01  0.14030485835E+03 -0.46454682513E+02  0.14787452661E+03  0.47000000000E+01 0.  1.
         -5    1    4    4    0  502 -0.32262662900E+01 -0.26310602695E+02 -0.69752485930E+00  0.26930153162E+02  0.47000000000E+01 0.  1.
<mgrwt>
<rscale>  0 0.10003240E+04</rscale>
<asrwt>0</asrwt>
<pdfrwt beam="1">  1        2 0.94013610E-01 0.10003240E+04</pdfrwt>
<pdfrwt beam="2">  1       -2 0.62980181E-01 0.10003240E+04</pdfrwt>
<totfact> 0.13710428E+02</totfact>
</mgrwt>
</event>
<event>
 9    1  0.4488205E-036  0.1000126E+04  0.7818608E-02  0.8680918E-01
          1   -1    0    0  501    0  0.00000000000E+00  0.00000000000E+00  0.11770741997E+04  0.11770741997E+04  0.00000000000E+00 0. -1.
         -1   -1    0    0    0  501 -0.00000000000E+00 -0.00000000000E+00 -0.21244444122E+03  0.21244444122E+03  0.00000000000E+00 0. -1.
         36    2    1    2    0    0  0.71054273576E-14  0.28421709430E-13  0.96462975850E+03  0.13895186409E+04  0.10001257334E+04 0.  0.
         25    2    3    3    0    0 -0.26969960410E+02 -0.11925822114E+03  0.85165573752E+02  0.19456041816E+03  0.12510267499E+03 0.  0.
         35    2    3    3    0    0  0.26969960410E+02  0.11925822114E+03  0.87946418475E+03  0.11949582228E+04  0.79969869317E+03 0.  0.
         22    1    5    5    0    0 -0.16311891684E+03  0.33972676116E+03  0.14304803222E+03  0.40309402476E+03  0.00000000000E+00 0. -1.
         22    1    5    5    0    0  0.19008887725E+03 -0.22046854002E+03  0.73641615252E+03  0.79186419801E+03  0.00000000000E+00 0. -1.
          5    1    4    4  502    0 -0.25788807612E+02 -0.14570213587E+03  0.71572475983E+02  0.16443504588E+03  0.47000000000E+01 0. -1.
         -5    1    4    4    0  502 -0.11811527974E+01  0.26443914733E+02  0.13593097769E+02  0.30125372285E+02  0.47000000000E+01 0. -1.
<mgrwt>
<rscale>  0 0.10001257E+04</rscale>
<asrwt>0</asrwt>
<pdfrwt beam="1">  1        1 0.18108833E+00 0.10001257E+04</pdfrwt>
<pdfrwt beam="2">  1       -1 0.32683761E-01 0.10001257E+04</pdfrwt>
<totfact> 0.10757193E+02</totfact>
</mgrwt>
</event>
<event>
 9    1  0.4488205E-036  0.1000994E+04  0.7818608E-02  0.8680092E-01
          1   -1    0    0  501    0  0.00000000000E+00  0.00000000000E+00  0.20154409748E+04  0.20154409748E+04  0.00000000000E+00 0.  1.
         -1   -1    0    0    0  501 -0.00000000000E+00 -0.00000000000E+00 -0.12428902461E+03  0.12428902461E+03  0.00000000000E+00 0.  1.
         36    2    1    2    0    0 -0.42632564146E-13  0.28421709430E-13  0.18911519502E+04  0.21397299994E+04  0.10009938919E+04 0.  0.
         25    2    3    3    0    0 -0.63327005733E+02  0.10062337748E+03  0.18739943450E+03  0.25379791882E+03  0.12312376616E+03 0.  0.
         35    2    3    3    0    0  0.63327005733E+02 -0.10062337748E+03  0.17037525157E+04  0.18859320806E+04  0.79989487068E+03 0.  0.
         22    1    5    5    0    0 -0.28426815264E+03 -0.18379026183E+03  0.35456427994E+03  0.49020717207E+03  0.00000000000E+00 0.  1.
         22    1    5    5    0    0  0.34759515837E+03  0.83166884340E+02  0.13491882358E+04  0.13957249085E+04  0.00000000000E+00 0.  1.
          5    1    4    4  502    0 -0.59377651443E+02  0.62426972053E+02  0.29437163494E+02  0.91167257967E+02  0.47000000000E+01 0. -1.
         -5    1    4    4    0  502 -0.39493542900E+01  0.38196405432E+02  0.15796227101E+03  0.16263066085E+03  0.47000000000E+01 0. -1.
<mgrwt>
<rscale>  0 0.10009939E+04</rscale>
<asrwt>0</asrwt>
<pdfrwt beam="1">  1        1 0.31006782E+00 0.10009939E+04</pdfrwt>
<pdfrwt beam="2">  1       -1 0.19121390E-01 0.10009939E+04</pdfrwt>
<totfact> 0.66902167E+01</totfact>
</mgrwt>
</event>
<event>
 9    1  0.4488205E-036  0.1000457E+04  0.7818608E-02  0.8680603E-01
          2   -1    0    0  501    0  0.00000000000E+00  0.00000000000E+00  0.41061663831E+04  0.41061663831E+04  0.00000000000E+00 0.  1.
         -2   -1    0    0    0  501 -0.00000000000E+00 -0.00000000000E+00 -0.60939710205E+02  0.60939710205E+02  0.00000000000E+00 0.  1.
         36    2    1    2    0    0  0.00000000000E+00  0.00000000000E+00  0.40452266729E+04  0.41671060933E+04  0.10004570744E+04 0.  0.
         25    2    3    3    0    0  0.70192180169E+02  0.96381716673E+02  0.10670282569E+04  0.10809464061E+04  0.12521762763E+03 0.  0.
         35    2    3    3    0    0 -0.70192180169E+02 -0.96381716673E+02  0.29781984160E+04  0.30861596873E+04  0.80031208458E+03 0.  0.
         22    1    5    5    0    0  0.15707557597E+03 -0.39960783036E+03  0.15119500954E+04  0.15717354248E+04  0.00000000000E+00 0. -1.
         22    1    5    5    0    0 -0.22726775614E+03  0.30322611369E+03  0.14662483207E+04  0.15144242625E+04  0.00000000000E+00 0. -1.
          5    1    4    4  502    0 -0.23643750236E+02  0.42957748785E+02  0.57909090389E+03  0.58118220901E+03  0.47000000000E+01 0. -1.
         -5    1    4    4    0  502  0.93835930405E+02  0.53423967888E+02  0.48793735303E+03  0.49976419706E+03  0.47000000000E+01 0. -1.
<mgrwt>
<rscale>  0 0.10004571E+04</rscale>
<asrwt>0</asrwt>
<pdfrwt beam="1">  1        2 0.63171769E+00 0.10004571E+04</pdfrwt>
<pdfrwt beam="2">  1       -2 0.93753432E-02 0.10004571E+04</pdfrwt>
<totfact> 0.20318026E+01</totfact>
</mgrwt>
</event>
<event>
 9    1  0.4488205E-036  0.9939455E+03  0.7818608E-02  0.8686825E-01
          2   -1    0    0  501    0  0.00000000000E+00  0.00000000000E+00  0.13059094483E+04  0.13059094483E+04  0.00000000000E+00 0.  1.
         -2   -1    0    0    0  501 -0.00000000000E+00 -0.00000000000E+00 -0.18912635542E+03  0.18912635542E+03  0.00000000000E+00 0.  1.
         36    2    1    2    0    0  0.14210854715E-13  0.00000000000E+00  0.11167830929E+04  0.14950358037E+04  0.99394546019E+03 0.  0.
         25    2    3    3    0    0  0.33650867737E+02 -0.56784228440E+02  0.37565262604E+03  0.40160111668E+03  0.12574470950E+03 0.  0.
         35    2    3    3    0    0 -0.33650867737E+02  0.56784228440E+02  0.74113046685E+03  0.10934346870E+04  0.80122919095E+03 0.  0.
         22    1    5    5    0    0  0.19799877180E+03  0.16217650784E+03 -0.51395787908E+02  0.26104838698E+03  0.00000000000E+00 0. -1.
         22    1    5    5    0    0 -0.23164963954E+03 -0.10539227940E+03  0.79252625475E+03  0.83238630006E+03  0.00000000000E+00 0. -1.
          5    1    4    4  502    0  0.75491657134E+02 -0.28448126673E+02  0.29855841650E+03  0.30930163961E+03  0.47000000000E+01 0.  1.
         -5    1    4    4    0  502 -0.41840789396E+02 -0.28336101767E+02  0.77094209543E+02  0.92299477061E+02  0.47000000000E+01 0.  1.
<mgrwt>
<rscale>  0 0.99394546E+03</rscale>
<asrwt>0</asrwt>
<pdfrwt beam="1">  1        2 0.20090914E+00 0.99394546E+03</pdfrwt>
<pdfrwt beam="2">  1       -2 0.29096363E-01 0.99394546E+03</pdfrwt>
<totfact> 0.21375167E+02</totfact>
</mgrwt>
</event>
<event>
 9    1  0.4488205E-036  0.9999661E+03  0.7818608E-02  0.8681070E-01
          1   -1    0    0  501    0  0.00000000000E+00  0.00000000000E+00  0.39931995065E+03  0.39931995065E+03  0.00000000000E+00 0. -1.
         -1   -1    0    0    0  501 -0.00000000000E+00 -0.00000000000E+00 -0.62602197119E+03  0.62602197119E+03  0.00000000000E+00 0. -1.
         36    2    1    2    0    0 -0.14210854715E-13  0.14210854715E-13 -0.22670202054E+03  0.10253419218E+04  0.99996612471E+03 0.  0.
         25    2    3    3    0    0 -0.30367926726E+02  0.12172354189E+03  0.24959962654E+02  0.17813010368E+03  0.12396976437E+03 0.  0.
         35    2    3    3    0    0  0.30367926726E+02 -0.12172354189E+03 -0.25166198319E+03  0.84721181816E+03  0.79918413362E+03 0.  0.
         22    1    5    5    0    0  0.33577083812E+03  0.16434176575E+03 -0.33574987076E+02  0.37533658423E+03  0.00000000000E+00 0.  1.
         22    1    5    5    0    0 -0.30540291140E+03 -0.28606530764E+03 -0.21808699612E+03  0.47187523393E+03  0.00000000000E+00 0.  1.
          5    1    4    4  502    0 -0.38426100125E+02  0.13805735957E+03  0.45355533519E+02  0.15038488662E+03  0.47000000000E+01 0.  1.
         -5    1    4    4    0  502  0.80581733992E+01 -0.16333817684E+02 -0.20395570865E+02  0.27745217058E+02  0.47000000000E+01 0.  1.
<mgrwt>
<rscale>  0 0.99996612E+03</rscale>
<asrwt>0</asrwt>
<pdfrwt beam="1">  1        1 0.61433839E-01 0.99996612E+03</pdfrwt>
<pdfrwt beam="2">  1       -1 0.96311072E-01 0.99996612E+03</pdfrwt>
<totfact> 0.74638759E+01</totfact>
</mgrwt>
</event>
<event>
 9    1  0.4488205E-036  0.1000519E+04  0.7818608E-02  0.8680544E-01
          2   -1    0    0  501    0  0.00000000000E+00  0.00000000000E+00  0.53273508920E+03  0.53273508920E+03  0.00000000000E+00 0.  1.
         -2   -1    0    0    0  501 -0.00000000000E+00 -0.00000000000E+00 -0.46976333527E+03  0.46976333527E+03  0.00000000000E+00 0.  1.
         36    2    1    2    0    0  0.28421709430E-13  0.42632564146E-13  0.62971753927E+02  0.10024984245E+04  0.10005186901E+04 0.  0.
         25    2    3    3    0    0 -0.14253878006E+03  0.21010200531E+01  0.17550749326E+02  0.18966455227E+03  0.12386644211E+03 0.  0.
         35    2    3    3    0    0  0.14253878006E+03 -0.21010200531E+01  0.45421004601E+02  0.81283387219E+03  0.79894562895E+03 0.  0.
         22    1    5    5    0    0 -0.12865161594E+03 -0.33346260605E+03  0.12236991296E+03  0.37778690225E+03  0.00000000000E+00 0.  1.
         22    1    5    5    0    0  0.27119039600E+03  0.33136158600E+03 -0.76948908358E+02  0.43504696994E+03  0.00000000000E+00 0.  1.
          5    1    4    4  502    0 -0.75475485684E+02 -0.45154174243E+02 -0.31996336149E+02  0.93708611759E+02  0.47000000000E+01 0. -1.
         -5    1    4    4    0  502 -0.67063294377E+02  0.47255194296E+02  0.49547085475E+02  0.95955940513E+02  0.47000000000E+01 0. -1.
<mgrwt>
<rscale>  0 0.10005187E+04</rscale>
<asrwt>0</asrwt>
<pdfrwt beam="1">  1        2 0.81959245E-01 0.10005187E+04</pdfrwt>
<pdfrwt beam="2">  1       -2 0.72271282E-01 0.10005187E+04</pdfrwt>
<totfact> 0.11979383E+02</totfact>
</mgrwt>
</event>
<event>
 9    1  0.4488205E-036  0.1000095E+04  0.7818608E-02  0.8680948E-01
         -1   -1    0    0    0  501 -0.00000000000E+00  0.00000000000E+00  0.62808131581E+03  0.62808131581E+03  0.00000000000E+00 0. -1.
          1   -1    0    0  501    0  0.00000000000E+00 -0.00000000000E+00 -0.39811292164E+03  0.39811292164E+03  0.00000000000E+00 0. -1.
         36    2    1    2    0    0 -0.71054273576E-14  0.35527136788E-13  0.22996839417E+03  0.10261942374E+04  0.10000945709E+04 0.  0.
         25    2    3    3    0    0  0.43540872892E+02 -0.46874547394E+02 -0.85636888453E+02  0.16440782339E+03  0.12491286932E+03 0.  0.
         35    2    3    3    0    0 -0.43540872892E+02  0.46874547394E+02  0.31560528262E+03  0.86178641405E+03  0.79935980523E+03 0.  0.
         22    1    5    5    0    0 -0.25480859221E+03  0.31553441682E+03  0.32523581852E+03  0.51987279647E+03  0.00000000000E+00 0. -1.
         22    1    5    5    0    0  0.21126771932E+03 -0.26865986943E+03 -0.96305358952E+01  0.34191361758E+03  0.00000000000E+00 0. -1.
          5    1    4    4  502    0  0.80501353102E+01 -0.77494954378E+02 -0.14967413859E+02  0.79475695091E+02  0.47000000000E+01 0. -1.
         -5    1    4    4    0  502  0.35490737582E+02  0.30620406985E+02 -0.70669474594E+02  0.84932128299E+02  0.47000000000E+01 0. -1.
<mgrwt>
<rscale>  0 0.10000946E+04</rscale>
<asrwt>0</asrwt>
<pdfrwt beam="1">  1        1 0.61248141E-01 0.10000946E+04</pdfrwt>
<pdfrwt beam="2">  1       -1 0.96627895E-01 0.10000946E+04</pdfrwt>
<totfact> 0.74400408E+01</totfact>
</mgrwt>
</event>
<event>
 9    1  0.4488205E-036  0.9996320E+03  0.7818608E-02  0.8681389E-01
          2   -1    0    0  501    0  0.00000000000E+00  0.00000000000E+00  0.91067355650E+03  0.91067355650E+03  0.00000000000E+00 0.  1.
         -2   -1    0    0    0  501 -0.00000000000E+00 -0.00000000000E+00 -0.27432005240E+03  0.27432005240E+03  0.00000000000E+00 0.  1.
         36    2    1    2    0    0  0.62172489379E-14 -0.28421709430E-13  0.63635350410E+03  0.11849936089E+04  0.99963196776E+03 0.  0.
         25    2    3    3    0    0  0.48370382723E+01  0.10886158968E+03  0.21649997627E+03  0.27378120658E+03  0.12731718935E+03 0.  0.
         35    2    3    3    0    0 -0.48370382723E+01 -0.10886158968E+03  0.41985352783E+03  0.91121240233E+03  0.80134687538E+03 0.  0.
         22    1    5    5    0    0  0.14865318795E+03  0.14319778460E+03  0.55090870756E+03  0.58830585572E+03  0.00000000000E+00 0. -1.
         22    1    5    5    0    0 -0.15349022622E+03 -0.25205937428E+03 -0.13105517973E+03  0.32290654661E+03  0.00000000000E+00 0. -1.
          5    1    4    4  502    0  0.98413793493E+01  0.27597630413E+02 -0.11353784426E+02  0.31772320858E+02  0.47000000000E+01 0. -1.
         -5    1    4    4    0  502 -0.50043410770E+01  0.81263959265E+02  0.22785376069E+03  0.24200888572E+03  0.47000000000E+01 0. -1.
<mgrwt>
<rscale>  0 0.99963197E+03</rscale>
<asrwt>0</asrwt>
<pdfrwt beam="1">  1        2 0.14010362E+00 0.99963197E+03</pdfrwt>
<pdfrwt beam="2">  1       -2 0.42203085E-01 0.99963197E+03</pdfrwt>
<totfact> 0.18563611E+02</totfact>
</mgrwt>
</event>
<event>
 9    1  0.4488205E-036  0.1000233E+04  0.7818608E-02  0.8680816E-01
          2   -1    0    0  501    0  0.00000000000E+00  0.00000000000E+00  0.66493252338E+03  0.66493252338E+03  0.00000000000E+00 0. -1.
         -2   -1    0    0    0  501 -0.00000000000E+00 -0.00000000000E+00 -0.37615349645E+03  0.37615349645E+03  0.00000000000E+00 0. -1.
         36    2    1    2    0    0  0.00000000000E+00  0.00000000000E+00  0.28877902693E+03  0.10410860198E+04  0.10002333599E+04 0.  0.
         25    2    3    3    0    0  0.11181238123E+03 -0.81865268740E+02  0.28971895230E+02  0.18822025274E+03  0.12403048821E+03 0.  0.
         35    2    3    3    0    0 -0.11181238123E+03  0.81865268740E+02  0.25980713170E+03  0.85286576709E+03  0.80042260098E+03 0.  0.
         22    1    5    5    0    0 -0.43282390709E+03 -0.67972222388E+01  0.28597181672E+03  0.51880884412E+03  0.00000000000E+00 0. -1.
         22    1    5    5    0    0  0.32101152586E+03  0.88662490979E+02 -0.26164685020E+02  0.33405692297E+03  0.00000000000E+00 0. -1.
          5    1    4    4  502    0  0.10795906251E+03 -0.10482813118E+03 -0.26128150706E+00  0.15055316182E+03  0.47000000000E+01 0. -1.
         -5    1    4    4    0  502  0.38533187206E+01  0.22962862441E+02  0.29233176737E+02  0.37667090925E+02  0.47000000000E+01 0. -1.
<mgrwt>
<rscale>  0 0.10002334E+04</rscale>
<asrwt>0</asrwt>
<pdfrwt beam="1">  1        2 0.10229731E+00 0.10002334E+04</pdfrwt>
<pdfrwt beam="2">  1       -2 0.57869768E-01 0.10002334E+04</pdfrwt>
<totfact> 0.14783429E+02</totfact>
</mgrwt>
</event>
<event>
 9    1  0.4488205E-036  0.1000457E+04  0.7818608E-02  0.8680603E-01
          1   -1    0    0  501    0  0.00000000000E+00  0.00000000000E+00  0.50707978427E+03  0.50707978427E+03  0.00000000000E+00 0.  1.
         -1   -1    0    0    0  501 -0.00000000000E+00 -0.00000000000E+00 -0.49347001637E+03  0.49347001637E+03  0.00000000000E+00 0.  1.
         36    2    1    2    0    0 -0.28421709430E-13 -0.71054273576E-14  0.13609767899E+02  0.10005498006E+04  0.10004572344E+04 0.  0.
         25    2    3    3    0    0  0.10812531368E+02  0.23655585648E+02 -0.13478962804E+03  0.18588016131E+03  0.12532634590E+03 0.  0.
         35    2    3    3    0    0 -0.10812531368E+02 -0.23655585648E+02  0.14839939593E+03  0.81466963934E+03  0.80061710135E+03 0.  0.
         22    1    5    5    0    0  0.33374067247E+03 -0.22362348010E+03  0.94117590524E+02  0.41261170386E+03  0.00000000000E+00 0. -1.
         22    1    5    5    0    0 -0.34455320384E+03  0.19996789445E+03  0.54281805409E+02  0.40205793548E+03  0.00000000000E+00 0. -1.
          5    1    4    4  502    0  0.59195132506E+02  0.44320724848E+02 -0.66631642049E+02  0.99650670272E+02  0.47000000000E+01 0. -1.
         -5    1    4    4    0  502 -0.48382601138E+02 -0.20665139199E+02 -0.68157985986E+02  0.86229491038E+02  0.47000000000E+01 0. -1.
<mgrwt>
<rscale>  0 0.10004572E+04</rscale>
<asrwt>0</asrwt>
<pdfrwt beam="1">  1        1 0.78012274E-01 0.10004572E+04</pdfrwt>
<pdfrwt beam="2">  1       -1 0.75918464E-01 0.10004572E+04</pdfrwt>
<totfact> 0.89331766E+01</totfact>
</mgrwt>
</event>
<event>
 9    1  0.4488205E-036  0.9997282E+03  0.7818608E-02  0.8681297E-01
         -2   -1    0    0    0  501 -0.00000000000E+00  0.00000000000E+00  0.11715550531E+03  0.11715550531E+03  0.00000000000E+00 0. -1.
          2   -1    0    0  501    0  0.00000000000E+00 -0.00000000000E+00 -0.21327562054E+04  0.21327562054E+04  0.00000000000E+00 0. -1.
         36    2    1    2    0    0 -0.71054273576E-14  0.00000000000E+00 -0.20156007000E+04  0.22499117107E+04  0.99972822496E+03 0.  0.
         25    2    3    3    0    0  0.40388759500E+02  0.90791777261E+02 -0.59971478573E+03  0.62076582460E+03  0.12576957524E+03 0.  0.
         35    2    3    3    0    0 -0.40388759500E+02 -0.90791777261E+02 -0.14158859143E+04  0.16291458861E+04  0.79969306426E+03 0.  0.
         22    1    5    5    0    0  0.31183428820E+02  0.32083322059E+03 -0.95080067971E+03  0.10039563209E+04  0.00000000000E+00 0.  1.
         22    1    5    5    0    0 -0.71572188320E+02 -0.41162499785E+03 -0.46508523461E+03  0.62518956521E+03  0.00000000000E+00 0.  1.
          5    1    4    4  502    0  0.49752631569E+02  0.60370730306E+02 -0.14424027081E+03  0.16415631315E+03  0.47000000000E+01 0. -1.
         -5    1    4    4    0  502 -0.93638720690E+01  0.30421046955E+02 -0.45547451493E+03  0.45660951145E+03  0.47000000000E+01 0. -1.
<mgrwt>
<rscale>  0 0.99972822E+03</rscale>
<asrwt>0</asrwt>
<pdfrwt beam="1">  1        2 0.32811633E+00 0.99972822E+03</pdfrwt>
<pdfrwt beam="2">  1       -2 0.18023925E-01 0.99972822E+03</pdfrwt>
<totfact> 0.16826992E+02</totfact>
</mgrwt>
</event>
<event>
 9    1  0.4488205E-036  0.1000604E+04  0.7818608E-02  0.8680463E-01
         -1   -1    0    0    0  501 -0.00000000000E+00  0.00000000000E+00  0.15493493968E+03  0.15493493968E+03  0.00000000000E+00 0. -1.
          1   -1    0    0  501    0  0.00000000000E+00 -0.00000000000E+00 -0.16155319175E+04  0.16155319175E+04  0.00000000000E+00 0. -1.
         36    2    1    2    0    0  0.00000000000E+00  0.00000000000E+00 -0.14605969779E+04  0.17704668572E+04  0.10006044977E+04 0.  0.
         25    2    3    3    0    0 -0.11071651414E+03 -0.20714699739E+02 -0.42340723627E+03  0.45539275371E+03  0.12418384401E+03 0.  0.
         35    2    3    3    0    0  0.11071651414E+03  0.20714699739E+02 -0.10371897416E+04  0.13150741035E+04  0.80060607816E+03 0.  0.
         22    1    5    5    0    0  0.19019286876E+03 -0.32997695465E+03 -0.79503159844E+03  0.88155167769E+03  0.00000000000E+00 0. -1.
         22    1    5    5    0    0 -0.79476354614E+02  0.35069165438E+03 -0.24215814316E+03  0.43352242583E+03  0.00000000000E+00 0. -1.
          5    1    4    4  502    0 -0.99046343401E+02 -0.56312074683E+02 -0.38501357111E+03  0.40154547418E+03  0.47000000000E+01 0. -1.
         -5    1    4    4    0  502 -0.11670170742E+02  0.35597374943E+02 -0.38393665166E+02  0.53847279531E+02  0.47000000000E+01 0. -1.
<mgrwt>
<rscale>  0 0.10006045E+04</rscale>
<asrwt>0</asrwt>
<pdfrwt beam="1">  1        1 0.24854337E+00 0.10006045E+04</pdfrwt>
<pdfrwt beam="2">  1       -1 0.23836145E-01 0.10006045E+04</pdfrwt>
<totfact> 0.88635374E+01</totfact>
</mgrwt>
</event>
<event>
 9    1  0.4488205E-036  0.9995725E+03  0.7818608E-02  0.8681445E-01
         -1   -1    0    0    0  501 -0.00000000000E+00  0.00000000000E+00  0.33706247530E+03  0.33706247530E+03  0.00000000000E+00 0.  1.
          1   -1    0    0  501    0  0.00000000000E+00 -0.00000000000E+00 -0.74106823581E+03  0.74106823581E+03  0.00000000000E+00 0.  1.
         36    2    1    2    0    0  0.71054273576E-14  0.00000000000E+00 -0.40400576051E+03  0.10781307111E+04  0.99957249648E+03 0.  0.
         25    2    3    3    0    0  0.57210308468E+02 -0.77446423937E+02 -0.18541263293E+03  0.24345668162E+03  0.12498937315E+03 0.  0.
         35    2    3    3    0    0 -0.57210308468E+02  0.77446423937E+02 -0.21859312758E+03  0.83467402949E+03  0.79976672356E+03 0.  0.
         22    1    5    5    0    0 -0.26852474343E+03  0.26113165936E+03  0.12185251560E+03  0.39388236431E+03  0.00000000000E+00 0. -1.
         22    1    5    5    0    0  0.21131443496E+03 -0.18368523543E+03 -0.34044564318E+03  0.44079166519E+03  0.00000000000E+00 0. -1.
          5    1    4    4  502    0  0.17471073980E+01 -0.97580899381E+02 -0.10279955875E+03  0.14182709046E+03  0.47000000000E+01 0. -1.
         -5    1    4    4    0  502  0.55463201070E+02  0.20134475444E+02 -0.82613074180E+02  0.10162959116E+03  0.47000000000E+01 0. -1.
<mgrwt>
<rscale>  0 0.99957250E+03</rscale>
<asrwt>0</asrwt>
<pdfrwt beam="1">  1        1 0.11401050E+00 0.99957250E+03</pdfrwt>
<pdfrwt beam="2">  1       -1 0.51855765E-01 0.99957250E+03</pdfrwt>
<totfact> 0.10699928E+02</totfact>
</mgrwt>
</event>
<event>
 9    1  0.4488205E-036  0.9996400E+03  0.7818608E-02  0.8681381E-01
          1   -1    0    0  501    0  0.00000000000E+00  0.00000000000E+00  0.13594321077E+04  0.13594321077E+04  0.00000000000E+00 0. -1.
         -1   -1    0    0    0  501 -0.00000000000E+00 -0.00000000000E+00 -0.18376793901E+03  0.18376793901E+03  0.00000000000E+00 0. -1.
         36    2    1    2    0    0  0.00000000000E+00  0.00000000000E+00  0.11756641687E+04  0.15432000468E+04  0.99964000853E+03 0.  0.
         25    2    3    3    0    0 -0.47926635863E+02 -0.12853739381E+03  0.27055613934E+03  0.32815088173E+03  0.12515411545E+03 0.  0.
         35    2    3    3    0    0  0.47926635863E+02  0.12853739381E+03  0.90510802940E+03  0.12150491650E+04  0.79893998806E+03 0.  0.
         22    1    5    5    0    0  0.12815790210E+03  0.45243267917E+03  0.60506728791E+03  0.76630685756E+03  0.00000000000E+00 0. -1.
         22    1    5    5    0    0 -0.80231266234E+02 -0.32389528536E+03  0.30004074149E+03  0.44874230747E+03  0.00000000000E+00 0. -1.
          5    1    4    4  502    0 -0.46710089022E+02 -0.98484743921E+02  0.27639946760E+03  0.29715287798E+03  0.47000000000E+01 0. -1.
         -5    1    4    4    0  502 -0.12165468410E+01 -0.30052649887E+02 -0.58433282588E+01  0.30998003752E+02  0.47000000000E+01 0. -1.
<mgrwt>
<rscale>  0 0.99964001E+03</rscale>
<asrwt>0</asrwt>
<pdfrwt beam="1">  1        1 0.20914339E+00 0.99964001E+03</pdfrwt>
<pdfrwt beam="2">  1       -1 0.28271991E-01 0.99964001E+03</pdfrwt>
<totfact> 0.10126331E+02</totfact>
</mgrwt>
</event>
<event>
 9    1  0.4488205E-036  0.1000640E+04  0.7818608E-02  0.8680429E-01
         -2   -1    0    0    0  501 -0.00000000000E+00  0.00000000000E+00  0.18628716310E+03  0.18628716310E+03  0.00000000000E+00 0.  1.
          2   -1    0    0  501    0  0.00000000000E+00 -0.00000000000E+00 -0.13437317662E+04  0.13437317662E+04  0.00000000000E+00 0.  1.
         36    2    1    2    0    0  0.71054273576E-14 -0.28421709430E-13 -0.11574446031E+04  0.15300189293E+04  0.10006397527E+04 0.  0.
         25    2    3    3    0    0  0.30729082436E+02  0.10364653317E+03 -0.35936115458E+03  0.39549073514E+03  0.12484230777E+03 0.  0.
         35    2    3    3    0    0 -0.30729082436E+02 -0.10364653317E+03 -0.79808344847E+03  0.11345281941E+04  0.79908081706E+03 0.  0.
         22    1    5    5    0    0  0.13537797670E+03  0.25015937139E+03 -0.66223094359E+03  0.72073346690E+03  0.00000000000E+00 0. -1.
         22    1    5    5    0    0 -0.16610705914E+03 -0.35380590456E+03 -0.13585250489E+03  0.41379472723E+03  0.00000000000E+00 0. -1.
          5    1    4    4  502    0 -0.16278160151E+01  0.60774014325E+02 -0.43112353074E+02  0.74678615345E+02  0.47000000000E+01 0.  1.
         -5    1    4    4    0  502  0.32356898451E+02  0.42872518845E+02 -0.31624880151E+03  0.32081211979E+03  0.47000000000E+01 0.  1.
<mgrwt>
<rscale>  0 0.10006398E+04</rscale>
<asrwt>0</asrwt>
<pdfrwt beam="1">  1        2 0.20672796E+00 0.10006398E+04</pdfrwt>
<pdfrwt beam="2">  1       -2 0.28659563E-01 0.10006398E+04</pdfrwt>
<totfact> 0.20890953E+02</totfact>
</mgrwt>
</event>
<event>
 9    1  0.4488205E-036  0.9990531E+03  0.7818608E-02  0.8681940E-01
         -2   -1    0    0    0  501 -0.00000000000E+00  0.00000000000E+00  0.79429089847E+03  0.79429089847E+03  0.00000000000E+00 0.  1.
          2   -1    0    0  501    0  0.00000000000E+00 -0.00000000000E+00 -0.31415035633E+03  0.31415035633E+03  0.00000000000E+00 0.  1.
         36    2    1    2    0    0 -0.14210854715E-13  0.14210854715E-13  0.48014054214E+03  0.11084412548E+04  0.99905308925E+03 0.  0.
         25    2    3    3    0    0  0.93275698274E+02  0.41562823020E+02 -0.20106015028E+02  0.15978942622E+03  0.12124596795E+03 0.  0.
         35    2    3    3    0    0 -0.93275698274E+02 -0.41562823020E+02  0.50024655717E+03  0.94865182859E+03  0.79954102445E+03 0.  0.
         22    1    5    5    0    0 -0.66599127671E+02  0.37834768813E+03  0.21387843651E+03  0.43968898385E+03  0.00000000000E+00 0. -1.
         22    1    5    5    0    0 -0.26676570604E+02 -0.41991051115E+03  0.28636812066E+03  0.50896284474E+03  0.00000000000E+00 0. -1.
          5    1    4    4  502    0  0.61909928018E+02  0.84066908050E+02 -0.49197873114E+01  0.10462494217E+03  0.47000000000E+01 0.  1.
         -5    1    4    4    0  502  0.31365770257E+02 -0.42504085031E+02 -0.15186227717E+02  0.55164484049E+02  0.47000000000E+01 0.  1.
<mgrwt>
<rscale>  0 0.99905309E+03</rscale>
<asrwt>0</asrwt>
<pdfrwt beam="1">  1        2 0.48330824E-01 0.99905309E+03</pdfrwt>
<pdfrwt beam="2">  1       -2 0.12219860E+00 0.99905309E+03</pdfrwt>
<totfact> 0.61581339E+01</totfact>
</mgrwt>
</event>
<event>
 9    1  0.4488205E-036  0.1000346E+04  0.7818608E-02  0.8680709E-01
          2   -1    0    0  501    0  0.00000000000E+00  0.00000000000E+00  0.14149791685E+04  0.14149791685E+04  0.00000000000E+00 0. -1.
         -2   -1    0    0    0  501 -0.00000000000E+00 -0.00000000000E+00 -0.17680321012E+03  0.17680321012E+03  0.00000000000E+00 0. -1.
         36    2    1    2    0    0 -0.71054273576E-14  0.00000000000E+00  0.12381759584E+04  0.15917823786E+04  0.10003456588E+04 0.  0.
         25    2    3    3    0    0  0.73271774340E+01 -0.42853768332E+02  0.21376758854E+02  0.13523823870E+03  0.12626275143E+03 0.  0.
         35    2    3    3    0    0 -0.73271774340E+01  0.42853768332E+02  0.12167991995E+04  0.14565441399E+04  0.79939377442E+03 0.  0.
         22    1    5    5    0    0  0.18334273426E+03  0.12656145589E+03  0.73957858216E+00  0.22278444133E+03  0.00000000000E+00 0. -1.
         22    1    5    5    0    0 -0.19066991169E+03 -0.83707687554E+02  0.12160596209E+04  0.12337596986E+04  0.00000000000E+00 0. -1.
          5    1    4    4  502    0 -0.51758452626E+02 -0.43602661703E+02 -0.93328987360E+01  0.68478628233E+02  0.47000000000E+01 0.  1.
         -5    1    4    4    0  502  0.59085630060E+02  0.74889337117E+00  0.30709657590E+02  0.66759610471E+02  0.47000000000E+01 0.  1.
<mgrwt>
<rscale>  0 0.10003457E+04</rscale>
<asrwt>0</asrwt>
<pdfrwt beam="1">  1        2 0.21768910E+00 0.10003457E+04</pdfrwt>
<pdfrwt beam="2">  1       -2 0.27200495E-01 0.10003457E+04</pdfrwt>
<totfact> 0.20896009E+02</totfact>
</mgrwt>
</event>
<event>
 9    1  0.4488205E-036  0.1001848E+04  0.7818608E-02  0.8679280E-01
         -1   -1    0    0    0  501 -0.00000000000E+00  0.00000000000E+00  0.67285281798E+03  0.67285281798E+03  0.00000000000E+00 0. -1.
          1   -1    0    0  501    0  0.00000000000E+00 -0.00000000000E+00 -0.37292679058E+03  0.37292679058E+03  0.00000000000E+00 0. -1.
         36    2    1    2    0    0  0.00000000000E+00  0.00000000000E+00  0.29992602741E+03  0.10457796086E+04  0.10018479764E+04 0.  0.
         25    2    3    3    0    0 -0.53322709219E+02  0.10972598759E+03  0.13432387208E+03  0.22026761740E+03  0.12486719742E+03 0.  0.
         35    2    3    3    0    0  0.53322709219E+02 -0.10972598759E+03  0.16560215532E+03  0.82551199117E+03  0.79947662257E+03 0.  0.
         22    1    5    5    0    0 -0.18174877304E+03 -0.36953702991E+03 -0.48880289382E+02  0.41470413027E+03  0.00000000000E+00 0. -1.
         22    1    5    5    0    0  0.23507148225E+03  0.25981104233E+03  0.21448244470E+03  0.41080786089E+03  0.00000000000E+00 0. -1.
          5    1    4    4  502    0 -0.68104119373E+02  0.12582657912E+03  0.13650704829E+03  0.19780486173E+03  0.47000000000E+01 0.  1.
         -5    1    4    4    0  502  0.14781410154E+02 -0.16100591537E+02 -0.21831762069E+01  0.22462755671E+02  0.47000000000E+01 0.  1.
<mgrwt>
<rscale>  0 0.10018480E+04</rscale>
<asrwt>0</asrwt>
<pdfrwt beam="1">  1        1 0.57373353E-01 0.10018480E+04</pdfrwt>
<pdfrwt beam="2">  1       -1 0.10351582E+00 0.10018480E+04</pdfrwt>
<totfact> 0.69537405E+01</totfact>
</mgrwt>
</event>
<event>
 9    1  0.4488205E-036  0.1000958E+04  0.7818608E-02  0.8680126E-01
          2   -1    0    0  501    0  0.00000000000E+00  0.00000000000E+00  0.63255440627E+03  0.63255440627E+03  0.00000000000E+00 0.  1.
         -2   -1    0    0    0  501 -0.00000000000E+00 -0.00000000000E+00 -0.39598077923E+03  0.39598077923E+03  0.00000000000E+00 0.  1.
         36    2    1    2    0    0  0.14210854715E-13  0.00000000000E+00  0.23657362704E+03  0.10285351855E+04  0.10009583142E+04 0.  0.
         25    2    3    3    0    0 -0.99143161741E+01 -0.13741796843E+03  0.10310580286E+02  0.18569903833E+03  0.12407994625E+03 0.  0.
         35    2    3    3    0    0  0.99143161741E+01  0.13741796843E+03  0.22626304675E+03  0.84283614717E+03  0.80012237373E+03 0.  0.
         22    1    5    5    0    0 -0.17356877705E+03  0.34200578320E+03 -0.11899027934E+03  0.40156290004E+03  0.00000000000E+00 0.  1.
         22    1    5    5    0    0  0.18348309323E+03 -0.20458781477E+03  0.34525332609E+03  0.44127324713E+03  0.00000000000E+00 0.  1.
          5    1    4    4  502    0  0.31878014313E+01  0.90663347863E+01 -0.31059077190E+02  0.32849912942E+02  0.47000000000E+01 0. -1.
         -5    1    4    4    0  502 -0.13102117605E+02 -0.14648430321E+03  0.41369657476E+02  0.15284912539E+03  0.47000000000E+01 0. -1.
<mgrwt>
<rscale>  0 0.10009583E+04</rscale>
<asrwt>0</asrwt>
<pdfrwt beam="1">  1        2 0.97316062E-01 0.10009583E+04</pdfrwt>
<pdfrwt beam="2">  1       -2 0.60920120E-01 0.10009583E+04</pdfrwt>
<totfact> 0.14108810E+02</totfact>
</mgrwt>
</event>
<event>
 9    1  0.4488205E-036  0.9979407E+03  0.7818608E-02  0.8683001E-01
         -1   -1    0    0    0  501 -0.00000000000E+00  0.00000000000E+00  0.31428201666E+03  0.31428201666E+03  0.00000000000E+00 0. -1.
          1   -1    0    0  501    0  0.00000000000E+00 -0.00000000000E+00 -0.79219107046E+03  0.79219107046E+03  0.00000000000E+00 0. -1.
         36    2    1    2    0    0  0.28421709430E-13  0.14210854715E-13 -0.47790905380E+03  0.11064730871E+04  0.99794069403E+03 0.  0.
         25    2    3    3    0    0 -0.98772097626E+02  0.94808000394E+02 -0.87869092572E+02  0.20507029037E+03  0.12485336341E+03 0.  0.
         35    2    3    3    0    0  0.98772097626E+02 -0.94808000394E+02 -0.39003996122E+03  0.90140279675E+03  0.80103142661E+03 0.  0.
         22    1    5    5    0    0 -0.33544091457E+03  0.43797836769E+02 -0.72694968404E+02  0.34601071675E+03  0.00000000000E+00 0.  1.
         22    1    5    5    0    0  0.43421301220E+03 -0.13860583716E+03 -0.31734499282E+03  0.55539208000E+03  0.00000000000E+00 0.  1.
          5    1    4    4  502    0 -0.21909496449E+02  0.89939633731E+00 -0.80319269084E+02  0.83391306109E+02  0.47000000000E+01 0.  1.
         -5    1    4    4    0  502 -0.76862601177E+02  0.93908604056E+02 -0.75498234883E+01  0.12167898426E+03  0.47000000000E+01 0.  1.
<mgrwt>
<rscale>  0 0.99794069E+03</rscale>
<asrwt>0</asrwt>
<pdfrwt beam="1">  1        1 0.12187555E+00 0.99794069E+03</pdfrwt>
<pdfrwt beam="2">  1       -1 0.48351080E-01 0.99794069E+03</pdfrwt>
<totfact> 0.10950322E+02</totfact>
</mgrwt>
</event>
<event>
 9    1  0.4488205E-036  0.9996952E+03  0.7818608E-02  0.8681328E-01
          1   -1    0    0  501    0  0.00000000000E+00  0.00000000000E+00  0.37603801081E+03  0.37603801081E+03  0.00000000000E+00 0.  1.
         -1   -1    0    0    0  501 -0.00000000000E+00 -0.00000000000E+00 -0.66442124319E+03  0.66442124319E+03  0.00000000000E+00 0.  1.
         36    2    1    2    0    0 -0.17763568394E-14  0.28421709430E-13 -0.28838323238E+03  0.10404592540E+04  0.99969523882E+03 0.  0.
         25    2    3    3    0    0  0.12879237923E+02  0.61447737165E+02  0.75121395779E+02  0.15916702916E+03  0.12549589594E+03 0.  0.
         35    2    3    3    0    0 -0.12879237923E+02 -0.61447737165E+02 -0.36350462816E+03  0.88129222484E+03  0.80037408235E+03 0.  0.
         22    1    5    5    0    0 -0.15962085508E+02 -0.33997586966E+03  0.87306135093E+02  0.35136980712E+03  0.00000000000E+00 0.  1.
         22    1    5    5    0    0  0.30828475854E+01  0.27852813250E+03 -0.45081076326E+03  0.52992241773E+03  0.00000000000E+00 0.  1.
          5    1    4    4  502    0 -0.38726952956E+02  0.27145609106E+02 -0.14874683154E+02  0.49799670460E+02  0.47000000000E+01 0.  1.
         -5    1    4    4    0  502  0.51606190879E+02  0.34302128059E+02  0.89996078933E+02  0.10936735870E+03  0.47000000000E+01 0.  1.
<mgrwt>
<rscale>  0 0.99969524E+03</rscale>
<asrwt>0</asrwt>
<pdfrwt beam="1">  1        1 0.57852002E-01 0.99969524E+03</pdfrwt>
<pdfrwt beam="2">  1       -1 0.10221865E+00 0.99969524E+03</pdfrwt>
<totfact> 0.70791130E+01</totfact>
</mgrwt>
</event>
<event>
 9    1  0.4488205E-036  0.9993125E+03  0.7818608E-02  0.8681693E-01
         -1   -1    0    0    0  501 -0.00000000000E+00  0.00000000000E+00  0.32509458919E+03  0.32509458919E+03  0.00000000000E+00 0.  1.
          1   -1    0    0  501    0  0.00000000000E+00 -0.00000000000E+00 -0.76794996058E+03  0.76794996058E+03  0.00000000000E+00 0.  1.
         36    2    1    2    0    0 -0.14210854715E-13  0.56843418861E-13 -0.44285537139E+03  0.10930445498E+04  0.99931251758E+03 0.  0.
         25    2    3    3    0    0 -0.84739137664E+02 -0.86445488714E+02 -0.49586023259E+01  0.17294790092E+03  0.12342141113E+03 0.  0.
         35    2    3    3    0    0  0.84739137664E+02  0.86445488714E+02 -0.43789676906E+03  0.92009664884E+03  0.80010669219E+03 0.  0.
         22    1    5    5    0    0  0.65844556649E+02  0.43999707200E+03 -0.31577843751E+03  0.54557213144E+03  0.00000000000E+00 0. -1.
         22    1    5    5    0    0  0.18894581015E+02 -0.35355158328E+03 -0.12211833155E+03  0.37452451740E+03  0.00000000000E+00 0. -1.
          5    1    4    4  502    0 -0.89436847877E+02 -0.97922129717E+02  0.29573148117E+02  0.13595717832E+03  0.47000000000E+01 0.  1.
         -5    1    4    4    0  502  0.46977102129E+01  0.11476641003E+02 -0.34531750443E+02  0.36990722602E+02  0.47000000000E+01 0.  1.
<mgrwt>
<rscale>  0 0.99931252E+03</rscale>
<asrwt>0</asrwt>
<pdfrwt beam="1">  1        1 0.11814615E+00 0.99931252E+03</pdfrwt>
<pdfrwt beam="2">  1       -1 0.50014552E-01 0.99931252E+03</pdfrwt>
<totfact> 0.10814433E+02</totfact>
</mgrwt>
</event>
<event>
 9    1  0.4488205E-036  0.1001241E+04  0.7818608E-02  0.8679858E-01
         -2   -1    0    0    0  501 -0.00000000000E+00  0.00000000000E+00  0.33789707805E+03  0.33789707805E+03  0.00000000000E+00 0. -1.
          2   -1    0    0  501    0  0.00000000000E+00 -0.00000000000E+00 -0.74170703663E+03  0.74170703663E+03  0.00000000000E+00 0. -1.
         36    2    1    2    0    0 -0.42632564146E-13  0.28421709430E-13 -0.40380995858E+03  0.10796041147E+04  0.10012405114E+04 0.  0.
         25    2    3    3    0    0  0.12239799461E+02 -0.12832257675E+03 -0.16002953512E+02  0.18136760855E+03  0.12657653225E+03 0.  0.
         35    2    3    3    0    0 -0.12239799461E+02  0.12832257675E+03 -0.38780700507E+03  0.89823650612E+03  0.79988627401E+03 0.  0.
         22    1    5    5    0    0  0.32752621873E+03  0.17286496994E+03 -0.41288868496E+03  0.55464654326E+03  0.00000000000E+00 0.  1.
         22    1    5    5    0    0 -0.33976601819E+03 -0.44542393186E+02  0.25081679892E+02  0.34358996285E+03  0.00000000000E+00 0.  1.
          5    1    4    4  502    0  0.30129897485E+02 -0.23281516242E+02  0.44491563788E+02  0.58748863558E+02  0.47000000000E+01 0. -1.
         -5    1    4    4    0  502 -0.17890098024E+02 -0.10504106051E+03 -0.60494517300E+02  0.12261874500E+03  0.47000000000E+01 0. -1.
<mgrwt>
<rscale>  0 0.10012405E+04</rscale>
<asrwt>0</asrwt>
<pdfrwt beam="1">  1        2 0.11410877E+00 0.10012405E+04</pdfrwt>
<pdfrwt beam="2">  1       -2 0.51984166E-01 0.10012405E+04</pdfrwt>
<totfact> 0.16090518E+02</totfact>
</mgrwt>
</event>
<event>
 9    1  0.4488205E-036  0.1000060E+04  0.7818608E-02  0.8680981E-01
          1   -1    0    0  501    0  0.00000000000E+00  0.00000000000E+00  0.92881825967E+03  0.92881825967E+03  0.00000000000E+00 0. -1.
         -1   -1    0    0    0  501 -0.00000000000E+00 -0.00000000000E+00 -0.26919159722E+03  0.26919159722E+03  0.00000000000E+00 0. -1.
         36    2    1    2    0    0  0.00000000000E+00  0.14210854715E-13  0.65962666245E+03  0.11980098569E+04  0.10000601399E+04 0.  0.
         25    2    3    3    0    0 -0.23092614054E+02 -0.11879894289E+03  0.20887672322E+03  0.27078394405E+03  0.12267029469E+03 0.  0.
         35    2    3    3    0    0  0.23092614054E+02  0.11879894289E+03  0.45074993923E+03  0.92722591283E+03  0.80120280083E+03 0.  0.
         22    1    5    5    0    0  0.12921816501E+03 -0.21141295526E+03 -0.10742745859E+03  0.27006190158E+03  0.00000000000E+00 0. -1.
         22    1    5    5    0    0 -0.10612555096E+03  0.33021189816E+03  0.55817739782E+03  0.65716401126E+03  0.00000000000E+00 0. -1.
          5    1    4    4  502    0  0.42428505024E+02 -0.91126405287E+02  0.13139326214E+03  0.16550069219E+03  0.47000000000E+01 0. -1.
         -5    1    4    4    0  502 -0.65521119078E+02 -0.27672537607E+02  0.77483461078E+02  0.10528325187E+03  0.47000000000E+01 0. -1.
<mgrwt>
<rscale>  0 0.10000601E+04</rscale>
<asrwt>0</asrwt>
<pdfrwt beam="1">  1        1 0.14289512E+00 0.10000601E+04</pdfrwt>
<pdfrwt beam="2">  1       -1 0.41414092E-01 0.10000601E+04</pdfrwt>
<totfact> 0.11089243E+02</totfact>
</mgrwt>
</event>
<event>
 9    1  0.4488205E-036  0.1000058E+04  0.7818608E-02  0.8680983E-01
          2   -1    0    0  501    0  0.00000000000E+00  0.00000000000E+00  0.25899869386E+03  0.25899869386E+03  0.00000000000E+00 0. -1.
         -2   -1    0    0    0  501 -0.00000000000E+00 -0.00000000000E+00 -0.96536771545E+03  0.96536771545E+03  0.00000000000E+00 0. -1.
         36    2    1    2    0    0  0.21316282073E-13  0.71054273576E-14 -0.70636902159E+03  0.12243664093E+04  0.10000579531E+04 0.  0.
         25    2    3    3    0    0  0.61418114376E+02  0.50825603928E+02  0.93574498250E+01  0.14991438342E+03  0.12661490315E+03 0.  0.
         35    2    3    3    0    0 -0.61418114376E+02 -0.50825603928E+02 -0.71572647141E+03  0.10744520259E+04  0.79738782740E+03 0.  0.
         22    1    5    5    0    0 -0.22885630551E+03  0.75883677282E+02 -0.80938437042E+03  0.84453336236E+03  0.00000000000E+00 0. -1.
         22    1    5    5    0    0  0.16743819114E+03 -0.12670928121E+03  0.93657899010E+02  0.22991866354E+03  0.00000000000E+00 0. -1.
          5    1    4    4  502    0  0.82009552506E+02  0.20648725385E+02  0.47317962107E+02  0.97020699339E+02  0.47000000000E+01 0. -1.
         -5    1    4    4    0  502 -0.20591438129E+02  0.30176878543E+02 -0.37960512282E+02  0.52893684080E+02  0.47000000000E+01 0. -1.
<mgrwt>
<rscale>  0 0.10000580E+04</rscale>
<asrwt>0</asrwt>
<pdfrwt beam="1">  1        2 0.39845954E-01 0.10000580E+04</pdfrwt>
<pdfrwt beam="2">  1       -2 0.14851811E+00 0.10000580E+04</pdfrwt>
<totfact> 0.45123710E+01</totfact>
</mgrwt>
</event>
<event>
 9    1  0.4488205E-036  0.9999376E+03  0.7818608E-02  0.8681097E-01
          2   -1    0    0  501    0  0.00000000000E+00  0.00000000000E+00  0.14969306038E+04  0.14969306038E+04  0.00000000000E+00 0.  1.
         -2   -1    0    0    0  501 -0.00000000000E+00 -0.00000000000E+00 -0.16698757908E+03  0.16698757908E+03  0.00000000000E+00 0.  1.
         36    2    1    2    0    0  0.17763568394E-13 -0.14210854715E-13  0.13299430247E+04  0.16639181828E+04  0.99993763319E+03 0.  0.
         25    2    3    3    0    0 -0.79445637785E+01 -0.60276426624E+02  0.46333975912E+03  0.48364485959E+03  0.12462846437E+03 0.  0.
         35    2    3    3    0    0  0.79445637785E+01  0.60276426624E+02  0.86660326558E+03  0.11802733233E+04  0.79896654121E+03 0.  0.
         22    1    5    5    0    0  0.16661402081E+03  0.14412186355E+03  0.95510128864E+03  0.98017846082E+03  0.00000000000E+00 0. -1.
         22    1    5    5    0    0 -0.15866945703E+03 -0.83845436928E+02 -0.88498023066E+02  0.20009486244E+03  0.00000000000E+00 0. -1.
          5    1    4    4  502    0 -0.28069543583E+02 -0.83297300394E+02  0.20025684740E+03  0.21874925019E+03  0.47000000000E+01 0. -1.
         -5    1    4    4    0  502  0.20124979804E+02  0.23020873770E+02  0.26308291172E+03  0.26489560940E+03  0.47000000000E+01 0. -1.
<mgrwt>
<rscale>  0 0.99993763E+03</rscale>
<asrwt>0</asrwt>
<pdfrwt beam="1">  1        2 0.23029701E+00 0.99993763E+03</pdfrwt>
<pdfrwt beam="2">  1       -2 0.25690398E-01 0.99993763E+03</pdfrwt>
<totfact> 0.20789921E+02</totfact>
</mgrwt>
</event>
<event>
 9    1  0.4488205E-036  0.9994855E+03  0.7818608E-02  0.8681528E-01
         -2   -1    0    0    0  501 -0.00000000000E+00  0.00000000000E+00  0.89035744070E+03  0.89035744070E+03  0.00000000000E+00 0. -1.
          2   -1    0    0  501    0  0.00000000000E+00 -0.00000000000E+00 -0.28049727558E+03  0.28049727558E+03  0.00000000000E+00 0. -1.
         36    2    1    2    0    0  0.00000000000E+00  0.00000000000E+00  0.60986016512E+03  0.11708547163E+04  0.99948554049E+03 0.  0.
         25    2    3    3    0    0  0.16535367128E+01  0.10521804795E+03  0.22346079236E+03  0.27674401870E+03  0.12481568156E+03 0.  0.
         35    2    3    3    0    0 -0.16535367128E+01 -0.10521804795E+03  0.38639937276E+03  0.89411069759E+03  0.79940971502E+03 0.  0.
         22    1    5    5    0    0 -0.82987882986E+02 -0.35454500675E+03  0.49140603146E+03  0.61161183628E+03  0.00000000000E+00 0. -1.
         22    1    5    5    0    0  0.81334346273E+02  0.24932695880E+03 -0.10500665870E+03  0.28249886130E+03  0.00000000000E+00 0. -1.
          5    1    4    4  502    0  0.28809155322E+02  0.12502430765E+03  0.16396415647E+03  0.20824836024E+03  0.47000000000E+01 0. -1.
         -5    1    4    4    0  502 -0.27155618609E+02 -0.19806259704E+02  0.59496635891E+02  0.68495658460E+02  0.47000000000E+01 0. -1.
<mgrwt>
<rscale>  0 0.99948554E+03</rscale>
<asrwt>0</asrwt>
<pdfrwt beam="1">  1        2 0.43153428E-01 0.99948554E+03</pdfrwt>
<pdfrwt beam="2">  1       -2 0.13697807E+00 0.99948554E+03</pdfrwt>
<totfact> 0.51554340E+01</totfact>
</mgrwt>
</event>
<event>
 9    1  0.4488205E-036  0.1002035E+04  0.7818608E-02  0.8679102E-01
          2   -1    0    0  501    0  0.00000000000E+00  0.00000000000E+00  0.26747916674E+04  0.26747916674E+04  0.00000000000E+00 0.  1.
         -2   -1    0    0    0  501 -0.00000000000E+00 -0.00000000000E+00 -0.93846005199E+02  0.93846005199E+02  0.00000000000E+00 0.  1.
         36    2    1    2    0    0 -0.56843418861E-13  0.00000000000E+00  0.25809456622E+04  0.27686376726E+04  0.10020349549E+04 0.  0.
         25    2    3    3    0    0 -0.39709350287E+02 -0.11595560493E+03  0.66030519691E+03  0.68310063881E+03  0.12490394253E+03 0.  0.
         35    2    3    3    0    0  0.39709350287E+02  0.11595560493E+03  0.19206404653E+04  0.20855370338E+04  0.80348141708E+03 0.  0.
         22    1    5    5    0    0  0.36594542557E+03 -0.47664480233E+01  0.48062197599E+03  0.60409954256E+03  0.00000000000E+00 0. -1.
         22    1    5    5    0    0 -0.32623607528E+03  0.12072205296E+03  0.14400184893E+04  0.14814374912E+04  0.00000000000E+00 0. -1.
          5    1    4    4  502    0 -0.66744937867E+02 -0.93755631669E+02  0.30463382828E+03  0.32568215262E+03  0.47000000000E+01 0. -1.
         -5    1    4    4    0  502  0.27035587580E+02 -0.22199973265E+02  0.35567136863E+03  0.35741848619E+03  0.47000000000E+01 0. -1.
<mgrwt>
<rscale>  0 0.10020350E+04</rscale>
<asrwt>0</asrwt>
<pdfrwt beam="1">  1        2 0.41150635E+00 0.10020350E+04</pdfrwt>
<pdfrwt beam="2">  1       -2 0.14437849E-01 0.10020350E+04</pdfrwt>
<totfact> 0.11576248E+02</totfact>
</mgrwt>
</event>
<event>
 9    1  0.4488205E-036  0.1001219E+04  0.7818608E-02  0.8679878E-01
         -3   -1    0    0    0  501 -0.00000000000E+00  0.00000000000E+00  0.49756193644E+03  0.49756193644E+03  0.00000000000E+00 0. -1.
          3   -1    0    0  501    0  0.00000000000E+00 -0.00000000000E+00 -0.50367596960E+03  0.50367596960E+03  0.00000000000E+00 0. -1.
         36    2    1    2    0    0  0.35527136788E-13  0.00000000000E+00 -0.61140331587E+01  0.10012379060E+04  0.10012192383E+04 0.  0.
         25    2    3    3    0    0  0.49628562537E+02  0.13196537003E+03 -0.48536242163E+01  0.18866488713E+03  0.12527181991E+03 0.  0.
         35    2    3    3    0    0 -0.49628562537E+02 -0.13196537003E+03 -0.12604089424E+01  0.81257301890E+03  0.80024713015E+03 0.  0.
         22    1    5    5    0    0 -0.29976146587E+03 -0.15103552054E+03 -0.28033071233E+03  0.43732593470E+03  0.00000000000E+00 0. -1.
         22    1    5    5    0    0  0.25013290334E+03  0.19070150514E+02  0.27907030338E+03  0.37524708420E+03  0.00000000000E+00 0. -1.
          5    1    4    4  502    0  0.20755227449E+02  0.15098960667E+03  0.44633160999E+01  0.15254721230E+03  0.47000000000E+01 0. -1.
         -5    1    4    4    0  502  0.28873335088E+02 -0.19024236641E+02 -0.93169403162E+01  0.36117674838E+02  0.47000000000E+01 0. -1.
<mgrwt>
<rscale>  0 0.10012192E+04</rscale>
<asrwt>0</asrwt>
<pdfrwt beam="1">  1        3 0.77488610E-01 0.10012192E+04</pdfrwt>
<pdfrwt beam="2">  1       -3 0.76547990E-01 0.10012192E+04</pdfrwt>
<totfact> 0.99799647E+00</totfact>
</mgrwt>
</event>
<event>
 9    1  0.4488205E-036  0.9999738E+03  0.7818608E-02  0.8681063E-01
         -2   -1    0    0    0  501 -0.00000000000E+00  0.00000000000E+00  0.23415711001E+03  0.23415711001E+03  0.00000000000E+00 0.  1.
          2   -1    0    0  501    0  0.00000000000E+00 -0.00000000000E+00 -0.10676032159E+04  0.10676032159E+04  0.00000000000E+00 0.  1.
         36    2    1    2    0    0  0.14210854715E-13 -0.14210854715E-13 -0.83344610592E+03  0.13017603259E+04  0.99997376702E+03 0.  0.
         25    2    3    3    0    0 -0.92281200843E+02  0.98755851644E+02 -0.10883634448E+03  0.21383367566E+03  0.12494379819E+03 0.  0.
         35    2    3    3    0    0  0.92281200843E+02 -0.98755851644E+02 -0.72460976144E+03  0.10879266503E+04  0.80016032878E+03 0.  0.
         22    1    5    5    0    0  0.29274296830E+03 -0.35642466724E+03 -0.54966457499E+03  0.71754312337E+03  0.00000000000E+00 0. -1.
         22    1    5    5    0    0 -0.20046176745E+03  0.25766881559E+03 -0.17494518646E+03  0.37038352691E+03  0.00000000000E+00 0. -1.
          5    1    4    4  502    0 -0.63114835079E+02  0.42995512121E+01  0.42239377756E+01  0.63575940402E+02  0.47000000000E+01 0. -1.
         -5    1    4    4    0  502 -0.29166365764E+02  0.94456300432E+02 -0.11306028225E+03  0.15025773526E+03  0.47000000000E+01 0. -1.
<mgrwt>
<rscale>  0 0.99997377E+03</rscale>
<asrwt>0</asrwt>
<pdfrwt beam="1">  1        2 0.16424665E+00 0.99997377E+03</pdfrwt>
<pdfrwt beam="2">  1       -2 0.36024171E-01 0.99997377E+03</pdfrwt>
<totfact> 0.19971633E+02</totfact>
</mgrwt>
</event>
<event>
 9    1  0.4488205E-036  0.9997642E+03  0.7818608E-02  0.8681263E-01
          4   -1    0    0  501    0  0.00000000000E+00  0.00000000000E+00  0.45130058161E+03  0.45130058161E+03  0.00000000000E+00 0. -1.
         -4   -1    0    0    0  501 -0.00000000000E+00 -0.00000000000E+00 -0.55369331925E+03  0.55369331925E+03  0.00000000000E+00 0. -1.
         36    2    1    2    0    0  0.00000000000E+00  0.00000000000E+00 -0.10239273765E+03  0.10049939009E+04  0.99976420622E+03 0.  0.
         25    2    3    3    0    0  0.34202981881E+01  0.12039967811E+03 -0.93833030155E+02  0.19707465383E+03  0.12460337357E+03 0.  0.
         35    2    3    3    0    0 -0.34202981881E+01 -0.12039967811E+03 -0.85597074907E+01  0.80791924703E+03  0.79884445307E+03 0.  0.
         22    1    5    5    0    0 -0.59404995364E+02  0.50059456316E+01  0.38577493227E+03  0.39035408457E+03  0.00000000000E+00 0.  1.
         22    1    5    5    0    0  0.55984697176E+02 -0.12540562374E+03 -0.39433463977E+03  0.41756516246E+03  0.00000000000E+00 0.  1.
          5    1    4    4  502    0 -0.40805248976E+02  0.64197425013E+02 -0.99323103991E+02  0.12519403623E+03  0.47000000000E+01 0.  1.
         -5    1    4    4    0  502  0.44225547164E+02  0.56202253099E+02  0.54900738351E+01  0.71880617596E+02  0.47000000000E+01 0.  1.
<mgrwt>
<rscale>  0 0.99976421E+03</rscale>
<asrwt>0</asrwt>
<pdfrwt beam="1">  1        4 0.69430859E-01 0.99976421E+03</pdfrwt>
<pdfrwt beam="2">  1       -4 0.85183587E-01 0.99976421E+03</pdfrwt>
<totfact> 0.52463960E+00</totfact>
</mgrwt>
</event>
<event>
 9    1  0.4488205E-036  0.9997874E+03  0.7818608E-02  0.8681240E-01
          2   -1    0    0  501    0  0.00000000000E+00  0.00000000000E+00  0.20408365685E+04  0.20408365685E+04  0.00000000000E+00 0.  1.
         -2   -1    0    0    0  501 -0.00000000000E+00 -0.00000000000E+00 -0.12244671265E+03  0.12244671265E+03  0.00000000000E+00 0.  1.
         36    2    1    2    0    0  0.00000000000E+00  0.00000000000E+00  0.19183898559E+04  0.21632832812E+04  0.99978743516E+03 0.  0.
         25    2    3    3    0    0  0.91358722655E+02 -0.40562742753E+02  0.14771876824E+03  0.21776645107E+03  0.12493854657E+03 0.  0.
         35    2    3    3    0    0 -0.91358722655E+02  0.40562742753E+02  0.17706710876E+04  0.19455168301E+04  0.79985491393E+03 0.  0.
         22    1    5    5    0    0 -0.42634699276E+03  0.91553709564E+02  0.72207638768E+03  0.84353313487E+03  0.00000000000E+00 0.  1.
         22    1    5    5    0    0  0.33498827011E+03 -0.50990966811E+02  0.10485946999E+04  0.11019836952E+04  0.00000000000E+00 0.  1.
          5    1    4    4  502    0  0.72017658714E+02 -0.84106561195E+02  0.89944482257E+02  0.14273246544E+03  0.47000000000E+01 0.  1.
         -5    1    4    4    0  502  0.19341063940E+02  0.43543818442E+02  0.57774285985E+02  0.75033985633E+02  0.47000000000E+01 0.  1.
<mgrwt>
<rscale>  0 0.99978744E+03</rscale>
<asrwt>0</asrwt>
<pdfrwt beam="1">  1        2 0.31397483E+00 0.99978744E+03</pdfrwt>
<pdfrwt beam="2">  1       -2 0.18837957E-01 0.99978744E+03</pdfrwt>
<totfact> 0.17614770E+02</totfact>
</mgrwt>
</event>
<event>
 9    1  0.4488205E-036  0.1000170E+04  0.7818608E-02  0.8680876E-01
          1   -1    0    0  501    0  0.00000000000E+00  0.00000000000E+00  0.26084785586E+03  0.26084785586E+03  0.00000000000E+00 0. -1.
         -1   -1    0    0    0  501 -0.00000000000E+00 -0.00000000000E+00 -0.95873823264E+03  0.95873823264E+03  0.00000000000E+00 0. -1.
         36    2    1    2    0    0  0.71054273576E-14  0.00000000000E+00 -0.69789037678E+03  0.12195860885E+04  0.10001696103E+04 0.  0.
         25    2    3    3    0    0  0.62269801528E+02 -0.12489000652E+03 -0.15089919562E+03  0.24066657445E+03  0.12519900520E+03 0.  0.
         35    2    3    3    0    0 -0.62269801528E+02  0.12489000652E+03 -0.54699118116E+03  0.97891951406E+03  0.79975560069E+03 0.  0.
         22    1    5    5    0    0 -0.14799115297E+02  0.24260791622E+01 -0.74290306403E+03  0.74305441404E+03  0.00000000000E+00 0. -1.
         22    1    5    5    0    0 -0.47470686231E+02  0.12246392736E+03  0.19591188288E+03  0.23586510002E+03  0.00000000000E+00 0. -1.
          5    1    4    4  502    0 -0.12392926251E+02 -0.93100552633E+02 -0.12278047033E+03  0.15465584831E+03  0.47000000000E+01 0.  1.
         -5    1    4    4    0  502  0.74662727779E+02 -0.31789453889E+02 -0.28118725289E+02  0.86010726133E+02  0.47000000000E+01 0.  1.
<mgrwt>
<rscale>  0 0.10001696E+04</rscale>
<asrwt>0</asrwt>
<pdfrwt beam="1">  1        1 0.40130440E-01 0.10001696E+04</pdfrwt>
<pdfrwt beam="2">  1       -1 0.14749819E+00 0.10001696E+04</pdfrwt>
<totfact> 0.45267372E+01</totfact>
</mgrwt>
</event>
<event>
 9    1  0.4488205E-036  0.1000492E+04  0.7818608E-02  0.8680570E-01
          1   -1    0    0  501    0  0.00000000000E+00  0.00000000000E+00  0.11396456468E+04  0.11396456468E+04  0.00000000000E+00 0. -1.
         -1   -1    0    0    0  501 -0.00000000000E+00 -0.00000000000E+00 -0.21958218763E+03  0.21958218763E+03  0.00000000000E+00 0. -1.
         36    2    1    2    0    0  0.71054273576E-14  0.14210854715E-13  0.92006345918E+03  0.13592278344E+04  0.10004916476E+04 0.  0.
         25    2    3    3    0    0  0.60357625799E+02  0.10920224265E+03  0.26184951032E+03  0.31576733756E+03  0.12480253453E+03 0.  0.
         35    2    3    3    0    0 -0.60357625799E+02 -0.10920224265E+03  0.65821394885E+03  0.10434604969E+04  0.79999752079E+03 0.  0.
         22    1    5    5    0    0  0.39435215007E+02  0.33400026838E+03  0.39358963925E+03  0.51771045922E+03  0.00000000000E+00 0.  1.
         22    1    5    5    0    0 -0.99792840807E+02 -0.44320251103E+03  0.26462430960E+03  0.52575003765E+03  0.00000000000E+00 0.  1.
          5    1    4    4  502    0  0.45711005862E+02 -0.90633558054E+01  0.31710756288E+02  0.56562377423E+02  0.47000000000E+01 0. -1.
         -5    1    4    4    0  502  0.14646619937E+02  0.11826559845E+03  0.23013875403E+03  0.25920496014E+03  0.47000000000E+01 0. -1.
<mgrwt>
<rscale>  0 0.10004916E+04</rscale>
<asrwt>0</asrwt>
<pdfrwt beam="1">  1        1 0.17533010E+00 0.10004916E+04</pdfrwt>
<pdfrwt beam="2">  1       -1 0.33781876E-01 0.10004916E+04</pdfrwt>
<totfact> 0.10841052E+02</totfact>
</mgrwt>
</event>
<event>
 9    1  0.4488205E-036  0.1001355E+04  0.7818608E-02  0.8679749E-01
          2   -1    0    0  501    0  0.00000000000E+00  0.00000000000E+00  0.65744179608E+03  0.65744179608E+03  0.00000000000E+00 0.  1.
         -2   -1    0    0    0  501 -0.00000000000E+00 -0.00000000000E+00 -0.38129293536E+03  0.38129293536E+03  0.00000000000E+00 0.  1.
         36    2    1    2    0    0  0.00000000000E+00  0.71054273576E-14  0.27614886072E+03  0.10387347314E+04  0.10013549066E+04 0.  0.
         25    2    3    3    0    0  0.12453756890E+03 -0.47568025246E+02  0.35526849934E+01  0.18308284016E+03  0.12543676374E+03 0.  0.
         35    2    3    3    0    0 -0.12453756890E+03  0.47568025246E+02  0.27259617572E+03  0.85565189128E+03  0.80003697473E+03 0.  0.
         22    1    5    5    0    0  0.24448644184E+03  0.17899092436E+03  0.34297756213E+03  0.45765159169E+03  0.00000000000E+00 0. -1.
         22    1    5    5    0    0 -0.36902401075E+03 -0.13142289911E+03 -0.70381386407E+02  0.39800029959E+03  0.00000000000E+00 0. -1.
          5    1    4    4  502    0  0.62366497763E+02 -0.36880973363E+02 -0.59421466877E+02  0.93823168595E+02  0.47000000000E+01 0. -1.
         -5    1    4    4    0  502  0.62171071140E+02 -0.10687051883E+02  0.62974151871E+02  0.89259671568E+02  0.47000000000E+01 0. -1.
<mgrwt>
<rscale>  0 0.10013549E+04</rscale>
<asrwt>0</asrwt>
<pdfrwt beam="1">  1        2 0.10114489E+00 0.10013549E+04</pdfrwt>
<pdfrwt beam="2">  1       -2 0.58660452E-01 0.10013549E+04</pdfrwt>
<totfact> 0.14571522E+02</totfact>
</mgrwt>
</event>
<event>
 9    1  0.4488205E-036  0.9992952E+03  0.7818608E-02  0.8681709E-01
         -2   -1    0    0    0  501 -0.00000000000E+00  0.00000000000E+00  0.30649867624E+03  0.30649867624E+03  0.00000000000E+00 0. -1.
          2   -1    0    0  501    0  0.00000000000E+00 -0.00000000000E+00 -0.81451477816E+03  0.81451477816E+03  0.00000000000E+00 0. -1.
         36    2    1    2    0    0  0.14210854715E-13  0.00000000000E+00 -0.50801610192E+03  0.11210134544E+04  0.99929515416E+03 0.  0.
         25    2    3    3    0    0 -0.90182918424E+02  0.95176981737E+02 -0.46368381538E+02  0.18769673765E+03  0.12604928358E+03 0.  0.
         35    2    3    3    0    0  0.90182918424E+02 -0.95176981737E+02 -0.46164772038E+03  0.93331671675E+03  0.80048101751E+03 0.  0.
         22    1    5    5    0    0  0.32315062380E+02 -0.44870348837E+03 -0.21662178602E+03  0.49930359693E+03  0.00000000000E+00 0.  1.
         22    1    5    5    0    0  0.57867856045E+02  0.35352650664E+03 -0.24502593436E+03  0.43401311981E+03  0.00000000000E+00 0.  1.
          5    1    4    4  502    0 -0.35774622984E+02 -0.16957211652E+02 -0.48714957202E+02  0.62949247270E+02  0.47000000000E+01 0.  1.
         -5    1    4    4    0  502 -0.54408295440E+02  0.11213419339E+03  0.23465756646E+01  0.12474749038E+03  0.47000000000E+01 0.  1.
<mgrwt>
<rscale>  0 0.99929515E+03</rscale>
<asrwt>0</asrwt>
<pdfrwt beam="1">  1        2 0.12530997E+00 0.99929515E+03</pdfrwt>
<pdfrwt beam="2">  1       -2 0.47153642E-01 0.99929515E+03</pdfrwt>
<totfact> 0.17348010E+02</totfact>
</mgrwt>
</event>
<event>
 9    1  0.4488205E-036  0.1001743E+04  0.7818608E-02  0.8679380E-01
          2   -1    0    0  501    0  0.00000000000E+00  0.00000000000E+00  0.79128447974E+03  0.79128447974E+03  0.00000000000E+00 0. -1.
         -2   -1    0    0    0  501 -0.00000000000E+00 -0.00000000000E+00 -0.31704423419E+03  0.31704423419E+03  0.00000000000E+00 0. -1.
         36    2    1    2    0    0  0.28421709430E-13  0.14210854715E-13  0.47424024555E+03  0.11083287139E+04  0.10017428451E+04 0.  0.
         25    2    3    3    0    0 -0.11333122749E+03  0.85211687335E+02  0.96230029215E+02  0.21196118390E+03  0.12474905280E+03 0.  0.
         35    2    3    3    0    0  0.11333122749E+03 -0.85211687335E+02  0.37801021634E+03  0.89636753003E+03  0.80029871077E+03 0.  0.
         22    1    5    5    0    0  0.50708265952E+02  0.30371276505E+03  0.39647499207E+03  0.50200118649E+03  0.00000000000E+00 0. -1.
         22    1    5    5    0    0  0.62622961542E+02 -0.38892445239E+03 -0.18464775736E+02  0.39436634355E+03  0.00000000000E+00 0. -1.
          5    1    4    4  502    0 -0.32010190615E+02 -0.27491286114E+02  0.49608985943E+02  0.65295976918E+02  0.47000000000E+01 0.  1.
         -5    1    4    4    0  502 -0.81321036879E+02  0.11270297345E+03  0.46621043272E+02  0.14666520698E+03  0.47000000000E+01 0.  1.
<mgrwt>
<rscale>  0 0.10017428E+04</rscale>
<asrwt>0</asrwt>
<pdfrwt beam="1">  1        2 0.12173607E+00 0.10017428E+04</pdfrwt>
<pdfrwt beam="2">  1       -2 0.48776036E-01 0.10017428E+04</pdfrwt>
<totfact> 0.16840039E+02</totfact>
</mgrwt>
</event>
<event>
 9    1  0.4488205E-036  0.1000067E+04  0.7818608E-02  0.8680974E-01
         -1   -1    0    0    0  501 -0.00000000000E+00  0.00000000000E+00  0.40752627763E+03  0.40752627763E+03  0.00000000000E+00 0.  1.
          1   -1    0    0  501    0  0.00000000000E+00 -0.00000000000E+00 -0.61354010388E+03  0.61354010388E+03  0.00000000000E+00 0.  1.
         36    2    1    2    0    0  0.00000000000E+00  0.28421709430E-13 -0.20601382624E+03  0.10210663815E+04  0.10000674271E+04 0.  0.
         25    2    3    3    0    0  0.64668767485E+01  0.12342789554E+03 -0.10673976844E+03  0.20557029979E+03  0.12485793567E+03 0.  0.
         35    2    3    3    0    0 -0.64668767485E+01 -0.12342789554E+03 -0.99274057802E+02  0.81549608171E+03  0.79993890695E+03 0.  0.
         22    1    5    5    0    0  0.19254954148E+03 -0.39106666302E+03  0.69984685102E+02  0.44148195546E+03  0.00000000000E+00 0. -1.
         22    1    5    5    0    0 -0.19901641823E+03  0.26763876748E+03 -0.16925874290E+03  0.37401412625E+03  0.00000000000E+00 0. -1.
          5    1    4    4  502    0 -0.55127631436E+02  0.77707381333E+02 -0.38757769112E+02  0.10296478781E+03  0.47000000000E+01 0.  1.
         -5    1    4    4    0  502  0.61594508185E+02  0.45720514202E+02 -0.67981999330E+02  0.10260551199E+03  0.47000000000E+01 0.  1.
<mgrwt>
<rscale>  0 0.10000674E+04</rscale>
<asrwt>0</asrwt>
<pdfrwt beam="1">  1        1 0.94390785E-01 0.10000674E+04</pdfrwt>
<pdfrwt beam="2">  1       -1 0.62696351E-01 0.10000674E+04</pdfrwt>
<totfact> 0.99387308E+01</totfact>
</mgrwt>
</event>
<event>
 9    1  0.4488205E-036  0.9990514E+03  0.7818608E-02  0.8681942E-01
         -1   -1    0    0    0  501 -0.00000000000E+00  0.00000000000E+00  0.32241156337E+03  0.32241156337E+03  0.00000000000E+00 0.  1.
          1   -1    0    0  501    0  0.00000000000E+00 -0.00000000000E+00 -0.77393598462E+03  0.77393598462E+03  0.00000000000E+00 0.  1.
         36    2    1    2    0    0  0.35527136788E-14 -0.42632564146E-13 -0.45152442125E+03  0.10963475480E+04  0.99905137155E+03 0.  0.
         25    2    3    3    0    0 -0.22426925220E+01  0.76209157845E+02 -0.21108485164E+03  0.25669983643E+03  0.12459986367E+03 0.  0.
         35    2    3    3    0    0  0.22426925220E+01 -0.76209157845E+02 -0.24043956962E+03  0.83964771155E+03  0.80086467488E+03 0.  0.
         22    1    5    5    0    0 -0.11670265390E+03 -0.41797088245E+03 -0.19206069435E+03  0.47455924637E+03  0.00000000000E+00 0.  1.
         22    1    5    5    0    0  0.11894534642E+03  0.34176172460E+03 -0.48378875263E+02  0.36508846518E+03  0.00000000000E+00 0.  1.
          5    1    4    4  502    0 -0.14236428211E+02  0.10608780778E+03 -0.12479007398E+03  0.16447477440E+03  0.47000000000E+01 0.  1.
         -5    1    4    4    0  502  0.11993735689E+02 -0.29878649936E+02 -0.86294777651E+02  0.92225062037E+02  0.47000000000E+01 0.  1.
<mgrwt>
<rscale>  0 0.99905137E+03</rscale>
<asrwt>0</asrwt>
<pdfrwt beam="1">  1        1 0.11906707E+00 0.99905137E+03</pdfrwt>
<pdfrwt beam="2">  1       -1 0.49601779E-01 0.99905137E+03</pdfrwt>
<totfact> 0.10846017E+02</totfact>
</mgrwt>
</event>
<event>
 9    1  0.4488205E-036  0.1000587E+04  0.7818608E-02  0.8680479E-01
          1   -1    0    0  501    0  0.00000000000E+00  0.00000000000E+00  0.18606853839E+04  0.18606853839E+04  0.00000000000E+00 0. -1.
         -1   -1    0    0    0  501 -0.00000000000E+00 -0.00000000000E+00 -0.13451699292E+03  0.13451699292E+03  0.00000000000E+00 0. -1.
         36    2    1    2    0    0 -0.28421709430E-13  0.28421709430E-13  0.17261683910E+04  0.19952023768E+04  0.10005874327E+04 0.  0.
         25    2    3    3    0    0 -0.73280634622E+02  0.86055218315E+02  0.49447221499E+03  0.52243227141E+03  0.12512855313E+03 0.  0.
         35    2    3    3    0    0  0.73280634622E+02 -0.86055218315E+02  0.12316961760E+04  0.14727701054E+04  0.79950031983E+03 0.  0.
         22    1    5    5    0    0 -0.20951098325E+03  0.23708453929E+03  0.81566992418E+03  0.87488362431E+03  0.00000000000E+00 0.  1.
         22    1    5    5    0    0  0.28279161787E+03 -0.32313975761E+03  0.41602625181E+03  0.59788648110E+03  0.00000000000E+00 0.  1.
          5    1    4    4  502    0 -0.17597506178E+02 -0.89313233043E+01  0.52549745088E+01  0.20955799120E+02  0.47000000000E+01 0. -1.
         -5    1    4    4    0  502 -0.55683128444E+02  0.94986541619E+02  0.48921724048E+03  0.50147647229E+03  0.47000000000E+01 0. -1.
<mgrwt>
<rscale>  0 0.10005874E+04</rscale>
<asrwt>0</asrwt>
<pdfrwt beam="1">  1        1 0.28625927E+00 0.10005874E+04</pdfrwt>
<pdfrwt beam="2">  1       -1 0.20694923E-01 0.10005874E+04</pdfrwt>
<totfact> 0.75373553E+01</totfact>
</mgrwt>
</event>
<event>
 9    1  0.4488205E-036  0.1000865E+04  0.7818608E-02  0.8680215E-01
         -2   -1    0    0    0  501 -0.00000000000E+00  0.00000000000E+00  0.13042586227E+03  0.13042586227E+03  0.00000000000E+00 0.  1.
          2   -1    0    0  501    0  0.00000000000E+00 -0.00000000000E+00 -0.19201133955E+04  0.19201133955E+04  0.00000000000E+00 0.  1.
         36    2    1    2    0    0  0.00000000000E+00  0.00000000000E+00 -0.17896875332E+04  0.20505392577E+04  0.10008645168E+04 0.  0.
         25    2    3    3    0    0  0.11138794439E+02 -0.43493779590E+02 -0.62612669399E+02  0.14665249334E+03  0.12478311516E+03 0.  0.
         35    2    3    3    0    0 -0.11138794439E+02  0.43493779590E+02 -0.17270748638E+04  0.19038867644E+04  0.79998840297E+03 0.  0.
         22    1    5    5    0    0  0.21812011548E+02  0.37967885266E+03 -0.48291699687E+03  0.61468741720E+03  0.00000000000E+00 0.  1.
         22    1    5    5    0    0 -0.32950805987E+02 -0.33618507307E+03 -0.12441578669E+04  0.12891993472E+04  0.00000000000E+00 0.  1.
          5    1    4    4  502    0 -0.70246436072E+01 -0.83396834030E+02 -0.58806783064E+02  0.10239484986E+03  0.47000000000E+01 0. -1.
         -5    1    4    4    0  502  0.18163438046E+02  0.39903054440E+02 -0.38058863350E+01  0.44257643476E+02  0.47000000000E+01 0. -1.
<mgrwt>
<rscale>  0 0.10008645E+04</rscale>
<asrwt>0</asrwt>
<pdfrwt beam="1">  1        2 0.29540204E+00 0.10008645E+04</pdfrwt>
<pdfrwt beam="2">  1       -2 0.20065518E-01 0.10008645E+04</pdfrwt>
<totfact> 0.18504996E+02</totfact>
</mgrwt>
</event>
<event>
 9    1  0.4488205E-036  0.1000498E+04  0.7818608E-02  0.8680563E-01
          2   -1    0    0  501    0  0.00000000000E+00  0.00000000000E+00  0.10595754672E+04  0.10595754672E+04  0.00000000000E+00 0.  1.
         -2   -1    0    0    0  501 -0.00000000000E+00 -0.00000000000E+00 -0.23617880147E+03  0.23617880147E+03  0.00000000000E+00 0.  1.
         36    2    1    2    0    0  0.28421709430E-13  0.00000000000E+00  0.82339666577E+03  0.12957542687E+04  0.10004984036E+04 0.  0.
         25    2    3    3    0    0  0.55975612936E+02 -0.11475243525E+03  0.23886634242E+03  0.29814618351E+03  0.12462995853E+03 0.  0.
         35    2    3    3    0    0 -0.55975612936E+02  0.11475243525E+03  0.58453032335E+03  0.99760808521E+03  0.79827614402E+03 0.  0.
         22    1    5    5    0    0  0.32071076434E+03  0.20120211872E+01  0.36031450571E+02  0.32273473321E+03  0.00000000000E+00 0. -1.
         22    1    5    5    0    0 -0.37668637727E+03  0.11274041406E+03  0.54849887278E+03  0.67487335199E+03  0.00000000000E+00 0. -1.
          5    1    4    4  502    0  0.72711633719E+02 -0.13935421210E+02  0.12241923892E+03  0.14314236864E+03  0.47000000000E+01 0.  1.
         -5    1    4    4    0  502 -0.16736020783E+02 -0.10081701404E+03  0.11644710350E+03  0.15500381488E+03  0.47000000000E+01 0.  1.
<mgrwt>
<rscale>  0 0.10004984E+04</rscale>
<asrwt>0</asrwt>
<pdfrwt beam="1">  1        2 0.16301161E+00 0.10004984E+04</pdfrwt>
<pdfrwt beam="2">  1       -2 0.36335201E-01 0.10004984E+04</pdfrwt>
<totfact> 0.19876085E+02</totfact>
</mgrwt>
</event>
<event>
 9    1  0.4488205E-036  0.9996461E+03  0.7818608E-02  0.8681375E-01
          2   -1    0    0  501    0  0.00000000000E+00  0.00000000000E+00  0.12109698826E+04  0.12109698826E+04  0.00000000000E+00 0. -1.
         -2   -1    0    0    0  501 -0.00000000000E+00 -0.00000000000E+00 -0.20630001283E+03  0.20630001283E+03  0.00000000000E+00 0. -1.
         36    2    1    2    0    0  0.14210854715E-13  0.00000000000E+00  0.10046698697E+04  0.14172698954E+04  0.99964614201E+03 0.  0.
         25    2    3    3    0    0 -0.61499369930E+02 -0.99533503506E+02  0.29506778337E+03  0.34085736107E+03  0.12421615430E+03 0.  0.
         35    2    3    3    0    0  0.61499369930E+02  0.99533503506E+02  0.70960208635E+03  0.10764125343E+04  0.80089932717E+03 0.  0.
         22    1    5    5    0    0  0.10477809563E+03 -0.24929626570E+02 -0.16220339026E+03  0.19470458499E+03  0.00000000000E+00 0.  1.
         22    1    5    5    0    0 -0.43278725696E+02  0.12446313008E+03  0.87180547662E+03  0.88170794933E+03  0.00000000000E+00 0.  1.
          5    1    4    4  502    0 -0.90225261570E+02 -0.99964767806E+02  0.27260513142E+03  0.30408748791E+03  0.47000000000E+01 0. -1.
         -5    1    4    4    0  502  0.28725891640E+02  0.43126430010E+00  0.22462651950E+02  0.36769873158E+02  0.47000000000E+01 0. -1.
<mgrwt>
<rscale>  0 0.99964614E+03</rscale>
<asrwt>0</asrwt>
<pdfrwt beam="1">  1        2 0.18630305E+00 0.99964614E+03</pdfrwt>
<pdfrwt beam="2">  1       -2 0.31738464E-01 0.99964614E+03</pdfrwt>
<totfact> 0.20722441E+02</totfact>
</mgrwt>
</event>
<event>
 9    1  0.4488205E-036  0.1000271E+04  0.7818608E-02  0.8680780E-01
          2   -1    0    0  501    0  0.00000000000E+00  0.00000000000E+00  0.79767340468E+03  0.79767340468E+03  0.00000000000E+00 0.  1.
         -2   -1    0    0    0  501 -0.00000000000E+00 -0.00000000000E+00 -0.31358122614E+03  0.31358122614E+03  0.00000000000E+00 0.  1.
         36    2    1    2    0    0  0.42632564146E-13 -0.14210854715E-13  0.48409217854E+03  0.11112546308E+04  0.10002707719E+04 0.  0.
         25    2    3    3    0    0 -0.10945399089E+03 -0.47147472391E+02  0.75496716811E+01  0.17356714587E+03  0.12595831179E+03 0.  0.
         35    2    3    3    0    0  0.10945399089E+03  0.47147472391E+02  0.47654250686E+03  0.93768748495E+03  0.79872523330E+03 0.  0.
         22    1    5    5    0    0 -0.31359589544E+03 -0.54827928917E+02  0.39249156173E+02  0.32076312707E+03  0.00000000000E+00 0. -1.
         22    1    5    5    0    0  0.42304988633E+03  0.10197540131E+03  0.43729335069E+03  0.61692435788E+03  0.00000000000E+00 0. -1.
          5    1    4    4  502    0 -0.33178085930E+02 -0.28415601167E+02  0.63358625357E+02  0.77101473286E+02  0.47000000000E+01 0.  1.
         -5    1    4    4    0  502 -0.76275904956E+02 -0.18731871224E+02 -0.55808953676E+02  0.96465672583E+02  0.47000000000E+01 0.  1.
<mgrwt>
<rscale>  0 0.10002708E+04</rscale>
<asrwt>0</asrwt>
<pdfrwt beam="1">  1        2 0.12271899E+00 0.10002708E+04</pdfrwt>
<pdfrwt beam="2">  1       -2 0.48243266E-01 0.10002708E+04</pdfrwt>
<totfact> 0.17035012E+02</totfact>
</mgrwt>
</event>
<event>
 9    1  0.4488205E-036  0.1000925E+04  0.7818608E-02  0.8680157E-01
         -1   -1    0    0    0  501 -0.00000000000E+00  0.00000000000E+00  0.61606743297E+03  0.61606743297E+03  0.00000000000E+00 0.  1.
          1   -1    0    0  501    0  0.00000000000E+00 -0.00000000000E+00 -0.40655090949E+03  0.40655090949E+03  0.00000000000E+00 0.  1.
         36    2    1    2    0    0  0.00000000000E+00  0.14210854715E-13  0.20951652349E+03  0.10226183425E+04  0.10009251224E+04 0.  0.
         25    2    3    3    0    0 -0.12915682853E+03  0.29281456058E+02 -0.11182840163E+02  0.18242407196E+03  0.12495837744E+03 0.  0.
         35    2    3    3    0    0  0.12915682853E+03 -0.29281456058E+02  0.22069936365E+03  0.84019427050E+03  0.79979954553E+03 0.  0.
         22    1    5    5    0    0 -0.93968292693E+02  0.46128690527E+02  0.47919315983E+03  0.49049360908E+03  0.00000000000E+00 0. -1.
         22    1    5    5    0    0  0.22312512122E+03 -0.75410146585E+02 -0.25849379618E+03  0.34970066141E+03  0.00000000000E+00 0. -1.
          5    1    4    4  502    0 -0.11342992315E+03  0.44062126981E+02 -0.54794470974E+02  0.13353779446E+03  0.47000000000E+01 0. -1.
         -5    1    4    4    0  502 -0.15726905377E+02 -0.14780670923E+02  0.43611630811E+02  0.48886277498E+02  0.47000000000E+01 0. -1.
<mgrwt>
<rscale>  0 0.10009251E+04</rscale>
<asrwt>0</asrwt>
<pdfrwt beam="1">  1        1 0.62546294E-01 0.10009251E+04</pdfrwt>
<pdfrwt beam="2">  1       -1 0.94779604E-01 0.10009251E+04</pdfrwt>
<totfact> 0.75464367E+01</totfact>
</mgrwt>
</event>
<event>
 9    1  0.4488205E-036  0.9989824E+03  0.7818608E-02  0.8682008E-01
         -1   -1    0    0    0  501 -0.00000000000E+00  0.00000000000E+00  0.62947528558E+03  0.62947528558E+03  0.00000000000E+00 0.  1.
          1   -1    0    0  501    0  0.00000000000E+00 -0.00000000000E+00 -0.39634830569E+03  0.39634830569E+03  0.00000000000E+00 0.  1.
         36    2    1    2    0    0 -0.39079850467E-13  0.14210854715E-13  0.23312697989E+03  0.10258235913E+04  0.99898240809E+03 0.  0.
         25    2    3    3    0    0 -0.21376640221E+02  0.63823596787E+02  0.17464217115E+03  0.22108038827E+03  0.11767003815E+03 0.  0.
         35    2    3    3    0    0  0.21376640221E+02 -0.63823596787E+02  0.58484808739E+02  0.80474320301E+03  0.79978793294E+03 0.  0.
         22    1    5    5    0    0  0.36127151893E+03 -0.13315822300E+03  0.19543912469E+03  0.43179239711E+03  0.00000000000E+00 0. -1.
         22    1    5    5    0    0 -0.33989487871E+03  0.69334626209E+02 -0.13695431596E+03  0.37295080590E+03  0.00000000000E+00 0. -1.
          5    1    4    4  502    0 -0.24714220243E+02  0.63437613677E+02  0.19148069189E+03  0.20327830400E+03  0.47000000000E+01 0. -1.
         -5    1    4    4    0  502  0.33375800216E+01  0.38598310951E+00 -0.16838520742E+02  0.17802084264E+02  0.47000000000E+01 0. -1.
<mgrwt>
<rscale>  0 0.99898241E+03</rscale>
<asrwt>0</asrwt>
<pdfrwt beam="1">  1        1 0.60976662E-01 0.99898241E+03</pdfrwt>
<pdfrwt beam="2">  1       -1 0.96842352E-01 0.99898241E+03</pdfrwt>
<totfact> 0.74488132E+01</totfact>
</mgrwt>
</event>
<event>
 9    1  0.4488205E-036  0.1000256E+04  0.7818608E-02  0.8680795E-01
          1   -1    0    0  501    0  0.00000000000E+00  0.00000000000E+00  0.64555799751E+03  0.64555799751E+03  0.00000000000E+00 0. -1.
         -1   -1    0    0    0  501 -0.00000000000E+00 -0.00000000000E+00 -0.38745987931E+03  0.38745987931E+03  0.00000000000E+00 0. -1.
         36    2    1    2    0    0  0.00000000000E+00  0.14210854715E-13  0.25809811820E+03  0.10330178768E+04  0.10002556149E+04 0.  0.
         25    2    3    3    0    0 -0.12654502356E+03 -0.52899387775E+02  0.22758433894E+02  0.18909566539E+03  0.12816877990E+03 0.  0.
         35    2    3    3    0    0  0.12654502356E+03  0.52899387775E+02  0.23533968431E+03  0.84392221142E+03  0.79875399449E+03 0.  0.
         22    1    5    5    0    0 -0.15081549127E+03 -0.28884084726E+03  0.23846194847E+03  0.40378019803E+03  0.00000000000E+00 0. -1.
         22    1    5    5    0    0  0.27736051483E+03  0.34174023503E+03 -0.31222641586E+01  0.44014201340E+03  0.00000000000E+00 0. -1.
          5    1    4    4  502    0 -0.11303061856E+03 -0.73587449127E+02 -0.22978284371E+02  0.13689822846E+03  0.47000000000E+01 0. -1.
         -5    1    4    4    0  502 -0.13514404997E+02  0.20688061352E+02  0.45736718265E+02  0.52197436935E+02  0.47000000000E+01 0. -1.
<mgrwt>
<rscale>  0 0.10002556E+04</rscale>
<asrwt>0</asrwt>
<pdfrwt beam="1">  1        1 0.99316615E-01 0.10002556E+04</pdfrwt>
<pdfrwt beam="2">  1       -1 0.59609212E-01 0.10002556E+04</pdfrwt>
<totfact> 0.10157333E+02</totfact>
</mgrwt>
</event>
<event>
 9    1  0.4488205E-036  0.9987568E+03  0.7818608E-02  0.8682223E-01
         -2   -1    0    0    0  501 -0.00000000000E+00  0.00000000000E+00  0.38268796838E+03  0.38268796838E+03  0.00000000000E+00 0.  1.
          2   -1    0    0  501    0  0.00000000000E+00 -0.00000000000E+00 -0.65165050311E+03  0.65165050311E+03  0.00000000000E+00 0.  1.
         36    2    1    2    0    0  0.21316282073E-13  0.00000000000E+00 -0.26896253473E+03  0.10343384715E+04  0.99875684153E+03 0.  0.
         25    2    3    3    0    0  0.46102022242E+02  0.13070997650E+03 -0.44859122184E+02  0.19147055984E+03  0.12425031199E+03 0.  0.
         35    2    3    3    0    0 -0.46102022242E+02 -0.13070997650E+03 -0.22410341255E+03  0.84286791165E+03  0.80062068581E+03 0.  0.
         22    1    5    5    0    0  0.14006608519E+03  0.27313546887E+03 -0.25222434619E+03  0.39728908037E+03  0.00000000000E+00 0. -1.
         22    1    5    5    0    0 -0.18616810743E+03 -0.40384544537E+03  0.28120933643E+02  0.44557883127E+03  0.00000000000E+00 0. -1.
          5    1    4    4  502    0  0.20840263415E+02 -0.22195940382E+02 -0.35406489128E+01  0.31009716919E+02  0.47000000000E+01 0. -1.
         -5    1    4    4    0  502  0.25261758827E+02  0.15290591688E+03 -0.41318473271E+02  0.16046084292E+03  0.47000000000E+01 0. -1.
<mgrwt>
<rscale>  0 0.99875684E+03</rscale>
<asrwt>0</asrwt>
<pdfrwt beam="1">  1        2 0.10025392E+00 0.99875684E+03</pdfrwt>
<pdfrwt beam="2">  1       -2 0.58875073E-01 0.99875684E+03</pdfrwt>
<totfact> 0.14618070E+02</totfact>
</mgrwt>
</event>
<event>
 9    1  0.4488205E-036  0.1000509E+04  0.7818608E-02  0.8680554E-01
          2   -1    0    0  501    0  0.00000000000E+00  0.00000000000E+00  0.25755011951E+04  0.25755011951E+04  0.00000000000E+00 0. -1.
         -2   -1    0    0    0  501 -0.00000000000E+00 -0.00000000000E+00 -0.97167235791E+02  0.97167235791E+02  0.00000000000E+00 0. -1.
         36    2    1    2    0    0  0.00000000000E+00 -0.71054273576E-14  0.24783339594E+04  0.26726684309E+04  0.10005085345E+04 0.  0.
         25    2    3    3    0    0  0.10796958742E+03  0.58931794795E+02  0.64758394588E+03  0.67094027799E+03  0.12516190082E+03 0.  0.
         35    2    3    3    0    0 -0.10796958742E+03 -0.58931794795E+02  0.18307500135E+04  0.20017281529E+04  0.80008724413E+03 0.  0.
         22    1    5    5    0    0  0.18540901294E+03  0.29132054940E+03  0.65768605704E+03  0.74282912854E+03  0.00000000000E+00 0.  1.
         22    1    5    5    0    0 -0.29337860037E+03 -0.35025234420E+03  0.11730639564E+04  0.12588990244E+04  0.00000000000E+00 0.  1.
          5    1    4    4  502    0  0.11803116635E+03  0.85985814816E+02  0.54912674244E+03  0.56823163045E+03  0.47000000000E+01 0.  1.
         -5    1    4    4    0  502 -0.10061578929E+02 -0.27054020020E+02  0.98457203440E+02  0.10270864754E+03  0.47000000000E+01 0.  1.
<mgrwt>
<rscale>  0 0.10005085E+04</rscale>
<asrwt>0</asrwt>
<pdfrwt beam="1">  1        2 0.39623090E+00 0.10005085E+04</pdfrwt>
<pdfrwt beam="2">  1       -2 0.14948807E-01 0.10005085E+04</pdfrwt>
<totfact> 0.12591235E+02</totfact>
</mgrwt>
</event>
<event>
 9    1  0.4488205E-036  0.1000766E+04  0.7818608E-02  0.8680309E-01
         -3   -1    0    0    0  501 -0.00000000000E+00  0.00000000000E+00  0.90893902631E+03  0.90893902631E+03  0.00000000000E+00 0.  1.
          3   -1    0    0  501    0  0.00000000000E+00 -0.00000000000E+00 -0.27546767355E+03  0.27546767355E+03  0.00000000000E+00 0.  1.
         36    2    1    2    0    0 -0.14210854715E-13  0.00000000000E+00  0.63347135276E+03  0.11844066999E+04  0.10007663443E+04 0.  0.
         25    2    3    3    0    0 -0.11164696702E+03  0.86551514614E+02  0.12897204620E+03  0.22821751227E+03  0.12447182123E+03 0.  0.
         35    2    3    3    0    0  0.11164696702E+03 -0.86551514614E+02  0.50449930656E+03  0.95618918759E+03  0.79988874365E+03 0.  0.
         22    1    5    5    0    0  0.11772688782E+03 -0.46325182373E+02 -0.20750107700E+03  0.24302744617E+03  0.00000000000E+00 0. -1.
         22    1    5    5    0    0 -0.60799208065E+01 -0.40226332241E+02  0.71200038355E+03  0.71316174142E+03  0.00000000000E+00 0. -1.
          5    1    4    4  502    0 -0.93566293021E+02  0.31342608771E+02  0.13750468229E+03  0.16931224990E+03  0.47000000000E+01 0.  1.
         -5    1    4    4    0  502 -0.18080673997E+02  0.55208905843E+02 -0.85326360870E+01  0.58905262373E+02  0.47000000000E+01 0.  1.
<mgrwt>
<rscale>  0 0.10007663E+04</rscale>
<asrwt>0</asrwt>
<pdfrwt beam="1">  1        3 0.42379642E-01 0.10007663E+04</pdfrwt>
<pdfrwt beam="2">  1       -3 0.13983677E+00 0.10007663E+04</pdfrwt>
<totfact> 0.70752932E+00</totfact>
</mgrwt>
</event>
<event>
 9    1  0.4488205E-036  0.9996023E+03  0.7818608E-02  0.8681417E-01
          1   -1    0    0  501    0  0.00000000000E+00  0.00000000000E+00  0.22841907384E+03  0.22841907384E+03  0.00000000000E+00 0. -1.
         -1   -1    0    0    0  501 -0.00000000000E+00 -0.00000000000E+00 -0.10936091150E+04  0.10936091150E+04  0.00000000000E+00 0. -1.
         36    2    1    2    0    0  0.00000000000E+00  0.00000000000E+00 -0.86519004118E+03  0.13220281889E+04  0.99960228331E+03 0.  0.
         25    2    3    3    0    0 -0.64633469535E+02  0.11358958985E+03 -0.89586502707E+02  0.20126799761E+03  0.12410876314E+03 0.  0.
         35    2    3    3    0    0  0.64633469535E+02 -0.11358958985E+03 -0.77560353848E+03  0.11207601913E+04  0.79841247304E+03 0.  0.
         22    1    5    5    0    0  0.49937751073E+02 -0.35502203920E+03 -0.80097805860E+03  0.87755357538E+03  0.00000000000E+00 0.  1.
         22    1    5    5    0    0  0.14695718462E+02  0.24143244934E+03  0.25374520126E+02  0.24320661588E+03  0.00000000000E+00 0.  1.
          5    1    4    4  502    0 -0.79290028745E+01 -0.93200993149E+01  0.22114697266E+02  0.25707648142E+02  0.47000000000E+01 0.  1.
         -5    1    4    4    0  502 -0.56704466661E+02  0.12290968917E+03 -0.11170119997E+03  0.17556034947E+03  0.47000000000E+01 0.  1.
<mgrwt>
<rscale>  0 0.99960228E+03</rscale>
<asrwt>0</asrwt>
<pdfrwt beam="1">  1        1 0.35141397E-01 0.99960228E+03</pdfrwt>
<pdfrwt beam="2">  1       -1 0.16824755E+00 0.99960228E+03</pdfrwt>
<totfact> 0.36050258E+01</totfact>
</mgrwt>
</event>
<event>
 9    1  0.4488205E-036  0.1000566E+04  0.7818608E-02  0.8680499E-01
          2   -1    0    0  501    0  0.00000000000E+00  0.00000000000E+00  0.69294157915E+03  0.69294157915E+03  0.00000000000E+00 0. -1.
         -2   -1    0    0    0  501 -0.00000000000E+00 -0.00000000000E+00 -0.36118926831E+03  0.36118926831E+03  0.00000000000E+00 0. -1.
         36    2    1    2    0    0  0.35527136788E-14  0.00000000000E+00  0.33175231084E+03  0.10541308475E+04  0.10005659638E+04 0.  0.
         25    2    3    3    0    0  0.10149565467E+02 -0.14001153694E+03  0.75764885351E+02  0.20268296910E+03  0.12503529085E+03 0.  0.
         35    2    3    3    0    0 -0.10149565467E+02  0.14001153694E+03  0.25598742549E+03  0.85144787836E+03  0.79982978402E+03 0.  0.
         22    1    5    5    0    0  0.32538378968E+03  0.15154444226E+03 -0.89260870090E+02  0.36987542699E+03  0.00000000000E+00 0. -1.
         22    1    5    5    0    0 -0.33553335514E+03 -0.11532905324E+02  0.34524829558E+03  0.48157245137E+03  0.00000000000E+00 0. -1.
          5    1    4    4  502    0  0.18525845429E+02 -0.94590220549E+02  0.10900526761E+03  0.14558418574E+03  0.47000000000E+01 0.  1.
         -5    1    4    4    0  502 -0.83762799619E+01 -0.45421316387E+02 -0.33240382257E+02  0.57098783357E+02  0.47000000000E+01 0.  1.
<mgrwt>
<rscale>  0 0.10005660E+04</rscale>
<asrwt>0</asrwt>
<pdfrwt beam="1">  1        2 0.10660640E+00 0.10005660E+04</pdfrwt>
<pdfrwt beam="2">  1       -2 0.55567580E-01 0.10005660E+04</pdfrwt>
<totfact> 0.15284933E+02</totfact>
</mgrwt>
</event>
<event>
 9    1  0.4488205E-036  0.1000482E+04  0.7818608E-02  0.8680579E-01
          1   -1    0    0  501    0  0.00000000000E+00  0.00000000000E+00  0.14293964784E+04  0.14293964784E+04  0.00000000000E+00 0. -1.
         -1   -1    0    0    0  501 -0.00000000000E+00 -0.00000000000E+00 -0.17506763077E+03  0.17506763077E+03  0.00000000000E+00 0. -1.
         36    2    1    2    0    0 -0.35527136788E-13  0.00000000000E+00  0.12543288476E+04  0.16044641092E+04  0.10004819936E+04 0.  0.
         25    2    3    3    0    0 -0.22552984980E+02  0.12062787569E+03  0.34996706992E+03  0.39117222233E+03  0.12441477392E+03 0.  0.
         35    2    3    3    0    0  0.22552984980E+02 -0.12062787569E+03  0.90436177771E+03  0.12132918868E+04  0.79946685745E+03 0.  0.
         22    1    5    5    0    0 -0.34198931605E+03 -0.24686263739E+03  0.43831139708E+03  0.60828836488E+03  0.00000000000E+00 0. -1.
         22    1    5    5    0    0  0.36454230103E+03  0.12623476169E+03  0.46605038063E+03  0.60500352196E+03  0.00000000000E+00 0. -1.
          5    1    4    4  502    0 -0.22989715505E+02 -0.21379999149E+02  0.49516609261E+02  0.58818500281E+02  0.47000000000E+01 0.  1.
         -5    1    4    4    0  502  0.43673052467E+00  0.14200787484E+03  0.30045046066E+03  0.33235372205E+03  0.47000000000E+01 0.  1.
<mgrwt>
<rscale>  0 0.10004820E+04</rscale>
<asrwt>0</asrwt>
<pdfrwt beam="1">  1        1 0.21990714E+00 0.10004820E+04</pdfrwt>
<pdfrwt beam="2">  1       -1 0.26933483E-01 0.10004820E+04</pdfrwt>
<totfact> 0.97899162E+01</totfact>
</mgrwt>
</event>
<event>
 9    1  0.4488205E-036  0.9999885E+03  0.7818608E-02  0.8681049E-01
         -1   -1    0    0    0  501 -0.00000000000E+00  0.00000000000E+00  0.35270256486E+03  0.35270256486E+03  0.00000000000E+00 0.  1.
          1   -1    0    0  501    0  0.00000000000E+00 -0.00000000000E+00 -0.70879628192E+03  0.70879628192E+03  0.00000000000E+00 0.  1.
         36    2    1    2    0    0  0.00000000000E+00  0.14210854715E-13 -0.35609371706E+03  0.10614988468E+04  0.99998853314E+03 0.  0.
         25    2    3    3    0    0  0.88529088681E+02 -0.10032470555E+03 -0.11458687724E+03  0.21631479615E+03  0.12553681735E+03 0.  0.
         35    2    3    3    0    0 -0.88529088681E+02  0.10032470555E+03 -0.24150683982E+03  0.84518405064E+03  0.79881667465E+03 0.  0.
         22    1    5    5    0    0  0.13927666156E+03  0.27057856995E+03 -0.41305415484E+03  0.51305407687E+03  0.00000000000E+00 0.  1.
         22    1    5    5    0    0 -0.22780575024E+03 -0.17025386440E+03  0.17154731502E+03  0.33212997377E+03  0.00000000000E+00 0.  1.
          5    1    4    4  502    0  0.58008040589E+02 -0.36382298927E+02  0.13417647772E+02  0.69933738066E+02  0.47000000000E+01 0. -1.
         -5    1    4    4    0  502  0.30521048092E+02 -0.63942406621E+02 -0.12800452501E+03  0.14638105808E+03  0.47000000000E+01 0. -1.
<mgrwt>
<rscale>  0 0.99998853E+03</rscale>
<asrwt>0</asrwt>
<pdfrwt beam="1">  1        1 0.10904558E+00 0.99998853E+03</pdfrwt>
<pdfrwt beam="2">  1       -1 0.54261934E-01 0.99998853E+03</pdfrwt>
<totfact> 0.10535449E+02</totfact>
</mgrwt>
</event>
<event>
 9    1  0.4488205E-036  0.9985457E+03  0.7818608E-02  0.8682424E-01
         -2   -1    0    0    0  501 -0.00000000000E+00  0.00000000000E+00  0.14187469200E+03  0.14187469200E+03  0.00000000000E+00 0.  1.
          2   -1    0    0  501    0  0.00000000000E+00 -0.00000000000E+00 -0.17569967942E+04  0.17569967942E+04  0.00000000000E+00 0.  1.
         36    2    1    2    0    0  0.17763568394E-14  0.28421709430E-13 -0.16151221022E+04  0.18988714862E+04  0.99854570053E+03 0.  0.
         25    2    3    3    0    0  0.12657340912E+02  0.10392952788E+03 -0.48738416277E+03  0.51384388428E+03  0.12462206965E+03 0.  0.
         35    2    3    3    0    0 -0.12657340912E+02 -0.10392952788E+03 -0.11277379394E+04  0.13850276019E+04  0.79721204393E+03 0.  0.
         22    1    5    5    0    0 -0.14951563627E+02  0.34125027565E+03 -0.63443983468E+03  0.72054784971E+03  0.00000000000E+00 0. -1.
         22    1    5    5    0    0  0.22942227145E+01 -0.44517980354E+03 -0.49329810473E+03  0.66447975219E+03  0.00000000000E+00 0. -1.
          5    1    4    4  502    0 -0.47221661039E+02  0.78975865658E+01 -0.17764945932E+03  0.18404803053E+03  0.47000000000E+01 0.  1.
         -5    1    4    4    0  502  0.59879001951E+02  0.96031941318E+02 -0.30973470345E+03  0.32979585375E+03  0.47000000000E+01 0.  1.
<mgrwt>
<rscale>  0 0.99854570E+03</rscale>
<asrwt>0</asrwt>
<pdfrwt beam="1">  1        2 0.27030717E+00 0.99854570E+03</pdfrwt>
<pdfrwt beam="2">  1       -2 0.21826878E-01 0.99854570E+03</pdfrwt>
<totfact> 0.19766841E+02</totfact>
</mgrwt>
</event>
<event>
 9    1  0.4488205E-036  0.9966849E+03  0.7818608E-02  0.8684201E-01
          1   -1    0    0  501    0  0.00000000000E+00  0.00000000000E+00  0.25435645872E+04  0.25435645872E+04  0.00000000000E+00 0.  1.
         -1   -1    0    0    0  501 -0.00000000000E+00 -0.00000000000E+00 -0.97636674505E+02  0.97636674505E+02  0.00000000000E+00 0.  1.
         36    2    1    2    0    0  0.17763568394E-14  0.14210854715E-13  0.24459279127E+04  0.26412012617E+04  0.99668488036E+03 0.  0.
         25    2    3    3    0    0  0.61565639112E+01  0.10070125659E+02  0.82779713751E+03  0.83710943484E+03  0.12395480754E+03 0.  0.
         35    2    3    3    0    0 -0.61565639112E+01 -0.10070125659E+02  0.16181307752E+04  0.18040918269E+04  0.79765957868E+03 0.  0.
         22    1    5    5    0    0 -0.67647174566E+02  0.24604174889E+03  0.14890808926E+04  0.15107860825E+04  0.00000000000E+00 0.  1.
         22    1    5    5    0    0  0.61490610654E+02 -0.25611187455E+03  0.12904988262E+03  0.29330574438E+03  0.00000000000E+00 0.  1.
          5    1    4    4  502    0 -0.45083237516E+01 -0.53410837453E+02  0.50958808051E+03  0.51242086642E+03  0.47000000000E+01 0. -1.
         -5    1    4    4    0  502  0.10664887663E+02  0.63480963111E+02  0.31820905700E+03  0.32468856842E+03  0.47000000000E+01 0. -1.
<mgrwt>
<rscale>  0 0.99668488E+03</rscale>
<asrwt>0</asrwt>
<pdfrwt beam="1">  1        1 0.39131758E+00 0.99668488E+03</pdfrwt>
<pdfrwt beam="2">  1       -1 0.15021029E-01 0.99668488E+03</pdfrwt>
<totfact> 0.42230668E+01</totfact>
</mgrwt>
</event>
<event>
 9    1  0.4488205E-036  0.1000927E+04  0.7818608E-02  0.8680156E-01
         -1   -1    0    0    0  501 -0.00000000000E+00  0.00000000000E+00  0.33515126296E+03  0.33515126296E+03  0.00000000000E+00 0. -1.
          1   -1    0    0  501    0  0.00000000000E+00 -0.00000000000E+00 -0.74731480752E+03  0.74731480752E+03  0.00000000000E+00 0. -1.
         36    2    1    2    0    0  0.00000000000E+00  0.28421709430E-13 -0.41216354456E+03  0.10824660705E+04  0.10009265739E+04 0.  0.
         25    2    3    3    0    0 -0.81861308785E+02 -0.86160463827E+02  0.50900918334E+01  0.17193873055E+03  0.12414555420E+03 0.  0.
         35    2    3    3    0    0  0.81861308785E+02  0.86160463827E+02 -0.41725363640E+03  0.91052733993E+03  0.80052141775E+03 0.  0.
         22    1    5    5    0    0  0.29127991539E+02 -0.31360470392E+03  0.20176784034E+02  0.31560014706E+03  0.00000000000E+00 0.  1.
         22    1    5    5    0    0  0.52733317246E+02  0.39976516775E+03 -0.43743042043E+03  0.59492719287E+03  0.00000000000E+00 0.  1.
          5    1    4    4  502    0 -0.33052079176E+02  0.28080627569E+02  0.17495086889E+02  0.47001379211E+02  0.47000000000E+01 0.  1.
         -5    1    4    4    0  502 -0.48809229609E+02 -0.11424109140E+03 -0.12404995056E+02  0.12493735134E+03  0.47000000000E+01 0.  1.
<mgrwt>
<rscale>  0 0.10009266E+04</rscale>
<asrwt>0</asrwt>
<pdfrwt beam="1">  1        1 0.11497151E+00 0.10009266E+04</pdfrwt>
<pdfrwt beam="2">  1       -1 0.51561733E-01 0.10009266E+04</pdfrwt>
<totfact> 0.10670412E+02</totfact>
</mgrwt>
</event>
<event>
 9    1  0.4488205E-036  0.9986068E+03  0.7818608E-02  0.8682366E-01
         -2   -1    0    0    0  501 -0.00000000000E+00  0.00000000000E+00  0.14823983557E+03  0.14823983557E+03  0.00000000000E+00 0. -1.
          2   -1    0    0  501    0  0.00000000000E+00 -0.00000000000E+00 -0.16817604824E+04  0.16817604824E+04  0.00000000000E+00 0. -1.
         36    2    1    2    0    0 -0.21316282073E-13 -0.14210854715E-13 -0.15335206468E+04  0.18300003180E+04  0.99860682429E+03 0.  0.
         25    2    3    3    0    0  0.59372090982E+01  0.12546707328E+03 -0.17860606652E+03  0.25153854280E+03  0.12487703787E+03 0.  0.
         35    2    3    3    0    0 -0.59372090982E+01 -0.12546707328E+03 -0.13549145803E+04  0.15784617752E+04  0.79998176155E+03 0.  0.
         22    1    5    5    0    0  0.29607657927E+03 -0.66356435005E+02 -0.11924862325E+04  0.12304828044E+04  0.00000000000E+00 0.  1.
         22    1    5    5    0    0 -0.30201378837E+03 -0.59110638272E+02 -0.16242834782E+03  0.34797897077E+03  0.00000000000E+00 0.  1.
          5    1    4    4  502    0 -0.55597095787E+02  0.39622590014E+02 -0.48424517994E+02  0.83833231133E+02  0.47000000000E+01 0. -1.
         -5    1    4    4    0  502  0.61534304885E+02  0.85844483263E+02 -0.13018154853E+03  0.16770531167E+03  0.47000000000E+01 0. -1.
<mgrwt>
<rscale>  0 0.99860682E+03</rscale>
<asrwt>0</asrwt>
<pdfrwt beam="1">  1        2 0.25873240E+00 0.99860682E+03</pdfrwt>
<pdfrwt beam="2">  1       -2 0.22806127E-01 0.99860682E+03</pdfrwt>
<totfact> 0.20181034E+02</totfact>
</mgrwt>
</event>
<event>
 9    1  0.4488205E-036  0.1003133E+04  0.7818608E-02  0.8678060E-01
          2   -1    0    0  501    0  0.00000000000E+00  0.00000000000E+00  0.39876469264E+03  0.39876469264E+03  0.00000000000E+00 0.  1.
         -2   -1    0    0    0  501 -0.00000000000E+00 -0.00000000000E+00 -0.63087060573E+03  0.63087060573E+03  0.00000000000E+00 0.  1.
         36    2    1    2    0    0 -0.12434497876E-13  0.28421709430E-13 -0.23210591309E+03  0.10296352984E+04  0.10031329387E+04 0.  0.
         25    2    3    3    0    0  0.70524246398E+00  0.83020611206E+02  0.74737673430E+02  0.16778058771E+03  0.12518660683E+03 0.  0.
         35    2    3    3    0    0 -0.70524246398E+00 -0.83020611206E+02 -0.30684358652E+03  0.86185471067E+03  0.80109152814E+03 0.  0.
         22    1    5    5    0    0 -0.26449806809E+03 -0.31786086020E+03 -0.29594510817E+03  0.50850591100E+03  0.00000000000E+00 0.  1.
         22    1    5    5    0    0  0.26379282563E+03  0.23484024899E+03 -0.10898478350E+02  0.35334879967E+03  0.00000000000E+00 0.  1.
          5    1    4    4  502    0  0.15392640750E+02  0.18694355530E+02 -0.33094102010E+02  0.41276166316E+02  0.47000000000E+01 0. -1.
         -5    1    4    4    0  502 -0.14687398286E+02  0.64326255677E+02  0.10783177544E+03  0.12650442139E+03  0.47000000000E+01 0. -1.
<mgrwt>
<rscale>  0 0.10031329E+04</rscale>
<asrwt>0</asrwt>
<pdfrwt beam="1">  1        2 0.61348414E-01 0.10031329E+04</pdfrwt>
<pdfrwt beam="2">  1       -2 0.97057017E-01 0.10031329E+04</pdfrwt>
<totfact> 0.84182317E+01</totfact>
</mgrwt>
</event>
<event>
 9    1  0.4488205E-036  0.9971387E+03  0.7818608E-02  0.8683768E-01
          1   -1    0    0  501    0  0.00000000000E+00  0.00000000000E+00  0.26382478334E+03  0.26382478334E+03  0.00000000000E+00 0.  1.
         -1   -1    0    0    0  501 -0.00000000000E+00 -0.00000000000E+00 -0.94218362520E+03  0.94218362520E+03  0.00000000000E+00 0.  1.
         36    2    1    2    0    0  0.14210854715E-13  0.00000000000E+00 -0.67835884185E+03  0.12060084085E+04  0.99713868802E+03 0.  0.
         25    2    3    3    0    0  0.11363849305E+03  0.75475311257E+02 -0.14263380906E+03  0.23364729714E+03  0.12504569670E+03 0.  0.
         35    2    3    3    0    0 -0.11363849305E+03 -0.75475311257E+02 -0.53572503279E+03  0.97236111139E+03  0.79992161521E+03 0.  0.
         22    1    5    5    0    0 -0.33441214477E+03  0.17300082676E+03 -0.44337085743E+02  0.37911284046E+03  0.00000000000E+00 0. -1.
         22    1    5    5    0    0  0.22077365172E+03 -0.24847613802E+03 -0.49138794705E+03  0.59324827093E+03  0.00000000000E+00 0. -1.
          5    1    4    4  502    0  0.80935871230E+01 -0.27394467259E+02 -0.54894209381E+02  0.62059867970E+02  0.47000000000E+01 0.  1.
         -5    1    4    4    0  502  0.10554490592E+03  0.10286977852E+03 -0.87739599680E+02  0.17158742917E+03  0.47000000000E+01 0.  1.
<mgrwt>
<rscale>  0 0.99713869E+03</rscale>
<asrwt>0</asrwt>
<pdfrwt beam="1">  1        1 0.40588429E-01 0.99713869E+03</pdfrwt>
<pdfrwt beam="2">  1       -1 0.14495132E+00 0.99713869E+03</pdfrwt>
<totfact> 0.46886069E+01</totfact>
</mgrwt>
</event>
<event>
 9    1  0.4488205E-036  0.1000643E+04  0.7818608E-02  0.8680426E-01
         -2   -1    0    0    0  501 -0.00000000000E+00  0.00000000000E+00  0.12614399352E+04  0.12614399352E+04  0.00000000000E+00 0. -1.
          2   -1    0    0  501    0  0.00000000000E+00 -0.00000000000E+00 -0.19844103940E+03  0.19844103940E+03  0.00000000000E+00 0. -1.
         36    2    1    2    0    0  0.00000000000E+00  0.71054273576E-14  0.10629988958E+04  0.14598809746E+04  0.10006426973E+04 0.  0.
         25    2    3    3    0    0 -0.10767034804E+03 -0.51700873828E+02  0.69835099913E+02  0.17826091505E+03  0.11240163901E+03 0.  0.
         35    2    3    3    0    0  0.10767034804E+03  0.51700873828E+02  0.99316379592E+03  0.12816200596E+04  0.80119271553E+03 0.  0.
         22    1    5    5    0    0  0.36835970570E+03 -0.20694318958E+03  0.38735903151E+03  0.57320273533E+03  0.00000000000E+00 0. -1.
         22    1    5    5    0    0 -0.26068935766E+03  0.25864406341E+03  0.60580476441E+03  0.70841732427E+03  0.00000000000E+00 0. -1.
          5    1    4    4  502    0 -0.40470146090E+02 -0.75077178157E+02  0.63964925013E+02  0.10671465240E+03  0.47000000000E+01 0. -1.
         -5    1    4    4    0  502 -0.67200201947E+02  0.23376304329E+02  0.58701749000E+01  0.71546262650E+02  0.47000000000E+01 0. -1.
<mgrwt>
<rscale>  0 0.10006427E+04</rscale>
<asrwt>0</asrwt>
<pdfrwt beam="1">  1        2 0.30529392E-01 0.10006427E+04</pdfrwt>
<pdfrwt beam="2">  1       -2 0.19406768E+00 0.10006427E+04</pdfrwt>
<totfact> 0.27776481E+01</totfact>
</mgrwt>
</event>
<event>
 9    1  0.4488205E-036  0.1000197E+04  0.7818608E-02  0.8680850E-01
          2   -1    0    0  501    0  0.00000000000E+00  0.00000000000E+00  0.32549690391E+04  0.32549690391E+04  0.00000000000E+00 0.  1.
         -2   -1    0    0    0  501 -0.00000000000E+00 -0.00000000000E+00 -0.76835945107E+02  0.76835945107E+02  0.00000000000E+00 0.  1.
         36    2    1    2    0    0  0.71054273576E-14  0.00000000000E+00  0.31781330940E+04  0.33318049842E+04  0.10001972254E+04 0.  0.
         25    2    3    3    0    0 -0.63533850602E+02  0.11327450107E+03  0.42735276591E+03  0.46386821770E+03  0.12520253230E+03 0.  0.
         35    2    3    3    0    0  0.63533850602E+02 -0.11327450107E+03  0.27507803281E+04  0.28679367665E+04  0.80087528402E+03 0.  0.
         22    1    5    5    0    0 -0.59957202267E+02  0.32992206742E+03  0.14474766639E+04  0.14858102602E+04  0.00000000000E+00 0. -1.
         22    1    5    5    0    0  0.12349105287E+03 -0.44319656849E+03  0.13033036642E+04  0.13821265064E+04  0.00000000000E+00 0. -1.
          5    1    4    4  502    0 -0.95223673873E+02  0.49637943540E+02  0.22541415419E+03  0.24973006309E+03  0.47000000000E+01 0. -1.
         -5    1    4    4    0  502  0.31689823271E+02  0.63636557532E+02  0.20193861173E+03  0.21413815461E+03  0.47000000000E+01 0. -1.
<mgrwt>
<rscale>  0 0.10001972E+04</rscale>
<asrwt>0</asrwt>
<pdfrwt beam="1">  1        2 0.50076436E+00 0.10001972E+04</pdfrwt>
<pdfrwt beam="2">  1       -2 0.11820917E-01 0.10001972E+04</pdfrwt>
<totfact> 0.66360548E+01</totfact>
</mgrwt>
</event>
<event>
 9    1  0.4488205E-036  0.1000718E+04  0.7818608E-02  0.8680355E-01
         -2   -1    0    0    0  501 -0.00000000000E+00  0.00000000000E+00  0.25421584393E+03  0.25421584393E+03  0.00000000000E+00 0.  1.
          2   -1    0    0  501    0  0.00000000000E+00 -0.00000000000E+00 -0.98482860317E+03  0.98482860317E+03  0.00000000000E+00 0.  1.
         36    2    1    2    0    0  0.35527136788E-14  0.00000000000E+00 -0.73061275924E+03  0.12390444471E+04  0.10007178113E+04 0.  0.
         25    2    3    3    0    0 -0.10253798610E+02  0.37022492069E+02  0.30672167134E+02  0.13353175534E+03  0.12415370531E+03 0.  0.
         35    2    3    3    0    0  0.10253798610E+02 -0.37022492069E+02 -0.76128492637E+03  0.11055126918E+04  0.80070454428E+03 0.  0.
         22    1    5    5    0    0  0.39959397760E+02  0.28029402432E+03 -0.31854407043E+01  0.28314597043E+03  0.00000000000E+00 0.  1.
         22    1    5    5    0    0 -0.29705599150E+02 -0.31731651639E+03 -0.75809948567E+03  0.82236672134E+03  0.00000000000E+00 0.  1.
          5    1    4    4  502    0 -0.26739729212E+02  0.63280789315E+02  0.59448357912E+02  0.90970702279E+02  0.47000000000E+01 0. -1.
         -5    1    4    4    0  502  0.16485930603E+02 -0.26258297246E+02 -0.28776190778E+02  0.42561053063E+02  0.47000000000E+01 0. -1.
<mgrwt>
<rscale>  0 0.10007178E+04</rscale>
<asrwt>0</asrwt>
<pdfrwt beam="1">  1        2 0.15151209E+00 0.10007178E+04</pdfrwt>
<pdfrwt beam="2">  1       -2 0.39110130E-01 0.10007178E+04</pdfrwt>
<totfact> 0.19249692E+02</totfact>
</mgrwt>
</event>
<event>
 9    1  0.4488205E-036  0.9993501E+03  0.7818608E-02  0.8681657E-01
          1   -1    0    0  501    0  0.00000000000E+00  0.00000000000E+00  0.91445478234E+03  0.91445478234E+03  0.00000000000E+00 0. -1.
         -1   -1    0    0    0  501 -0.00000000000E+00 -0.00000000000E+00 -0.27303169252E+03  0.27303169252E+03  0.00000000000E+00 0. -1.
         36    2    1    2    0    0  0.71054273576E-14  0.00000000000E+00  0.64142308982E+03  0.11874864749E+04  0.99935006271E+03 0.  0.
         25    2    3    3    0    0  0.47105689018E+02  0.10227914808E+03  0.22343599948E+03  0.27913226046E+03  0.12373844552E+03 0.  0.
         35    2    3    3    0    0 -0.47105689018E+02 -0.10227914808E+03  0.41798709034E+03  0.90835421440E+03  0.79857009777E+03 0.  0.
         22    1    5    5    0    0  0.19696538991E+03 -0.94000173535E+02  0.57702743513E+03  0.61692143611E+03  0.00000000000E+00 0.  1.
         22    1    5    5    0    0 -0.24407107893E+03 -0.82789745398E+01 -0.15904034479E+03  0.29143277828E+03  0.00000000000E+00 0.  1.
          5    1    4    4  502    0 -0.21102989610E+02 -0.16339623496E+01  0.10555992543E+03  0.10776360174E+03  0.47000000000E+01 0.  1.
         -5    1    4    4    0  502  0.68208678628E+02  0.10391311042E+03  0.11787607405E+03  0.17136865872E+03  0.47000000000E+01 0.  1.
<mgrwt>
<rscale>  0 0.99935006E+03</rscale>
<asrwt>0</asrwt>
<pdfrwt beam="1">  1        1 0.14068535E+00 0.99935006E+03</pdfrwt>
<pdfrwt beam="2">  1       -1 0.42004876E-01 0.99935006E+03</pdfrwt>
<totfact> 0.11110512E+02</totfact>
</mgrwt>
</event>
<event>
 9    1  0.4488205E-036  0.9969751E+03  0.7818608E-02  0.8683924E-01
         -2   -1    0    0    0  501 -0.00000000000E+00  0.00000000000E+00  0.50254800293E+03  0.50254800293E+03  0.00000000000E+00 0.  1.
          2   -1    0    0  501    0  0.00000000000E+00 -0.00000000000E+00 -0.49445987812E+03  0.49445987812E+03  0.00000000000E+00 0.  1.
         36    2    1    2    0    0  0.00000000000E+00 -0.28421709430E-13  0.80881248143E+01  0.99700788105E+03  0.99697507347E+03 0.  0.
         25    2    3    3    0    0  0.25177654275E+02 -0.12336374161E+03  0.56693310153E+02  0.18621133874E+03  0.12493199846E+03 0.  0.
         35    2    3    3    0    0 -0.25177654275E+02  0.12336374161E+03 -0.48605185339E+02  0.81079654231E+03  0.79948486038E+03 0.  0.
         22    1    5    5    0    0  0.13849463411E+03  0.14101696311E+03  0.33746868588E+03  0.39109034955E+03  0.00000000000E+00 0. -1.
         22    1    5    5    0    0 -0.16367228838E+03 -0.17653221499E+02 -0.38607387121E+03  0.41970619277E+03  0.00000000000E+00 0. -1.
          5    1    4    4  502    0 -0.41621325481E+02 -0.79910213738E+01  0.23735422971E+02  0.48802166560E+02  0.47000000000E+01 0. -1.
         -5    1    4    4    0  502  0.66798979756E+02 -0.11537272024E+03  0.32957887182E+02  0.13740917218E+03  0.47000000000E+01 0. -1.
<mgrwt>
<rscale>  0 0.99697507E+03</rscale>
<asrwt>0</asrwt>
<pdfrwt beam="1">  1        2 0.76070751E-01 0.99697507E+03</pdfrwt>
<pdfrwt beam="2">  1       -2 0.77315077E-01 0.99697507E+03</pdfrwt>
<totfact> 0.11234721E+02</totfact>
</mgrwt>
</event>
<event>
 9    1  0.4488205E-036  0.9976958E+03  0.7818608E-02  0.8683235E-01
          2   -1    0    0  501    0  0.00000000000E+00  0.00000000000E+00  0.21621216528E+04  0.21621216528E+04  0.00000000000E+00 0.  1.
         -2   -1    0    0    0  501 -0.00000000000E+00 -0.00000000000E+00 -0.11509492126E+03  0.11509492126E+03  0.00000000000E+00 0.  1.
         36    2    1    2    0    0 -0.56843418861E-13  0.35527136788E-14  0.20470267315E+04  0.22772165740E+04  0.99769578807E+03 0.  0.
         25    2    3    3    0    0 -0.30873889558E+02  0.29266806977E+02  0.67735112906E+03  0.69005165291E+03  0.12472765770E+03 0.  0.
         35    2    3    3    0    0  0.30873889558E+02 -0.29266806977E+02  0.13696756025E+04  0.15871649211E+04  0.80079428560E+03 0.  0.
         22    1    5    5    0    0 -0.31093077525E+03 -0.17679456534E+03  0.10019955376E+04  0.10639216713E+04  0.00000000000E+00 0.  1.
         22    1    5    5    0    0  0.34180466481E+03  0.14752775836E+03  0.36768006484E+03  0.52324324980E+03  0.00000000000E+00 0.  1.
          5    1    4    4  502    0 -0.38336701841E+02 -0.25086374760E+02  0.54164624257E+03  0.54360074595E+03  0.47000000000E+01 0. -1.
         -5    1    4    4    0  502  0.74628122833E+01  0.54353181737E+02  0.13570488650E+03  0.14645090696E+03  0.47000000000E+01 0. -1.
<mgrwt>
<rscale>  0 0.99769579E+03</rscale>
<asrwt>0</asrwt>
<pdfrwt beam="1">  1        2 0.33263407E+00 0.99769579E+03</pdfrwt>
<pdfrwt beam="2">  1       -2 0.17706913E-01 0.99769579E+03</pdfrwt>
<totfact> 0.16680264E+02</totfact>
</mgrwt>
</event>
<event>
 9    1  0.4488205E-036  0.9980615E+03  0.7818608E-02  0.8682886E-01
          1   -1    0    0  501    0  0.00000000000E+00  0.00000000000E+00  0.73568757326E+03  0.73568757326E+03  0.00000000000E+00 0. -1.
         -1   -1    0    0    0  501 -0.00000000000E+00 -0.00000000000E+00 -0.33850193344E+03  0.33850193344E+03  0.00000000000E+00 0. -1.
         36    2    1    2    0    0  0.28421709430E-13 -0.21316282073E-13  0.39718563982E+03  0.10741895067E+04  0.99806145293E+03 0.  0.
         25    2    3    3    0    0 -0.12832644074E+03  0.48837901569E+02  0.97436506874E+02  0.20969394383E+03  0.12499944474E+03 0.  0.
         35    2    3    3    0    0  0.12832644074E+03 -0.48837901569E+02  0.29974913295E+03  0.86449556287E+03  0.79915594191E+03 0.  0.
         22    1    5    5    0    0  0.25447968456E+03  0.18082621043E+03  0.46104874716E+03  0.55679796649E+03  0.00000000000E+00 0. -1.
         22    1    5    5    0    0 -0.12615324383E+03 -0.22966411200E+03 -0.16129961422E+03  0.30769759637E+03  0.00000000000E+00 0. -1.
          5    1    4    4  502    0 -0.84952348867E+01 -0.36548264400E-02 -0.27864036357E+02  0.29507008510E+02  0.47000000000E+01 0.  1.
         -5    1    4    4    0  502 -0.11983120585E+03  0.48841556396E+02  0.12530054323E+03  0.18018693532E+03  0.47000000000E+01 0.  1.
<mgrwt>
<rscale>  0 0.99806145E+03</rscale>
<asrwt>0</asrwt>
<pdfrwt beam="1">  1        1 0.11318270E+00 0.99806145E+03</pdfrwt>
<pdfrwt beam="2">  1       -1 0.52077221E-01 0.99806145E+03</pdfrwt>
<totfact> 0.10738944E+02</totfact>
</mgrwt>
</event>
<event>
 9    1  0.4488205E-036  0.9994869E+03  0.7818608E-02  0.8681527E-01
         -2   -1    0    0    0  501 -0.00000000000E+00  0.00000000000E+00  0.86964925777E+03  0.86964925777E+03  0.00000000000E+00 0.  1.
          2   -1    0    0  501    0  0.00000000000E+00 -0.00000000000E+00 -0.28717727962E+03  0.28717727962E+03  0.00000000000E+00 0.  1.
         36    2    1    2    0    0  0.14210854715E-13  0.00000000000E+00  0.58247197815E+03  0.11568265374E+04  0.99948688449E+03 0.  0.
         25    2    3    3    0    0 -0.10962840885E+03  0.84771787655E+02  0.90852879664E+02  0.20712181172E+03  0.12426003034E+03 0.  0.
         35    2    3    3    0    0  0.10962840885E+03 -0.84771787655E+02  0.49161909848E+03  0.94970472566E+03  0.80065291103E+03 0.  0.
         22    1    5    5    0    0 -0.31555189304E+03 -0.62195980252E+02  0.32054410410E+02  0.32321637085E+03  0.00000000000E+00 0. -1.
         22    1    5    5    0    0  0.42518030189E+03 -0.22575807402E+02  0.45956468807E+03  0.62648835481E+03  0.00000000000E+00 0. -1.
          5    1    4    4  502    0  0.12344059118E+02 -0.10178808255E+02  0.41608688465E+02  0.44825850676E+02  0.47000000000E+01 0. -1.
         -5    1    4    4    0  502 -0.12197246797E+03  0.94950595909E+02  0.49244191199E+02  0.16229596105E+03  0.47000000000E+01 0. -1.
<mgrwt>
<rscale>  0 0.99948688E+03</rscale>
<asrwt>0</asrwt>
<pdfrwt beam="1">  1        2 0.44181120E-01 0.99948688E+03</pdfrwt>
<pdfrwt beam="2">  1       -2 0.13379219E+00 0.99948688E+03</pdfrwt>
<totfact> 0.53525738E+01</totfact>
</mgrwt>
</event>
<event>
 9    1  0.4488205E-036  0.1000334E+04  0.7818608E-02  0.8680720E-01
          1   -1    0    0  501    0  0.00000000000E+00  0.00000000000E+00  0.40074397512E+03  0.40074397512E+03  0.00000000000E+00 0. -1.
         -1   -1    0    0    0  501 -0.00000000000E+00 -0.00000000000E+00 -0.62425629093E+03  0.62425629093E+03  0.00000000000E+00 0. -1.
         36    2    1    2    0    0  0.71054273576E-14  0.28421709430E-13 -0.22351231581E+03  0.10250002661E+04  0.10003338393E+04 0.  0.
         25    2    3    3    0    0 -0.45100154315E+01  0.14011941720E+03 -0.52434038001E+02  0.19342239501E+03  0.12251164531E+03 0.  0.
         35    2    3    3    0    0  0.45100154315E+01 -0.14011941720E+03 -0.17107827780E+03  0.83157787104E+03  0.80162346969E+03 0.  0.
         22    1    5    5    0    0 -0.25810138942E+03 -0.36689149694E+03 -0.18282120882E+03  0.48440612315E+03  0.00000000000E+00 0. -1.
         22    1    5    5    0    0  0.26261140485E+03  0.22677207974E+03  0.11742931014E+02  0.34717174790E+03  0.00000000000E+00 0. -1.
          5    1    4    4  502    0 -0.22517154674E+02  0.36597372696E+02  0.35805441155E+02  0.56129400132E+02  0.47000000000E+01 0. -1.
         -5    1    4    4    0  502  0.18007139243E+02  0.10352204450E+03 -0.88239479155E+02  0.13729299488E+03  0.47000000000E+01 0. -1.
<mgrwt>
<rscale>  0 0.10003338E+04</rscale>
<asrwt>0</asrwt>
<pdfrwt beam="1">  1        1 0.61652920E-01 0.10003338E+04</pdfrwt>
<pdfrwt beam="2">  1       -1 0.96039429E-01 0.10003338E+04</pdfrwt>
<totfact> 0.74743775E+01</totfact>
</mgrwt>
</event>
<event>
 9    1  0.4488205E-036  0.1000224E+04  0.7818608E-02  0.8680825E-01
         -2   -1    0    0    0  501 -0.00000000000E+00  0.00000000000E+00  0.37014938505E+03  0.37014938505E+03  0.00000000000E+00 0.  1.
          2   -1    0    0  501    0  0.00000000000E+00 -0.00000000000E+00 -0.67570534572E+03  0.67570534572E+03  0.00000000000E+00 0.  1.
         36    2    1    2    0    0  0.71054273576E-14 -0.56843418861E-13 -0.30555596067E+03  0.10458547308E+04  0.10002238113E+04 0.  0.
         25    2    3    3    0    0  0.27023330872E+02 -0.13611704728E+03 -0.77585092782E+02  0.20249703772E+03  0.12540930066E+03 0.  0.
         35    2    3    3    0    0 -0.27023330872E+02  0.13611704728E+03 -0.22797086789E+03  0.84335769305E+03  0.80001460665E+03 0.  0.
         22    1    5    5    0    0  0.14681972104E+03 -0.17919399165E+03 -0.38597234188E+03  0.45015682359E+03  0.00000000000E+00 0.  1.
         22    1    5    5    0    0 -0.17384305191E+03  0.31531103893E+03  0.15800147399E+03  0.39320086947E+03  0.00000000000E+00 0.  1.
          5    1    4    4  502    0  0.68998151266E+02 -0.83057346049E+02 -0.13023647696E+02  0.10886217438E+03  0.47000000000E+01 0. -1.
         -5    1    4    4    0  502 -0.41974820395E+02 -0.53059701227E+02 -0.64561445086E+02  0.93634863342E+02  0.47000000000E+01 0. -1.
<mgrwt>
<rscale>  0 0.10002238E+04</rscale>
<asrwt>0</asrwt>
<pdfrwt beam="1">  1        2 0.10395467E+00 0.10002238E+04</pdfrwt>
<pdfrwt beam="2">  1       -2 0.56946059E-01 0.10002238E+04</pdfrwt>
<totfact> 0.14987799E+02</totfact>
</mgrwt>
</event>
<event>
 9    1  0.4488205E-036  0.1000908E+04  0.7818608E-02  0.8680174E-01
          1   -1    0    0  501    0  0.00000000000E+00  0.00000000000E+00  0.12096604339E+04  0.12096604339E+04  0.00000000000E+00 0. -1.
         -1   -1    0    0    0  501 -0.00000000000E+00 -0.00000000000E+00 -0.20704494443E+03  0.20704494443E+03  0.00000000000E+00 0. -1.
         36    2    1    2    0    0  0.14210854715E-13  0.00000000000E+00  0.10026154894E+04  0.14167053783E+04  0.10009077426E+04 0.  0.
         25    2    3    3    0    0  0.75441919147E+02  0.91389561236E+02  0.29428535199E+03  0.34099568671E+03  0.12502261753E+03 0.  0.
         35    2    3    3    0    0 -0.75441919147E+02 -0.91389561236E+02  0.70833013745E+03  0.10757096916E+04  0.80085967677E+03 0.  0.
         22    1    5    5    0    0 -0.36354869186E+03  0.74009325195E+02  0.10271383429E+03  0.38496124912E+03  0.00000000000E+00 0.  1.
         22    1    5    5    0    0  0.28810677271E+03 -0.16539888643E+03  0.60561630316E+03  0.69074844247E+03  0.00000000000E+00 0.  1.
          5    1    4    4  502    0  0.60285818816E+02 -0.23759140943E+01  0.19209305574E+03  0.20139974424E+03  0.47000000000E+01 0.  1.
         -5    1    4    4    0  502  0.15156100331E+02  0.93765475330E+02  0.10219229625E+03  0.13959594247E+03  0.47000000000E+01 0.  1.
<mgrwt>
<rscale>  0 0.10009077E+04</rscale>
<asrwt>0</asrwt>
<pdfrwt beam="1">  1        1 0.18610160E+00 0.10009077E+04</pdfrwt>
<pdfrwt beam="2">  1       -1 0.31853069E-01 0.10009077E+04</pdfrwt>
<totfact> 0.10631158E+02</totfact>
</mgrwt>
</event>
<event>
 9    1  0.4488205E-036  0.9995122E+03  0.7818608E-02  0.8681503E-01
         -1   -1    0    0    0  501 -0.00000000000E+00  0.00000000000E+00  0.13365973321E+04  0.13365973321E+04  0.00000000000E+00 0. -1.
          1   -1    0    0  501    0  0.00000000000E+00 -0.00000000000E+00 -0.18685969890E+03  0.18685969890E+03  0.00000000000E+00 0. -1.
         36    2    1    2    0    0  0.00000000000E+00  0.00000000000E+00  0.11497376332E+04  0.15234570310E+04  0.99951223111E+03 0.  0.
         25    2    3    3    0    0  0.93044055451E+02 -0.97507787597E+02  0.16815859767E+03  0.24980540630E+03  0.12633472265E+03 0.  0.
         35    2    3    3    0    0 -0.93044055451E+02  0.97507787597E+02  0.98157903557E+03  0.12736516247E+04  0.80032874073E+03 0.  0.
         22    1    5    5    0    0 -0.18656914905E+03  0.41506847376E+03  0.71989372077E+03  0.85166710309E+03  0.00000000000E+00 0.  1.
         22    1    5    5    0    0  0.93525093597E+02 -0.31756068616E+03  0.26168531480E+03  0.42198452165E+03  0.00000000000E+00 0.  1.
          5    1    4    4  502    0  0.29284486978E+02 -0.98590725944E+02  0.15245621166E+03  0.18396385214E+03  0.47000000000E+01 0.  1.
         -5    1    4    4    0  502  0.63759568473E+02  0.10829383466E+01  0.15702386005E+02  0.65841554155E+02  0.47000000000E+01 0.  1.
<mgrwt>
<rscale>  0 0.99951223E+03</rscale>
<asrwt>0</asrwt>
<pdfrwt beam="1">  1        1 0.28747647E-01 0.99951223E+03</pdfrwt>
<pdfrwt beam="2">  1       -1 0.20563035E+00 0.99951223E+03</pdfrwt>
<totfact> 0.22669798E+01</totfact>
</mgrwt>
</event>
<event>
 9    1  0.4488205E-036  0.9997953E+03  0.7818608E-02  0.8681233E-01
          2   -1    0    0  501    0  0.00000000000E+00  0.00000000000E+00  0.19650581856E+04  0.19650581856E+04  0.00000000000E+00 0.  1.
         -2   -1    0    0    0  501 -0.00000000000E+00 -0.00000000000E+00 -0.12717062121E+03  0.12717062121E+03  0.00000000000E+00 0.  1.
         36    2    1    2    0    0  0.35527136788E-13 -0.71054273576E-14  0.18378875644E+04  0.20922288068E+04  0.99979531939E+03 0.  0.
         25    2    3    3    0    0 -0.75750045061E+01  0.38036241411E+02  0.67506095722E+02  0.14878799249E+03  0.12679375930E+03 0.  0.
         35    2    3    3    0    0  0.75750045061E+01 -0.38036241411E+02  0.17703814687E+04  0.19434408143E+04  0.80075434296E+03 0.  0.
         22    1    5    5    0    0  0.28034704767E+03 -0.30745249009E+03  0.84894547443E+03  0.94542578733E+03  0.00000000000E+00 0.  1.
         22    1    5    5    0    0 -0.27277204317E+03  0.26941624868E+03  0.92143599424E+03  0.99801502698E+03  0.00000000000E+00 0.  1.
          5    1    4    4  502    0 -0.49622176459E+02  0.97794200946E+01  0.81489424092E+02  0.96024026643E+02  0.47000000000E+01 0. -1.
         -5    1    4    4    0  502  0.42047171953E+02  0.28256821316E+02 -0.13983328369E+02  0.52763965852E+02  0.47000000000E+01 0. -1.
<mgrwt>
<rscale>  0 0.99979532E+03</rscale>
<asrwt>0</asrwt>
<pdfrwt beam="1">  1        2 0.30231662E+00 0.99979532E+03</pdfrwt>
<pdfrwt beam="2">  1       -2 0.19564712E-01 0.99979532E+03</pdfrwt>
<totfact> 0.18228566E+02</totfact>
</mgrwt>
</event>
<event>
 9    1  0.4488205E-036  0.9988486E+03  0.7818608E-02  0.8682135E-01
         -2   -1    0    0    0  501 -0.00000000000E+00  0.00000000000E+00  0.47309493614E+03  0.47309493614E+03  0.00000000000E+00 0.  1.
          2   -1    0    0  501    0  0.00000000000E+00 -0.00000000000E+00 -0.52721894467E+03  0.52721894467E+03  0.00000000000E+00 0.  1.
         36    2    1    2    0    0  0.33750779949E-13  0.00000000000E+00 -0.54124008527E+02  0.10003138808E+04  0.99884856301E+03 0.  0.
         25    2    3    3    0    0 -0.10061556861E+02  0.13847556443E+03 -0.62360845021E+01  0.18685521929E+03  0.12489702700E+03 0.  0.
         35    2    3    3    0    0  0.10061556861E+02 -0.13847556443E+03 -0.47887924025E+02  0.81345866152E+03  0.80009063478E+03 0.  0.
         22    1    5    5    0    0  0.40367821837E+03 -0.75806640957E+02 -0.57676491693E+02  0.41476418420E+03  0.00000000000E+00 0. -1.
         22    1    5    5    0    0 -0.39361666151E+03 -0.62668923471E+02  0.97885676686E+01  0.39869447732E+03  0.00000000000E+00 0. -1.
          5    1    4    4  502    0 -0.26640141943E+00  0.48947244933E+02  0.58068923263E+02  0.76092007499E+02  0.47000000000E+01 0. -1.
         -5    1    4    4    0  502 -0.97951554415E+01  0.89528319495E+02 -0.64305007765E+02  0.11076321179E+03  0.47000000000E+01 0. -1.
<mgrwt>
<rscale>  0 0.99884856E+03</rscale>
<asrwt>0</asrwt>
<pdfrwt beam="1">  1        2 0.81110607E-01 0.99884856E+03</pdfrwt>
<pdfrwt beam="2">  1       -2 0.72783837E-01 0.99884856E+03</pdfrwt>
<totfact> 0.11938266E+02</totfact>
</mgrwt>
</event>
<event>
 9    1  0.4488205E-036  0.1000111E+04  0.7818608E-02  0.8680932E-01
         -2   -1    0    0    0  501 -0.00000000000E+00  0.00000000000E+00  0.90100839799E+03  0.90100839799E+03  0.00000000000E+00 0.  1.
          2   -1    0    0  501    0  0.00000000000E+00 -0.00000000000E+00 -0.27752844706E+03  0.27752844706E+03  0.00000000000E+00 0.  1.
         36    2    1    2    0    0 -0.14210854715E-13 -0.14210854715E-13  0.62347995093E+03  0.11785368451E+04  0.10001109168E+04 0.  0.
         25    2    3    3    0    0  0.12077608820E+03 -0.68928415966E+02  0.99056015384E+02  0.21184260709E+03  0.12540815758E+03 0.  0.
         35    2    3    3    0    0 -0.12077608820E+03  0.68928415966E+02  0.52442393555E+03  0.96669423796E+03  0.80008705496E+03 0.  0.
         22    1    5    5    0    0 -0.68076219621E+02  0.43507923908E+03  0.31682023373E+03  0.54249735157E+03  0.00000000000E+00 0. -1.
         22    1    5    5    0    0 -0.52699868580E+02 -0.36615082312E+03  0.20760370181E+03  0.42419688639E+03  0.00000000000E+00 0. -1.
          5    1    4    4  502    0  0.99314687217E+02 -0.42323396358E+02  0.12749594724E+03  0.16712864368E+03  0.47000000000E+01 0.  1.
         -5    1    4    4    0  502  0.21461400984E+02 -0.26605019609E+02 -0.28439931851E+02  0.44713963415E+02  0.47000000000E+01 0.  1.
<mgrwt>
<rscale>  0 0.10001109E+04</rscale>
<asrwt>0</asrwt>
<pdfrwt beam="1">  1        2 0.42696685E-01 0.10001109E+04</pdfrwt>
<pdfrwt beam="2">  1       -2 0.13861667E+00 0.10001109E+04</pdfrwt>
<totfact> 0.50502747E+01</totfact>
</mgrwt>
</event>
<event>
 9    1  0.4488205E-036  0.1002721E+04  0.7818608E-02  0.8678451E-01
         -1   -1    0    0    0  501 -0.00000000000E+00  0.00000000000E+00  0.14865927574E+03  0.14865927574E+03  0.00000000000E+00 0. -1.
          1   -1    0    0  501    0  0.00000000000E+00 -0.00000000000E+00 -0.16908627075E+04  0.16908627075E+04  0.00000000000E+00 0. -1.
         36    2    1    2    0    0  0.00000000000E+00  0.28421709430E-13 -0.15422034317E+04  0.18395219832E+04  0.10027211486E+04 0.  0.
         25    2    3    3    0    0  0.11606791272E+03  0.67418653033E+02 -0.21138656668E+03  0.28062519813E+03  0.12668538241E+03 0.  0.
         35    2    3    3    0    0 -0.11606791272E+03 -0.67418653033E+02 -0.13308168650E+04  0.15588967851E+04  0.80066761086E+03 0.  0.
         22    1    5    5    0    0 -0.37603962458E+03 -0.28118171119E+03 -0.86481168422E+03  0.98405701213E+03  0.00000000000E+00 0.  1.
         22    1    5    5    0    0  0.25997171186E+03  0.21376305815E+03 -0.46600518083E+03  0.57483977294E+03  0.00000000000E+00 0.  1.
          5    1    4    4  502    0  0.71281693787E+02  0.78640491314E+02 -0.59420208243E+02  0.12173026695E+03  0.47000000000E+01 0. -1.
         -5    1    4    4    0  502  0.44786218930E+02 -0.11221838281E+02 -0.15196635843E+03  0.15889493118E+03  0.47000000000E+01 0. -1.
<mgrwt>
<rscale>  0 0.10027211E+04</rscale>
<asrwt>0</asrwt>
<pdfrwt beam="1">  1        1 0.26013273E+00 0.10027211E+04</pdfrwt>
<pdfrwt beam="2">  1       -1 0.22870657E-01 0.10027211E+04</pdfrwt>
<totfact> 0.84011336E+01</totfact>
</mgrwt>
</event>
<event>
 9    1  0.4488205E-036  0.1000505E+04  0.7818608E-02  0.8680557E-01
          2   -1    0    0  501    0  0.00000000000E+00  0.00000000000E+00  0.20944946014E+03  0.20944946014E+03  0.00000000000E+00 0.  1.
         -2   -1    0    0    0  501 -0.00000000000E+00 -0.00000000000E+00 -0.11948119290E+04  0.11948119290E+04  0.00000000000E+00 0.  1.
         36    2    1    2    0    0 -0.28421709430E-13  0.00000000000E+00 -0.98536246883E+03  0.14042613891E+04  0.10005052993E+04 0.  0.
         25    2    3    3    0    0  0.11039119691E+03  0.29375796962E+01 -0.61112458431E+02  0.17796386583E+03  0.12546537066E+03 0.  0.
         35    2    3    3    0    0 -0.11039119691E+03 -0.29375796962E+01 -0.92425001040E+03  0.12262975233E+04  0.79835624139E+03 0.  0.
         22    1    5    5    0    0  0.97489065301E+02 -0.10246036695E+03 -0.97920086168E+03  0.98936169936E+03  0.00000000000E+00 0.  1.
         22    1    5    5    0    0 -0.20788026221E+03  0.99522787252E+02  0.54950851284E+02  0.23693582392E+03  0.00000000000E+00 0.  1.
          5    1    4    4  502    0  0.12448803663E+03  0.36775179673E+02 -0.43132904892E+02  0.13686571006E+03  0.47000000000E+01 0.  1.
         -5    1    4    4    0  502 -0.14096839722E+02 -0.33837599977E+02 -0.17979553540E+02  0.41098155771E+02  0.47000000000E+01 0.  1.
<mgrwt>
<rscale>  0 0.10005053E+04</rscale>
<asrwt>0</asrwt>
<pdfrwt beam="1">  1        2 0.32222994E-01 0.10005053E+04</pdfrwt>
<pdfrwt beam="2">  1       -2 0.18381722E+00 0.10005053E+04</pdfrwt>
<totfact> 0.30855534E+01</totfact>
</mgrwt>
</event>
<event>
 9    1  0.4488205E-036  0.9983069E+03  0.7818608E-02  0.8682652E-01
          1   -1    0    0  501    0  0.00000000000E+00  0.00000000000E+00  0.75199670630E+03  0.75199670630E+03  0.00000000000E+00 0.  1.
         -1   -1    0    0    0  501 -0.00000000000E+00 -0.00000000000E+00 -0.33132351302E+03  0.33132351302E+03  0.00000000000E+00 0.  1.
         36    2    1    2    0    0  0.28421709430E-13  0.71054273576E-14  0.42067319328E+03  0.10833202193E+04  0.99830694780E+03 0.  0.
         25    2    3    3    0    0  0.64534931661E+02 -0.22106894513E+02  0.21057037102E+03  0.25359377328E+03  0.12375964005E+03 0.  0.
         35    2    3    3    0    0 -0.64534931661E+02  0.22106894513E+02  0.21010282227E+03  0.82972644604E+03  0.79978078693E+03 0.  0.
         22    1    5    5    0    0  0.28399827984E+03 -0.19651738897E+03  0.23470460758E+03  0.41756479730E+03  0.00000000000E+00 0. -1.
         22    1    5    5    0    0 -0.34853321150E+03  0.21862428348E+03 -0.24601785318E+02  0.41216164874E+03  0.00000000000E+00 0. -1.
          5    1    4    4  502    0  0.32966878072E+02 -0.28813277102E+02  0.21607762643E+03  0.22051904823E+03  0.47000000000E+01 0.  1.
         -5    1    4    4    0  502  0.31568053588E+02  0.67063825898E+01 -0.55072554152E+01  0.33074725048E+02  0.47000000000E+01 0.  1.
<mgrwt>
<rscale>  0 0.99830695E+03</rscale>
<asrwt>0</asrwt>
<pdfrwt beam="1">  1        1 0.11569180E+00 0.99830695E+03</pdfrwt>
<pdfrwt beam="2">  1       -1 0.50972848E-01 0.99830695E+03</pdfrwt>
<totfact> 0.10796040E+02</totfact>
</mgrwt>
</event>
<event>
 9    1  0.4488205E-036  0.1000868E+04  0.7818608E-02  0.8680212E-01
          2   -1    0    0  501    0  0.00000000000E+00  0.00000000000E+00  0.24785264479E+04  0.24785264479E+04  0.00000000000E+00 0. -1.
         -2   -1    0    0    0  501 -0.00000000000E+00 -0.00000000000E+00 -0.10104151073E+03  0.10104151073E+03  0.00000000000E+00 0. -1.
         36    2    1    2    0    0  0.00000000000E+00  0.31974423109E-13  0.23774849372E+04  0.25795679586E+04  0.10008677369E+04 0.  0.
         25    2    3    3    0    0  0.38992117188E+02  0.93018968669E+01  0.79101802330E+03  0.80186416242E+03  0.12517871744E+03 0.  0.
         35    2    3    3    0    0 -0.38992117188E+02 -0.93018968669E+01  0.15864669139E+04  0.17777037962E+04  0.80109088609E+03 0.  0.
         22    1    5    5    0    0 -0.53180804721E+01  0.33109745246E+03  0.12673576838E+04  0.13099043108E+04  0.00000000000E+00 0.  1.
         22    1    5    5    0    0 -0.33674036716E+02 -0.34039934932E+03  0.31910923014E+03  0.46779948538E+03  0.00000000000E+00 0.  1.
          5    1    4    4  502    0  0.37425836159E+02 -0.30154922325E+02  0.70972312228E+03  0.71136419143E+03  0.47000000000E+01 0.  1.
         -5    1    4    4    0  502  0.15662810286E+01  0.39456819192E+02  0.81294901018E+02  0.90499970987E+02  0.47000000000E+01 0.  1.
<mgrwt>
<rscale>  0 0.10008677E+04</rscale>
<asrwt>0</asrwt>
<pdfrwt beam="1">  1        2 0.38131172E+00 0.10008677E+04</pdfrwt>
<pdfrwt beam="2">  1       -2 0.15544850E-01 0.10008677E+04</pdfrwt>
<totfact> 0.13515364E+02</totfact>
</mgrwt>
</event>
<event>
 9    1  0.4488205E-036  0.1000158E+04  0.7818608E-02  0.8680888E-01
          2   -1    0    0  501    0  0.00000000000E+00  0.00000000000E+00  0.61081657304E+03  0.61081657304E+03  0.00000000000E+00 0. -1.
         -2   -1    0    0    0  501 -0.00000000000E+00 -0.00000000000E+00 -0.40941717750E+03  0.40941717750E+03  0.00000000000E+00 0. -1.
         36    2    1    2    0    0  0.00000000000E+00  0.49737991503E-13  0.20139939555E+03  0.10202337505E+04  0.10001575822E+04 0.  0.
         25    2    3    3    0    0  0.11037272134E+03 -0.33041116856E+02  0.11925025985E+03  0.20770669100E+03  0.12509033532E+03 0.  0.
         35    2    3    3    0    0 -0.11037272134E+03  0.33041116856E+02  0.82149135698E+02  0.81252705954E+03  0.80011117288E+03 0.  0.
         22    1    5    5    0    0  0.48285770920E+02  0.39716771198E+03 -0.25815223927E+02  0.40092409868E+03  0.00000000000E+00 0.  1.
         22    1    5    5    0    0 -0.15865849226E+03 -0.36412659513E+03  0.10796435963E+03  0.41160296087E+03  0.00000000000E+00 0.  1.
          5    1    4    4  502    0  0.17701952631E+02  0.12845008641E+02 -0.22799058644E+02  0.31941202999E+02  0.47000000000E+01 0. -1.
         -5    1    4    4    0  502  0.92670768712E+02 -0.45886125497E+02  0.14204931849E+03  0.17576548800E+03  0.47000000000E+01 0. -1.
<mgrwt>
<rscale>  0 0.10001576E+04</rscale>
<asrwt>0</asrwt>
<pdfrwt beam="1">  1        2 0.93971781E-01 0.10001576E+04</pdfrwt>
<pdfrwt beam="2">  1       -2 0.62987258E-01 0.10001576E+04</pdfrwt>
<totfact> 0.13714496E+02</totfact>
</mgrwt>
</event>
<event>
 9    1  0.4488205E-036  0.1000049E+04  0.7818608E-02  0.8680991E-01
         -2   -1    0    0    0  501 -0.00000000000E+00  0.00000000000E+00  0.30481694906E+03  0.30481694906E+03  0.00000000000E+00 0. -1.
          2   -1    0    0  501    0  0.00000000000E+00 -0.00000000000E+00 -0.82024458616E+03  0.82024458616E+03  0.00000000000E+00 0. -1.
         36    2    1    2    0    0  0.00000000000E+00  0.00000000000E+00 -0.51542763710E+03  0.11250615352E+04  0.10000489033E+04 0.  0.
         25    2    3    3    0    0 -0.33067833135E+02  0.62511975333E+02 -0.22713957201E+03  0.26850594271E+03  0.12450633498E+03 0.  0.
         35    2    3    3    0    0  0.33067833135E+02 -0.62511975333E+02 -0.28828806509E+03  0.85655559250E+03  0.80347759516E+03 0.  0.
         22    1    5    5    0    0  0.46135876901E+02 -0.92783588904E+02 -0.56675180127E+03  0.57614661133E+03  0.00000000000E+00 0. -1.
         22    1    5    5    0    0 -0.13068043766E+02  0.30271613571E+02  0.27846373618E+03  0.28040898117E+03  0.00000000000E+00 0. -1.
          5    1    4    4  502    0  0.39587153403E+02  0.29242638296E+02 -0.35634186916E+02  0.60943907704E+02  0.47000000000E+01 0.  1.
         -5    1    4    4    0  502 -0.72654986538E+02  0.33269337037E+02 -0.19150538509E+03  0.20756203501E+03  0.47000000000E+01 0.  1.
<mgrwt>
<rscale>  0 0.10000489E+04</rscale>
<asrwt>0</asrwt>
<pdfrwt beam="1">  1        2 0.12619148E+00 0.10000489E+04</pdfrwt>
<pdfrwt beam="2">  1       -2 0.46894914E-01 0.10000489E+04</pdfrwt>
<totfact> 0.17377803E+02</totfact>
</mgrwt>
</event>
<event>
 9    1  0.4488205E-036  0.9996058E+03  0.7818608E-02  0.8681413E-01
          2   -1    0    0  501    0  0.00000000000E+00  0.00000000000E+00  0.84484895834E+03  0.84484895834E+03  0.00000000000E+00 0.  1.
         -2   -1    0    0    0  501 -0.00000000000E+00 -0.00000000000E+00 -0.29567762866E+03  0.29567762866E+03  0.00000000000E+00 0.  1.
         36    2    1    2    0    0 -0.42632564146E-13  0.00000000000E+00  0.54917132969E+03  0.11405265870E+04  0.99960579545E+03 0.  0.
         25    2    3    3    0    0  0.10709877264E+03 -0.82744486576E+02  0.11651683762E+03  0.22125702100E+03  0.13062043766E+03 0.  0.
         35    2    3    3    0    0 -0.10709877264E+03  0.82744486576E+02  0.43265449207E+03  0.91926956600E+03  0.79971859319E+03 0.  0.
         22    1    5    5    0    0 -0.29772000027E+03  0.87920866464E+02  0.59351168431E+03  0.66979354785E+03  0.00000000000E+00 0.  1.
         22    1    5    5    0    0  0.19062122763E+03 -0.51763798878E+01 -0.16085719225E+03  0.24947601815E+03  0.00000000000E+00 0.  1.
          5    1    4    4  502    0  0.76126493329E+02 -0.99150215286E+02  0.31233335202E+02  0.12893261576E+03  0.47000000000E+01 0.  1.
         -5    1    4    4    0  502  0.30972279312E+02  0.16405728710E+02  0.85283502416E+02  0.92324405249E+02  0.47000000000E+01 0.  1.
<mgrwt>
<rscale>  0 0.99960580E+03</rscale>
<asrwt>0</asrwt>
<pdfrwt beam="1">  1        2 0.12997676E+00 0.99960580E+03</pdfrwt>
<pdfrwt beam="2">  1       -2 0.45488866E-01 0.99960580E+03</pdfrwt>
<totfact> 0.17748057E+02</totfact>
</mgrwt>
</event>
<event>
 9    1  0.4488205E-036  0.1000125E+04  0.7818608E-02  0.8680919E-01
         -2   -1    0    0    0  501 -0.00000000000E+00  0.00000000000E+00  0.14755133224E+03  0.14755133224E+03  0.00000000000E+00 0.  1.
          2   -1    0    0  501    0  0.00000000000E+00 -0.00000000000E+00 -0.16947487005E+04  0.16947487005E+04  0.00000000000E+00 0.  1.
         36    2    1    2    0    0  0.42632564146E-13  0.71054273576E-14 -0.15471973683E+04  0.18423000327E+04  0.10001248494E+04 0.  0.
         25    2    3    3    0    0 -0.82335255385E+02  0.40530258775E+02 -0.93057556075E+02  0.18161272526E+03  0.12610185201E+03 0.  0.
         35    2    3    3    0    0  0.82335255385E+02 -0.40530258775E+02 -0.14541398122E+04  0.16606873075E+04  0.79682993398E+03 0.  0.
         22    1    5    5    0    0  0.30413207294E+03  0.10186893571E+03 -0.19742547391E+03  0.37663034344E+03  0.00000000000E+00 0. -1.
         22    1    5    5    0    0 -0.22179681755E+03 -0.14239919448E+03 -0.12567143383E+04  0.12840569640E+04  0.00000000000E+00 0. -1.
          5    1    4    4  502    0 -0.80902478831E+02  0.78961337824E+02 -0.86258133496E+02  0.14227670064E+03  0.47000000000E+01 0.  1.
         -5    1    4    4    0  502 -0.14327765537E+01 -0.38431079049E+02 -0.67994225789E+01  0.39336024620E+02  0.47000000000E+01 0.  1.
<mgrwt>
<rscale>  0 0.10001248E+04</rscale>
<asrwt>0</asrwt>
<pdfrwt beam="1">  1        2 0.26073058E+00 0.10001248E+04</pdfrwt>
<pdfrwt beam="2">  1       -2 0.22700204E-01 0.10001248E+04</pdfrwt>
<totfact> 0.20006562E+02</totfact>
</mgrwt>
</event>
<event>
 9    1  0.4488205E-036  0.1000062E+04  0.7818608E-02  0.8680979E-01
         -1   -1    0    0    0  501 -0.00000000000E+00  0.00000000000E+00  0.46577840358E+03  0.46577840358E+03  0.00000000000E+00 0.  1.
          1   -1    0    0  501    0  0.00000000000E+00 -0.00000000000E+00 -0.53680228669E+03  0.53680228669E+03  0.00000000000E+00 0.  1.
         36    2    1    2    0    0  0.14210854715E-13  0.00000000000E+00 -0.71023883107E+02  0.10025806903E+04  0.10000618223E+04 0.  0.
         25    2    3    3    0    0  0.11055186812E+03  0.38642348942E+02  0.66568376975E+02  0.18216305810E+03  0.12262578948E+03 0.  0.
         35    2    3    3    0    0 -0.11055186812E+03 -0.38642348942E+02 -0.13759226008E+03  0.82041763217E+03  0.80027402461E+03 0.  0.
         22    1    5    5    0    0  0.21360968481E+02 -0.40492000510E+03  0.58489741429E+01  0.40552522980E+03  0.00000000000E+00 0.  1.
         22    1    5    5    0    0 -0.13191283660E+03  0.36627765616E+03 -0.14344123422E+03  0.41489240236E+03  0.00000000000E+00 0.  1.
          5    1    4    4  502    0  0.10187139999E+03 -0.18521334334E+02  0.15351000676E+02  0.10477864851E+03  0.47000000000E+01 0.  1.
         -5    1    4    4    0  502  0.86804681307E+01  0.57163683276E+02  0.51217376298E+02  0.77384409589E+02  0.47000000000E+01 0.  1.
<mgrwt>
<rscale>  0 0.10000618E+04</rscale>
<asrwt>0</asrwt>
<pdfrwt beam="1">  1        1 0.82584967E-01 0.10000618E+04</pdfrwt>
<pdfrwt beam="2">  1       -1 0.71658216E-01 0.10000618E+04</pdfrwt>
<totfact> 0.92675879E+01</totfact>
</mgrwt>
</event>
<event>
 9    1  0.4488205E-036  0.9977545E+03  0.7818608E-02  0.8683179E-01
         -2   -1    0    0    0  501 -0.00000000000E+00  0.00000000000E+00  0.33772557822E+03  0.33772557822E+03  0.00000000000E+00 0.  1.
          2   -1    0    0  501    0  0.00000000000E+00 -0.00000000000E+00 -0.73692528475E+03  0.73692528475E+03  0.00000000000E+00 0.  1.
         36    2    1    2    0    0  0.00000000000E+00  0.14210854715E-13 -0.39919970653E+03  0.10746508630E+04  0.99775451468E+03 0.  0.
         25    2    3    3    0    0 -0.85594022764E+02 -0.11371372137E+03 -0.90154566443E+02  0.20555387004E+03  0.11775992730E+03 0.  0.
         35    2    3    3    0    0  0.85594022764E+02  0.11371372137E+03 -0.30904514009E+03  0.86909699292E+03  0.79972716431E+03 0.  0.
         22    1    5    5    0    0 -0.24762927593E+03  0.19141867411E+03 -0.40677361504E+03  0.51325056356E+03  0.00000000000E+00 0.  1.
         22    1    5    5    0    0  0.33322329869E+03 -0.77704952741E+02  0.97728474955E+02  0.35584642936E+03  0.00000000000E+00 0.  1.
          5    1    4    4  502    0 -0.10024289996E+03 -0.12684711427E+03 -0.67723725593E+02  0.17534942942E+03  0.47000000000E+01 0. -1.
         -5    1    4    4    0  502  0.14648877195E+02  0.13133392897E+02 -0.22430840850E+02  0.30204440622E+02  0.47000000000E+01 0. -1.
<mgrwt>
<rscale>  0 0.99775451E+03</rscale>
<asrwt>0</asrwt>
<pdfrwt beam="1">  1        2 0.11337312E+00 0.99775451E+03</pdfrwt>
<pdfrwt beam="2">  1       -2 0.51957781E-01 0.99775451E+03</pdfrwt>
<totfact> 0.16239407E+02</totfact>
</mgrwt>
</event>
<event>
 9    1  0.4488205E-036  0.1004825E+04  0.7818608E-02  0.8676456E-01
          2   -1    0    0  501    0  0.00000000000E+00  0.00000000000E+00  0.74280826600E+03  0.74280826600E+03  0.00000000000E+00 0.  1.
         -2   -1    0    0    0  501 -0.00000000000E+00 -0.00000000000E+00 -0.33981653322E+03  0.33981653322E+03  0.00000000000E+00 0.  1.
         36    2    1    2    0    0  0.00000000000E+00  0.00000000000E+00  0.40299173279E+03  0.10826247992E+04  0.10048254173E+04 0.  0.
         25    2    3    3    0    0  0.27464642383E+02  0.14419409697E+03  0.10827890122E+03  0.21312827955E+03  0.11024109448E+03 0.  0.
         35    2    3    3    0    0 -0.27464642383E+02 -0.14419409697E+03  0.29471283157E+03  0.86949651968E+03  0.80474983719E+03 0.  0.
         22    1    5    5    0    0  0.43142153011E+02 -0.40015079643E+03 -0.79905745212E+02  0.41032527752E+03  0.00000000000E+00 0.  1.
         22    1    5    5    0    0 -0.70606795395E+02  0.25595669946E+03  0.37461857678E+03  0.45917124216E+03  0.00000000000E+00 0.  1.
          5    1    4    4  502    0  0.69720173250E+02  0.92835704371E+02  0.59704723204E+02  0.13063733975E+03  0.47000000000E+01 0.  1.
         -5    1    4    4    0  502 -0.42255530867E+02  0.51358392595E+02  0.48574178012E+02  0.82490939795E+02  0.47000000000E+01 0.  1.
<mgrwt>
<rscale>  0 0.10048254E+04</rscale>
<asrwt>0</asrwt>
<pdfrwt beam="1">  1        2 0.11427819E+00 0.10048254E+04</pdfrwt>
<pdfrwt beam="2">  1       -2 0.52279467E-01 0.10048254E+04</pdfrwt>
<totfact> 0.15876408E+02</totfact>
</mgrwt>
</event>
<event>
 9    1  0.4488205E-036  0.1000005E+04  0.7818608E-02  0.8681033E-01
          2   -1    0    0  501    0  0.00000000000E+00  0.00000000000E+00  0.28819930214E+03  0.28819930214E+03  0.00000000000E+00 0.  1.
         -2   -1    0    0    0  501 -0.00000000000E+00 -0.00000000000E+00 -0.86746361679E+03  0.86746361679E+03  0.00000000000E+00 0.  1.
         36    2    1    2    0    0 -0.42632564146E-13  0.00000000000E+00 -0.57926431465E+03  0.11556629189E+04  0.10000048180E+04 0.  0.
         25    2    3    3    0    0  0.10499003920E+03  0.84073471420E+02 -0.15619199349E+03  0.24119619654E+03  0.12525338107E+03 0.  0.
         35    2    3    3    0    0 -0.10499003920E+03 -0.84073471420E+02 -0.42307232116E+03  0.91446672238E+03  0.79947979367E+03 0.  0.
         22    1    5    5    0    0 -0.42454023719E+03 -0.17836947490E+03 -0.33618881929E+03  0.57015173839E+03  0.00000000000E+00 0. -1.
         22    1    5    5    0    0  0.31955019799E+03  0.94296003484E+02 -0.86883501866E+02  0.34431498400E+03  0.00000000000E+00 0. -1.
          5    1    4    4  502    0  0.12607641933E+03  0.94683948777E+02 -0.14640565821E+03  0.21521389459E+03  0.47000000000E+01 0. -1.
         -5    1    4    4    0  502 -0.21086380130E+02 -0.10610477357E+02 -0.97863352761E+01  0.25982301954E+02  0.47000000000E+01 0. -1.
<mgrwt>
<rscale>  0 0.10000048E+04</rscale>
<asrwt>0</asrwt>
<pdfrwt beam="1">  1        2 0.44338355E-01 0.10000048E+04</pdfrwt>
<pdfrwt beam="2">  1       -2 0.13345594E+00 0.10000048E+04</pdfrwt>
<totfact> 0.53674415E+01</totfact>
</mgrwt>
</event>
<event>
 9    1  0.4488205E-036  0.1001094E+04  0.7818608E-02  0.8679997E-01
          1   -1    0    0  501    0  0.00000000000E+00  0.00000000000E+00  0.26395782397E+03  0.26395782397E+03  0.00000000000E+00 0.  1.
         -1   -1    0    0    0  501 -0.00000000000E+00 -0.00000000000E+00 -0.94919361691E+03  0.94919361691E+03  0.00000000000E+00 0.  1.
         36    2    1    2    0    0  0.00000000000E+00  0.14210854715E-13 -0.68523579294E+03  0.12131514409E+04  0.10010935654E+04 0.  0.
         25    2    3    3    0    0  0.74840480923E+02 -0.11112659366E+03 -0.17632034786E+03  0.25541763596E+03  0.12727563116E+03 0.  0.
         35    2    3    3    0    0 -0.74840480923E+02  0.11112659366E+03 -0.50891544508E+03  0.95773380493E+03  0.80019303512E+03 0.  0.
         22    1    5    5    0    0 -0.15463064539E+03  0.39936234712E+03 -0.50026464513E+03  0.65853294219E+03  0.00000000000E+00 0.  1.
         22    1    5    5    0    0  0.79790164469E+02 -0.28823575346E+03 -0.86507999570E+01  0.29920086273E+03  0.00000000000E+00 0.  1.
          5    1    4    4  502    0  0.76712394736E+02 -0.12392532065E+03 -0.18761003795E+03  0.23761711416E+03  0.47000000000E+01 0. -1.
         -5    1    4    4    0  502 -0.18719138131E+01  0.12798726992E+02  0.11289690088E+02  0.17800521796E+02  0.47000000000E+01 0. -1.
<mgrwt>
<rscale>  0 0.10010936E+04</rscale>
<asrwt>0</asrwt>
<pdfrwt beam="1">  1        1 0.40608897E-01 0.10010936E+04</pdfrwt>
<pdfrwt beam="2">  1       -1 0.14602979E+00 0.10010936E+04</pdfrwt>
<totfact> 0.45858786E+01</totfact>
</mgrwt>
</event>
<event>
 9    1  0.4488205E-036  0.1000132E+04  0.7818608E-02  0.8680913E-01
          1   -1    0    0  501    0  0.00000000000E+00  0.00000000000E+00  0.75194519437E+03  0.75194519437E+03  0.00000000000E+00 0.  1.
         -1   -1    0    0    0  501 -0.00000000000E+00 -0.00000000000E+00 -0.33255854439E+03  0.33255854439E+03  0.00000000000E+00 0.  1.
         36    2    1    2    0    0  0.00000000000E+00  0.42632564146E-13  0.41938664998E+03  0.10845037388E+04  0.10001315899E+04 0.  0.
         25    2    3    3    0    0  0.47134867568E+02  0.80934579776E+02 -0.33772518240E+02  0.15993336233E+03  0.12516387440E+03 0.  0.
         35    2    3    3    0    0 -0.47134867568E+02 -0.80934579776E+02  0.45315916822E+03  0.92457037643E+03  0.80044053326E+03 0.  0.
         22    1    5    5    0    0 -0.12357938275E+03 -0.39035285691E+03  0.44645278676E+03  0.60577826599E+03  0.00000000000E+00 0.  1.
         22    1    5    5    0    0  0.76444515179E+02  0.30941827714E+03  0.67063814593E+01  0.31879211044E+03  0.00000000000E+00 0.  1.
          5    1    4    4  502    0  0.49278077484E+00  0.42324032338E+02  0.44015346757E+02  0.61245467557E+02  0.47000000000E+01 0. -1.
         -5    1    4    4    0  502  0.46642086794E+02  0.38610547438E+02 -0.77787864997E+02  0.98687894773E+02  0.47000000000E+01 0. -1.
<mgrwt>
<rscale>  0 0.10001316E+04</rscale>
<asrwt>0</asrwt>
<pdfrwt beam="1">  1        1 0.11568388E+00 0.10001316E+04</pdfrwt>
<pdfrwt beam="2">  1       -1 0.51162853E-01 0.10001316E+04</pdfrwt>
<totfact> 0.10721149E+02</totfact>
</mgrwt>
</event>
<event>
 9    1  0.4488205E-036  0.1000866E+04  0.7818608E-02  0.8680214E-01
          2   -1    0    0  501    0  0.00000000000E+00  0.00000000000E+00  0.20103146971E+04  0.20103146971E+04  0.00000000000E+00 0. -1.
         -2   -1    0    0    0  501 -0.00000000000E+00 -0.00000000000E+00 -0.12457415935E+03  0.12457415935E+03  0.00000000000E+00 0. -1.
         36    2    1    2    0    0  0.00000000000E+00  0.00000000000E+00  0.18857405377E+04  0.21348888564E+04  0.10008661517E+04 0.  0.
         25    2    3    3    0    0  0.75384478121E+02  0.11862467327E+03  0.33440199470E+03  0.38372370774E+03  0.12515812867E+03 0.  0.
         35    2    3    3    0    0 -0.75384478121E+02 -0.11862467327E+03  0.15513385430E+04  0.17511651487E+04  0.80010841155E+03 0.  0.
         22    1    5    5    0    0 -0.10388077023E+03 -0.43204603337E+03  0.11992338333E+04  0.12789123411E+04  0.00000000000E+00 0. -1.
         22    1    5    5    0    0  0.28496292112E+02  0.31342136010E+03  0.35210470975E+03  0.47225280757E+03  0.00000000000E+00 0. -1.
          5    1    4    4  502    0  0.43577010032E+02 -0.14012096521E+02  0.48152219983E+02  0.66603460432E+02  0.47000000000E+01 0.  1.
         -5    1    4    4    0  502  0.31807468089E+02  0.13263676979E+03  0.28624977471E+03  0.31712024730E+03  0.47000000000E+01 0.  1.
<mgrwt>
<rscale>  0 0.10008662E+04</rscale>
<asrwt>0</asrwt>
<pdfrwt beam="1">  1        2 0.30927916E+00 0.10008662E+04</pdfrwt>
<pdfrwt beam="2">  1       -2 0.19165257E-01 0.10008662E+04</pdfrwt>
<totfact> 0.17800566E+02</totfact>
</mgrwt>
</event>
<event>
 9    1  0.4488205E-036  0.1000009E+04  0.7818608E-02  0.8681029E-01
          2   -1    0    0  501    0  0.00000000000E+00  0.00000000000E+00  0.50966114390E+03  0.50966114390E+03  0.00000000000E+00 0. -1.
         -2   -1    0    0    0  501 -0.00000000000E+00 -0.00000000000E+00 -0.49053117146E+03  0.49053117146E+03  0.00000000000E+00 0. -1.
         36    2    1    2    0    0 -0.71054273576E-14  0.00000000000E+00  0.19129972433E+02  0.10001923154E+04  0.10000093559E+04 0.  0.
         25    2    3    3    0    0 -0.26486711166E+02 -0.44413249498E+02 -0.12793978066E+03  0.18553091205E+03  0.12401229476E+03 0.  0.
         35    2    3    3    0    0  0.26486711166E+02  0.44413249498E+02  0.14706975310E+03  0.81466140331E+03  0.79960590741E+03 0.  0.
         22    1    5    5    0    0  0.39864960521E+03 -0.46613459862E+02 -0.77234910916E+01  0.40143987680E+03  0.00000000000E+00 0. -1.
         22    1    5    5    0    0 -0.37216289404E+03  0.91026709360E+02  0.15479324419E+03  0.41322152650E+03  0.00000000000E+00 0. -1.
          5    1    4    4  502    0  0.42461802511E+00  0.42626042063E+02 -0.46272203912E+02  0.63090146753E+02  0.47000000000E+01 0. -1.
         -5    1    4    4    0  502 -0.26911329191E+02 -0.87039291561E+02 -0.81667576752E+02  0.12244076530E+03  0.47000000000E+01 0. -1.
<mgrwt>
<rscale>  0 0.10000094E+04</rscale>
<asrwt>0</asrwt>
<pdfrwt beam="1">  1        2 0.78409407E-01 0.10000094E+04</pdfrwt>
<pdfrwt beam="2">  1       -2 0.75466334E-01 0.10000094E+04</pdfrwt>
<totfact> 0.11455748E+02</totfact>
</mgrwt>
</event>
<event>
 9    1  0.4488205E-036  0.1001437E+04  0.7818608E-02  0.8679670E-01
          1   -1    0    0  501    0  0.00000000000E+00  0.00000000000E+00  0.73860816537E+03  0.73860816537E+03  0.00000000000E+00 0.  1.
         -1   -1    0    0    0  501 -0.00000000000E+00 -0.00000000000E+00 -0.33944825234E+03  0.33944825234E+03  0.00000000000E+00 0.  1.
         36    2    1    2    0    0  0.28421709430E-13  0.71054273576E-14  0.39915991303E+03  0.10780564177E+04  0.10014374686E+04 0.  0.
         25    2    3    3    0    0  0.12252024828E+03  0.37696507480E+02  0.12595830888E+02  0.17940882018E+03  0.12488647599E+03 0.  0.
         35    2    3    3    0    0 -0.12252024828E+03 -0.37696507480E+02  0.38656408214E+03  0.89864759753E+03  0.80106396562E+03 0.  0.
         22    1    5    5    0    0  0.99787653288E+02 -0.19664456597E+03  0.54137232256E+03  0.58456022163E+03  0.00000000000E+00 0. -1.
         22    1    5    5    0    0 -0.22230790157E+03  0.15894805849E+03 -0.15480824041E+03  0.31408737590E+03  0.00000000000E+00 0. -1.
          5    1    4    4  502    0  0.67734296790E+02 -0.38321392774E+02  0.30818005349E+02  0.83834978139E+02  0.47000000000E+01 0.  1.
         -5    1    4    4    0  502  0.54785951494E+02  0.76017900254E+02 -0.18222174461E+02  0.95573842040E+02  0.47000000000E+01 0.  1.
<mgrwt>
<rscale>  0 0.10014375E+04</rscale>
<asrwt>0</asrwt>
<pdfrwt beam="1">  1        1 0.11363203E+00 0.10014375E+04</pdfrwt>
<pdfrwt beam="2">  1       -1 0.52222808E-01 0.10014375E+04</pdfrwt>
<totfact> 0.10613780E+02</totfact>
</mgrwt>
</event>
<event>
 9    1  0.4488205E-036  0.1011637E+04  0.7818608E-02  0.8670035E-01
         -2   -1    0    0    0  501 -0.00000000000E+00  0.00000000000E+00  0.41306345729E+03  0.41306345729E+03  0.00000000000E+00 0.  1.
          2   -1    0    0  501    0  0.00000000000E+00 -0.00000000000E+00 -0.61940174973E+03  0.61940174973E+03  0.00000000000E+00 0.  1.
         36    2    1    2    0    0 -0.14210854715E-13  0.00000000000E+00 -0.20633829243E+03  0.10324652070E+04  0.10116367494E+04 0.  0.
         25    2    3    3    0    0  0.60105641155E+02 -0.13994734503E+03 -0.28569883402E+02  0.19920303588E+03  0.12517053881E+03 0.  0.
         35    2    3    3    0    0 -0.60105641155E+02  0.13994734503E+03 -0.17776840903E+03  0.83326217114E+03  0.79970387715E+03 0.  0.
         22    1    5    5    0    0 -0.37734684915E+03  0.13037375565E+03 -0.29341932686E+03  0.49546227112E+03  0.00000000000E+00 0. -1.
         22    1    5    5    0    0  0.31724120800E+03  0.95735893801E+01  0.11565091783E+03  0.33779990003E+03  0.00000000000E+00 0. -1.
          5    1    4    4  502    0  0.67257404946E+02 -0.25943936381E+02  0.20047219722E+02  0.74970843490E+02  0.47000000000E+01 0. -1.
         -5    1    4    4    0  502 -0.71517637905E+01 -0.11400340865E+03 -0.48617103124E+02  0.12423219239E+03  0.47000000000E+01 0. -1.
<mgrwt>
<rscale>  0 0.10116367E+04</rscale>
<asrwt>0</asrwt>
<pdfrwt beam="1">  1        2 0.95292577E-01 0.10116367E+04</pdfrwt>
<pdfrwt beam="2">  1       -2 0.63548224E-01 0.10116367E+04</pdfrwt>
<totfact> 0.13233946E+02</totfact>
</mgrwt>
</event>
<event>
 9    1  0.4488205E-036  0.1001086E+04  0.7818608E-02  0.8680005E-01
          2   -1    0    0  501    0  0.00000000000E+00  0.00000000000E+00  0.24720357240E+04  0.24720357240E+04  0.00000000000E+00 0.  1.
         -2   -1    0    0    0  501 -0.00000000000E+00 -0.00000000000E+00 -0.10135094875E+03  0.10135094875E+03  0.00000000000E+00 0.  1.
         36    2    1    2    0    0  0.28421709430E-13  0.00000000000E+00  0.23706847753E+04  0.25733866728E+04  0.10010857425E+04 0.  0.
         25    2    3    3    0    0 -0.87464773804E+02  0.50935670553E+02  0.70194087086E+03  0.72014398859E+03  0.12506737756E+03 0.  0.
         35    2    3    3    0    0  0.87464773804E+02 -0.50935670553E+02  0.16687439044E+04  0.18532426842E+04  0.79972351394E+03 0.  0.
         22    1    5    5    0    0  0.28206656071E+03 -0.89015193364E+01  0.16251051545E+04  0.16494264291E+04  0.00000000000E+00 0. -1.
         22    1    5    5    0    0 -0.19460178691E+03 -0.42034151217E+02  0.43638749860E+02  0.20381625506E+03  0.00000000000E+00 0. -1.
          5    1    4    4  502    0  0.19800475471E+02 -0.22545713899E+02  0.15425291713E+03  0.15721456831E+03  0.47000000000E+01 0. -1.
         -5    1    4    4    0  502 -0.10726524928E+03  0.73481384453E+02  0.54768795373E+03  0.56292942028E+03  0.47000000000E+01 0. -1.
<mgrwt>
<rscale>  0 0.10010857E+04</rscale>
<asrwt>0</asrwt>
<pdfrwt beam="1">  1        2 0.38031314E+00 0.10010857E+04</pdfrwt>
<pdfrwt beam="2">  1       -2 0.15592456E-01 0.10010857E+04</pdfrwt>
<totfact> 0.13568278E+02</totfact>
</mgrwt>
</event>
<event>
 9    1  0.4488205E-036  0.9999560E+03  0.7818608E-02  0.8681080E-01
          2   -1    0    0  501    0  0.00000000000E+00  0.00000000000E+00  0.82352516873E+03  0.82352516873E+03  0.00000000000E+00 0. -1.
         -2   -1    0    0    0  501 -0.00000000000E+00 -0.00000000000E+00 -0.30354630117E+03  0.30354630117E+03  0.00000000000E+00 0. -1.
         36    2    1    2    0    0  0.14210854715E-13  0.00000000000E+00  0.51997886756E+03  0.11270714699E+04  0.99995603681E+03 0.  0.
         25    2    3    3    0    0 -0.72135986290E+02 -0.96375491061E+02  0.18152092658E+03  0.25098579735E+03  0.12470841147E+03 0.  0.
         35    2    3    3    0    0  0.72135986290E+02  0.96375491061E+02  0.33845794098E+03  0.87608567255E+03  0.79904974316E+03 0.  0.
         22    1    5    5    0    0 -0.74298074680E+02 -0.36601431292E+02 -0.24573320594E+03  0.25931578659E+03  0.00000000000E+00 0.  1.
         22    1    5    5    0    0  0.14643406097E+03  0.13297692235E+03  0.58419114692E+03  0.61676988596E+03  0.00000000000E+00 0.  1.
          5    1    4    4  502    0 -0.10776225505E+03 -0.70834747257E+02  0.12992448895E+03  0.18311943605E+03  0.47000000000E+01 0. -1.
         -5    1    4    4    0  502  0.35626268757E+02 -0.25540743804E+02  0.51596437633E+02  0.67866361300E+02  0.47000000000E+01 0. -1.
<mgrwt>
<rscale>  0 0.99995604E+03</rscale>
<asrwt>0</asrwt>
<pdfrwt beam="1">  1        2 0.12669618E+00 0.99995604E+03</pdfrwt>
<pdfrwt beam="2">  1       -2 0.46699431E-01 0.99995604E+03</pdfrwt>
<totfact> 0.17430535E+02</totfact>
</mgrwt>
</event>
<event>
 9    1  0.4488205E-036  0.9996605E+03  0.7818608E-02  0.8681361E-01
          1   -1    0    0  501    0  0.00000000000E+00  0.00000000000E+00  0.10687769649E+04  0.10687769649E+04  0.00000000000E+00 0. -1.
         -1   -1    0    0    0  501 -0.00000000000E+00 -0.00000000000E+00 -0.23375344981E+03  0.23375344981E+03  0.00000000000E+00 0. -1.
         36    2    1    2    0    0  0.00000000000E+00  0.42632564146E-13  0.83502351512E+03  0.13025304147E+04  0.99966054765E+03 0.  0.
         25    2    3    3    0    0  0.46143654708E+02  0.76262189144E+02  0.29771975433E+03  0.33502585433E+03  0.12514037153E+03 0.  0.
         35    2    3    3    0    0 -0.46143654708E+02 -0.76262189144E+02  0.53730376079E+03  0.96750456041E+03  0.79964028456E+03 0.  0.
         22    1    5    5    0    0  0.14538893096E+03 -0.37301622617E+03  0.11412255254E+03  0.41629677302E+03  0.00000000000E+00 0. -1.
         22    1    5    5    0    0 -0.19153258567E+03  0.29675403702E+03  0.42318120825E+03  0.55120778739E+03  0.00000000000E+00 0. -1.
          5    1    4    4  502    0 -0.28780029784E+02 -0.16861534588E+02  0.75023916525E+02  0.82239160464E+02  0.47000000000E+01 0.  1.
         -5    1    4    4    0  502  0.74923684492E+02  0.93123723731E+02  0.22269583781E+03  0.25278669387E+03  0.47000000000E+01 0.  1.
<mgrwt>
<rscale>  0 0.99966055E+03</rscale>
<asrwt>0</asrwt>
<pdfrwt beam="1">  1        1 0.16442722E+00 0.99966055E+03</pdfrwt>
<pdfrwt beam="2">  1       -1 0.35962070E-01 0.99966055E+03</pdfrwt>
<totfact> 0.11016669E+02</totfact>
</mgrwt>
</event>
<event>
 9    1  0.4488205E-036  0.1000425E+04  0.7818608E-02  0.8680634E-01
         -1   -1    0    0    0  501 -0.00000000000E+00  0.00000000000E+00  0.14479579016E+03  0.14479579016E+03  0.00000000000E+00 0.  1.
          1   -1    0    0  501    0  0.00000000000E+00 -0.00000000000E+00 -0.17280367494E+04  0.17280367494E+04  0.00000000000E+00 0.  1.
         36    2    1    2    0    0  0.14210854715E-13  0.00000000000E+00 -0.15832409592E+04  0.18728325395E+04  0.10004248029E+04 0.  0.
         25    2    3    3    0    0  0.86187079600E+02 -0.11239039004E+03 -0.29401917472E+03  0.34898283319E+03  0.12362010474E+03 0.  0.
         35    2    3    3    0    0 -0.86187079600E+02  0.11239039004E+03 -0.12892217845E+04  0.15238497063E+04  0.79997831559E+03 0.  0.
         22    1    5    5    0    0 -0.37495324870E+03 -0.16097193188E+03 -0.75072807887E+03  0.85445570392E+03  0.00000000000E+00 0. -1.
         22    1    5    5    0    0  0.28876616910E+03  0.27336232192E+03 -0.53849370561E+03  0.66939400239E+03  0.00000000000E+00 0. -1.
          5    1    4    4  502    0  0.70189886022E+02 -0.61492297355E+02 -0.27769279335E+03  0.29299027324E+03  0.47000000000E+01 0.  1.
         -5    1    4    4    0  502  0.15997193578E+02 -0.50898092685E+02 -0.16326381370E+02  0.55992559952E+02  0.47000000000E+01 0.  1.
<mgrwt>
<rscale>  0 0.10004248E+04</rscale>
<asrwt>0</asrwt>
<pdfrwt beam="1">  1        1 0.26585183E+00 0.10004248E+04</pdfrwt>
<pdfrwt beam="2">  1       -1 0.22276273E-01 0.10004248E+04</pdfrwt>
<totfact> 0.82658738E+01</totfact>
</mgrwt>
</event>
<event>
 9    1  0.4488205E-036  0.9999801E+03  0.7818608E-02  0.8681057E-01
         -2   -1    0    0    0  501 -0.00000000000E+00  0.00000000000E+00  0.37801564302E+03  0.37801564302E+03  0.00000000000E+00 0. -1.
          2   -1    0    0  501    0  0.00000000000E+00 -0.00000000000E+00 -0.66132202232E+03  0.66132202232E+03  0.00000000000E+00 0. -1.
         36    2    1    2    0    0  0.00000000000E+00  0.14210854715E-13 -0.28330637930E+03  0.10393376653E+04  0.99998013882E+03 0.  0.
         25    2    3    3    0    0  0.76250496195E+02  0.12520500208E+03 -0.52981333936E+02  0.19442018121E+03  0.11619704987E+03 0.  0.
         35    2    3    3    0    0 -0.76250496195E+02 -0.12520500208E+03 -0.23032504536E+03  0.84491748413E+03  0.79959083146E+03 0.  0.
         22    1    5    5    0    0 -0.25935516136E+03 -0.23112193462E+03  0.17405066621E+03  0.38855640876E+03  0.00000000000E+00 0.  1.
         22    1    5    5    0    0  0.18310466516E+03  0.10591693254E+03 -0.40437571157E+03  0.45636107537E+03  0.00000000000E+00 0.  1.
          5    1    4    4  502    0  0.81683581712E+02  0.58956094973E+02  0.11737148529E+02  0.10152772681E+03  0.47000000000E+01 0.  1.
         -5    1    4    4    0  502 -0.54330855177E+01  0.66248907105E+02 -0.64718482465E+02  0.92892454395E+02  0.47000000000E+01 0.  1.
<mgrwt>
<rscale>  0 0.99998014E+03</rscale>
<asrwt>0</asrwt>
<pdfrwt beam="1">  1        2 0.10174185E+00 0.99998014E+03</pdfrwt>
<pdfrwt beam="2">  1       -2 0.58156252E-01 0.99998014E+03</pdfrwt>
<totfact> 0.14730004E+02</totfact>
</mgrwt>
</event>
<event>
 9    1  0.4488205E-036  0.9999691E+03  0.7818608E-02  0.8681067E-01
         -2   -1    0    0    0  501 -0.00000000000E+00  0.00000000000E+00  0.22124216812E+03  0.22124216812E+03  0.00000000000E+00 0.  1.
          2   -1    0    0  501    0  0.00000000000E+00 -0.00000000000E+00 -0.11299136923E+04  0.11299136923E+04  0.00000000000E+00 0.  1.
         36    2    1    2    0    0 -0.14210854715E-13 -0.71054273576E-14 -0.90867152414E+03  0.13511558604E+04  0.99996910964E+03 0.  0.
         25    2    3    3    0    0  0.12072081398E+03 -0.61237956067E+02 -0.13100528956E+03  0.22698510101E+03  0.12663430814E+03 0.  0.
         35    2    3    3    0    0 -0.12072081398E+03  0.61237956067E+02 -0.77766623458E+03  0.11241707594E+04  0.80041959098E+03 0.  0.
         22    1    5    5    0    0  0.51941068457E+02  0.17372954073E+03  0.11054470805E+03  0.21236751257E+03  0.00000000000E+00 0. -1.
         22    1    5    5    0    0 -0.17266188243E+03 -0.11249158467E+03 -0.88821094263E+03  0.91180324680E+03  0.00000000000E+00 0. -1.
          5    1    4    4  502    0  0.29109262581E+02 -0.16039154068E+02 -0.11944395670E+03  0.12407075571E+03  0.47000000000E+01 0.  1.
         -5    1    4    4    0  502  0.91611551395E+02 -0.45198801999E+02 -0.11561332866E+02  0.10291434530E+03  0.47000000000E+01 0.  1.
<mgrwt>
<rscale>  0 0.99996911E+03</rscale>
<asrwt>0</asrwt>
<pdfrwt beam="1">  1        2 0.17383288E+00 0.99996911E+03</pdfrwt>
<pdfrwt beam="2">  1       -2 0.34037256E-01 0.99996911E+03</pdfrwt>
<totfact> 0.20351413E+02</totfact>
</mgrwt>
</event>
<event>
 9    1  0.4488205E-036  0.1000796E+04  0.7818608E-02  0.8680280E-01
         -1   -1    0    0    0  501 -0.00000000000E+00  0.00000000000E+00  0.30625534246E+03  0.30625534246E+03  0.00000000000E+00 0. -1.
          1   -1    0    0  501    0  0.00000000000E+00 -0.00000000000E+00 -0.81761311738E+03  0.81761311738E+03  0.00000000000E+00 0. -1.
         36    2    1    2    0    0 -0.14210854715E-13  0.28421709430E-13 -0.51135777492E+03  0.11238684598E+04  0.10007964533E+04 0.  0.
         25    2    3    3    0    0  0.94346255691E+02 -0.10155894832E+03 -0.12070157200E+03  0.22253396190E+03  0.12544743429E+03 0.  0.
         35    2    3    3    0    0 -0.94346255691E+02  0.10155894832E+03 -0.39065620292E+03  0.90133449793E+03  0.80036002670E+03 0.  0.
         22    1    5    5    0    0 -0.19910443172E+03  0.30747178856E+03 -0.52037908615E+03  0.63637714352E+03  0.00000000000E+00 0. -1.
         22    1    5    5    0    0  0.10475817603E+03 -0.20591284024E+03  0.12972288323E+03  0.26495735441E+03  0.00000000000E+00 0. -1.
          5    1    4    4  502    0  0.10141918349E+03 -0.12543389146E+03 -0.10032864838E+03  0.19001957686E+03  0.47000000000E+01 0.  1.
         -5    1    4    4    0  502 -0.70729277989E+01  0.23874943138E+02 -0.20372923624E+02  0.32514385039E+02  0.47000000000E+01 0.  1.
<mgrwt>
<rscale>  0 0.10007965E+04</rscale>
<asrwt>0</asrwt>
<pdfrwt beam="1">  1        1 0.12578663E+00 0.10007965E+04</pdfrwt>
<pdfrwt beam="2">  1       -1 0.47116207E-01 0.10007965E+04</pdfrwt>
<totfact> 0.10902412E+02</totfact>
</mgrwt>
</event>
<event>
 9    1  0.4488205E-036  0.1000166E+04  0.7818608E-02  0.8680880E-01
          1   -1    0    0  501    0  0.00000000000E+00  0.00000000000E+00  0.37192650718E+03  0.37192650718E+03  0.00000000000E+00 0. -1.
         -1   -1    0    0    0  501 -0.00000000000E+00 -0.00000000000E+00 -0.67239868952E+03  0.67239868952E+03  0.00000000000E+00 0. -1.
         36    2    1    2    0    0 -0.71054273576E-14  0.71054273576E-14 -0.30047218233E+03  0.10443251967E+04  0.10001657783E+04 0.  0.
         25    2    3    3    0    0  0.46936492413E+02  0.30823661231E+02 -0.18793550392E+03  0.23517827296E+03  0.12975335844E+03 0.  0.
         35    2    3    3    0    0 -0.46936492413E+02 -0.30823661231E+02 -0.11253667842E+03  0.80914692374E+03  0.79931289730E+03 0.  0.
         22    1    5    5    0    0 -0.22871694151E+03 -0.24233270968E+03  0.20129405865E+03  0.38930178469E+03  0.00000000000E+00 0. -1.
         22    1    5    5    0    0  0.18178044909E+03  0.21150904845E+03 -0.31383073707E+03  0.41984513905E+03  0.00000000000E+00 0. -1.
          5    1    4    4  502    0 -0.11042048155E+02  0.84499433991E+00 -0.16559356843E+03  0.16602999954E+03  0.47000000000E+01 0. -1.
         -5    1    4    4    0  502  0.57978540568E+02  0.29978666891E+02 -0.22341935485E+02  0.69148273415E+02  0.47000000000E+01 0. -1.
<mgrwt>
<rscale>  0 0.10001658E+04</rscale>
<asrwt>0</asrwt>
<pdfrwt beam="1">  1        1 0.57219463E-01 0.10001658E+04</pdfrwt>
<pdfrwt beam="2">  1       -1 0.10344595E+00 0.10001658E+04</pdfrwt>
<totfact> 0.69907798E+01</totfact>
</mgrwt>
</event>
<event>
 9    1  0.4488205E-036  0.9995840E+03  0.7818608E-02  0.8681434E-01
         -1   -1    0    0    0  501 -0.00000000000E+00  0.00000000000E+00  0.53410425842E+03  0.53410425842E+03  0.00000000000E+00 0. -1.
          1   -1    0    0  501    0  0.00000000000E+00 -0.00000000000E+00 -0.46768401647E+03  0.46768401647E+03  0.00000000000E+00 0. -1.
         36    2    1    2    0    0  0.00000000000E+00 -0.42632564146E-13  0.66420241958E+02  0.10017882749E+04  0.99958396304E+03 0.  0.
         25    2    3    3    0    0  0.10738391696E+03  0.65713819604E+02 -0.44842948817E+02  0.18186998001E+03  0.12335391303E+03 0.  0.
         35    2    3    3    0    0 -0.10738391696E+03 -0.65713819604E+02  0.11126319077E+03  0.81991829488E+03  0.80251909694E+03 0.  0.
         22    1    5    5    0    0 -0.42896265483E+02  0.34493912566E+03 -0.88557063200E+02  0.35869965633E+03  0.00000000000E+00 0. -1.
         22    1    5    5    0    0 -0.64487651480E+02 -0.41065294527E+03  0.19982025397E+03  0.46121863855E+03  0.00000000000E+00 0. -1.
          5    1    4    4  502    0 -0.12861897715E+02 -0.29441273635E+00  0.24519987539E+02  0.28086204453E+02  0.47000000000E+01 0. -1.
         -5    1    4    4    0  502  0.12024581468E+03  0.66008232341E+02 -0.69362936356E+02  0.15378377556E+03  0.47000000000E+01 0. -1.
<mgrwt>
<rscale>  0 0.99958396E+03</rscale>
<asrwt>0</asrwt>
<pdfrwt beam="1">  1        1 0.71951388E-01 0.99958396E+03</pdfrwt>
<pdfrwt beam="2">  1       -1 0.82169885E-01 0.99958396E+03</pdfrwt>
<totfact> 0.84773894E+01</totfact>
</mgrwt>
</event>
<event>
 9    1  0.4488205E-036  0.9998486E+03  0.7818608E-02  0.8681182E-01
          2   -1    0    0  501    0  0.00000000000E+00  0.00000000000E+00  0.36259747325E+04  0.36259747325E+04  0.00000000000E+00 0.  1.
         -2   -1    0    0    0  501 -0.00000000000E+00 -0.00000000000E+00 -0.68926102002E+02  0.68926102002E+02  0.00000000000E+00 0.  1.
         36    2    1    2    0    0  0.14210854715E-13 -0.42632564146E-13  0.35570486305E+04  0.36949008345E+04  0.99984859708E+03 0.  0.
         25    2    3    3    0    0 -0.11671992039E+03 -0.67717130841E+02  0.80139126267E+03  0.82216785512E+03  0.12459083626E+03 0.  0.
         35    2    3    3    0    0  0.11671992039E+03  0.67717130841E+02  0.27556573678E+04  0.28727329794E+04  0.80046117479E+03 0.  0.
         22    1    5    5    0    0 -0.10962235239E+03 -0.32983526187E+03  0.13754565589E+04  0.14186927453E+04  0.00000000000E+00 0.  1.
         22    1    5    5    0    0  0.22634227278E+03  0.39755239271E+03  0.13802008089E+04  0.14540402340E+04  0.00000000000E+00 0.  1.
          5    1    4    4  502    0 -0.12054909775E+03 -0.25336725784E+02  0.40167293556E+03  0.42016338703E+03  0.47000000000E+01 0.  1.
         -5    1    4    4    0  502  0.38291773581E+01 -0.42380405057E+02  0.39971832711E+03  0.40200446809E+03  0.47000000000E+01 0.  1.
<mgrwt>
<rscale>  0 0.99984860E+03</rscale>
<asrwt>0</asrwt>
<pdfrwt beam="1">  1        2 0.55784212E+00 0.99984860E+03</pdfrwt>
<pdfrwt beam="2">  1       -2 0.10604019E-01 0.99984860E+03</pdfrwt>
<totfact> 0.41965014E+01</totfact>
</mgrwt>
</event>
<event>
 9    1  0.4488205E-036  0.9999303E+03  0.7818608E-02  0.8681104E-01
          1   -1    0    0  501    0  0.00000000000E+00  0.00000000000E+00  0.28648278223E+03  0.28648278223E+03  0.00000000000E+00 0. -1.
         -1   -1    0    0    0  501 -0.00000000000E+00 -0.00000000000E+00 -0.87253107668E+03  0.87253107668E+03  0.00000000000E+00 0. -1.
         36    2    1    2    0    0  0.00000000000E+00 -0.21316282073E-13 -0.58604829445E+03  0.11590138589E+04  0.99993025843E+03 0.  0.
         25    2    3    3    0    0  0.23849718079E+02 -0.49771491259E+02  0.38730104301E+02  0.14229567800E+03  0.12530773561E+03 0.  0.
         35    2    3    3    0    0 -0.23849718079E+02  0.49771491259E+02 -0.62477839875E+03  0.10167181809E+04  0.80020110063E+03 0.  0.
         22    1    5    5    0    0 -0.38410233010E+02 -0.17313108855E+03  0.13621583777E+03  0.22361680233E+03  0.00000000000E+00 0.  1.
         22    1    5    5    0    0  0.14560514931E+02  0.22290257981E+03 -0.76099423653E+03  0.79310137858E+03  0.00000000000E+00 0.  1.
          5    1    4    4  502    0  0.73482552904E+02 -0.35837549992E+02  0.38595111690E+02  0.90530040413E+02  0.47000000000E+01 0.  1.
         -5    1    4    4    0  502 -0.49632834826E+02 -0.13933941267E+02  0.13499261036E+00  0.51765637590E+02  0.47000000000E+01 0.  1.
<mgrwt>
<rscale>  0 0.99993026E+03</rscale>
<asrwt>0</asrwt>
<pdfrwt beam="1">  1        1 0.44074275E-01 0.99993026E+03</pdfrwt>
<pdfrwt beam="2">  1       -1 0.13423555E+00 0.99993026E+03</pdfrwt>
<totfact> 0.51970463E+01</totfact>
</mgrwt>
</event>
<event>
 9    1  0.4488205E-036  0.9973197E+03  0.7818608E-02  0.8683595E-01
          2   -1    0    0  501    0  0.00000000000E+00  0.00000000000E+00  0.13255611100E+04  0.13255611100E+04  0.00000000000E+00 0.  1.
         -2   -1    0    0    0  501 -0.00000000000E+00 -0.00000000000E+00 -0.18758971024E+03  0.18758971024E+03  0.00000000000E+00 0.  1.
         36    2    1    2    0    0  0.00000000000E+00  0.14210854715E-13  0.11379713997E+04  0.15131508202E+04  0.99731965693E+03 0.  0.
         25    2    3    3    0    0  0.32960672139E+02  0.36406098872E+02  0.41224759172E+03  0.43376784268E+03  0.12567678593E+03 0.  0.
         35    2    3    3    0    0 -0.32960672139E+02 -0.36406098872E+02  0.72572380801E+03  0.10793829775E+04  0.79748401660E+03 0.  0.
         22    1    5    5    0    0 -0.14089028952E+03  0.31997449771E+03  0.58460668489E+03  0.68117452161E+03  0.00000000000E+00 0.  1.
         22    1    5    5    0    0  0.10792961738E+03 -0.35638059659E+03  0.14111712312E+03  0.39820845592E+03  0.00000000000E+00 0.  1.
          5    1    4    4  502    0  0.74368621963E+02  0.51291137534E+02  0.26508035414E+03  0.28009133666E+03  0.47000000000E+01 0.  1.
         -5    1    4    4    0  502 -0.41407949824E+02 -0.14885038662E+02  0.14716723758E+03  0.15367650601E+03  0.47000000000E+01 0.  1.
<mgrwt>
<rscale>  0 0.99731966E+03</rscale>
<asrwt>0</asrwt>
<pdfrwt beam="1">  1        2 0.20393247E+00 0.99731966E+03</pdfrwt>
<pdfrwt beam="2">  1       -2 0.28859956E-01 0.99731966E+03</pdfrwt>
<totfact> 0.21132967E+02</totfact>
</mgrwt>
</event>
<event>
 9    1  0.4488205E-036  0.1001355E+04  0.7818608E-02  0.8679749E-01
         -3   -1    0    0    0  501 -0.00000000000E+00  0.00000000000E+00  0.13156442227E+04  0.13156442227E+04  0.00000000000E+00 0. -1.
          3   -1    0    0  501    0  0.00000000000E+00 -0.00000000000E+00 -0.19053627905E+03  0.19053627905E+03  0.00000000000E+00 0. -1.
         36    2    1    2    0    0  0.42632564146E-13  0.00000000000E+00  0.11251079437E+04  0.15061805018E+04  0.10013549915E+04 0.  0.
         25    2    3    3    0    0  0.67973730906E+02 -0.65132005836E+02  0.37166407560E+03  0.40323860922E+03  0.12491831167E+03 0.  0.
         35    2    3    3    0    0 -0.67973730906E+02  0.65132005836E+02  0.75344386806E+03  0.11029418925E+04  0.79996284272E+03 0.  0.
         22    1    5    5    0    0 -0.27239957262E+03 -0.17174096156E+03  0.71943018143E+03  0.78821080365E+03  0.00000000000E+00 0. -1.
         22    1    5    5    0    0  0.20442584171E+03  0.23687296739E+03  0.34013686636E+02  0.31473108890E+03  0.00000000000E+00 0. -1.
          5    1    4    4  502    0  0.52227661970E+02  0.25981509632E+02  0.95884162106E+02  0.11233267584E+03  0.47000000000E+01 0.  1.
         -5    1    4    4    0  502  0.15746068936E+02 -0.91113515468E+02  0.27577991350E+03  0.29090593338E+03  0.47000000000E+01 0.  1.
<mgrwt>
<rscale>  0 0.10013550E+04</rscale>
<asrwt>0</asrwt>
<pdfrwt beam="1">  1        3 0.29313274E-01 0.10013550E+04</pdfrwt>
<pdfrwt beam="2">  1       -3 0.20240680E+00 0.10013550E+04</pdfrwt>
<totfact> 0.43860354E+00</totfact>
</mgrwt>
</event>
<event>
 9    1  0.4488205E-036  0.1000775E+04  0.7818608E-02  0.8680300E-01
          2   -1    0    0  501    0  0.00000000000E+00  0.00000000000E+00  0.13767786590E+03  0.13767786590E+03  0.00000000000E+00 0.  1.
         -2   -1    0    0    0  501 -0.00000000000E+00 -0.00000000000E+00 -0.18186484487E+04  0.18186484487E+04  0.00000000000E+00 0.  1.
         36    2    1    2    0    0  0.14210854715E-13 -0.21316282073E-13 -0.16809705828E+04  0.19563263146E+04  0.10007749742E+04 0.  0.
         25    2    3    3    0    0 -0.11329448600E+03 -0.47058479651E+02 -0.17705958258E+03  0.24922840447E+03  0.12535773111E+03 0.  0.
         35    2    3    3    0    0  0.11329448600E+03  0.47058479651E+02 -0.15039110002E+04  0.17070979101E+04  0.79836385005E+03 0.  0.
         22    1    5    5    0    0  0.17082676865E+03 -0.35414599139E+03 -0.86947485132E+03  0.95424718244E+03  0.00000000000E+00 0. -1.
         22    1    5    5    0    0 -0.57532282653E+02  0.40120447104E+03 -0.63443614886E+03  0.75285072764E+03  0.00000000000E+00 0. -1.
          5    1    4    4  502    0 -0.25675027098E+02 -0.78055617974E+02 -0.80619007586E+02  0.11521024650E+03  0.47000000000E+01 0. -1.
         -5    1    4    4    0  502 -0.87619458902E+02  0.30997138324E+02 -0.96440574992E+02  0.13401815798E+03  0.47000000000E+01 0. -1.
<mgrwt>
<rscale>  0 0.10007750E+04</rscale>
<asrwt>0</asrwt>
<pdfrwt beam="1">  1        2 0.21181211E-01 0.10007750E+04</pdfrwt>
<pdfrwt beam="2">  1       -2 0.27979206E+00 0.10007750E+04</pdfrwt>
<totfact> 0.12095532E+01</totfact>
</mgrwt>
</event>
<event>
 9    1  0.4488205E-036  0.9998931E+03  0.7818608E-02  0.8681140E-01
         -2   -1    0    0    0  501 -0.00000000000E+00  0.00000000000E+00  0.17405761595E+03  0.17405761595E+03  0.00000000000E+00 0. -1.
          2   -1    0    0  501    0  0.00000000000E+00 -0.00000000000E+00 -0.14359990630E+04  0.14359990630E+04  0.00000000000E+00 0. -1.
         36    2    1    2    0    0  0.00000000000E+00 -0.71054273576E-14 -0.12619414470E+04  0.16100566789E+04  0.99989314111E+03 0.  0.
         25    2    3    3    0    0 -0.95489501838E+02  0.46293849299E+02 -0.91479697171E+02  0.18743935681E+03  0.12451350145E+03 0.  0.
         35    2    3    3    0    0  0.95489501838E+02 -0.46293849299E+02 -0.11704617498E+04  0.14226173221E+04  0.80162208794E+03 0.  0.
         22    1    5    5    0    0 -0.82476091243E+01  0.16258424458E+03 -0.11780785924E+04  0.11892732359E+04  0.00000000000E+00 0.  1.
         22    1    5    5    0    0  0.10373711096E+03 -0.20887809388E+03  0.76168425754E+01  0.23334408624E+03  0.00000000000E+00 0.  1.
          5    1    4    4  502    0 -0.64768315372E+02  0.76017796517E+02 -0.10235459133E+03  0.14308106943E+03  0.47000000000E+01 0. -1.
         -5    1    4    4    0  502 -0.30721186466E+02 -0.29723947218E+02  0.10874894161E+02  0.44358287378E+02  0.47000000000E+01 0. -1.
<mgrwt>
<rscale>  0 0.99989314E+03</rscale>
<asrwt>0</asrwt>
<pdfrwt beam="1">  1        2 0.22092294E+00 0.99989314E+03</pdfrwt>
<pdfrwt beam="2">  1       -2 0.26778094E-01 0.99989314E+03</pdfrwt>
<totfact> 0.20906131E+02</totfact>
</mgrwt>
</event>
<event>
 9    1  0.4488205E-036  0.9986112E+03  0.7818608E-02  0.8682362E-01
          2   -1    0    0  501    0  0.00000000000E+00  0.00000000000E+00  0.89930693739E+03  0.89930693739E+03  0.00000000000E+00 0.  1.
         -2   -1    0    0    0  501 -0.00000000000E+00 -0.00000000000E+00 -0.27722024893E+03  0.27722024893E+03  0.00000000000E+00 0.  1.
         36    2    1    2    0    0  0.00000000000E+00  0.00000000000E+00  0.62208668846E+03  0.11765271863E+04  0.99861122175E+03 0.  0.
         25    2    3    3    0    0 -0.27919875449E+02  0.70873745089E+02 -0.25159464410E+02  0.14699219537E+03  0.12317101795E+03 0.  0.
         35    2    3    3    0    0  0.27919875449E+02 -0.70873745089E+02  0.64724615287E+03  0.10295349910E+04  0.79700194981E+03 0.  0.
         22    1    5    5    0    0  0.10993036315E+03 -0.35916635676E+03  0.62473872359E+03  0.72896065005E+03  0.00000000000E+00 0.  1.
         22    1    5    5    0    0 -0.82010487697E+02  0.28829261167E+03  0.22507429279E+02  0.30057434090E+03  0.00000000000E+00 0.  1.
          5    1    4    4  502    0 -0.25837877508E+02 -0.93271419572E+01 -0.54683133268E+02  0.61375292709E+02  0.47000000000E+01 0.  1.
         -5    1    4    4    0  502 -0.20819979413E+01  0.80200887046E+02  0.29523668857E+02  0.85616902661E+02  0.47000000000E+01 0.  1.
<mgrwt>
<rscale>  0 0.99861122E+03</rscale>
<asrwt>0</asrwt>
<pdfrwt beam="1">  1        2 0.13835491E+00 0.99861122E+03</pdfrwt>
<pdfrwt beam="2">  1       -2 0.42649270E-01 0.99861122E+03</pdfrwt>
<totfact> 0.18505249E+02</totfact>
</mgrwt>
</event>
<event>
 9    1  0.4488205E-036  0.9992507E+03  0.7818608E-02  0.8681752E-01
         -2   -1    0    0    0  501 -0.00000000000E+00  0.00000000000E+00  0.13226105767E+03  0.13226105767E+03  0.00000000000E+00 0. -1.
          2   -1    0    0  501    0  0.00000000000E+00 -0.00000000000E+00 -0.18873695817E+04  0.18873695817E+04  0.00000000000E+00 0. -1.
         36    2    1    2    0    0  0.00000000000E+00  0.21316282073E-13 -0.17551085241E+04  0.20196306394E+04  0.99925071348E+03 0.  0.
         25    2    3    3    0    0  0.11696740234E+03 -0.20603590683E+02 -0.47420106675E+03  0.50459935670E+03  0.12509187790E+03 0.  0.
         35    2    3    3    0    0 -0.11696740234E+03  0.20603590683E+02 -0.12809074573E+04  0.15150312827E+04  0.80030618654E+03 0.  0.
         22    1    5    5    0    0  0.25830411292E+03 -0.11805336937E+03 -0.16246325019E+03  0.32718789775E+03  0.00000000000E+00 0.  1.
         22    1    5    5    0    0 -0.37527151526E+03  0.13865696005E+03 -0.11184442071E+04  0.11878433849E+04  0.00000000000E+00 0.  1.
          5    1    4    4  502    0  0.52846558964E+02  0.26586142216E+02 -0.66319893176E+02  0.88994381751E+02  0.47000000000E+01 0. -1.
         -5    1    4    4    0  502  0.64120843374E+02 -0.47189732900E+02 -0.40788117357E+03  0.41560497495E+03  0.47000000000E+01 0. -1.
<mgrwt>
<rscale>  0 0.99925071E+03</rscale>
<asrwt>0</asrwt>
<pdfrwt beam="1">  1        2 0.29036455E+00 0.99925071E+03</pdfrwt>
<pdfrwt beam="2">  1       -2 0.20347855E-01 0.99925071E+03</pdfrwt>
<totfact> 0.18851275E+02</totfact>
</mgrwt>
</event>
<event>
 9    1  0.4488205E-036  0.9997259E+03  0.7818608E-02  0.8681299E-01
         -1   -1    0    0    0  501 -0.00000000000E+00  0.00000000000E+00  0.10899683250E+04  0.10899683250E+04  0.00000000000E+00 0. -1.
          1   -1    0    0  501    0  0.00000000000E+00 -0.00000000000E+00 -0.22923872040E+03  0.22923872040E+03  0.00000000000E+00 0. -1.
         36    2    1    2    0    0 -0.71054273576E-14  0.00000000000E+00  0.86072960463E+03  0.13192070454E+04  0.99972585064E+03 0.  0.
         25    2    3    3    0    0 -0.45384475937E+02  0.95337624825E+02  0.27873988377E+03  0.32306431923E+03  0.12460183866E+03 0.  0.
         35    2    3    3    0    0  0.45384475937E+02 -0.95337624825E+02  0.58198972086E+03  0.99614272620E+03  0.80152310160E+03 0.  0.
         22    1    5    5    0    0  0.21615994849E+03  0.27881646281E+02  0.71472196483E+03  0.74721482623E+03  0.00000000000E+00 0. -1.
         22    1    5    5    0    0 -0.17077547255E+03 -0.12321927111E+03 -0.13273224396E+03  0.24892789997E+03  0.00000000000E+00 0. -1.
          5    1    4    4  502    0 -0.39330838659E+02  0.11762727151E+03  0.16260613548E+03  0.20456279028E+03  0.47000000000E+01 0. -1.
         -5    1    4    4    0  502 -0.60536372789E+01 -0.22289646683E+02  0.11613374828E+03  0.11850152895E+03  0.47000000000E+01 0. -1.
<mgrwt>
<rscale>  0 0.99972585E+03</rscale>
<asrwt>0</asrwt>
<pdfrwt beam="1">  1        1 0.35267496E-01 0.99972585E+03</pdfrwt>
<pdfrwt beam="2">  1       -1 0.16768743E+00 0.99972585E+03</pdfrwt>
<totfact> 0.36271312E+01</totfact>
</mgrwt>
</event>
<event>
 9    1  0.4488205E-036  0.1000040E+04  0.7818608E-02  0.8681000E-01
         -2   -1    0    0    0  501 -0.00000000000E+00  0.00000000000E+00  0.10461744431E+03  0.10461744431E+03  0.00000000000E+00 0. -1.
          2   -1    0    0  501    0  0.00000000000E+00 -0.00000000000E+00 -0.23898501431E+04  0.23898501431E+04  0.00000000000E+00 0. -1.
         36    2    1    2    0    0  0.00000000000E+00  0.14210854715E-13 -0.22852326988E+04  0.24944675874E+04  0.10000400277E+04 0.  0.
         25    2    3    3    0    0  0.93934824012E+02 -0.87265816961E+02 -0.56906111210E+03  0.59657107938E+03  0.12500971751E+03 0.  0.
         35    2    3    3    0    0 -0.93934824012E+02  0.87265816961E+02 -0.17161715867E+04  0.18978965080E+04  0.80020445280E+03 0.  0.
         22    1    5    5    0    0 -0.18907196198E+03  0.42179411224E+03 -0.10081787025E+04  0.11090909684E+04  0.00000000000E+00 0. -1.
         22    1    5    5    0    0  0.95137137968E+02 -0.33452829527E+03 -0.70799288411E+03  0.78880553961E+03  0.00000000000E+00 0. -1.
          5    1    4    4  502    0  0.36854417458E+02  0.16371422047E+02 -0.51192928292E+02  0.65338177608E+02  0.47000000000E+01 0. -1.
         -5    1    4    4    0  502  0.57080406554E+02 -0.10363723901E+03 -0.51786818381E+03  0.53123290177E+03  0.47000000000E+01 0. -1.
<mgrwt>
<rscale>  0 0.10000400E+04</rscale>
<asrwt>0</asrwt>
<pdfrwt beam="1">  1        2 0.36766923E+00 0.10000400E+04</pdfrwt>
<pdfrwt beam="2">  1       -2 0.16094993E-01 0.10000400E+04</pdfrwt>
<totfact> 0.14412160E+02</totfact>
</mgrwt>
</event>
<event>
 9    1  0.4488205E-036  0.1005681E+04  0.7818608E-02  0.8675647E-01
         -1   -1    0    0    0  501 -0.00000000000E+00  0.00000000000E+00  0.81615724179E+03  0.81615724179E+03  0.00000000000E+00 0.  1.
          1   -1    0    0  501    0  0.00000000000E+00 -0.00000000000E+00 -0.30980373360E+03  0.30980373360E+03  0.00000000000E+00 0.  1.
         36    2    1    2    0    0  0.00000000000E+00  0.00000000000E+00  0.50635350819E+03  0.11259609754E+04  0.10056809846E+04 0.  0.
         25    2    3    3    0    0 -0.97311112167E+02 -0.10133221899E+03  0.14322064910E+03  0.23605443328E+03  0.12438597183E+03 0.  0.
         35    2    3    3    0    0  0.97311112167E+02  0.10133221899E+03  0.36313285909E+03  0.88990654211E+03  0.80020654158E+03 0.  0.
         22    1    5    5    0    0  0.14990153406E+02 -0.34665998605E+03  0.88746948319E+02  0.35815341889E+03  0.00000000000E+00 0. -1.
         22    1    5    5    0    0  0.82320958761E+02  0.44799220504E+03  0.27438591078E+03  0.53175312322E+03  0.00000000000E+00 0. -1.
          5    1    4    4  502    0 -0.32585868549E+02 -0.47990962361E+01  0.11023853694E+03  0.11514988137E+03  0.47000000000E+01 0. -1.
         -5    1    4    4    0  502 -0.64725243618E+02 -0.96533122753E+02  0.32982112158E+02  0.12090455191E+03  0.47000000000E+01 0. -1.
<mgrwt>
<rscale>  0 0.10056810E+04</rscale>
<asrwt>0</asrwt>
<pdfrwt beam="1">  1        1 0.47662113E-01 0.10056810E+04</pdfrwt>
<pdfrwt beam="2">  1       -1 0.12556265E+00 0.10056810E+04</pdfrwt>
<totfact> 0.55792863E+01</totfact>
</mgrwt>
</event>
<event>
 9    1  0.4488205E-036  0.1002044E+04  0.7818608E-02  0.8679094E-01
         -2   -1    0    0    0  501 -0.00000000000E+00  0.00000000000E+00  0.74516721055E+02  0.74516721055E+02  0.00000000000E+00 0. -1.
          2   -1    0    0  501    0  0.00000000000E+00 -0.00000000000E+00 -0.33686793395E+04  0.33686793395E+04  0.00000000000E+00 0. -1.
         36    2    1    2    0    0  0.00000000000E+00 -0.14210854715E-13 -0.32941626184E+04  0.34431960605E+04  0.10020437888E+04 0.  0.
         25    2    3    3    0    0  0.61152828247E+02  0.24109452510E+02 -0.10592837347E+04  0.10686640416E+04  0.12505946209E+03 0.  0.
         35    2    3    3    0    0 -0.61152828247E+02 -0.24109452510E+02 -0.22348788837E+04  0.23745320190E+04  0.79962350518E+03 0.  0.
         22    1    5    5    0    0 -0.10548090468E+03 -0.38378047597E+03 -0.78609819344E+03  0.88111522783E+03  0.00000000000E+00 0.  1.
         22    1    5    5    0    0  0.44328076429E+02  0.35967102346E+03 -0.14487806903E+04  0.14934167911E+04  0.00000000000E+00 0.  1.
          5    1    4    4  502    0  0.73743232325E+02  0.50032147602E+02 -0.45460813578E+03  0.46328385168E+03  0.47000000000E+01 0.  1.
         -5    1    4    4    0  502 -0.12590404078E+02 -0.25922695092E+02 -0.60467559891E+03  0.60538018989E+03  0.47000000000E+01 0.  1.
<mgrwt>
<rscale>  0 0.10020438E+04</rscale>
<asrwt>0</asrwt>
<pdfrwt beam="1">  1        2 0.51825831E+00 0.10020438E+04</pdfrwt>
<pdfrwt beam="2">  1       -2 0.11464112E-01 0.10020438E+04</pdfrwt>
<totfact> 0.57803023E+01</totfact>
</mgrwt>
</event>
<event>
 9    1  0.4488205E-036  0.1001127E+04  0.7818608E-02  0.8679966E-01
          2   -1    0    0  501    0  0.00000000000E+00  0.00000000000E+00  0.87976745054E+03  0.87976745054E+03  0.00000000000E+00 0.  1.
         -2   -1    0    0    0  501 -0.00000000000E+00 -0.00000000000E+00 -0.28480675630E+03  0.28480675630E+03  0.00000000000E+00 0.  1.
         36    2    1    2    0    0  0.00000000000E+00  0.00000000000E+00  0.59496069424E+03  0.11645742068E+04  0.10011267929E+04 0.  0.
         25    2    3    3    0    0  0.11775526083E+03 -0.34517807781E+02  0.19215247109E+03  0.26007275705E+03  0.12512987777E+03 0.  0.
         35    2    3    3    0    0 -0.11775526083E+03  0.34517807781E+02  0.40280822315E+03  0.90450144979E+03  0.80050648188E+03 0.  0.
         22    1    5    5    0    0  0.22372588032E+03 -0.43202078478E+01  0.49962189649E+03  0.54744312323E+03  0.00000000000E+00 0.  1.
         22    1    5    5    0    0 -0.34148114115E+03  0.38838015629E+02 -0.96813673338E+02  0.35705832656E+03  0.00000000000E+00 0.  1.
          5    1    4    4  502    0  0.46715757059E+02  0.25266903536E+02  0.81768968029E+01  0.53941913325E+02  0.47000000000E+01 0. -1.
         -5    1    4    4    0  502  0.71039503770E+02 -0.59784711317E+02  0.18397557428E+03  0.20613084373E+03  0.47000000000E+01 0. -1.
<mgrwt>
<rscale>  0 0.10011268E+04</rscale>
<asrwt>0</asrwt>
<pdfrwt beam="1">  1        2 0.13534884E+00 0.10011268E+04</pdfrwt>
<pdfrwt beam="2">  1       -2 0.43816424E-01 0.10011268E+04</pdfrwt>
<totfact> 0.18090286E+02</totfact>
</mgrwt>
</event>
<event>
 9    1  0.4488205E-036  0.1000573E+04  0.7818608E-02  0.8680492E-01
         -1   -1    0    0    0  501 -0.00000000000E+00  0.00000000000E+00  0.88465385061E+03  0.88465385061E+03  0.00000000000E+00 0. -1.
          1   -1    0    0  501    0  0.00000000000E+00 -0.00000000000E+00 -0.28292060402E+03  0.28292060402E+03  0.00000000000E+00 0. -1.
         36    2    1    2    0    0  0.28421709430E-13  0.00000000000E+00  0.60173324659E+03  0.11675744546E+04  0.10005734391E+04 0.  0.
         25    2    3    3    0    0  0.18208718191E+02  0.13390097568E+03  0.16658951625E+03  0.24669168568E+03  0.12183469190E+03 0.  0.
         35    2    3    3    0    0 -0.18208718191E+02 -0.13390097568E+03  0.43514373033E+03  0.92088276896E+03  0.80025869530E+03 0.  0.
         22    1    5    5    0    0 -0.17983543153E+03 -0.47090411236E+02 -0.19212214136E+03  0.26733725229E+03  0.00000000000E+00 0.  1.
         22    1    5    5    0    0  0.16162671333E+03 -0.86810564446E+02  0.62726587169E+03  0.65354551667E+03  0.00000000000E+00 0.  1.
          5    1    4    4  502    0 -0.25039251253E+01  0.35236637551E+02  0.13694154711E+03  0.14150253564E+03  0.47000000000E+01 0.  1.
         -5    1    4    4    0  502  0.20712643317E+02  0.98664338130E+02  0.29647969145E+02  0.10518915004E+03  0.47000000000E+01 0.  1.
<mgrwt>
<rscale>  0 0.10005734E+04</rscale>
<asrwt>0</asrwt>
<pdfrwt beam="1">  1        1 0.43526247E-01 0.10005734E+04</pdfrwt>
<pdfrwt beam="2">  1       -1 0.13610059E+00 0.10005734E+04</pdfrwt>
<totfact> 0.50904477E+01</totfact>
</mgrwt>
</event>
<event>
 9    1  0.4488205E-036  0.1000183E+04  0.7818608E-02  0.8680864E-01
          2   -1    0    0  501    0  0.00000000000E+00  0.00000000000E+00  0.27162003655E+04  0.27162003655E+04  0.00000000000E+00 0. -1.
         -2   -1    0    0    0  501 -0.00000000000E+00 -0.00000000000E+00 -0.92073939713E+02  0.92073939713E+02  0.00000000000E+00 0. -1.
         36    2    1    2    0    0  0.00000000000E+00 -0.71054273576E-14  0.26241264258E+04  0.28082743052E+04  0.10001825207E+04 0.  0.
         25    2    3    3    0    0  0.13889427243E+03  0.17950784221E+02  0.44490548177E+03  0.48281223532E+03  0.12471133589E+03 0.  0.
         35    2    3    3    0    0 -0.13889427243E+03 -0.17950784221E+02  0.21792209440E+04  0.23254620699E+04  0.79947236731E+03 0.  0.
         22    1    5    5    0    0  0.15777175831E+03  0.15445142210E+03  0.18022226679E+04  0.18156964819E+04  0.00000000000E+00 0.  1.
         22    1    5    5    0    0 -0.29666603075E+03 -0.17240220633E+03  0.37699827608E+03  0.50976558800E+03  0.00000000000E+00 0.  1.
          5    1    4    4  502    0  0.10142446195E+03 -0.26901816871E+02  0.15632413386E+03  0.18833468629E+03  0.47000000000E+01 0. -1.
         -5    1    4    4    0  502  0.37469810481E+02  0.44852601092E+02  0.28858134791E+03  0.29447754903E+03  0.47000000000E+01 0. -1.
<mgrwt>
<rscale>  0 0.10001825E+04</rscale>
<asrwt>0</asrwt>
<pdfrwt beam="1">  1        2 0.41787692E+00 0.10001825E+04</pdfrwt>
<pdfrwt beam="2">  1       -2 0.14165224E-01 0.10001825E+04</pdfrwt>
<totfact> 0.11255179E+02</totfact>
</mgrwt>
</event>
<event>
 9    1  0.4488205E-036  0.9998780E+03  0.7818608E-02  0.8681154E-01
         -2   -1    0    0    0  501 -0.00000000000E+00  0.00000000000E+00  0.45948914122E+03  0.45948914122E+03  0.00000000000E+00 0. -1.
          2   -1    0    0  501    0  0.00000000000E+00 -0.00000000000E+00 -0.54394970156E+03  0.54394970156E+03  0.00000000000E+00 0. -1.
         36    2    1    2    0    0  0.14210854715E-13 -0.28421709430E-13 -0.84460560341E+02  0.10034388428E+04  0.99987795503E+03 0.  0.
         25    2    3    3    0    0 -0.46456106548E+02  0.74417326100E+02 -0.12561475580E+03  0.19730867259E+03  0.12432030061E+03 0.  0.
         35    2    3    3    0    0  0.46456106548E+02 -0.74417326100E+02  0.41154195455E+02  0.80613017020E+03  0.80028499626E+03 0.  0.
         22    1    5    5    0    0  0.24525988071E+03 -0.34263617315E+03  0.16147275044E+03  0.45124871787E+03  0.00000000000E+00 0.  1.
         22    1    5    5    0    0 -0.19880377417E+03  0.26821884705E+03 -0.12031855499E+03  0.35488145233E+03  0.00000000000E+00 0.  1.
          5    1    4    4  502    0 -0.27807121252E+02  0.91898741845E+02 -0.33818067059E+02  0.10190371144E+03  0.47000000000E+01 0. -1.
         -5    1    4    4    0  502 -0.18648985296E+02 -0.17481415745E+02 -0.91796688737E+02  0.95404961150E+02  0.47000000000E+01 0. -1.
<mgrwt>
<rscale>  0 0.99987796E+03</rscale>
<asrwt>0</asrwt>
<pdfrwt beam="1">  1        2 0.83684569E-01 0.99987796E+03</pdfrwt>
<pdfrwt beam="2">  1       -2 0.70690637E-01 0.99987796E+03</pdfrwt>
<totfact> 0.12273219E+02</totfact>
</mgrwt>
</event>
<event>
 9    1  0.4488205E-036  0.9990098E+03  0.7818608E-02  0.8681981E-01
         -1   -1    0    0    0  501 -0.00000000000E+00  0.00000000000E+00  0.32447406582E+03  0.32447406582E+03  0.00000000000E+00 0.  1.
          1   -1    0    0  501    0  0.00000000000E+00 -0.00000000000E+00 -0.76895251826E+03  0.76895251826E+03  0.00000000000E+00 0.  1.
         36    2    1    2    0    0 -0.14210854715E-13  0.00000000000E+00 -0.44447845244E+03  0.10934265841E+04  0.99900980981E+03 0.  0.
         25    2    3    3    0    0  0.98796623982E+02 -0.89102825214E+02 -0.10391573041E+03  0.21369477401E+03  0.13102248296E+03 0.  0.
         35    2    3    3    0    0 -0.98796623982E+02  0.89102825214E+02 -0.34056272203E+03  0.87973181007E+03  0.80015311263E+03 0.  0.
         22    1    5    5    0    0  0.25950294038E+03  0.12734197144E+03 -0.42085035382E+03  0.51056123440E+03  0.00000000000E+00 0. -1.
         22    1    5    5    0    0 -0.35829956436E+03 -0.38239146225E+02  0.80287631791E+02  0.36917057568E+03  0.00000000000E+00 0. -1.
          5    1    4    4  502    0 -0.31563798755E+01 -0.55566426328E+02  0.10407929967E+02  0.56815539028E+02  0.47000000000E+01 0. -1.
         -5    1    4    4    0  502  0.10195300386E+03 -0.33536398886E+02 -0.11432366038E+03  0.15687923498E+03  0.47000000000E+01 0. -1.
<mgrwt>
<rscale>  0 0.99900981E+03</rscale>
<asrwt>0</asrwt>
<pdfrwt beam="1">  1        1 0.11830039E+00 0.99900981E+03</pdfrwt>
<pdfrwt beam="2">  1       -1 0.49919087E-01 0.99900981E+03</pdfrwt>
<totfact> 0.10830400E+02</totfact>
</mgrwt>
</event>
<event>
 9    1  0.4488205E-036  0.9969503E+03  0.7818608E-02  0.8683948E-01
          2   -1    0    0  501    0  0.00000000000E+00  0.00000000000E+00  0.31465767846E+04  0.31465767846E+04  0.00000000000E+00 0.  1.
         -2   -1    0    0    0  501 -0.00000000000E+00 -0.00000000000E+00 -0.78967551749E+02  0.78967551749E+02  0.00000000000E+00 0.  1.
         36    2    1    2    0    0  0.28421709430E-13  0.14210854715E-13  0.30676092329E+04  0.32255443364E+04  0.99695027975E+03 0.  0.
         25    2    3    3    0    0 -0.13414109630E+03  0.24071374952E+02  0.60458058083E+03  0.63236232731E+03  0.12566292006E+03 0.  0.
         35    2    3    3    0    0  0.13414109630E+03 -0.24071374952E+02  0.24630286520E+04  0.25931820091E+04  0.79969339532E+03 0.  0.
         22    1    5    5    0    0  0.35414558650E+03  0.21141357532E+03  0.19017848089E+04  0.19459959547E+04  0.00000000000E+00 0.  1.
         22    1    5    5    0    0 -0.22000449020E+03 -0.23548495027E+03  0.56124384309E+03  0.64718605433E+03  0.00000000000E+00 0.  1.
          5    1    4    4  502    0  0.12760162698E+01  0.38566420777E+02  0.24037109668E+03  0.24349404746E+03  0.47000000000E+01 0. -1.
         -5    1    4    4    0  502 -0.13541711257E+03 -0.14495045825E+02  0.36420948415E+03  0.38886827985E+03  0.47000000000E+01 0. -1.
<mgrwt>
<rscale>  0 0.99695028E+03</rscale>
<asrwt>0</asrwt>
<pdfrwt beam="1">  1        2 0.48408864E+00 0.99695028E+03</pdfrwt>
<pdfrwt beam="2">  1       -2 0.12148857E-01 0.99695028E+03</pdfrwt>
<totfact> 0.75549129E+01</totfact>
</mgrwt>
</event>
<event>
 9    1  0.4488205E-036  0.9980711E+03  0.7818608E-02  0.8682877E-01
          2   -1    0    0  501    0  0.00000000000E+00  0.00000000000E+00  0.48594380700E+03  0.48594380700E+03  0.00000000000E+00 0. -1.
         -2   -1    0    0    0  501 -0.00000000000E+00 -0.00000000000E+00 -0.51247994937E+03  0.51247994937E+03  0.00000000000E+00 0. -1.
         36    2    1    2    0    0  0.14210854715E-13  0.00000000000E+00 -0.26536142367E+02  0.99842375637E+03  0.99807105480E+03 0.  0.
         25    2    3    3    0    0 -0.40187708835E+02 -0.70242332895E+02 -0.11743605296E+03  0.18933203484E+03  0.12452451810E+03 0.  0.
         35    2    3    3    0    0  0.40187708835E+02  0.70242332895E+02  0.90899910597E+02  0.80909172153E+03  0.79988598114E+03 0.  0.
         22    1    5    5    0    0 -0.25352280886E+03  0.89013191148E+02 -0.24420923283E+03  0.36309132765E+03  0.00000000000E+00 0.  1.
         22    1    5    5    0    0  0.29371051770E+03 -0.18770858253E+02  0.33510914343E+03  0.44600039388E+03  0.00000000000E+00 0.  1.
          5    1    4    4  502    0 -0.20974214138E+02 -0.33339863796E+02  0.20872978745E+02  0.44824495740E+02  0.47000000000E+01 0.  1.
         -5    1    4    4    0  502 -0.19213494697E+02 -0.36902469099E+02 -0.13830903171E+03  0.14450753910E+03  0.47000000000E+01 0.  1.
<mgrwt>
<rscale>  0 0.99807105E+03</rscale>
<asrwt>0</asrwt>
<pdfrwt beam="1">  1        2 0.74760586E-01 0.99807105E+03</pdfrwt>
<pdfrwt beam="2">  1       -2 0.78843069E-01 0.99807105E+03</pdfrwt>
<totfact> 0.10962281E+02</totfact>
</mgrwt>
</event>
<event>
 9    1  0.4488205E-036  0.1000259E+04  0.7818608E-02  0.8680791E-01
         -2   -1    0    0    0  501 -0.00000000000E+00  0.00000000000E+00  0.32744236362E+03  0.32744236362E+03  0.00000000000E+00 0.  1.
          2   -1    0    0  501    0  0.00000000000E+00 -0.00000000000E+00 -0.76388883103E+03  0.76388883103E+03  0.00000000000E+00 0.  1.
         36    2    1    2    0    0  0.17763568394E-14  0.00000000000E+00 -0.43644646741E+03  0.10913311947E+04  0.10002590952E+04 0.  0.
         25    2    3    3    0    0  0.27609069633E+01 -0.13204371479E+03 -0.13528686026E+03  0.22658404882E+03  0.12487846651E+03 0.  0.
         35    2    3    3    0    0 -0.27609069633E+01  0.13204371479E+03 -0.30115960715E+03  0.86474714583E+03  0.79977956464E+03 0.  0.
         22    1    5    5    0    0  0.18455231739E+03 -0.94617609150E+01  0.22347617445E+03  0.28998393632E+03  0.00000000000E+00 0. -1.
         22    1    5    5    0    0 -0.18731322436E+03  0.14150547571E+03 -0.52463578160E+03  0.57476320951E+03  0.00000000000E+00 0. -1.
          5    1    4    4  502    0 -0.11618682079E+02 -0.48073760821E+02 -0.13217731312E+03  0.14120556773E+03  0.47000000000E+01 0. -1.
         -5    1    4    4    0  502  0.14379589042E+02 -0.83969953969E+02 -0.31095471385E+01  0.85378481094E+02  0.47000000000E+01 0. -1.
<mgrwt>
<rscale>  0 0.10002591E+04</rscale>
<asrwt>0</asrwt>
<pdfrwt beam="1">  1        2 0.11752136E+00 0.10002591E+04</pdfrwt>
<pdfrwt beam="2">  1       -2 0.50375749E-01 0.10002591E+04</pdfrwt>
<totfact> 0.16516012E+02</totfact>
</mgrwt>
</event>
<event>
 9    1  0.4488205E-036  0.9991270E+03  0.7818608E-02  0.8681870E-01
         -2   -1    0    0    0  501 -0.00000000000E+00  0.00000000000E+00  0.36082095535E+03  0.36082095535E+03  0.00000000000E+00 0. -1.
          2   -1    0    0  501    0  0.00000000000E+00 -0.00000000000E+00 -0.69165513518E+03  0.69165513518E+03  0.00000000000E+00 0. -1.
         36    2    1    2    0    0  0.00000000000E+00  0.00000000000E+00 -0.33083417983E+03  0.10524760905E+04  0.99912695219E+03 0.  0.
         25    2    3    3    0    0 -0.82109677449E+02 -0.85330995364E+02  0.42350678279E+01  0.17687467172E+03  0.13131388272E+03 0.  0.
         35    2    3    3    0    0  0.82109677449E+02  0.85330995364E+02 -0.33506924766E+03  0.87560141880E+03  0.80023938043E+03 0.  0.
         22    1    5    5    0    0  0.42031173566E+03  0.17273683157E+03 -0.13994206492E+03  0.47548264916E+03  0.00000000000E+00 0. -1.
         22    1    5    5    0    0 -0.33820205821E+03 -0.87405836205E+02 -0.19512718274E+03  0.40011876965E+03  0.00000000000E+00 0. -1.
          5    1    4    4  502    0 -0.92974645725E+01 -0.96196190612E+02 -0.20809234223E+02  0.98971026895E+02  0.47000000000E+01 0. -1.
         -5    1    4    4    0  502 -0.72812212877E+02  0.10865195248E+02  0.25044302051E+02  0.77903644825E+02  0.47000000000E+01 0. -1.
<mgrwt>
<rscale>  0 0.99912695E+03</rscale>
<asrwt>0</asrwt>
<pdfrwt beam="1">  1        2 0.10640848E+00 0.99912695E+03</pdfrwt>
<pdfrwt beam="2">  1       -2 0.55510917E-01 0.99912695E+03</pdfrwt>
<totfact> 0.15352477E+02</totfact>
</mgrwt>
</event>
<event>
 9    1  0.4488205E-036  0.9997883E+03  0.7818608E-02  0.8681240E-01
         -2   -1    0    0    0  501 -0.00000000000E+00  0.00000000000E+00  0.21054186804E+03  0.21054186804E+03  0.00000000000E+00 0.  1.
          2   -1    0    0  501    0  0.00000000000E+00 -0.00000000000E+00 -0.11869095739E+04  0.11869095739E+04  0.00000000000E+00 0.  1.
         36    2    1    2    0    0  0.00000000000E+00  0.00000000000E+00 -0.97636770582E+03  0.13974514419E+04  0.99978829533E+03 0.  0.
         25    2    3    3    0    0 -0.48018417763E+01  0.83891957443E+02 -0.33966041611E+03  0.37147724262E+03  0.12476067211E+03 0.  0.
         35    2    3    3    0    0  0.48018417763E+01 -0.83891957443E+02 -0.63670728970E+03  0.10259741993E+04  0.80010372239E+03 0.  0.
         22    1    5    5    0    0  0.11313535345E+03 -0.18807133659E+03  0.12296501483E+03  0.25157668954E+03  0.00000000000E+00 0. -1.
         22    1    5    5    0    0 -0.10833351167E+03  0.10417937915E+03 -0.75967230453E+03  0.77439750973E+03  0.00000000000E+00 0. -1.
          5    1    4    4  502    0  0.45739838172E+02  0.37456913148E+01 -0.17945432448E+03  0.18528925380E+03  0.47000000000E+01 0. -1.
         -5    1    4    4    0  502 -0.50541679948E+02  0.80146266128E+02 -0.16020609164E+03  0.18618798883E+03  0.47000000000E+01 0. -1.
<mgrwt>
<rscale>  0 0.99978830E+03</rscale>
<asrwt>0</asrwt>
<pdfrwt beam="1">  1        2 0.18260147E+00 0.99978830E+03</pdfrwt>
<pdfrwt beam="2">  1       -2 0.32391058E-01 0.99978830E+03</pdfrwt>
<totfact> 0.20625470E+02</totfact>
</mgrwt>
</event>
<event>
 9    1  0.4488205E-036  0.1002398E+04  0.7818608E-02  0.8678757E-01
         -2   -1    0    0    0  501 -0.00000000000E+00  0.00000000000E+00  0.25152316971E+03  0.25152316971E+03  0.00000000000E+00 0. -1.
          2   -1    0    0  501    0  0.00000000000E+00 -0.00000000000E+00 -0.99871734789E+03  0.99871734789E+03  0.00000000000E+00 0. -1.
         36    2    1    2    0    0  0.00000000000E+00  0.71054273576E-14 -0.74719417818E+03  0.12502405176E+04  0.10023982302E+04 0.  0.
         25    2    3    3    0    0 -0.13186961275E+03  0.52383657486E+02 -0.12737381388E+03  0.22846415166E+03  0.12584966345E+03 0.  0.
         35    2    3    3    0    0  0.13186961275E+03 -0.52383657486E+02 -0.61982036429E+03  0.10217763659E+04  0.79982249011E+03 0.  0.
         22    1    5    5    0    0  0.31986774647E+03 -0.10547799707E+03  0.34824594661E+02  0.33860557511E+03  0.00000000000E+00 0.  1.
         22    1    5    5    0    0 -0.18799813372E+03  0.53094339581E+02 -0.65464495895E+03  0.68317079084E+03  0.00000000000E+00 0.  1.
          5    1    4    4  502    0 -0.86298435740E+02 -0.77700477022E+01 -0.79797957637E+01  0.87141039659E+02  0.47000000000E+01 0.  1.
         -5    1    4    4    0  502 -0.45571177008E+02  0.60153705189E+02 -0.11939401812E+03  0.14132311200E+03  0.47000000000E+01 0.  1.
<mgrwt>
<rscale>  0 0.10023982E+04</rscale>
<asrwt>0</asrwt>
<pdfrwt beam="1">  1        2 0.15364883E+00 0.10023982E+04</pdfrwt>
<pdfrwt beam="2">  1       -2 0.38695871E-01 0.10023982E+04</pdfrwt>
<totfact> 0.19251632E+02</totfact>
</mgrwt>
</event>
<event>
 9    1  0.4488205E-036  0.1000297E+04  0.7818608E-02  0.8680755E-01
         -2   -1    0    0    0  501 -0.00000000000E+00  0.00000000000E+00  0.48460332271E+03  0.48460332271E+03  0.00000000000E+00 0.  1.
          2   -1    0    0  501    0  0.00000000000E+00 -0.00000000000E+00 -0.51619203933E+03  0.51619203933E+03  0.00000000000E+00 0.  1.
         36    2    1    2    0    0  0.28421709430E-13  0.00000000000E+00 -0.31588716617E+02  0.10007953620E+04  0.10002967108E+04 0.  0.
         25    2    3    3    0    0 -0.64385450487E+02 -0.13101727174E+03  0.45289025046E+01  0.19256478856E+03  0.12549770957E+03 0.  0.
         35    2    3    3    0    0  0.64385450487E+02  0.13101727174E+03 -0.36117619122E+02  0.80823057347E+03  0.79411659456E+03 0.  0.
         22    1    5    5    0    0 -0.13933373356E+03  0.41733118726E+03  0.59699111402E+02  0.44400810023E+03  0.00000000000E+00 0. -1.
         22    1    5    5    0    0  0.20371918405E+03 -0.28631391551E+03 -0.95816730524E+02  0.36422247324E+03  0.00000000000E+00 0. -1.
          5    1    4    4  502    0 -0.28472887546E+01 -0.66467925232E+02 -0.53977210720E+02  0.85800474445E+02  0.47000000000E+01 0.  1.
         -5    1    4    4    0  502 -0.61538161733E+02 -0.64549346512E+02  0.58506113224E+02  0.10676431412E+03  0.47000000000E+01 0.  1.
<mgrwt>
<rscale>  0 0.10002967E+04</rscale>
<asrwt>0</asrwt>
<pdfrwt beam="1">  1        2 0.79414160E-01 0.10002967E+04</pdfrwt>
<pdfrwt beam="2">  1       -2 0.74554358E-01 0.10002967E+04</pdfrwt>
<totfact> 0.11598982E+02</totfact>
</mgrwt>
</event>
<event>
 9    1  0.4488205E-036  0.1000031E+04  0.7818608E-02  0.8681009E-01
          2   -1    0    0  501    0  0.00000000000E+00  0.00000000000E+00  0.10568048491E+04  0.10568048491E+04  0.00000000000E+00 0. -1.
         -2   -1    0    0    0  501 -0.00000000000E+00 -0.00000000000E+00 -0.23657665122E+03  0.23657665122E+03  0.00000000000E+00 0. -1.
         36    2    1    2    0    0  0.00000000000E+00  0.00000000000E+00  0.82022819790E+03  0.12933815003E+04  0.10000307039E+04 0.  0.
         25    2    3    3    0    0 -0.54482077466E+01 -0.13850060742E+03  0.12876267873E+03  0.22677790707E+03  0.12504515376E+03 0.  0.
         35    2    3    3    0    0  0.54482077466E+01  0.13850060742E+03  0.69146551917E+03  0.10666035933E+04  0.80019157689E+03 0.  0.
         22    1    5    5    0    0 -0.29861448988E+03 -0.18499092600E+03  0.19964859855E+03  0.40404432822E+03  0.00000000000E+00 0.  1.
         22    1    5    5    0    0  0.30406269762E+03  0.32349153342E+03  0.49181692062E+03  0.66255926504E+03  0.00000000000E+00 0.  1.
          5    1    4    4  502    0  0.48050571996E+01 -0.44514083517E+02  0.12408766781E+03  0.13200163449E+03  0.47000000000E+01 0.  1.
         -5    1    4    4    0  502 -0.10253264946E+02 -0.93986523908E+02  0.46750109239E+01  0.94776272587E+02  0.47000000000E+01 0.  1.
<mgrwt>
<rscale>  0 0.10000307E+04</rscale>
<asrwt>0</asrwt>
<pdfrwt beam="1">  1        2 0.16258536E+00 0.10000307E+04</pdfrwt>
<pdfrwt beam="2">  1       -2 0.36396409E-01 0.10000307E+04</pdfrwt>
<totfact> 0.19891293E+02</totfact>
</mgrwt>
</event>
<event>
 9    1  0.4488205E-036  0.9987198E+03  0.7818608E-02  0.8682258E-01
         -1   -1    0    0    0  501 -0.00000000000E+00  0.00000000000E+00  0.24724668251E+03  0.24724668251E+03  0.00000000000E+00 0.  1.
          1   -1    0    0  501    0  0.00000000000E+00 -0.00000000000E+00 -0.10085486910E+04  0.10085486910E+04  0.00000000000E+00 0.  1.
         36    2    1    2    0    0 -0.28421709430E-13  0.28421709430E-13 -0.76130200847E+03  0.12557953735E+04  0.99871981656E+03 0.  0.
         25    2    3    3    0    0 -0.79559966357E+02  0.10546128774E+03 -0.86306391895E+02  0.20140765286E+03  0.12515741244E+03 0.  0.
         35    2    3    3    0    0  0.79559966357E+02 -0.10546128774E+03 -0.67499561658E+03  0.10543877206E+04  0.79916363254E+03 0.  0.
         22    1    5    5    0    0  0.22759462876E+03 -0.38748240415E+03 -0.55476872756E+03  0.71393996221E+03  0.00000000000E+00 0.  1.
         22    1    5    5    0    0 -0.14803466240E+03  0.28202111641E+03 -0.12022688902E+03  0.34044775843E+03  0.00000000000E+00 0.  1.
          5    1    4    4  502    0  0.25882766248E+02  0.22539210036E+01  0.62999187542E+01  0.27143631386E+02  0.47000000000E+01 0. -1.
         -5    1    4    4    0  502 -0.10544273261E+03  0.10320736673E+03 -0.92606310649E+02  0.17426402147E+03  0.47000000000E+01 0. -1.
<mgrwt>
<rscale>  0 0.99871982E+03</rscale>
<asrwt>0</asrwt>
<pdfrwt beam="1">  1        1 0.15516133E+00 0.99871982E+03</pdfrwt>
<pdfrwt beam="2">  1       -1 0.38037952E-01 0.99871982E+03</pdfrwt>
<totfact> 0.11127558E+02</totfact>
</mgrwt>
</event>
<event>
 9    1  0.4488205E-036  0.1001464E+04  0.7818608E-02  0.8679645E-01
          2   -1    0    0  501    0  0.00000000000E+00  0.00000000000E+00  0.12839162692E+04  0.12839162692E+04  0.00000000000E+00 0.  1.
         -2   -1    0    0    0  501 -0.00000000000E+00 -0.00000000000E+00 -0.19528739248E+03  0.19528739248E+03  0.00000000000E+00 0.  1.
         36    2    1    2    0    0  0.00000000000E+00  0.71054273576E-14  0.10886288768E+04  0.14792036617E+04  0.10014642488E+04 0.  0.
         25    2    3    3    0    0 -0.24679718003E+02 -0.33248194294E+02  0.20564598315E+02  0.14374608735E+03  0.13610842744E+03 0.  0.
         35    2    3    3    0    0  0.24679718003E+02  0.33248194294E+02  0.10680642784E+04  0.13354575744E+04  0.80060670691E+03 0.  0.
         22    1    5    5    0    0  0.35550675686E+03 -0.18949070909E+03  0.53658297589E+03  0.67097918971E+03  0.00000000000E+00 0.  1.
         22    1    5    5    0    0 -0.33082703885E+03  0.22273890339E+03  0.53148130256E+03  0.66447838467E+03  0.00000000000E+00 0.  1.
          5    1    4    4  502    0 -0.75689120415E+02  0.56553690463E+01  0.22780327893E+02  0.79384252136E+02  0.47000000000E+01 0.  1.
         -5    1    4    4    0  502  0.51009402412E+02 -0.38903563340E+02 -0.22157295783E+01  0.64361835217E+02  0.47000000000E+01 0.  1.
<mgrwt>
<rscale>  0 0.10014642E+04</rscale>
<asrwt>0</asrwt>
<pdfrwt beam="1">  1        2 0.19752557E+00 0.10014642E+04</pdfrwt>
<pdfrwt beam="2">  1       -2 0.30044215E-01 0.10014642E+04</pdfrwt>
<totfact> 0.20766022E+02</totfact>
</mgrwt>
</event>
<event>
 9    1  0.4488205E-036  0.9984812E+03  0.7818608E-02  0.8682486E-01
          2   -1    0    0  501    0  0.00000000000E+00  0.00000000000E+00  0.72052830097E+03  0.72052830097E+03  0.00000000000E+00 0. -1.
         -2   -1    0    0    0  501 -0.00000000000E+00 -0.00000000000E+00 -0.34591451397E+03  0.34591451397E+03  0.00000000000E+00 0. -1.
         36    2    1    2    0    0  0.14210854715E-13  0.14210854715E-13  0.37461378700E+03  0.10664428149E+04  0.99848124075E+03 0.  0.
         25    2    3    3    0    0 -0.61426191315E+02 -0.12422455935E+03  0.67054856643E+02  0.19814212882E+03  0.12473584604E+03 0.  0.
         35    2    3    3    0    0  0.61426191315E+02  0.12422455935E+03  0.30755893036E+03  0.86830068612E+03  0.80009291195E+03 0.  0.
         22    1    5    5    0    0 -0.16106456191E+03  0.31376175555E+03  0.42590070848E+03  0.55297345852E+03  0.00000000000E+00 0.  1.
         22    1    5    5    0    0  0.22249075323E+03 -0.18953719620E+03 -0.11834177812E+03  0.31532722760E+03  0.00000000000E+00 0.  1.
          5    1    4    4  502    0  0.28968939613E+02 -0.76842189992E+02  0.44468865780E+02  0.93506639597E+02  0.47000000000E+01 0. -1.
         -5    1    4    4    0  502 -0.90395130928E+02 -0.47382369359E+02  0.22585990863E+02  0.10463548922E+03  0.47000000000E+01 0. -1.
<mgrwt>
<rscale>  0 0.99848124E+03</rscale>
<asrwt>0</asrwt>
<pdfrwt beam="1">  1        2 0.11085051E+00 0.99848124E+03</pdfrwt>
<pdfrwt beam="2">  1       -2 0.53217618E-01 0.99848124E+03</pdfrwt>
<totfact> 0.15910085E+02</totfact>
</mgrwt>
</event>
<event>
 9    1  0.4488205E-036  0.9997449E+03  0.7818608E-02  0.8681281E-01
          2   -1    0    0  501    0  0.00000000000E+00  0.00000000000E+00  0.12736614698E+04  0.12736614698E+04  0.00000000000E+00 0.  1.
         -2   -1    0    0    0  501 -0.00000000000E+00 -0.00000000000E+00 -0.19618437023E+03  0.19618437023E+03  0.00000000000E+00 0.  1.
         36    2    1    2    0    0  0.00000000000E+00  0.00000000000E+00  0.10774770995E+04  0.14698458400E+04  0.99974491413E+03 0.  0.
         25    2    3    3    0    0  0.54526042628E+02  0.74651391703E+02  0.38679884710E+02  0.16023843205E+03  0.12503720253E+03 0.  0.
         35    2    3    3    0    0 -0.54526042628E+02 -0.74651391703E+02  0.10387972148E+04  0.13096074079E+04  0.79210225968E+03 0.  0.
         22    1    5    5    0    0 -0.24878346904E+03 -0.32678345437E+03  0.83811416292E+03  0.93333594734E+03  0.00000000000E+00 0. -1.
         22    1    5    5    0    0  0.19425742641E+03  0.25213206266E+03  0.20068305190E+03  0.37627146060E+03  0.00000000000E+00 0. -1.
          5    1    4    4  502    0 -0.91977628539E+00  0.86481792463E+02 -0.75383040921E+01  0.86941718667E+02  0.47000000000E+01 0.  1.
         -5    1    4    4    0  502  0.55445818913E+02 -0.11830400760E+02  0.46218188802E+02  0.73296713386E+02  0.47000000000E+01 0.  1.
<mgrwt>
<rscale>  0 0.99974491E+03</rscale>
<asrwt>0</asrwt>
<pdfrwt beam="1">  1        2 0.19594791E+00 0.99974491E+03</pdfrwt>
<pdfrwt beam="2">  1       -2 0.30182212E-01 0.99974491E+03</pdfrwt>
<totfact> 0.20878315E+02</totfact>
</mgrwt>
</event>
<event>
 9    1  0.4488205E-036  0.9999003E+03  0.7818608E-02  0.8681133E-01
         -2   -1    0    0    0  501 -0.00000000000E+00  0.00000000000E+00  0.21276865454E+03  0.21276865454E+03  0.00000000000E+00 0.  1.
          2   -1    0    0  501    0  0.00000000000E+00 -0.00000000000E+00 -0.11747507325E+04  0.11747507325E+04  0.00000000000E+00 0.  1.
         36    2    1    2    0    0  0.14210854715E-13 -0.42632564146E-13 -0.96198207792E+03  0.13875193870E+04  0.99990026055E+03 0.  0.
         25    2    3    3    0    0 -0.57640687075E+02  0.62679962595E+02 -0.35875408140E+03  0.38490985876E+03  0.11045307568E+03 0.  0.
         35    2    3    3    0    0  0.57640687075E+02 -0.62679962595E+02 -0.60322799651E+03  0.10026095282E+04  0.79629807473E+03 0.  0.
         22    1    5    5    0    0 -0.11769842678E+03  0.34098086975E+03 -0.26838167890E+03  0.44961049673E+03  0.00000000000E+00 0. -1.
         22    1    5    5    0    0  0.17533911386E+03 -0.40366083235E+03 -0.33484631761E+03  0.55299903150E+03  0.00000000000E+00 0. -1.
          5    1    4    4  502    0  0.26519250736E+02  0.30700589353E+02 -0.18159963293E+03  0.18613520227E+03  0.47000000000E+01 0. -1.
         -5    1    4    4    0  502 -0.84159937810E+02  0.31979373242E+02 -0.17715444848E+03  0.19877465648E+03  0.47000000000E+01 0. -1.
<mgrwt>
<rscale>  0 0.99990026E+03</rscale>
<asrwt>0</asrwt>
<pdfrwt beam="1">  1        2 0.18073088E+00 0.99990026E+03</pdfrwt>
<pdfrwt beam="2">  1       -2 0.32733639E-01 0.99990026E+03</pdfrwt>
<totfact> 0.20568224E+02</totfact>
</mgrwt>
</event>
<event>
 9    1  0.4488205E-036  0.9995449E+03  0.7818608E-02  0.8681471E-01
         -2   -1    0    0    0  501 -0.00000000000E+00  0.00000000000E+00  0.11357107532E+03  0.11357107532E+03  0.00000000000E+00 0. -1.
          2   -1    0    0  501    0  0.00000000000E+00 -0.00000000000E+00 -0.21992617842E+04  0.21992617842E+04  0.00000000000E+00 0. -1.
         36    2    1    2    0    0 -0.28421709430E-13  0.00000000000E+00 -0.20856907088E+04  0.23128328595E+04  0.99954494792E+03 0.  0.
         25    2    3    3    0    0  0.84846697593E+02 -0.89412056593E+02 -0.23586481766E+03  0.29385069802E+03  0.12458949618E+03 0.  0.
         35    2    3    3    0    0 -0.84846697593E+02  0.89412056593E+02 -0.18498258912E+04  0.20189821615E+04  0.79952464793E+03 0.  0.
         22    1    5    5    0    0  0.19748984892E+03  0.18227931075E+03 -0.18129216212E+03  0.32418333641E+03  0.00000000000E+00 0.  1.
         22    1    5    5    0    0 -0.28233654652E+03 -0.92867254161E+02 -0.16685337291E+04  0.16947988251E+04  0.00000000000E+00 0.  1.
          5    1    4    4  502    0 -0.12110691213E+02  0.21695179328E+02 -0.54296998356E+02  0.59896608236E+02  0.47000000000E+01 0.  1.
         -5    1    4    4    0  502  0.96957388806E+02 -0.11110723592E+03 -0.18156781931E+03  0.23395408978E+03  0.47000000000E+01 0.  1.
<mgrwt>
<rscale>  0 0.99954495E+03</rscale>
<asrwt>0</asrwt>
<pdfrwt beam="1">  1        2 0.33834793E+00 0.99954495E+03</pdfrwt>
<pdfrwt beam="2">  1       -2 0.17472475E-01 0.99954495E+03</pdfrwt>
<totfact> 0.16237638E+02</totfact>
</mgrwt>
</event>
<event>
 9    1  0.4488205E-036  0.1000627E+04  0.7818608E-02  0.8680441E-01
         -2   -1    0    0    0  501 -0.00000000000E+00  0.00000000000E+00  0.18616546460E+03  0.18616546460E+03  0.00000000000E+00 0. -1.
          2   -1    0    0  501    0  0.00000000000E+00 -0.00000000000E+00 -0.13445751530E+04  0.13445751530E+04  0.00000000000E+00 0. -1.
         36    2    1    2    0    0  0.00000000000E+00 -0.71054273576E-14 -0.11584096884E+04  0.15307406176E+04  0.10006267197E+04 0.  0.
         25    2    3    3    0    0 -0.33668945388E+02 -0.45935253622E+02 -0.42250216605E+03  0.44450735161E+03  0.12583743444E+03 0.  0.
         35    2    3    3    0    0  0.33668945388E+02  0.45935253622E+02 -0.73590752231E+03  0.10862332660E+04  0.79693110195E+03 0.  0.
         22    1    5    5    0    0 -0.14035812832E+03 -0.16475581518E+03  0.76139706680E+02  0.22943874510E+03  0.00000000000E+00 0. -1.
         22    1    5    5    0    0  0.17402707370E+03  0.21069106880E+03 -0.81204722899E+03  0.85679452085E+03  0.00000000000E+00 0. -1.
          5    1    4    4  502    0 -0.55795716548E+02 -0.77790223947E+02 -0.25264536492E+03  0.27021519450E+03  0.47000000000E+01 0. -1.
         -5    1    4    4    0  502  0.22126771160E+02  0.31854970325E+02 -0.16985680114E+03  0.17429215711E+03  0.47000000000E+01 0. -1.
<mgrwt>
<rscale>  0 0.10006267E+04</rscale>
<asrwt>0</asrwt>
<pdfrwt beam="1">  1        2 0.20685772E+00 0.10006267E+04</pdfrwt>
<pdfrwt beam="2">  1       -2 0.28640841E-01 0.10006267E+04</pdfrwt>
<totfact> 0.20892310E+02</totfact>
</mgrwt>
</event>
<event>
 9    1  0.4488205E-036  0.1000421E+04  0.7818608E-02  0.8680637E-01
         -1   -1    0    0    0  501 -0.00000000000E+00  0.00000000000E+00  0.20199384966E+03  0.20199384966E+03  0.00000000000E+00 0. -1.
          1   -1    0    0  501    0  0.00000000000E+00 -0.00000000000E+00 -0.12387028726E+04  0.12387028726E+04  0.00000000000E+00 0. -1.
         36    2    1    2    0    0 -0.28421709430E-13  0.00000000000E+00 -0.10367090229E+04  0.14406967222E+04  0.10004206352E+04 0.  0.
         25    2    3    3    0    0  0.41722353214E+02 -0.10036380582E+03 -0.32215148541E+03  0.36273612842E+03  0.12642100707E+03 0.  0.
         35    2    3    3    0    0 -0.41722353214E+02  0.10036380582E+03 -0.71455753750E+03  0.10779605938E+04  0.79974553399E+03 0.  0.
         22    1    5    5    0    0  0.29209590787E+03  0.97836921376E+02 -0.21620451261E+02  0.30880337837E+03  0.00000000000E+00 0. -1.
         22    1    5    5    0    0 -0.33381826109E+03  0.25268844416E+01 -0.69293708624E+03  0.76915721545E+03  0.00000000000E+00 0. -1.
          5    1    4    4  502    0  0.60062754943E+02 -0.33119545144E+02 -0.26096976136E+03  0.26987357252E+03  0.47000000000E+01 0. -1.
         -5    1    4    4    0  502 -0.18340401729E+02 -0.67244260674E+02 -0.61181724053E+02  0.92862555895E+02  0.47000000000E+01 0. -1.
<mgrwt>
<rscale>  0 0.10004206E+04</rscale>
<asrwt>0</asrwt>
<pdfrwt beam="1">  1        1 0.19056967E+00 0.10004206E+04</pdfrwt>
<pdfrwt beam="2">  1       -1 0.31075978E-01 0.10004206E+04</pdfrwt>
<totfact> 0.10555930E+02</totfact>
</mgrwt>
</event>
<event>
 9    1  0.4488205E-036  0.1000309E+04  0.7818608E-02  0.8680744E-01
          1   -1    0    0  501    0  0.00000000000E+00  0.00000000000E+00  0.29214346351E+03  0.29214346351E+03  0.00000000000E+00 0.  1.
         -1   -1    0    0    0  501 -0.00000000000E+00 -0.00000000000E+00 -0.85627254843E+03  0.85627254843E+03  0.00000000000E+00 0.  1.
         36    2    1    2    0    0 -0.28421709430E-13  0.00000000000E+00 -0.56412908492E+03  0.11484160119E+04  0.10003088083E+04 0.  0.
         25    2    3    3    0    0  0.42459266221E+02  0.16505105319E+02  0.47191992109E+02  0.14107339336E+03  0.12489759968E+03 0.  0.
         35    2    3    3    0    0 -0.42459266221E+02 -0.16505105319E+02 -0.61132107703E+03  0.10073426186E+04  0.79934378348E+03 0.  0.
         22    1    5    5    0    0  0.33093955515E+03 -0.12192906598E+03 -0.10213477012E+03  0.36717733802E+03  0.00000000000E+00 0.  1.
         22    1    5    5    0    0 -0.37339882137E+03  0.10542396066E+03 -0.50918630691E+03  0.64016528055E+03  0.00000000000E+00 0.  1.
          5    1    4    4  502    0  0.34260597327E+02  0.70209992000E+02  0.24491658607E+02  0.82007090225E+02  0.47000000000E+01 0. -1.
         -5    1    4    4    0  502  0.81986688940E+01 -0.53704886681E+02  0.22700333502E+02  0.59066303136E+02  0.47000000000E+01 0. -1.
<mgrwt>
<rscale>  0 0.10003088E+04</rscale>
<asrwt>0</asrwt>
<pdfrwt beam="1">  1        1 0.44945150E-01 0.10003088E+04</pdfrwt>
<pdfrwt beam="2">  1       -1 0.13173423E+00 0.10003088E+04</pdfrwt>
<totfact> 0.53243834E+01</totfact>
</mgrwt>
</event>
<event>
 9    1  0.4488205E-036  0.1000281E+04  0.7818608E-02  0.8680770E-01
         -2   -1    0    0    0  501 -0.00000000000E+00  0.00000000000E+00  0.36314069340E+03  0.36314069340E+03  0.00000000000E+00 0. -1.
          2   -1    0    0  501    0  0.00000000000E+00 -0.00000000000E+00 -0.68882545419E+03  0.68882545419E+03  0.00000000000E+00 0. -1.
         36    2    1    2    0    0  0.28421709430E-13  0.00000000000E+00 -0.32568476079E+03  0.10519661476E+04  0.10002810666E+04 0.  0.
         25    2    3    3    0    0  0.95366570593E+02  0.92607771488E+02 -0.95807809261E+01  0.18218320381E+03  0.12420928411E+03 0.  0.
         35    2    3    3    0    0 -0.95366570593E+02 -0.92607771488E+02 -0.31610397986E+03  0.86978294378E+03  0.79933075825E+03 0.  0.
         22    1    5    5    0    0  0.25276907206E+03 -0.11870722045E+02  0.14090481618E+03  0.28963301790E+03  0.00000000000E+00 0.  1.
         22    1    5    5    0    0 -0.34813564266E+03 -0.80737049444E+02 -0.45700879604E+03  0.58014992588E+03  0.00000000000E+00 0.  1.
          5    1    4    4  502    0  0.67772583902E+02  0.18583676592E+02 -0.56400925371E+02  0.90230984407E+02  0.47000000000E+01 0.  1.
         -5    1    4    4    0  502  0.27593986691E+02  0.74024094897E+02  0.46820144445E+02  0.91952219400E+02  0.47000000000E+01 0.  1.
<mgrwt>
<rscale>  0 0.10002811E+04</rscale>
<asrwt>0</asrwt>
<pdfrwt beam="1">  1        2 0.10597315E+00 0.10002811E+04</pdfrwt>
<pdfrwt beam="2">  1       -2 0.55867800E-01 0.10002811E+04</pdfrwt>
<totfact> 0.15227662E+02</totfact>
</mgrwt>
</event>
<event>
 9    1  0.4488205E-036  0.1000040E+04  0.7818608E-02  0.8681000E-01
          4   -1    0    0  501    0  0.00000000000E+00  0.00000000000E+00  0.47352019008E+03  0.47352019008E+03  0.00000000000E+00 0.  1.
         -4   -1    0    0    0  501 -0.00000000000E+00 -0.00000000000E+00 -0.52800310952E+03  0.52800310952E+03  0.00000000000E+00 0.  1.
         36    2    1    2    0    0  0.28421709430E-13  0.14210854715E-13 -0.54482919433E+02  0.10015232996E+04  0.10000402648E+04 0.  0.
         25    2    3    3    0    0  0.89765204497E+02 -0.94246933783E+02 -0.68467736587E+02  0.19067241516E+03  0.12135840507E+03 0.  0.
         35    2    3    3    0    0 -0.89765204497E+02  0.94246933783E+02  0.13984817153E+02  0.81085088444E+03  0.80021453700E+03 0.  0.
         22    1    5    5    0    0 -0.27749970583E+03 -0.27120639346E+03 -0.62260971264E+02  0.39298272625E+03  0.00000000000E+00 0. -1.
         22    1    5    5    0    0  0.18773450133E+03  0.36545332724E+03  0.76245788417E+02  0.41786815820E+03  0.00000000000E+00 0. -1.
          5    1    4    4  502    0  0.91946235234E+02 -0.11034411167E+03 -0.27451012698E+02  0.14630646346E+03  0.47000000000E+01 0. -1.
         -5    1    4    4    0  502 -0.21810307362E+01  0.16097177884E+02 -0.41016723889E+02  0.44365951691E+02  0.47000000000E+01 0. -1.
<mgrwt>
<rscale>  0 0.10000403E+04</rscale>
<asrwt>0</asrwt>
<pdfrwt beam="1">  1        4 0.72849260E-01 0.10000403E+04</pdfrwt>
<pdfrwt beam="2">  1       -4 0.81231248E-01 0.10000403E+04</pdfrwt>
<totfact> 0.52898490E+00</totfact>
</mgrwt>
</event>
<event>
 9    1  0.4488205E-036  0.9998262E+03  0.7818608E-02  0.8681203E-01
         -1   -1    0    0    0  501 -0.00000000000E+00  0.00000000000E+00  0.20738596331E+03  0.20738596331E+03  0.00000000000E+00 0. -1.
          1   -1    0    0  501    0  0.00000000000E+00 -0.00000000000E+00 -0.12050628507E+04  0.12050628507E+04  0.00000000000E+00 0. -1.
         36    2    1    2    0    0  0.14210854715E-13 -0.14210854715E-13 -0.99767688740E+03  0.14124488140E+04  0.99982622519E+03 0.  0.
         25    2    3    3    0    0  0.92832625369E+02 -0.10135356376E+03 -0.23347641875E+03  0.29829990124E+03  0.12482448376E+03 0.  0.
         35    2    3    3    0    0 -0.92832625369E+02  0.10135356376E+03 -0.76420046865E+03  0.11141489128E+04  0.79902127779E+03 0.  0.
         22    1    5    5    0    0 -0.60377277441E+02  0.35740128157E+03 -0.64231447007E+02  0.36811244272E+03  0.00000000000E+00 0.  1.
         22    1    5    5    0    0 -0.32455347928E+02 -0.25604771781E+03 -0.69996902164E+03  0.74603647006E+03  0.00000000000E+00 0.  1.
          5    1    4    4  502    0  0.51173998719E+02  0.16031265833E+02 -0.35947024599E+02  0.64730658939E+02  0.47000000000E+01 0. -1.
         -5    1    4    4    0  502  0.41658626649E+02 -0.11738482959E+03 -0.19752939415E+03  0.23356924230E+03  0.47000000000E+01 0. -1.
<mgrwt>
<rscale>  0 0.99982623E+03</rscale>
<asrwt>0</asrwt>
<pdfrwt beam="1">  1        1 0.18539428E+00 0.99982623E+03</pdfrwt>
<pdfrwt beam="2">  1       -1 0.31905534E-01 0.99982623E+03</pdfrwt>
<totfact> 0.10686079E+02</totfact>
</mgrwt>
</event>
<event>
 9    1  0.4488205E-036  0.1001050E+04  0.7818608E-02  0.8680039E-01
          2   -1    0    0  501    0  0.00000000000E+00  0.00000000000E+00  0.21975038005E+04  0.21975038005E+04  0.00000000000E+00 0. -1.
         -2   -1    0    0    0  501 -0.00000000000E+00 -0.00000000000E+00 -0.11400448868E+03  0.11400448868E+03  0.00000000000E+00 0. -1.
         36    2    1    2    0    0 -0.71054273576E-14 -0.28421709430E-13  0.20834993118E+04  0.23115082892E+04  0.10010500430E+04 0.  0.
         25    2    3    3    0    0  0.39552963615E+02  0.12836841954E+03  0.48793216981E+03  0.52125264091E+03  0.12483439128E+03 0.  0.
         35    2    3    3    0    0 -0.39552963615E+02 -0.12836841954E+03  0.15955671420E+04  0.17902556483E+04  0.80071086760E+03 0.  0.
         22    1    5    5    0    0  0.42915807024E+02 -0.44704038796E+03  0.11629172741E+04  0.12466208170E+04  0.00000000000E+00 0.  1.
         22    1    5    5    0    0 -0.82468770639E+02  0.31867196842E+03  0.43264986786E+03  0.54363483125E+03  0.00000000000E+00 0.  1.
          5    1    4    4  502    0  0.49966359058E+02  0.14346770517E+03  0.47392180188E+03  0.49769828587E+03  0.47000000000E+01 0.  1.
         -5    1    4    4    0  502 -0.10413395443E+02 -0.15099285634E+02  0.14010367933E+02  0.23554355031E+02  0.47000000000E+01 0.  1.
<mgrwt>
<rscale>  0 0.10010500E+04</rscale>
<asrwt>0</asrwt>
<pdfrwt beam="1">  1        2 0.33807748E+00 0.10010500E+04</pdfrwt>
<pdfrwt beam="2">  1       -2 0.17539154E-01 0.10010500E+04</pdfrwt>
<totfact> 0.16170304E+02</totfact>
</mgrwt>
</event>
<event>
 9    1  0.4488205E-036  0.1000003E+04  0.7818608E-02  0.8681035E-01
          2   -1    0    0  501    0  0.00000000000E+00  0.00000000000E+00  0.12851947976E+04  0.12851947976E+04  0.00000000000E+00 0.  1.
         -2   -1    0    0    0  501 -0.00000000000E+00 -0.00000000000E+00 -0.19452428326E+03  0.19452428326E+03  0.00000000000E+00 0.  1.
         36    2    1    2    0    0  0.00000000000E+00 -0.14210854715E-13  0.10906705143E+04  0.14797190808E+04  0.10000031937E+04 0.  0.
         25    2    3    3    0    0 -0.38424417301E+02  0.61706898918E+02  0.28331188846E+02  0.14764644729E+03  0.12535006947E+03 0.  0.
         35    2    3    3    0    0  0.38424417301E+02 -0.61706898918E+02  0.10623393254E+04  0.13320726335E+04  0.80035522199E+03 0.  0.
         22    1    5    5    0    0  0.16059755589E+03  0.23141486655E+03  0.95684470822E+03  0.99744484112E+03  0.00000000000E+00 0.  1.
         22    1    5    5    0    0 -0.12217313859E+03 -0.29312176547E+03  0.10549461722E+03  0.33462779240E+03  0.00000000000E+00 0.  1.
          5    1    4    4  502    0 -0.70963983534E+02  0.11048814698E+02  0.45142891190E+02  0.84958424481E+02  0.47000000000E+01 0.  1.
         -5    1    4    4    0  502  0.32539566233E+02  0.50658084220E+02 -0.16811702344E+02  0.62688022805E+02  0.47000000000E+01 0.  1.
<mgrwt>
<rscale>  0 0.10000032E+04</rscale>
<asrwt>0</asrwt>
<pdfrwt beam="1">  1        2 0.19772227E+00 0.10000032E+04</pdfrwt>
<pdfrwt beam="2">  1       -2 0.29926814E-01 0.10000032E+04</pdfrwt>
<totfact> 0.20879020E+02</totfact>
</mgrwt>
</event>
<event>
 9    1  0.4488205E-036  0.1000494E+04  0.7818608E-02  0.8680568E-01
         -2   -1    0    0    0  501 -0.00000000000E+00  0.00000000000E+00  0.32939058219E+03  0.32939058219E+03  0.00000000000E+00 0.  1.
          2   -1    0    0  501    0  0.00000000000E+00 -0.00000000000E+00 -0.75972702770E+03  0.75972702770E+03  0.00000000000E+00 0.  1.
         36    2    1    2    0    0 -0.35527136788E-14 -0.14210854715E-13 -0.43033644551E+03  0.10891176099E+04  0.10004937340E+04 0.  0.
         25    2    3    3    0    0  0.11450395154E+02  0.12736785541E+03 -0.14498688803E+03  0.23017282090E+03  0.12491856404E+03 0.  0.
         35    2    3    3    0    0 -0.11450395154E+02 -0.12736785541E+03 -0.28534955748E+03  0.85894478898E+03  0.80000506150E+03 0.  0.
         22    1    5    5    0    0 -0.57805553667E+02 -0.50914694732E+02  0.27803559571E+03  0.28850923843E+03  0.00000000000E+00 0. -1.
         22    1    5    5    0    0  0.46355158514E+02 -0.76453160676E+02 -0.56338515319E+03  0.57043555055E+03  0.00000000000E+00 0. -1.
          5    1    4    4  502    0 -0.29136109568E+02  0.30760677174E+01  0.61178456714E+01  0.30296750800E+02  0.47000000000E+01 0.  1.
         -5    1    4    4    0  502  0.40586504721E+02  0.12429178769E+03 -0.15110473370E+03  0.19987607010E+03  0.47000000000E+01 0.  1.
<mgrwt>
<rscale>  0 0.10004937E+04</rscale>
<asrwt>0</asrwt>
<pdfrwt beam="1">  1        2 0.11688108E+00 0.10004937E+04</pdfrwt>
<pdfrwt beam="2">  1       -2 0.50675475E-01 0.10004937E+04</pdfrwt>
<totfact> 0.16433891E+02</totfact>
</mgrwt>
</event>
<event>
 9    1  0.4488205E-036  0.1000942E+04  0.7818608E-02  0.8680141E-01
         -1   -1    0    0    0  501 -0.00000000000E+00  0.00000000000E+00  0.62935632320E+03  0.62935632320E+03  0.00000000000E+00 0. -1.
          1   -1    0    0  501    0  0.00000000000E+00 -0.00000000000E+00 -0.39798022006E+03  0.39798022006E+03  0.00000000000E+00 0. -1.
         36    2    1    2    0    0  0.00000000000E+00 -0.14210854715E-13  0.23137610314E+03  0.10273365433E+04  0.10009422920E+04 0.  0.
         25    2    3    3    0    0  0.12802670808E+03 -0.13983874235E+02 -0.18506153346E+02  0.18040591047E+03  0.12496970873E+03 0.  0.
         35    2    3    3    0    0 -0.12802670808E+03  0.13983874235E+02  0.24988225649E+03  0.84693063279E+03  0.79891424317E+03 0.  0.
         22    1    5    5    0    0  0.83176869669E+01  0.18203031695E+03  0.49053716226E+03  0.52328857026E+03  0.00000000000E+00 0. -1.
         22    1    5    5    0    0 -0.13634439505E+03 -0.16804644271E+03 -0.24065490577E+03  0.32364206253E+03  0.00000000000E+00 0. -1.
          5    1    4    4  502    0 -0.53292467437E+01 -0.11254912354E+02 -0.42733272592E+02  0.44758200471E+02  0.47000000000E+01 0. -1.
         -5    1    4    4    0  502  0.13335595483E+03 -0.27289618807E+01  0.24227119246E+02  0.13564771000E+03  0.47000000000E+01 0. -1.
<mgrwt>
<rscale>  0 0.10009423E+04</rscale>
<asrwt>0</asrwt>
<pdfrwt beam="1">  1        1 0.61227726E-01 0.10009423E+04</pdfrwt>
<pdfrwt beam="2">  1       -1 0.96824049E-01 0.10009423E+04</pdfrwt>
<totfact> 0.74094220E+01</totfact>
</mgrwt>
</event>
<event>
 9    1  0.4488205E-036  0.1000337E+04  0.7818608E-02  0.8680717E-01
          2   -1    0    0  501    0  0.00000000000E+00  0.00000000000E+00  0.14990092839E+04  0.14990092839E+04  0.00000000000E+00 0.  1.
         -2   -1    0    0    0  501 -0.00000000000E+00 -0.00000000000E+00 -0.16688939972E+03  0.16688939972E+03  0.00000000000E+00 0.  1.
         36    2    1    2    0    0  0.21316282073E-13  0.28421709430E-13  0.13321198841E+04  0.16658986836E+04  0.10003374622E+04 0.  0.
         25    2    3    3    0    0 -0.32086828581E+02 -0.12594414291E+03  0.15663089483E+03  0.23905537117E+03  0.12539035676E+03 0.  0.
         35    2    3    3    0    0  0.32086828581E+02  0.12594414291E+03  0.11754889893E+04  0.14268433124E+04  0.79825809266E+03 0.  0.
         22    1    5    5    0    0  0.24284105991E+03 -0.14860928162E+03  0.10775823555E+03  0.30441474388E+03  0.00000000000E+00 0. -1.
         22    1    5    5    0    0 -0.21075423133E+03  0.27455342453E+03  0.10677307538E+04  0.11224285685E+04  0.00000000000E+00 0. -1.
          5    1    4    4  502    0  0.18756997418E+02 -0.12904589345E+02 -0.14724773210E+02  0.27518399743E+02  0.47000000000E+01 0. -1.
         -5    1    4    4    0  502 -0.50843826000E+02 -0.11303955357E+03  0.17135566804E+03  0.21153697143E+03  0.47000000000E+01 0. -1.
<mgrwt>
<rscale>  0 0.10003375E+04</rscale>
<asrwt>0</asrwt>
<pdfrwt beam="1">  1        2 0.23061680E+00 0.10003375E+04</pdfrwt>
<pdfrwt beam="2">  1       -2 0.25675293E-01 0.10003375E+04</pdfrwt>
<totfact> 0.20755350E+02</totfact>
</mgrwt>
</event>
<event>
 9    1  0.4488205E-036  0.9996516E+03  0.7818608E-02  0.8681370E-01
         -1   -1    0    0    0  501 -0.00000000000E+00  0.00000000000E+00  0.30158156241E+03  0.30158156241E+03  0.00000000000E+00 0.  1.
          1   -1    0    0  501    0  0.00000000000E+00 -0.00000000000E+00 -0.82838566547E+03  0.82838566547E+03  0.00000000000E+00 0.  1.
         36    2    1    2    0    0  0.00000000000E+00  0.00000000000E+00 -0.52680410306E+03  0.11299672279E+04  0.99965162586E+03 0.  0.
         25    2    3    3    0    0 -0.64867408125E+02 -0.11597390486E+03 -0.14985275670E+03  0.23606189935E+03  0.12494656614E+03 0.  0.
         35    2    3    3    0    0  0.64867408125E+02  0.11597390486E+03 -0.37695134637E+03  0.89390532853E+03  0.79957281820E+03 0.  0.
         22    1    5    5    0    0  0.20591905570E+03 -0.21730368920E+03  0.81079662340E+02  0.31015715772E+03  0.00000000000E+00 0.  1.
         22    1    5    5    0    0 -0.14105164758E+03  0.33327759406E+03 -0.45803100871E+03  0.58374817081E+03  0.00000000000E+00 0.  1.
          5    1    4    4  502    0  0.27663982956E+02  0.60329075476E+01 -0.30299634814E+02  0.41735474076E+02  0.47000000000E+01 0. -1.
         -5    1    4    4    0  502 -0.92531391081E+02 -0.12200681240E+03 -0.11955312188E+03  0.19432642527E+03  0.47000000000E+01 0. -1.
<mgrwt>
<rscale>  0 0.99965163E+03</rscale>
<asrwt>0</asrwt>
<pdfrwt beam="1">  1        1 0.12744395E+00 0.99965163E+03</pdfrwt>
<pdfrwt beam="2">  1       -1 0.46397164E-01 0.99965163E+03</pdfrwt>
<totfact> 0.10974538E+02</totfact>
</mgrwt>
</event>
<event>
 9    1  0.4488205E-036  0.9994320E+03  0.7818608E-02  0.8681579E-01
          1   -1    0    0  501    0  0.00000000000E+00  0.00000000000E+00  0.61192813251E+03  0.61192813251E+03  0.00000000000E+00 0. -1.
         -1   -1    0    0    0  501 -0.00000000000E+00 -0.00000000000E+00 -0.40808075670E+03  0.40808075670E+03  0.00000000000E+00 0. -1.
         36    2    1    2    0    0  0.14210854715E-13 -0.42632564146E-13  0.20384737581E+03  0.10200088892E+04  0.99943202943E+03 0.  0.
         25    2    3    3    0    0 -0.98743103100E+02  0.13161176362E+01  0.13895236788E+03  0.21077956524E+03  0.12396907682E+03 0.  0.
         35    2    3    3    0    0  0.98743103100E+02 -0.13161176362E+01  0.64895007935E+02  0.80922932398E+03  0.80055530987E+03 0.  0.
         22    1    5    5    0    0 -0.45041897307E+02 -0.38467164291E+03  0.94710748847E+02  0.39871189011E+03  0.00000000000E+00 0. -1.
         22    1    5    5    0    0  0.14378500041E+03  0.38335552527E+03 -0.29815740912E+02  0.41051743386E+03  0.00000000000E+00 0. -1.
          5    1    4    4  502    0  0.97293316408E+01 -0.19131825913E+02  0.85062399838E+02  0.87854359728E+02  0.47000000000E+01 0. -1.
         -5    1    4    4    0  502 -0.10847243474E+03  0.20447943549E+02  0.53889968040E+02  0.12292520551E+03  0.47000000000E+01 0. -1.
<mgrwt>
<rscale>  0 0.99943203E+03</rscale>
<asrwt>0</asrwt>
<pdfrwt beam="1">  1        1 0.94142789E-01 0.99943203E+03</pdfrwt>
<pdfrwt beam="2">  1       -1 0.62781655E-01 0.99943203E+03</pdfrwt>
<totfact> 0.99515887E+01</totfact>
</mgrwt>
</event>
<event>
 9    1  0.4488205E-036  0.9994342E+03  0.7818608E-02  0.8681577E-01
         -2   -1    0    0    0  501 -0.00000000000E+00  0.00000000000E+00  0.32895234354E+03  0.32895234354E+03  0.00000000000E+00 0.  1.
          2   -1    0    0  501    0  0.00000000000E+00 -0.00000000000E+00 -0.75912878440E+03  0.75912878440E+03  0.00000000000E+00 0.  1.
         36    2    1    2    0    0 -0.71054273576E-14  0.28421709430E-13 -0.43017644086E+03  0.10880811279E+04  0.99943422530E+03 0.  0.
         25    2    3    3    0    0  0.58200766687E+02 -0.11541220084E+03 -0.13054188639E+03  0.22427378811E+03  0.12864774613E+03 0.  0.
         35    2    3    3    0    0 -0.58200766687E+02  0.11541220084E+03 -0.29963455447E+03  0.86380733983E+03  0.79979681718E+03 0.  0.
         22    1    5    5    0    0  0.57468685177E+02  0.23693511311E+02  0.26912094877E+03  0.27620665691E+03  0.00000000000E+00 0. -1.
         22    1    5    5    0    0 -0.11566945186E+03  0.91718689530E+02 -0.56875550324E+03  0.58760068292E+03  0.00000000000E+00 0. -1.
          5    1    4    4  502    0 -0.46712704848E+01 -0.10921307206E+03 -0.11563034009E+03  0.15919102181E+03  0.47000000000E+01 0.  1.
         -5    1    4    4    0  502  0.62872037172E+02 -0.61991287769E+01 -0.14911546306E+02  0.65082766298E+02  0.47000000000E+01 0.  1.
<mgrwt>
<rscale>  0 0.99943423E+03</rscale>
<asrwt>0</asrwt>
<pdfrwt beam="1">  1        2 0.11678904E+00 0.99943423E+03</pdfrwt>
<pdfrwt beam="2">  1       -2 0.50608054E-01 0.99943423E+03</pdfrwt>
<totfact> 0.16494713E+02</totfact>
</mgrwt>
</event>
<event>
 9    1  0.4488205E-036  0.1000193E+04  0.7818608E-02  0.8680854E-01
         -2   -1    0    0    0  501 -0.00000000000E+00  0.00000000000E+00  0.33913565996E+03  0.33913565996E+03  0.00000000000E+00 0. -1.
          2   -1    0    0  501    0  0.00000000000E+00 -0.00000000000E+00 -0.73745294888E+03  0.73745294888E+03  0.00000000000E+00 0. -1.
         36    2    1    2    0    0  0.00000000000E+00  0.35527136788E-14 -0.39831728892E+03  0.10765886088E+04  0.10001931664E+04 0.  0.
         25    2    3    3    0    0 -0.61534408873E+02 -0.27064484401E+02  0.57962580472E+02  0.15317514748E+03  0.12483587337E+03 0.  0.
         35    2    3    3    0    0  0.61534408873E+02  0.27064484401E+02 -0.45627986939E+03  0.92341346136E+03  0.79998883218E+03 0.  0.
         22    1    5    5    0    0 -0.29542866019E+03 -0.21565291358E+02  0.51659531405E+02  0.30068565353E+03  0.00000000000E+00 0. -1.
         22    1    5    5    0    0  0.35696306906E+03  0.48629775759E+02 -0.50793940080E+03  0.62272780783E+03  0.00000000000E+00 0. -1.
          5    1    4    4  502    0 -0.42669794606E+02  0.23815450976E+01  0.93614011904E+02  0.10301483560E+03  0.47000000000E+01 0.  1.
         -5    1    4    4    0  502 -0.18864614267E+02 -0.29446029499E+02 -0.35651431432E+02  0.50160311880E+02  0.47000000000E+01 0.  1.
<mgrwt>
<rscale>  0 0.10001932E+04</rscale>
<asrwt>0</asrwt>
<pdfrwt beam="1">  1        2 0.11345430E+00 0.10001932E+04</pdfrwt>
<pdfrwt beam="2">  1       -2 0.52174718E-01 0.10001932E+04</pdfrwt>
<totfact> 0.16087930E+02</totfact>
</mgrwt>
</event>
<event>
 9    1  0.4488205E-036  0.1000231E+04  0.7818608E-02  0.8680818E-01
          4   -1    0    0  501    0  0.00000000000E+00  0.00000000000E+00  0.27105156354E+03  0.27105156354E+03  0.00000000000E+00 0.  1.
         -4   -1    0    0    0  501 -0.00000000000E+00 -0.00000000000E+00 -0.92276005596E+03  0.92276005596E+03  0.00000000000E+00 0.  1.
         36    2    1    2    0    0  0.00000000000E+00 -0.71054273576E-14 -0.65170849241E+03  0.11938116195E+04  0.10002310852E+04 0.  0.
         25    2    3    3    0    0  0.12771681951E+03  0.32285197084E+02 -0.17990349106E+03  0.25596640259E+03  0.12569651239E+03 0.  0.
         35    2    3    3    0    0 -0.12771681951E+03 -0.32285197084E+02 -0.47180500136E+03  0.93784521690E+03  0.79974981815E+03 0.  0.
         22    1    5    5    0    0 -0.49674287673E+02 -0.22890177480E+01  0.22784954968E+03  0.23321276069E+03  0.00000000000E+00 0.  1.
         22    1    5    5    0    0 -0.78042531835E+02 -0.29996179336E+02 -0.69965455104E+03  0.70463245621E+03  0.00000000000E+00 0.  1.
          5    1    4    4  502    0  0.86293571062E+02  0.30251933818E+02 -0.24118055043E+02  0.94686485231E+02  0.47000000000E+01 0.  1.
         -5    1    4    4    0  502  0.41423248446E+02  0.20332632660E+01 -0.15578543601E+03  0.16127991736E+03  0.47000000000E+01 0.  1.
<mgrwt>
<rscale>  0 0.10002311E+04</rscale>
<asrwt>0</asrwt>
<pdfrwt beam="1">  1        4 0.41700241E-01 0.10002311E+04</pdfrwt>
<pdfrwt beam="2">  1       -4 0.14196309E+00 0.10002311E+04</pdfrwt>
<totfact> 0.39538893E+00</totfact>
</mgrwt>
</event>
<event>
 9    1  0.4488205E-036  0.9978341E+03  0.7818608E-02  0.8683103E-01
          3   -1    0    0  501    0  0.00000000000E+00  0.00000000000E+00  0.86939219371E+03  0.86939219371E+03  0.00000000000E+00 0. -1.
         -3   -1    0    0    0  501 -0.00000000000E+00 -0.00000000000E+00 -0.28631292401E+03  0.28631292401E+03  0.00000000000E+00 0. -1.
         36    2    1    2    0    0 -0.21316282073E-13 -0.21316282073E-13  0.58307926970E+03  0.11557051177E+04  0.99783409662E+03 0.  0.
         25    2    3    3    0    0  0.20944923885E+02  0.10233033678E+02 -0.53527504625E+02  0.13321210064E+03  0.11973664932E+03 0.  0.
         35    2    3    3    0    0 -0.20944923885E+02 -0.10233033678E+02  0.63660677433E+03  0.10224930171E+04  0.79980021258E+03 0.  0.
         22    1    5    5    0    0 -0.15110509146E+03  0.16730990958E+03  0.74410348794E+03  0.77750585546E+03  0.00000000000E+00 0. -1.
         22    1    5    5    0    0  0.13016016757E+03 -0.17754294326E+03 -0.10749671361E+03  0.24498716162E+03  0.00000000000E+00 0. -1.
          5    1    4    4  502    0  0.64155019370E+02  0.33459095339E+02 -0.28156351188E+02  0.77783338084E+02  0.47000000000E+01 0. -1.
         -5    1    4    4    0  502 -0.43210095484E+02 -0.23226061662E+02 -0.25371153437E+02  0.55428762559E+02  0.47000000000E+01 0. -1.
<mgrwt>
<rscale>  0 0.99783410E+03</rscale>
<asrwt>0</asrwt>
<pdfrwt beam="1">  1        3 0.13375264E+00 0.99783410E+03</pdfrwt>
<pdfrwt beam="2">  1       -3 0.44048143E-01 0.99783410E+03</pdfrwt>
<totfact> 0.93158747E+00</totfact>
</mgrwt>
</event>
<event>
 9    1  0.4488205E-036  0.9991897E+03  0.7818608E-02  0.8681810E-01
          2   -1    0    0  501    0  0.00000000000E+00  0.00000000000E+00  0.53410879659E+03  0.53410879659E+03  0.00000000000E+00 0.  1.
         -2   -1    0    0    0  501 -0.00000000000E+00 -0.00000000000E+00 -0.46731117080E+03  0.46731117080E+03  0.00000000000E+00 0.  1.
         36    2    1    2    0    0 -0.28421709430E-13 -0.14210854715E-13  0.66797625794E+02  0.10014199674E+04  0.99918968583E+03 0.  0.
         25    2    3    3    0    0 -0.87368361225E+02  0.96606390794E+02 -0.36883167110E+02  0.18419895585E+03  0.12491141676E+03 0.  0.
         35    2    3    3    0    0  0.87368361225E+02 -0.96606390794E+02  0.10368079290E+03  0.81722101153E+03  0.80008402658E+03 0.  0.
         22    1    5    5    0    0  0.47723166406E+01  0.32084571278E+03 -0.11235012722E+03  0.33998131934E+03  0.00000000000E+00 0. -1.
         22    1    5    5    0    0  0.82596044584E+02 -0.41745210357E+03  0.21603092012E+03  0.47723969219E+03  0.00000000000E+00 0. -1.
          5    1    4    4  502    0  0.14822386445E+02  0.20920356425E+02 -0.49883393529E+02  0.56283278181E+02  0.47000000000E+01 0.  1.
         -5    1    4    4    0  502 -0.10219074767E+03  0.75686034369E+02  0.13000226418E+02  0.12791567767E+03  0.47000000000E+01 0.  1.
<mgrwt>
<rscale>  0 0.99918969E+03</rscale>
<asrwt>0</asrwt>
<pdfrwt beam="1">  1        2 0.82170584E-01 0.99918969E+03</pdfrwt>
<pdfrwt beam="2">  1       -2 0.71894026E-01 0.99918969E+03</pdfrwt>
<totfact> 0.12082232E+02</totfact>
</mgrwt>
</event>
<event>
 9    1  0.4488205E-036  0.9997117E+03  0.7818608E-02  0.8681313E-01
         -2   -1    0    0    0  501 -0.00000000000E+00  0.00000000000E+00  0.30919708533E+03  0.30919708533E+03  0.00000000000E+00 0.  1.
          2   -1    0    0  501    0  0.00000000000E+00 -0.00000000000E+00 -0.80807971918E+03  0.80807971918E+03  0.00000000000E+00 0.  1.
         36    2    1    2    0    0 -0.42632564146E-13  0.28421709430E-13 -0.49888263385E+03  0.11172768045E+04  0.99971174623E+03 0.  0.
         25    2    3    3    0    0 -0.97457094260E+02 -0.16498355606E+02  0.13015625443E+02  0.16207738029E+03  0.12778728315E+03 0.  0.
         35    2    3    3    0    0  0.97457094260E+02  0.16498355606E+02 -0.51189825929E+03  0.95519942423E+03  0.80037243282E+03 0.  0.
         22    1    5    5    0    0 -0.21607246092E+03 -0.28813171400E+03 -0.30321560792E+03  0.47079390169E+03  0.00000000000E+00 0. -1.
         22    1    5    5    0    0  0.31352955518E+03  0.30463006961E+03 -0.20868265137E+03  0.48440552254E+03  0.00000000000E+00 0. -1.
          5    1    4    4  502    0 -0.61016935518E+02  0.51963859983E+02 -0.10335632638E+02  0.80945811913E+02  0.47000000000E+01 0.  1.
         -5    1    4    4    0  502 -0.36440158742E+02 -0.68462215589E+02  0.23351258081E+02  0.81131568372E+02  0.47000000000E+01 0.  1.
<mgrwt>
<rscale>  0 0.99971175E+03</rscale>
<asrwt>0</asrwt>
<pdfrwt beam="1">  1        2 0.12431996E+00 0.99971175E+03</pdfrwt>
<pdfrwt beam="2">  1       -2 0.47568782E-01 0.99971175E+03</pdfrwt>
<totfact> 0.17226261E+02</totfact>
</mgrwt>
</event>
<event>
 9    1  0.4488205E-036  0.9999344E+03  0.7818608E-02  0.8681100E-01
          2   -1    0    0  501    0  0.00000000000E+00  0.00000000000E+00  0.10037663003E+04  0.10037663003E+04  0.00000000000E+00 0. -1.
         -2   -1    0    0    0  501 -0.00000000000E+00 -0.00000000000E+00 -0.24902930221E+03  0.24902930221E+03  0.00000000000E+00 0. -1.
         36    2    1    2    0    0  0.00000000000E+00 -0.28421709430E-13  0.75473699805E+03  0.12527956025E+04  0.99993444052E+03 0.  0.
         25    2    3    3    0    0  0.13218204505E+03  0.61589164008E+02  0.13962692120E+03  0.23873735389E+03  0.12741479061E+03 0.  0.
         35    2    3    3    0    0 -0.13218204505E+03 -0.61589164008E+02  0.61511007686E+03  0.10140582486E+04  0.79289873672E+03 0.  0.
         22    1    5    5    0    0  0.21882250161E+02 -0.31337768392E+03  0.64493282243E+03  0.71737211480E+03  0.00000000000E+00 0. -1.
         22    1    5    5    0    0 -0.15406429521E+03  0.25178851991E+03 -0.29822745571E+02  0.29668613377E+03  0.00000000000E+00 0. -1.
          5    1    4    4  502    0  0.52463756453E+02  0.88061131769E+02  0.10768960229E+03  0.14874928272E+03  0.47000000000E+01 0.  1.
         -5    1    4    4    0  502  0.79718288598E+02 -0.26471967761E+02  0.31937318905E+02  0.89988071170E+02  0.47000000000E+01 0.  1.
<mgrwt>
<rscale>  0 0.99993444E+03</rscale>
<asrwt>0</asrwt>
<pdfrwt beam="1">  1        2 0.15442558E+00 0.99993444E+03</pdfrwt>
<pdfrwt beam="2">  1       -2 0.38312201E-01 0.99993444E+03</pdfrwt>
<totfact> 0.19477361E+02</totfact>
</mgrwt>
</event>
<event>
 9    1  0.4488205E-036  0.9995002E+03  0.7818608E-02  0.8681514E-01
          2   -1    0    0  501    0  0.00000000000E+00  0.00000000000E+00  0.49844594610E+03  0.49844594610E+03  0.00000000000E+00 0.  1.
         -2   -1    0    0    0  501 -0.00000000000E+00 -0.00000000000E+00 -0.50105769180E+03  0.50105769180E+03  0.00000000000E+00 0.  1.
         36    2    1    2    0    0  0.14210854715E-13  0.14210854715E-13 -0.26117457020E+01  0.99950363790E+03  0.99950022559E+03 0.  0.
         25    2    3    3    0    0 -0.41916432971E+02  0.12140841018E+03  0.50918170119E+02  0.18588754024E+03  0.12435645601E+03 0.  0.
         35    2    3    3    0    0  0.41916432971E+02 -0.12140841018E+03 -0.53529915821E+02  0.81361609766E+03  0.80162878757E+03 0.  0.
         22    1    5    5    0    0  0.26784344570E+03 -0.37193713461E+03 -0.11052940845E+03  0.47148074578E+03  0.00000000000E+00 0. -1.
         22    1    5    5    0    0 -0.22592701273E+03  0.25052872443E+03  0.56999492628E+02  0.34213535188E+03  0.00000000000E+00 0. -1.
          5    1    4    4  502    0 -0.68788528324E+02  0.21979616340E+02  0.36336662372E+01  0.72458668866E+02  0.47000000000E+01 0. -1.
         -5    1    4    4    0  502  0.26872095353E+02  0.99428793843E+02  0.47284503882E+02  0.11342887137E+03  0.47000000000E+01 0. -1.
<mgrwt>
<rscale>  0 0.99950023E+03</rscale>
<asrwt>0</asrwt>
<pdfrwt beam="1">  1        2 0.76683992E-01 0.99950023E+03</pdfrwt>
<pdfrwt beam="2">  1       -2 0.77085798E-01 0.99950023E+03</pdfrwt>
<totfact> 0.11205565E+02</totfact>
</mgrwt>
</event>
<event>
 9    1  0.4488205E-036  0.9996236E+03  0.7818608E-02  0.8681396E-01
         -2   -1    0    0    0  501 -0.00000000000E+00  0.00000000000E+00  0.18279798493E+04  0.18279798493E+04  0.00000000000E+00 0. -1.
          2   -1    0    0  501    0  0.00000000000E+00 -0.00000000000E+00 -0.13666005466E+03  0.13666005466E+03  0.00000000000E+00 0. -1.
         36    2    1    2    0    0  0.14210854715E-13  0.42632564146E-13  0.16913197947E+04  0.19646399040E+04  0.99962358141E+03 0.  0.
         25    2    3    3    0    0 -0.88865997460E+02 -0.10213519498E+03  0.19986345028E+03  0.26652712823E+03  0.11297144669E+03 0.  0.
         35    2    3    3    0    0  0.88865997460E+02  0.10213519498E+03  0.14914563444E+04  0.16981127757E+04  0.80050996773E+03 0.  0.
         22    1    5    5    0    0 -0.47579990214E+02  0.35947167572E+03  0.12998253714E+04  0.13494553483E+04  0.00000000000E+00 0. -1.
         22    1    5    5    0    0  0.13644598767E+03 -0.25733648075E+03  0.19163097302E+03  0.34865742742E+03  0.00000000000E+00 0. -1.
          5    1    4    4  502    0 -0.29095469940E+02 -0.67739004897E+02  0.18006068835E+03  0.19462543679E+03  0.47000000000E+01 0.  1.
         -5    1    4    4    0  502 -0.59770527520E+02 -0.34396190078E+02  0.19802761927E+02  0.71901691440E+02  0.47000000000E+01 0.  1.
<mgrwt>
<rscale>  0 0.99962358E+03</rscale>
<asrwt>0</asrwt>
<pdfrwt beam="1">  1        2 0.21024625E-01 0.99962358E+03</pdfrwt>
<pdfrwt beam="2">  1       -2 0.28122765E+00 0.99962358E+03</pdfrwt>
<totfact> 0.11968502E+01</totfact>
</mgrwt>
</event>
<event>
 9    1  0.4488205E-036  0.9998645E+03  0.7818608E-02  0.8681167E-01
         -2   -1    0    0    0  501 -0.00000000000E+00  0.00000000000E+00  0.10239129760E+03  0.10239129760E+03  0.00000000000E+00 0. -1.
          2   -1    0    0  501    0  0.00000000000E+00 -0.00000000000E+00 -0.24409519507E+04  0.24409519507E+04  0.00000000000E+00 0. -1.
         36    2    1    2    0    0  0.00000000000E+00 -0.35527136788E-13 -0.23385606531E+04  0.25433432483E+04  0.99986446604E+03 0.  0.
         25    2    3    3    0    0  0.66896222953E+02  0.60363552942E+02 -0.16797030845E+03  0.22798583579E+03  0.12507858982E+03 0.  0.
         35    2    3    3    0    0 -0.66896222953E+02 -0.60363552942E+02 -0.21705903446E+04  0.23153574125E+04  0.80081123882E+03 0.  0.
         22    1    5    5    0    0  0.15404503347E+03  0.15845458854E+03 -0.14113095220E+03  0.26221303292E+03  0.00000000000E+00 0.  1.
         22    1    5    5    0    0 -0.22094125643E+03 -0.21881814148E+03 -0.20294593924E+04  0.20531443796E+04  0.00000000000E+00 0.  1.
          5    1    4    4  502    0 -0.28936752859E+02  0.42284071401E+02 -0.87299533142E+02  0.10133398663E+03  0.47000000000E+01 0.  1.
         -5    1    4    4    0  502  0.95832975812E+02  0.18079481541E+02 -0.80670775311E+02  0.12665184916E+03  0.47000000000E+01 0.  1.
<mgrwt>
<rscale>  0 0.99986447E+03</rscale>
<asrwt>0</asrwt>
<pdfrwt beam="1">  1        2 0.37553103E+00 0.99986447E+03</pdfrwt>
<pdfrwt beam="2">  1       -2 0.15752509E-01 0.99986447E+03</pdfrwt>
<totfact> 0.13926195E+02</totfact>
</mgrwt>
</event>
<event>
 9    1  0.4488205E-036  0.1001336E+04  0.7818608E-02  0.8679766E-01
         -1   -1    0    0    0  501 -0.00000000000E+00  0.00000000000E+00  0.22307650543E+03  0.22307650543E+03  0.00000000000E+00 0.  1.
          1   -1    0    0  501    0  0.00000000000E+00 -0.00000000000E+00 -0.11236888145E+04  0.11236888145E+04  0.00000000000E+00 0.  1.
         36    2    1    2    0    0 -0.14210854715E-13  0.14210854715E-13 -0.90061230908E+03  0.13467653199E+04  0.10013362551E+04 0.  0.
         25    2    3    3    0    0 -0.37390523876E+02 -0.81523618490E+02 -0.31397337111E+03  0.34902183218E+03  0.12325911701E+03 0.  0.
         35    2    3    3    0    0  0.37390523876E+02  0.81523618490E+02 -0.58663893797E+03  0.99774348776E+03  0.80206151396E+03 0.  0.
         22    1    5    5    0    0  0.35806865158E+03  0.23077398817E+03 -0.44697364477E+03  0.61745868848E+03  0.00000000000E+00 0.  1.
         22    1    5    5    0    0 -0.32067812771E+03 -0.14925036968E+03 -0.13966529320E+03  0.38028479928E+03  0.00000000000E+00 0.  1.
          5    1    4    4  502    0  0.39333996824E+02 -0.35596842091E+02 -0.18128538344E+03  0.18894649699E+03  0.47000000000E+01 0.  1.
         -5    1    4    4    0  502 -0.76724520701E+02 -0.45926776399E+02 -0.13268798767E+03  0.16007533520E+03  0.47000000000E+01 0.  1.
<mgrwt>
<rscale>  0 0.10013363E+04</rscale>
<asrwt>0</asrwt>
<pdfrwt beam="1">  1        1 0.17287520E+00 0.10013363E+04</pdfrwt>
<pdfrwt beam="2">  1       -1 0.34319463E-01 0.10013363E+04</pdfrwt>
<totfact> 0.10845245E+02</totfact>
</mgrwt>
</event>
<event>
 9    1  0.4488205E-036  0.9999378E+03  0.7818608E-02  0.8681097E-01
          2   -1    0    0  501    0  0.00000000000E+00  0.00000000000E+00  0.23332379009E+04  0.23332379009E+04  0.00000000000E+00 0.  1.
         -2   -1    0    0    0  501 -0.00000000000E+00 -0.00000000000E+00 -0.10713391627E+03  0.10713391627E+03  0.00000000000E+00 0.  1.
         36    2    1    2    0    0  0.00000000000E+00  0.00000000000E+00  0.22261039846E+04  0.24403718172E+04  0.99993782589E+03 0.  0.
         25    2    3    3    0    0  0.11486970132E+03 -0.49487111232E+01  0.21885951992E+03  0.27672574154E+03  0.12433064204E+03 0.  0.
         35    2    3    3    0    0 -0.11486970132E+03  0.49487111232E+01  0.20072444647E+04  0.21636460756E+04  0.79944634682E+03 0.  0.
         22    1    5    5    0    0  0.32205412272E+03 -0.11761726638E+03  0.69122737323E+03  0.77158794756E+03  0.00000000000E+00 0.  1.
         22    1    5    5    0    0 -0.43692382404E+03  0.12256597750E+03  0.13160170915E+04  0.13920581281E+04  0.00000000000E+00 0.  1.
          5    1    4    4  502    0  0.97546439069E+02  0.18241050843E+02  0.61909096483E+02  0.11705925823E+03  0.47000000000E+01 0.  1.
         -5    1    4    4    0  502  0.17323262247E+02 -0.23189761966E+02  0.15695042343E+03  0.15966648330E+03  0.47000000000E+01 0.  1.
<mgrwt>
<rscale>  0 0.99993783E+03</rscale>
<asrwt>0</asrwt>
<pdfrwt beam="1">  1        2 0.35895964E+00 0.99993783E+03</pdfrwt>
<pdfrwt beam="2">  1       -2 0.16482143E-01 0.99993783E+03</pdfrwt>
<totfact> 0.14960979E+02</totfact>
</mgrwt>
</event>
<event>
 9    1  0.4488205E-036  0.9999047E+03  0.7818608E-02  0.8681129E-01
         -2   -1    0    0    0  501 -0.00000000000E+00  0.00000000000E+00  0.28328383656E+03  0.28328383656E+03  0.00000000000E+00 0.  1.
          2   -1    0    0  501    0  0.00000000000E+00 -0.00000000000E+00 -0.88233887314E+03  0.88233887314E+03  0.00000000000E+00 0.  1.
         36    2    1    2    0    0  0.00000000000E+00 -0.14210854715E-13 -0.59905503658E+03  0.11656227097E+04  0.99990467772E+03 0.  0.
         25    2    3    3    0    0  0.91630373065E+02 -0.83604405926E+02 -0.39343896091E+02  0.18059250259E+03  0.12521935903E+03 0.  0.
         35    2    3    3    0    0 -0.91630373065E+02  0.83604405926E+02 -0.55971114049E+03  0.98503020711E+03  0.80101318727E+03 0.  0.
         22    1    5    5    0    0 -0.26804786920E+02 -0.89923053385E+02 -0.72844305483E+03  0.73446166425E+03  0.00000000000E+00 0.  1.
         22    1    5    5    0    0 -0.64825586146E+02  0.17352745931E+03  0.16873191434E+03  0.25056854286E+03  0.00000000000E+00 0.  1.
          5    1    4    4  502    0 -0.28878382106E+02 -0.13121335342E+02 -0.24026716805E+02  0.40068734877E+02  0.47000000000E+01 0. -1.
         -5    1    4    4    0  502  0.12050875517E+03 -0.70483070584E+02 -0.15317179286E+02  0.14052376772E+03  0.47000000000E+01 0. -1.
<mgrwt>
<rscale>  0 0.99990468E+03</rscale>
<asrwt>0</asrwt>
<pdfrwt beam="1">  1        2 0.13574444E+00 0.99990468E+03</pdfrwt>
<pdfrwt beam="2">  1       -2 0.43582129E-01 0.99990468E+03</pdfrwt>
<totfact> 0.18208531E+02</totfact>
</mgrwt>
</event>
<event>
 9    1  0.4488205E-036  0.1003547E+04  0.7818608E-02  0.8677668E-01
         -2   -1    0    0    0  501 -0.00000000000E+00  0.00000000000E+00  0.27715466678E+03  0.27715466678E+03  0.00000000000E+00 0. -1.
          2   -1    0    0  501    0  0.00000000000E+00 -0.00000000000E+00 -0.90843358394E+03  0.90843358394E+03  0.00000000000E+00 0. -1.
         36    2    1    2    0    0  0.14210854715E-13  0.00000000000E+00 -0.63127891716E+03  0.11855882507E+04  0.10035469242E+04 0.  0.
         25    2    3    3    0    0 -0.90217932579E+01 -0.13439526835E+03 -0.17890650374E+03  0.25695354920E+03  0.12599249366E+03 0.  0.
         35    2    3    3    0    0  0.90217932579E+01  0.13439526835E+03 -0.45237241343E+03  0.92863470152E+03  0.79973628624E+03 0.  0.
         22    1    5    5    0    0  0.14986520708E+03 -0.10894299908E+03  0.16636721812E+03  0.24901045883E+03  0.00000000000E+00 0.  1.
         22    1    5    5    0    0 -0.14084341383E+03  0.24333826743E+03 -0.61873963154E+03  0.67962424269E+03  0.00000000000E+00 0.  1.
          5    1    4    4  502    0  0.41011368495E+02 -0.12579253696E+03 -0.11635786163E+03  0.17625815347E+03  0.47000000000E+01 0. -1.
         -5    1    4    4    0  502 -0.50033161753E+02 -0.86027313869E+01 -0.62548642109E+02  0.80695395730E+02  0.47000000000E+01 0. -1.
<mgrwt>
<rscale>  0 0.10035469E+04</rscale>
<asrwt>0</asrwt>
<pdfrwt beam="1">  1        2 0.13975902E+00 0.10035469E+04</pdfrwt>
<pdfrwt beam="2">  1       -2 0.42639178E-01 0.10035469E+04</pdfrwt>
<totfact> 0.18258526E+02</totfact>
</mgrwt>
</event>
<event>
 9    1  0.4488205E-036  0.9997939E+03  0.7818608E-02  0.8681234E-01
         -2   -1    0    0    0  501 -0.00000000000E+00  0.00000000000E+00  0.21292206446E+03  0.21292206446E+03  0.00000000000E+00 0. -1.
          2   -1    0    0  501    0  0.00000000000E+00 -0.00000000000E+00 -0.11736546207E+04  0.11736546207E+04  0.00000000000E+00 0. -1.
         36    2    1    2    0    0  0.71054273576E-14  0.00000000000E+00 -0.96073255624E+03  0.13865766852E+04  0.99979390837E+03 0.  0.
         25    2    3    3    0    0 -0.48681308151E+02 -0.12722227947E+03 -0.22701439469E+03  0.29367911178E+03  0.12710824971E+03 0.  0.
         35    2    3    3    0    0  0.48681308151E+02  0.12722227947E+03 -0.73371816155E+03  0.10928975734E+04  0.79845312144E+03 0.  0.
         22    1    5    5    0    0  0.90802212779E+02  0.27622093508E+03 -0.85058305452E+03  0.89890743654E+03  0.00000000000E+00 0. -1.
         22    1    5    5    0    0 -0.42120904628E+02 -0.14899865561E+03  0.11686489297E+03  0.19399013684E+03  0.00000000000E+00 0. -1.
          5    1    4    4  502    0  0.27800642549E+02  0.88618974701E+01 -0.28101647663E+02  0.40782368179E+02  0.47000000000E+01 0.  1.
         -5    1    4    4    0  502 -0.76481950700E+02 -0.13608417694E+03 -0.19891274702E+03  0.25289674360E+03  0.47000000000E+01 0.  1.
<mgrwt>
<rscale>  0 0.99979391E+03</rscale>
<asrwt>0</asrwt>
<pdfrwt beam="1">  1        2 0.18056225E+00 0.99979391E+03</pdfrwt>
<pdfrwt beam="2">  1       -2 0.32757241E-01 0.99979391E+03</pdfrwt>
<totfact> 0.20571745E+02</totfact>
</mgrwt>
</event>
<event>
 9    1  0.4488205E-036  0.9988008E+03  0.7818608E-02  0.8682181E-01
          2   -1    0    0  501    0  0.00000000000E+00  0.00000000000E+00  0.30634220397E+04  0.30634220397E+04  0.00000000000E+00 0.  1.
         -2   -1    0    0    0  501 -0.00000000000E+00 -0.00000000000E+00 -0.81412469209E+02  0.81412469209E+02  0.00000000000E+00 0.  1.
         36    2    1    2    0    0  0.00000000000E+00  0.14210854715E-13  0.29820095705E+04  0.31448345089E+04  0.99880078591E+03 0.  0.
         25    2    3    3    0    0 -0.10922671039E+03  0.71483009796E+02  0.36648209589E+03  0.40870059238E+03  0.12524676701E+03 0.  0.
         35    2    3    3    0    0  0.10922671039E+03 -0.71483009796E+02  0.26155274746E+04  0.27361339165E+04  0.79271971331E+03 0.  0.
         22    1    5    5    0    0  0.14550231006E+03 -0.90253093829E+02  0.61728140070E+02  0.18200798459E+03  0.00000000000E+00 0. -1.
         22    1    5    5    0    0 -0.36275599666E+02  0.18770084033E+02  0.25537993345E+04  0.25541259320E+04  0.00000000000E+00 0. -1.
          5    1    4    4  502    0 -0.20165907265E+02  0.77772543939E+02  0.10461082931E+03  0.13198768130E+03  0.47000000000E+01 0.  1.
         -5    1    4    4    0  502 -0.89060803128E+02 -0.62895341428E+01  0.26187126658E+03  0.27671291108E+03  0.47000000000E+01 0.  1.
<mgrwt>
<rscale>  0 0.99880079E+03</rscale>
<asrwt>0</asrwt>
<pdfrwt beam="1">  1        2 0.47129561E+00 0.99880079E+03</pdfrwt>
<pdfrwt beam="2">  1       -2 0.12524998E-01 0.99880079E+03</pdfrwt>
<totfact> 0.81886567E+01</totfact>
</mgrwt>
</event>
<event>
 9    1  0.4488205E-036  0.9991643E+03  0.7818608E-02  0.8681834E-01
         -2   -1    0    0    0  501 -0.00000000000E+00  0.00000000000E+00  0.12528938196E+04  0.12528938196E+04  0.00000000000E+00 0.  1.
          2   -1    0    0  501    0  0.00000000000E+00 -0.00000000000E+00 -0.19920467729E+03  0.19920467729E+03  0.00000000000E+00 0.  1.
         36    2    1    2    0    0  0.00000000000E+00  0.00000000000E+00  0.10536891423E+04  0.14520984969E+04  0.99916426880E+03 0.  0.
         25    2    3    3    0    0  0.13496810564E+03  0.18278929644E+02  0.15665528557E+03  0.24278693575E+03  0.12591310045E+03 0.  0.
         35    2    3    3    0    0 -0.13496810564E+03 -0.18278929644E+02  0.89703385676E+03  0.12093115612E+04  0.79950872600E+03 0.  0.
         22    1    5    5    0    0 -0.20037617267E+03 -0.27662100425E+03  0.87804455744E+03  0.94214225859E+03  0.00000000000E+00 0. -1.
         22    1    5    5    0    0  0.65408067033E+02  0.25834207460E+03  0.18989299316E+02  0.26716930256E+03  0.00000000000E+00 0. -1.
          5    1    4    4  502    0  0.85664557637E+02  0.36370022763E+02  0.16491046147E+03  0.18941685588E+03  0.47000000000E+01 0.  1.
         -5    1    4    4    0  502  0.49303548001E+02 -0.18091093118E+02 -0.82551759018E+01  0.53370079866E+02  0.47000000000E+01 0.  1.
<mgrwt>
<rscale>  0 0.99916427E+03</rscale>
<asrwt>0</asrwt>
<pdfrwt beam="1">  1        2 0.30646874E-01 0.99916427E+03</pdfrwt>
<pdfrwt beam="2">  1       -2 0.19275289E+00 0.99916427E+03</pdfrwt>
<totfact> 0.28249562E+01</totfact>
</mgrwt>
</event>
<event>
 9    1  0.4488205E-036  0.1001364E+04  0.7818608E-02  0.8679740E-01
         -2   -1    0    0    0  501 -0.00000000000E+00  0.00000000000E+00  0.15632938815E+03  0.15632938815E+03  0.00000000000E+00 0.  1.
          2   -1    0    0  501    0  0.00000000000E+00 -0.00000000000E+00 -0.16035536199E+04  0.16035536199E+04  0.00000000000E+00 0.  1.
         36    2    1    2    0    0  0.14210854715E-13  0.00000000000E+00 -0.14472242317E+04  0.17598830080E+04  0.10013641820E+04 0.  0.
         25    2    3    3    0    0 -0.11583769227E+03  0.72124733427E+02 -0.20597129906E+03  0.27711335212E+03  0.12548818974E+03 0.  0.
         35    2    3    3    0    0  0.11583769227E+03 -0.72124733427E+02 -0.12412529327E+04  0.14827696559E+04  0.79954778562E+03 0.  0.
         22    1    5    5    0    0  0.14189295414E+03  0.38018157345E+02  0.72733150876E+02  0.16391797327E+03  0.00000000000E+00 0.  1.
         22    1    5    5    0    0 -0.26055261877E+02 -0.11014289077E+03 -0.13139860835E+04  0.13188516826E+04  0.00000000000E+00 0.  1.
          5    1    4    4  502    0 -0.78732414037E+02 -0.22640069261E+02 -0.10925019685E+03  0.13663477327E+03  0.47000000000E+01 0.  1.
         -5    1    4    4    0  502 -0.37105278229E+02  0.94764802688E+02 -0.96721102217E+02  0.14047857885E+03  0.47000000000E+01 0.  1.
<mgrwt>
<rscale>  0 0.10013642E+04</rscale>
<asrwt>0</asrwt>
<pdfrwt beam="1">  1        2 0.24670054E+00 0.10013642E+04</pdfrwt>
<pdfrwt beam="2">  1       -2 0.24050677E-01 0.10013642E+04</pdfrwt>
<totfact> 0.20342098E+02</totfact>
</mgrwt>
</event>
<event>
 9    1  0.4488205E-036  0.9969103E+03  0.7818608E-02  0.8683986E-01
          1   -1    0    0  501    0  0.00000000000E+00  0.00000000000E+00  0.24028224814E+03  0.24028224814E+03  0.00000000000E+00 0. -1.
         -1   -1    0    0    0  501 -0.00000000000E+00 -0.00000000000E+00 -0.10340237219E+04  0.10340237219E+04  0.00000000000E+00 0. -1.
         36    2    1    2    0    0  0.28421709430E-13  0.00000000000E+00 -0.79374147379E+03  0.12743059701E+04  0.99691031599E+03 0.  0.
         25    2    3    3    0    0 -0.76977408095E+02 -0.11683841026E+03 -0.14437149600E+03  0.23472722795E+03  0.12114869877E+03 0.  0.
         35    2    3    3    0    0  0.76977408095E+02  0.11683841026E+03 -0.64936997779E+03  0.10395787421E+04  0.79966609128E+03 0.  0.
         22    1    5    5    0    0  0.33124503050E+03  0.21078800194E+03 -0.68477347270E+02  0.39855237934E+03  0.00000000000E+00 0. -1.
         22    1    5    5    0    0 -0.25426762240E+03 -0.93949591685E+02 -0.58089263052E+03  0.64102636277E+03  0.00000000000E+00 0. -1.
          5    1    4    4  502    0  0.40544419192E+00 -0.10405722522E+03 -0.63609808568E+02  0.12205067903E+03  0.47000000000E+01 0.  1.
         -5    1    4    4    0  502 -0.77382852287E+02 -0.12781185036E+02 -0.80761687433E+02  0.11267654892E+03  0.47000000000E+01 0.  1.
<mgrwt>
<rscale>  0 0.99691032E+03</rscale>
<asrwt>0</asrwt>
<pdfrwt beam="1">  1        1 0.36966500E-01 0.99691032E+03</pdfrwt>
<pdfrwt beam="2">  1       -1 0.15908057E+00 0.99691032E+03</pdfrwt>
<totfact> 0.40286643E+01</totfact>
</mgrwt>
</event>
<event>
 9    1  0.4488205E-036  0.1000318E+04  0.7818608E-02  0.8680735E-01
          3   -1    0    0  501    0  0.00000000000E+00  0.00000000000E+00  0.76574248303E+03  0.76574248303E+03  0.00000000000E+00 0.  1.
         -3   -1    0    0    0  501 -0.00000000000E+00 -0.00000000000E+00 -0.32668835790E+03  0.32668835790E+03  0.00000000000E+00 0.  1.
         36    2    1    2    0    0  0.56843418861E-13 -0.71054273576E-14  0.43905412513E+03  0.10924308409E+04  0.10003182581E+04 0.  0.
         25    2    3    3    0    0 -0.93468367143E+02 -0.14325355870E+02 -0.30758256035E+02  0.15998400977E+03  0.12532861442E+03 0.  0.
         35    2    3    3    0    0  0.93468367143E+02  0.14325355870E+02  0.46981238117E+03  0.93244683116E+03  0.79986990690E+03 0.  0.
         22    1    5    5    0    0  0.35592974777E+03  0.25204025638E+03  0.34805006672E+03  0.55798667110E+03  0.00000000000E+00 0. -1.
         22    1    5    5    0    0 -0.26246138063E+03 -0.23771490051E+03  0.12176231445E+03  0.37446016006E+03  0.00000000000E+00 0. -1.
          5    1    4    4  502    0 -0.11100154159E+03 -0.16575195285E+02 -0.58580318889E+02  0.12668789641E+03  0.47000000000E+01 0.  1.
         -5    1    4    4    0  502  0.17533174452E+02  0.22498394151E+01  0.27822062854E+02  0.33296113365E+02  0.47000000000E+01 0.  1.
<mgrwt>
<rscale>  0 0.10003183E+04</rscale>
<asrwt>0</asrwt>
<pdfrwt beam="1">  1        3 0.11780654E+00 0.10003183E+04</pdfrwt>
<pdfrwt beam="2">  1       -3 0.50259747E-01 0.10003183E+04</pdfrwt>
<totfact> 0.97375877E+00</totfact>
</mgrwt>
</event>
<event>
 9    1  0.4488205E-036  0.1000745E+04  0.7818608E-02  0.8680328E-01
         -1   -1    0    0    0  501 -0.00000000000E+00  0.00000000000E+00  0.10509159107E+03  0.10509159107E+03  0.00000000000E+00 0.  1.
          1   -1    0    0  501    0  0.00000000000E+00 -0.00000000000E+00 -0.23824252879E+04  0.23824252879E+04  0.00000000000E+00 0.  1.
         36    2    1    2    0    0  0.00000000000E+00 -0.28421709430E-13 -0.22773336968E+04  0.24875168789E+04  0.10007454504E+04 0.  0.
         25    2    3    3    0    0  0.13869611739E+03 -0.10362454877E+02 -0.37891067146E+03  0.42261456388E+03  0.12524288089E+03 0.  0.
         35    2    3    3    0    0 -0.13869611739E+03  0.10362454877E+02 -0.18984230253E+04  0.20649023151E+04  0.80029219296E+03 0.  0.
         22    1    5    5    0    0 -0.25390745669E+03 -0.32433250763E+03 -0.13561827272E+04  0.14173539296E+04  0.00000000000E+00 0. -1.
         22    1    5    5    0    0  0.11521133930E+03  0.33469496250E+03 -0.54224029811E+03  0.64754838547E+03  0.00000000000E+00 0. -1.
          5    1    4    4  502    0  0.24347188268E+02  0.35081861946E+02 -0.20543070450E+03  0.20987469348E+03  0.47000000000E+01 0. -1.
         -5    1    4    4    0  502  0.11434892912E+03 -0.45444316822E+02 -0.17347996696E+03  0.21273987040E+03  0.47000000000E+01 0. -1.
<mgrwt>
<rscale>  0 0.10007455E+04</rscale>
<asrwt>0</asrwt>
<pdfrwt beam="1">  1        1 0.36652699E+00 0.10007455E+04</pdfrwt>
<pdfrwt beam="2">  1       -1 0.16167936E-01 0.10007455E+04</pdfrwt>
<totfact> 0.48633260E+01</totfact>
</mgrwt>
</event>
<event>
 9    1  0.4488205E-036  0.1000199E+04  0.7818608E-02  0.8680849E-01
          1   -1    0    0  501    0  0.00000000000E+00  0.00000000000E+00  0.11791918537E+04  0.11791918537E+04  0.00000000000E+00 0.  1.
         -1   -1    0    0    0  501 -0.00000000000E+00 -0.00000000000E+00 -0.21209384100E+03  0.21209384100E+03  0.00000000000E+00 0.  1.
         36    2    1    2    0    0 -0.14210854715E-13 -0.14210854715E-13  0.96709801269E+03  0.13912856947E+04  0.10001986393E+04 0.  0.
         25    2    3    3    0    0  0.37431433953E+02  0.39016137113E+02  0.13219797875E+01  0.13607874067E+03  0.12486915083E+03 0.  0.
         35    2    3    3    0    0 -0.37431433953E+02 -0.39016137113E+02  0.96577603290E+03  0.12552069540E+04  0.79993611024E+03 0.  0.
         22    1    5    5    0    0 -0.29243689533E+03  0.11701861899E+03  0.86711653578E+02  0.32669803459E+03  0.00000000000E+00 0. -1.
         22    1    5    5    0    0  0.25500546138E+03 -0.15603475610E+03  0.87906437932E+03  0.92850891942E+03  0.00000000000E+00 0. -1.
          5    1    4    4  502    0  0.18982755462E+02  0.23252009406E+02  0.62829819199E+02  0.69790236616E+02  0.47000000000E+01 0. -1.
         -5    1    4    4    0  502  0.18448678492E+02  0.15764127707E+02 -0.61507839412E+02  0.66288504053E+02  0.47000000000E+01 0. -1.
<mgrwt>
<rscale>  0 0.10001986E+04</rscale>
<asrwt>0</asrwt>
<pdfrwt beam="1">  1        1 0.18141413E+00 0.10001986E+04</pdfrwt>
<pdfrwt beam="2">  1       -1 0.32629822E-01 0.10001986E+04</pdfrwt>
<totfact> 0.10748436E+02</totfact>
</mgrwt>
</event>
<event>
 9    1  0.4488205E-036  0.1001428E+04  0.7818608E-02  0.8679679E-01
          1   -1    0    0  501    0  0.00000000000E+00  0.00000000000E+00  0.14570061129E+04  0.14570061129E+04  0.00000000000E+00 0. -1.
         -1   -1    0    0    0  501 -0.00000000000E+00 -0.00000000000E+00 -0.17207512794E+03  0.17207512794E+03  0.00000000000E+00 0. -1.
         36    2    1    2    0    0  0.00000000000E+00 -0.71054273576E-14  0.12849309850E+04  0.16290812408E+04  0.10014280070E+04 0.  0.
         25    2    3    3    0    0 -0.12851897015E+03 -0.16897946090E+02  0.33300471657E+03  0.37864934788E+03  0.12522188757E+03 0.  0.
         35    2    3    3    0    0  0.12851897015E+03  0.16897946090E+02  0.95192626839E+03  0.12504318930E+04  0.80038342824E+03 0.  0.
         22    1    5    5    0    0  0.17379288866E+03 -0.42241978761E+02 -0.93867869154E+02  0.20198893479E+03  0.00000000000E+00 0. -1.
         22    1    5    5    0    0 -0.45273918503E+02  0.59139924851E+02  0.10457941375E+04  0.10484429582E+04  0.00000000000E+00 0. -1.
          5    1    4    4  502    0 -0.98672340619E+02  0.44139055672E+02  0.24105835538E+03  0.26422662194E+03  0.47000000000E+01 0. -1.
         -5    1    4    4    0  502 -0.29846629534E+02 -0.61037001762E+02  0.91946361183E+02  0.11442272595E+03  0.47000000000E+01 0. -1.
<mgrwt>
<rscale>  0 0.10014280E+04</rscale>
<asrwt>0</asrwt>
<pdfrwt beam="1">  1        1 0.22415478E+00 0.10014280E+04</pdfrwt>
<pdfrwt beam="2">  1       -1 0.26473098E-01 0.10014280E+04</pdfrwt>
<totfact> 0.96300982E+01</totfact>
</mgrwt>
</event>
<event>
 9    1  0.4488205E-036  0.9999258E+03  0.7818608E-02  0.8681109E-01
          1   -1    0    0  501    0  0.00000000000E+00  0.00000000000E+00  0.68287509593E+03  0.68287509593E+03  0.00000000000E+00 0.  1.
         -1   -1    0    0    0  501 -0.00000000000E+00 -0.00000000000E+00 -0.36604483646E+03  0.36604483646E+03  0.00000000000E+00 0.  1.
         36    2    1    2    0    0  0.14210854715E-13 -0.14210854715E-13  0.31683025947E+03  0.10489199324E+04  0.99992580288E+03 0.  0.
         25    2    3    3    0    0  0.83241016142E+02 -0.77923202337E+02 -0.28817443945E+02  0.17166816222E+03  0.12505367093E+03 0.  0.
         35    2    3    3    0    0 -0.83241016142E+02  0.77923202337E+02  0.34564770341E+03  0.87725177018E+03  0.79818371392E+03 0.  0.
         22    1    5    5    0    0 -0.34074800366E+03 -0.29307938542E+02  0.46216947312E+03  0.57495111022E+03  0.00000000000E+00 0.  1.
         22    1    5    5    0    0  0.25750698752E+03  0.10723114088E+03 -0.11652176971E+03  0.30230065996E+03  0.00000000000E+00 0.  1.
          5    1    4    4  502    0  0.99706625464E+02 -0.99384027120E+02 -0.30646652244E+02  0.14415236142E+03  0.47000000000E+01 0. -1.
         -5    1    4    4    0  502 -0.16465609321E+02  0.21460824783E+02  0.18292082984E+01  0.27515800801E+02  0.47000000000E+01 0. -1.
<mgrwt>
<rscale>  0 0.99992580E+03</rscale>
<asrwt>0</asrwt>
<pdfrwt beam="1">  1        1 0.10505771E+00 0.99992580E+03</pdfrwt>
<pdfrwt beam="2">  1       -1 0.56314590E-01 0.99992580E+03</pdfrwt>
<totfact> 0.10400164E+02</totfact>
</mgrwt>
</event>
<event>
 9    1  0.4488205E-036  0.9988799E+03  0.7818608E-02  0.8682105E-01
         -2   -1    0    0    0  501 -0.00000000000E+00  0.00000000000E+00  0.33892267556E+03  0.33892267556E+03  0.00000000000E+00 0.  1.
          2   -1    0    0  501    0  0.00000000000E+00 -0.00000000000E+00 -0.73597988735E+03  0.73597988735E+03  0.00000000000E+00 0.  1.
         36    2    1    2    0    0  0.00000000000E+00  0.00000000000E+00 -0.39705721180E+03  0.10749025629E+04  0.99887991786E+03 0.  0.
         25    2    3    3    0    0  0.12914224913E+03  0.38961403025E+02 -0.39436300650E+02  0.18828508739E+03  0.12530100115E+03 0.  0.
         35    2    3    3    0    0 -0.12914224913E+03 -0.38961403025E+02 -0.35762091115E+03  0.88661747552E+03  0.80000132523E+03 0.  0.
         22    1    5    5    0    0 -0.19102357333E+03 -0.13636443667E+03 -0.58571743941E+03  0.63099142941E+03  0.00000000000E+00 0.  1.
         22    1    5    5    0    0  0.61881324207E+02  0.97403033645E+02  0.22809652826E+03  0.25562604612E+03  0.00000000000E+00 0.  1.
          5    1    4    4  502    0  0.47065769683E+02  0.13736933080E+02  0.45762564710E+02  0.67232375647E+02  0.47000000000E+01 0.  1.
         -5    1    4    4    0  502  0.82076479443E+02  0.25224469945E+02 -0.85198865360E+02  0.12105271174E+03  0.47000000000E+01 0.  1.
<mgrwt>
<rscale>  0 0.99887992E+03</rscale>
<asrwt>0</asrwt>
<pdfrwt beam="1">  1        2 0.11322767E+00 0.99887992E+03</pdfrwt>
<pdfrwt beam="2">  1       -2 0.52141951E-01 0.99887992E+03</pdfrwt>
<totfact> 0.16149225E+02</totfact>
</mgrwt>
</event>
<event>
 9    1  0.4488205E-036  0.9994369E+03  0.7818608E-02  0.8681574E-01
          1   -1    0    0  501    0  0.00000000000E+00  0.00000000000E+00  0.19593196654E+04  0.19593196654E+04  0.00000000000E+00 0. -1.
         -1   -1    0    0    0  501 -0.00000000000E+00 -0.00000000000E+00 -0.12745165836E+03  0.12745165836E+03  0.00000000000E+00 0. -1.
         36    2    1    2    0    0 -0.14210854715E-13  0.00000000000E+00  0.18318680070E+04  0.20867713238E+04  0.99943692269E+03 0.  0.
         25    2    3    3    0    0 -0.44872979126E+02  0.13318247741E+03  0.31572794666E+03  0.36772687120E+03  0.12564934919E+03 0.  0.
         35    2    3    3    0    0  0.44872979126E+02 -0.13318247741E+03  0.15161400604E+04  0.17190444526E+04  0.79792354938E+03 0.  0.
         22    1    5    5    0    0 -0.26557164994E+02  0.55803743688E+02  0.15157499220E+04  0.15170092837E+04  0.00000000000E+00 0. -1.
         22    1    5    5    0    0  0.71430144120E+02 -0.18898622110E+03  0.39013840561E+00  0.20203516888E+03  0.00000000000E+00 0. -1.
          5    1    4    4  502    0 -0.73635602299E+02  0.28309264257E+02  0.11802748278E+03  0.14204292682E+03  0.47000000000E+01 0.  1.
         -5    1    4    4    0  502  0.28762623173E+02  0.10487321316E+03  0.19770046388E+03  0.22568394437E+03  0.47000000000E+01 0.  1.
<mgrwt>
<rscale>  0 0.99943692E+03</rscale>
<asrwt>0</asrwt>
<pdfrwt beam="1">  1        1 0.30143377E+00 0.99943692E+03</pdfrwt>
<pdfrwt beam="2">  1       -1 0.19607949E-01 0.99943692E+03</pdfrwt>
<totfact> 0.70279154E+01</totfact>
</mgrwt>
</event>
<event>
 9    1  0.4488205E-036  0.9998086E+03  0.7818608E-02  0.8681220E-01
          1   -1    0    0  501    0  0.00000000000E+00  0.00000000000E+00  0.44637091906E+03  0.44637091906E+03  0.00000000000E+00 0.  1.
         -1   -1    0    0    0  501 -0.00000000000E+00 -0.00000000000E+00 -0.55985795544E+03  0.55985795544E+03  0.00000000000E+00 0.  1.
         36    2    1    2    0    0 -0.28421709430E-13  0.00000000000E+00 -0.11348703639E+03  0.10062288745E+04  0.99980860191E+03 0.  0.
         25    2    3    3    0    0  0.10259858096E+03 -0.97181927968E+01 -0.11537427761E+03  0.19876334247E+03  0.12479875917E+03 0.  0.
         35    2    3    3    0    0 -0.10259858096E+03  0.97181927968E+01  0.18872412220E+01  0.80746553203E+03  0.80085960795E+03 0.  0.
         22    1    5    5    0    0 -0.26560672886E+03 -0.39418292086E+02 -0.33540034687E+03  0.42964418865E+03  0.00000000000E+00 0.  1.
         22    1    5    5    0    0  0.16300814790E+03  0.49136484882E+02  0.33728758809E+03  0.37782134337E+03  0.00000000000E+00 0.  1.
          5    1    4    4  502    0 -0.52461169717E+00 -0.43927250884E+02 -0.61075893829E+01  0.44601247020E+02  0.47000000000E+01 0. -1.
         -5    1    4    4    0  502  0.10312319265E+03  0.34209058088E+02 -0.10926668823E+03  0.15416209545E+03  0.47000000000E+01 0. -1.
<mgrwt>
<rscale>  0 0.99980860E+03</rscale>
<asrwt>0</asrwt>
<pdfrwt beam="1">  1        1 0.68672449E-01 0.99980860E+03</pdfrwt>
<pdfrwt beam="2">  1       -1 0.86131993E-01 0.99980860E+03</pdfrwt>
<totfact> 0.81743456E+01</totfact>
</mgrwt>
</event>
<event>
 9    1  0.4488205E-036  0.1000903E+04  0.7818608E-02  0.8680179E-01
          1   -1    0    0  501    0  0.00000000000E+00  0.00000000000E+00  0.19047656614E+04  0.19047656614E+04  0.00000000000E+00 0. -1.
         -1   -1    0    0    0  501 -0.00000000000E+00 -0.00000000000E+00 -0.13148679797E+03  0.13148679797E+03  0.00000000000E+00 0. -1.
         36    2    1    2    0    0 -0.14210854715E-13  0.00000000000E+00  0.17732788635E+04  0.20362524594E+04  0.10009026680E+04 0.  0.
         25    2    3    3    0    0  0.80462191345E+02  0.11625585873E+03  0.45820630650E+03  0.49491995126E+03  0.12248734592E+03 0.  0.
         35    2    3    3    0    0 -0.80462191345E+02 -0.11625585873E+03  0.13150725570E+04  0.15413325081E+04  0.79139148445E+03 0.  0.
         22    1    5    5    0    0 -0.74119468627E+02  0.11054761803E+03 -0.61193311091E+02  0.14648922419E+03  0.00000000000E+00 0. -1.
         22    1    5    5    0    0 -0.63427227175E+01 -0.22680347676E+03  0.13762658681E+04  0.13948432840E+04  0.00000000000E+00 0. -1.
          5    1    4    4  502    0 -0.56446071440E+01  0.81436877567E+02  0.30433258756E+03  0.31512575342E+03  0.47000000000E+01 0.  1.
         -5    1    4    4    0  502  0.86106798489E+02  0.34818981158E+02  0.15387371895E+03  0.17979419784E+03  0.47000000000E+01 0.  1.
<mgrwt>
<rscale>  0 0.10009027E+04</rscale>
<asrwt>0</asrwt>
<pdfrwt beam="1">  1        1 0.29304085E+00 0.10009027E+04</pdfrwt>
<pdfrwt beam="2">  1       -1 0.20228740E-01 0.10009027E+04</pdfrwt>
<totfact> 0.72890432E+01</totfact>
</mgrwt>
</event>
<event>
 9    1  0.4488205E-036  0.1000603E+04  0.7818608E-02  0.8680464E-01
         -1   -1    0    0    0  501 -0.00000000000E+00  0.00000000000E+00  0.58781425714E+03  0.58781425714E+03  0.00000000000E+00 0. -1.
          1   -1    0    0  501    0  0.00000000000E+00 -0.00000000000E+00 -0.42581744107E+03  0.42581744107E+03  0.00000000000E+00 0. -1.
         36    2    1    2    0    0 -0.28421709430E-13  0.00000000000E+00  0.16199681607E+03  0.10136316982E+04  0.10006029438E+04 0.  0.
         25    2    3    3    0    0 -0.11525912118E+03 -0.32170236280E+02  0.10512516645E+03  0.20248316550E+03  0.12501416948E+03 0.  0.
         35    2    3    3    0    0  0.11525912118E+03  0.32170236280E+02  0.56871649613E+02  0.81114853271E+03  0.80025493967E+03 0.  0.
         22    1    5    5    0    0 -0.12759400912E+03  0.53441354364E+02  0.38113788714E+03  0.40546553310E+03  0.00000000000E+00 0. -1.
         22    1    5    5    0    0  0.24285313030E+03 -0.21271118084E+02 -0.32426623753E+03  0.40568299960E+03  0.00000000000E+00 0. -1.
          5    1    4    4  502    0 -0.43714258266E+02 -0.53483564389E+02  0.10724660760E+03  0.12765325251E+03  0.47000000000E+01 0.  1.
         -5    1    4    4    0  502 -0.71544862918E+02  0.21313328109E+02 -0.21214411457E+01  0.74829912986E+02  0.47000000000E+01 0.  1.
<mgrwt>
<rscale>  0 0.10006029E+04</rscale>
<asrwt>0</asrwt>
<pdfrwt beam="1">  1        1 0.65510375E-01 0.10006029E+04</pdfrwt>
<pdfrwt beam="2">  1       -1 0.90432963E-01 0.10006029E+04</pdfrwt>
<totfact> 0.78501247E+01</totfact>
</mgrwt>
</event>
<event>
 9    1  0.4488205E-036  0.1000140E+04  0.7818608E-02  0.8680904E-01
          2   -1    0    0  501    0  0.00000000000E+00  0.00000000000E+00  0.16491382375E+04  0.16491382375E+04  0.00000000000E+00 0. -1.
         -2   -1    0    0    0  501 -0.00000000000E+00 -0.00000000000E+00 -0.15163683866E+03  0.15163683866E+03  0.00000000000E+00 0. -1.
         36    2    1    2    0    0  0.00000000000E+00  0.00000000000E+00  0.14975013989E+04  0.18007750762E+04  0.10001402079E+04 0.  0.
         25    2    3    3    0    0 -0.25119589122E+02 -0.11692427004E+03  0.42648807320E+03  0.46002432602E+03  0.12420960214E+03 0.  0.
         35    2    3    3    0    0  0.25119589122E+02  0.11692427004E+03  0.10710133257E+04  0.13407507502E+04  0.79764700942E+03 0.  0.
         22    1    5    5    0    0 -0.13654707268E+03 -0.26200267487E+03  0.14902320723E+03  0.33090545627E+03  0.00000000000E+00 0.  1.
         22    1    5    5    0    0  0.16166666180E+03  0.37892694491E+03  0.92199011843E+03  0.10098452939E+04  0.00000000000E+00 0.  1.
          5    1    4    4  502    0 -0.39003405149E+02 -0.12620547626E+03  0.25095858475E+03  0.28363954081E+03  0.47000000000E+01 0.  1.
         -5    1    4    4    0  502  0.13883816027E+02  0.92812062262E+01  0.17552948845E+03  0.17638478521E+03  0.47000000000E+01 0.  1.
<mgrwt>
<rscale>  0 0.10001402E+04</rscale>
<asrwt>0</asrwt>
<pdfrwt beam="1">  1        2 0.25371356E+00 0.10001402E+04</pdfrwt>
<pdfrwt beam="2">  1       -2 0.23328746E-01 0.10001402E+04</pdfrwt>
<totfact> 0.20232060E+02</totfact>
</mgrwt>
</event>
<event>
 9    1  0.4488205E-036  0.9990644E+03  0.7818608E-02  0.8681929E-01
         -1   -1    0    0    0  501 -0.00000000000E+00  0.00000000000E+00  0.20922240421E+03  0.20922240421E+03  0.00000000000E+00 0.  1.
          1   -1    0    0  501    0  0.00000000000E+00 -0.00000000000E+00 -0.11926658502E+04  0.11926658502E+04  0.00000000000E+00 0.  1.
         36    2    1    2    0    0  0.71054273576E-14  0.14210854715E-13 -0.98344344597E+03  0.14018882544E+04  0.99906439552E+03 0.  0.
         25    2    3    3    0    0 -0.33081762003E+02 -0.82396494635E+02 -0.33494313056E+03  0.36854388254E+03  0.12551536696E+03 0.  0.
         35    2    3    3    0    0  0.33081762003E+02  0.82396494635E+02 -0.64850031541E+03  0.10333443719E+04  0.79960261784E+03 0.  0.
         22    1    5    5    0    0 -0.18508717360E+03 -0.94780533402E+02  0.10224138545E+03  0.23171946884E+03  0.00000000000E+00 0.  1.
         22    1    5    5    0    0  0.21816893560E+03  0.17717702804E+03 -0.75074170085E+03  0.80162490301E+03  0.00000000000E+00 0.  1.
          5    1    4    4  502    0 -0.73264516694E+02 -0.85193463108E+02 -0.22957219710E+03  0.25563861063E+03  0.47000000000E+01 0. -1.
         -5    1    4    4    0  502  0.40182754691E+02  0.27969684734E+01 -0.10537093346E+03  0.11290527192E+03  0.47000000000E+01 0. -1.
<mgrwt>
<rscale>  0 0.99906440E+03</rscale>
<asrwt>0</asrwt>
<pdfrwt beam="1">  1        1 0.18348705E+00 0.99906440E+03</pdfrwt>
<pdfrwt beam="2">  1       -1 0.32188063E-01 0.99906440E+03</pdfrwt>
<totfact> 0.10752494E+02</totfact>
</mgrwt>
</event>
<event>
 9    1  0.4488205E-036  0.9997581E+03  0.7818608E-02  0.8681268E-01
         -2   -1    0    0    0  501 -0.00000000000E+00  0.00000000000E+00  0.10864845597E+03  0.10864845597E+03  0.00000000000E+00 0. -1.
          2   -1    0    0  501    0  0.00000000000E+00 -0.00000000000E+00 -0.22998859639E+04  0.22998859639E+04  0.00000000000E+00 0. -1.
         36    2    1    2    0    0 -0.71054273576E-14 -0.35527136788E-14 -0.21912375079E+04  0.24085344199E+04  0.99975808850E+03 0.  0.
         25    2    3    3    0    0  0.21851875609E+02 -0.14962298665E+02 -0.74684137661E+03  0.75717678430E+03  0.12183294306E+03 0.  0.
         35    2    3    3    0    0 -0.21851875609E+02  0.14962298665E+02 -0.14443961313E+04  0.16513576356E+04  0.80000030095E+03 0.  0.
         22    1    5    5    0    0 -0.96689364586E+02 -0.22939583433E+03 -0.77425288418E+02  0.26070281417E+03  0.00000000000E+00 0. -1.
         22    1    5    5    0    0  0.74837488976E+02  0.24435813300E+03 -0.13669708429E+04  0.13906548214E+04  0.00000000000E+00 0. -1.
          5    1    4    4  502    0  0.24287180879E+02  0.13318640238E+02 -0.70940520951E+03  0.70996133318E+03  0.47000000000E+01 0. -1.
         -5    1    4    4    0  502 -0.24353052702E+01 -0.28280938903E+02 -0.37436167101E+02  0.47215451117E+02  0.47000000000E+01 0. -1.
<mgrwt>
<rscale>  0 0.99975809E+03</rscale>
<asrwt>0</asrwt>
<pdfrwt beam="1">  1        2 0.35382859E+00 0.99975809E+03</pdfrwt>
<pdfrwt beam="2">  1       -2 0.16715148E-01 0.99975809E+03</pdfrwt>
<totfact> 0.15287131E+02</totfact>
</mgrwt>
</event>
<event>
 9    1  0.4488205E-036  0.1000672E+04  0.7818608E-02  0.8680398E-01
          1   -1    0    0  501    0  0.00000000000E+00  0.00000000000E+00  0.10768833106E+04  0.10768833106E+04  0.00000000000E+00 0.  1.
         -1   -1    0    0    0  501 -0.00000000000E+00 -0.00000000000E+00 -0.23246369038E+03  0.23246369038E+03  0.00000000000E+00 0.  1.
         36    2    1    2    0    0  0.00000000000E+00  0.14210854715E-13  0.84441962023E+03  0.13093470010E+04  0.10006723110E+04 0.  0.
         25    2    3    3    0    0  0.63000578083E+02  0.95169268985E+02  0.51675751976E+02  0.17666116789E+03  0.12454927660E+03 0.  0.
         35    2    3    3    0    0 -0.63000578083E+02 -0.95169268985E+02  0.79274386825E+03  0.11326858331E+04  0.80094200368E+03 0.  0.
         22    1    5    5    0    0  0.14427683596E+03 -0.39776532096E+03  0.54545222247E+03  0.69032686674E+03  0.00000000000E+00 0.  1.
         22    1    5    5    0    0 -0.20727741404E+03  0.30259605197E+03  0.24729164578E+03  0.44235896635E+03  0.00000000000E+00 0.  1.
          5    1    4    4  502    0  0.10021613675E+03  0.61303675846E+02  0.44039487342E+02  0.12555071160E+03  0.47000000000E+01 0. -1.
         -5    1    4    4    0  502 -0.37215558665E+02  0.33865593139E+02  0.76362646337E+01  0.51110456298E+02  0.47000000000E+01 0. -1.
<mgrwt>
<rscale>  0 0.10006723E+04</rscale>
<asrwt>0</asrwt>
<pdfrwt beam="1">  1        1 0.16567435E+00 0.10006723E+04</pdfrwt>
<pdfrwt beam="2">  1       -1 0.35763645E-01 0.10006723E+04</pdfrwt>
<totfact> 0.10963261E+02</totfact>
</mgrwt>
</event>
<event>
 9    1  0.4488205E-036  0.1001081E+04  0.7818608E-02  0.8680009E-01
          1   -1    0    0  501    0  0.00000000000E+00  0.00000000000E+00  0.36171998945E+04  0.36171998945E+04  0.00000000000E+00 0. -1.
         -1   -1    0    0    0  501 -0.00000000000E+00 -0.00000000000E+00 -0.69263721914E+02  0.69263721914E+02  0.00000000000E+00 0. -1.
         36    2    1    2    0    0  0.00000000000E+00  0.14210854715E-13  0.35479361726E+04  0.36864636165E+04  0.10010808711E+04 0.  0.
         25    2    3    3    0    0  0.41478625227E+02  0.74193389491E+02  0.10964929411E+04  0.11062726952E+04  0.11965521671E+03 0.  0.
         35    2    3    3    0    0 -0.41478625227E+02 -0.74193389491E+02  0.24514432315E+04  0.25801909213E+04  0.80036625197E+03 0.  0.
         22    1    5    5    0    0  0.75444840880E+02  0.35226350986E+03  0.10018582653E+04  0.10646602689E+04  0.00000000000E+00 0.  1.
         22    1    5    5    0    0 -0.11692346611E+03 -0.42645689935E+03  0.14495849663E+04  0.15155306524E+04  0.00000000000E+00 0.  1.
          5    1    4    4  502    0  0.52243005921E+02  0.70585747603E+02  0.10874904249E+04  0.10910404179E+04  0.47000000000E+01 0. -1.
         -5    1    4    4    0  502 -0.10764380693E+02  0.36076418884E+01  0.90025162244E+01  0.15232277245E+02  0.47000000000E+01 0. -1.
<mgrwt>
<rscale>  0 0.10010809E+04</rscale>
<asrwt>0</asrwt>
<pdfrwt beam="1">  1        1 0.55649214E+00 0.10010809E+04</pdfrwt>
<pdfrwt beam="2">  1       -1 0.10655960E-01 0.10010809E+04</pdfrwt>
<totfact> 0.12174697E+01</totfact>
</mgrwt>
</event>
<event>
 9    1  0.4488205E-036  0.1000039E+04  0.7818608E-02  0.8681000E-01
         -1   -1    0    0    0  501 -0.00000000000E+00  0.00000000000E+00  0.37148235752E+03  0.37148235752E+03  0.00000000000E+00 0.  1.
          1   -1    0    0  501    0  0.00000000000E+00 -0.00000000000E+00 -0.67303244193E+03  0.67303244193E+03  0.00000000000E+00 0.  1.
         36    2    1    2    0    0  0.71054273576E-14  0.28421709430E-13 -0.30155008441E+03  0.10445147994E+04  0.10000393557E+04 0.  0.
         25    2    3    3    0    0  0.89950585108E+01 -0.10060917649E+03  0.46708784707E+02  0.16644853316E+03  0.12377514352E+03 0.  0.
         35    2    3    3    0    0 -0.89950585108E+01  0.10060917649E+03 -0.34825886911E+03  0.87806626628E+03  0.79969557370E+03 0.  0.
         22    1    5    5    0    0 -0.19045850764E+03 -0.30036363215E+03 -0.22558583886E+03  0.42116709908E+03  0.00000000000E+00 0.  1.
         22    1    5    5    0    0  0.18146344913E+03  0.40097280864E+03 -0.12267303025E+03  0.45689916720E+03  0.00000000000E+00 0.  1.
          5    1    4    4  502    0  0.62917482342E+02 -0.51950713074E+02  0.45743395576E+02  0.93659139501E+02  0.47000000000E+01 0.  1.
         -5    1    4    4    0  502 -0.53922423831E+02 -0.48658463414E+02  0.96538913025E+00  0.72789393663E+02  0.47000000000E+01 0.  1.
<mgrwt>
<rscale>  0 0.10000394E+04</rscale>
<asrwt>0</asrwt>
<pdfrwt beam="1">  1        1 0.10354345E+00 0.10000394E+04</pdfrwt>
<pdfrwt beam="2">  1       -1 0.57151132E-01 0.10000394E+04</pdfrwt>
<totfact> 0.10338483E+02</totfact>
</mgrwt>
</event>
<event>
 9    1  0.4488205E-036  0.1001310E+04  0.7818608E-02  0.8679792E-01
          2   -1    0    0  501    0  0.00000000000E+00  0.00000000000E+00  0.30801494550E+03  0.30801494550E+03  0.00000000000E+00 0. -1.
         -2   -1    0    0    0  501 -0.00000000000E+00 -0.00000000000E+00 -0.81377627298E+03  0.81377627298E+03  0.00000000000E+00 0. -1.
         36    2    1    2    0    0  0.00000000000E+00  0.14210854715E-13 -0.50576132748E+03  0.11217912185E+04  0.10013096511E+04 0.  0.
         25    2    3    3    0    0  0.13130309636E+03 -0.47513904032E+02 -0.13403538889E+03  0.23007495529E+03  0.12438217472E+03 0.  0.
         35    2    3    3    0    0 -0.13130309636E+03  0.47513904032E+02 -0.37172593858E+03  0.89171626319E+03  0.79842322513E+03 0.  0.
         22    1    5    5    0    0  0.19793975225E+03 -0.10853641281E+03 -0.46387844414E+03  0.51589098593E+03  0.00000000000E+00 0.  1.
         22    1    5    5    0    0 -0.32924284860E+03  0.15605031685E+03  0.92152505557E+02  0.37582527726E+03  0.00000000000E+00 0.  1.
          5    1    4    4  502    0  0.14401516920E+03 -0.33543809568E+02 -0.14548464263E+03  0.20749319835E+03  0.47000000000E+01 0.  1.
         -5    1    4    4    0  502 -0.12712072843E+02 -0.13970094464E+02  0.11449253739E+02  0.22581756940E+02  0.47000000000E+01 0.  1.
<mgrwt>
<rscale>  0 0.10013097E+04</rscale>
<asrwt>0</asrwt>
<pdfrwt beam="1">  1        2 0.47386916E-01 0.10013097E+04</pdfrwt>
<pdfrwt beam="2">  1       -2 0.12519635E+00 0.10013097E+04</pdfrwt>
<totfact> 0.59062854E+01</totfact>
</mgrwt>
</event>
<event>
 9    1  0.4488205E-036  0.1000170E+04  0.7818608E-02  0.8680876E-01
         -2   -1    0    0    0  501 -0.00000000000E+00  0.00000000000E+00  0.12323370114E+03  0.12323370114E+03  0.00000000000E+00 0. -1.
          2   -1    0    0  501    0  0.00000000000E+00 -0.00000000000E+00 -0.20293538630E+04  0.20293538630E+04  0.00000000000E+00 0. -1.
         36    2    1    2    0    0 -0.14210854715E-13  0.00000000000E+00 -0.19061201618E+04  0.21525875641E+04  0.10001695605E+04 0.  0.
         25    2    3    3    0    0 -0.48411022306E+02 -0.95985457793E+02 -0.16364646491E+03  0.23209528370E+03  0.12462431565E+03 0.  0.
         35    2    3    3    0    0  0.48411022306E+02  0.95985457793E+02 -0.17424736969E+04  0.19204922804E+04  0.80032442135E+03 0.  0.
         22    1    5    5    0    0 -0.86330698548E+02 -0.32968416359E+03 -0.97179999685E+03  0.10298251653E+04  0.00000000000E+00 0. -1.
         22    1    5    5    0    0  0.13474172085E+03  0.42566962139E+03 -0.77067370005E+03  0.89066711507E+03  0.00000000000E+00 0. -1.
          5    1    4    4  502    0  0.32674224542E+01 -0.28908768498E+02  0.15930654768E+02  0.33500279206E+02  0.47000000000E+01 0. -1.
         -5    1    4    4    0  502 -0.51678444760E+02 -0.67076689295E+02 -0.17957711968E+03  0.19859500450E+03  0.47000000000E+01 0. -1.
<mgrwt>
<rscale>  0 0.10001696E+04</rscale>
<asrwt>0</asrwt>
<pdfrwt beam="1">  1        2 0.31220828E+00 0.10001696E+04</pdfrwt>
<pdfrwt beam="2">  1       -2 0.18959032E-01 0.10001696E+04</pdfrwt>
<totfact> 0.17686982E+02</totfact>
</mgrwt>
</event>
<event>
 9    1  0.4488205E-036  0.1000510E+04  0.7818608E-02  0.8680553E-01
         -1   -1    0    0    0  501 -0.00000000000E+00  0.00000000000E+00  0.22972644704E+03  0.22972644704E+03  0.00000000000E+00 0. -1.
          1   -1    0    0  501    0  0.00000000000E+00 -0.00000000000E+00 -0.10893608022E+04  0.10893608022E+04  0.00000000000E+00 0. -1.
         36    2    1    2    0    0  0.00000000000E+00  0.35527136788E-13 -0.85963435512E+03  0.13190872492E+04  0.10005098433E+04 0.  0.
         25    2    3    3    0    0 -0.89351587405E+02 -0.55496958995E+02 -0.28789552366E+03  0.33066100908E+03  0.12405342298E+03 0.  0.
         35    2    3    3    0    0  0.89351587405E+02  0.55496958995E+02 -0.57173883146E+03  0.98842624013E+03  0.79939822501E+03 0.  0.
         22    1    5    5    0    0  0.67520554143E+02  0.42435498260E+03 -0.37224393639E+03  0.56850833298E+03  0.00000000000E+00 0.  1.
         22    1    5    5    0    0  0.21831033261E+02 -0.36885802360E+03 -0.19949489508E+03  0.41991790716E+03  0.00000000000E+00 0.  1.
          5    1    4    4  502    0  0.12961868461E+02 -0.44261244651E+02 -0.36609779110E+02  0.59071429122E+02  0.47000000000E+01 0.  1.
         -5    1    4    4    0  502 -0.10231345587E+03 -0.11235714344E+02 -0.25128574455E+03  0.27158957996E+03  0.47000000000E+01 0.  1.
<mgrwt>
<rscale>  0 0.10005098E+04</rscale>
<asrwt>0</asrwt>
<pdfrwt beam="1">  1        1 0.16759397E+00 0.10005098E+04</pdfrwt>
<pdfrwt beam="2">  1       -1 0.35342531E-01 0.10005098E+04</pdfrwt>
<totfact> 0.10947406E+02</totfact>
</mgrwt>
</event>
<event>
 9    1  0.4488205E-036  0.1002143E+04  0.7818608E-02  0.8679000E-01
         -2   -1    0    0    0  501 -0.00000000000E+00  0.00000000000E+00  0.14602061979E+03  0.14602061979E+03  0.00000000000E+00 0.  1.
          2   -1    0    0  501    0  0.00000000000E+00 -0.00000000000E+00 -0.17194338391E+04  0.17194338391E+04  0.00000000000E+00 0.  1.
         36    2    1    2    0    0  0.21316282073E-13 -0.14210854715E-13 -0.15734132193E+04  0.18654544589E+04  0.10021432929E+04 0.  0.
         25    2    3    3    0    0 -0.20500205669E+02  0.11055300642E+03 -0.46194519047E+03  0.49155014681E+03  0.12484375104E+03 0.  0.
         35    2    3    3    0    0  0.20500205669E+02 -0.11055300642E+03 -0.11114680288E+04  0.13739043121E+04  0.79975599650E+03 0.  0.
         22    1    5    5    0    0 -0.30435410308E+03 -0.88448506813E+02 -0.13485473816E+03  0.34444209793E+03  0.00000000000E+00 0. -1.
         22    1    5    5    0    0  0.32485430875E+03 -0.22104499606E+02 -0.97661329067E+03  0.10294622141E+04  0.00000000000E+00 0. -1.
          5    1    4    4  502    0 -0.11246720394E+02  0.65473258458E+02 -0.43048696784E+03  0.43560802997E+03  0.47000000000E+01 0. -1.
         -5    1    4    4    0  502 -0.92534852754E+01  0.45079747962E+02 -0.31458222625E+02  0.55942116842E+02  0.47000000000E+01 0. -1.
<mgrwt>
<rscale>  0 0.10021433E+04</rscale>
<asrwt>0</asrwt>
<pdfrwt beam="1">  1        2 0.26452827E+00 0.10021433E+04</pdfrwt>
<pdfrwt beam="2">  1       -2 0.22464712E-01 0.10021433E+04</pdfrwt>
<totfact> 0.19733815E+02</totfact>
</mgrwt>
</event>
<event>
 9    1  0.4488205E-036  0.1000321E+04  0.7818608E-02  0.8680732E-01
          1   -1    0    0  501    0  0.00000000000E+00  0.00000000000E+00  0.46500427725E+03  0.46500427725E+03  0.00000000000E+00 0. -1.
         -1   -1    0    0    0  501 -0.00000000000E+00 -0.00000000000E+00 -0.53797470727E+03  0.53797470727E+03  0.00000000000E+00 0. -1.
         36    2    1    2    0    0 -0.42632564146E-13  0.35527136788E-14 -0.72970430012E+02  0.10029789845E+04  0.10003210283E+04 0.  0.
         25    2    3    3    0    0 -0.33388439697E+02 -0.16708700634E+02 -0.15214724914E+03  0.20085142424E+03  0.12569224566E+03 0.  0.
         35    2    3    3    0    0  0.33388439697E+02  0.16708700634E+02  0.79176819125E+02  0.80212756027E+03  0.79733662006E+03 0.  0.
         22    1    5    5    0    0 -0.26533746592E+03 -0.12959667459E+03 -0.20920557558E+03  0.36189258315E+03  0.00000000000E+00 0. -1.
         22    1    5    5    0    0  0.29872590562E+03  0.14630537523E+03  0.28838239470E+03  0.44023497712E+03  0.00000000000E+00 0. -1.
          5    1    4    4  502    0 -0.20121272995E+02 -0.41605861439E+01 -0.17210719003E+03  0.17339305339E+03  0.47000000000E+01 0.  1.
         -5    1    4    4    0  502 -0.13267166702E+02 -0.12548114490E+02  0.19959940893E+02  0.27458370855E+02  0.47000000000E+01 0.  1.
<mgrwt>
<rscale>  0 0.10003210E+04</rscale>
<asrwt>0</asrwt>
<pdfrwt beam="1">  1        1 0.71539120E-01 0.10003210E+04</pdfrwt>
<pdfrwt beam="2">  1       -1 0.82765339E-01 0.10003210E+04</pdfrwt>
<totfact> 0.84141934E+01</totfact>
</mgrwt>
</event>
<event>
 9    1  0.4488205E-036  0.1000108E+04  0.7818608E-02  0.8680935E-01
          2   -1    0    0  501    0  0.00000000000E+00  0.00000000000E+00  0.75467607275E+03  0.75467607275E+03  0.00000000000E+00 0.  1.
         -2   -1    0    0    0  501 -0.00000000000E+00 -0.00000000000E+00 -0.33133952010E+03  0.33133952010E+03  0.00000000000E+00 0.  1.
         36    2    1    2    0    0  0.00000000000E+00  0.14210854715E-13  0.42333655264E+03  0.10860155928E+04  0.10001080097E+04 0.  0.
         25    2    3    3    0    0 -0.95457162668E+02  0.93837552562E+02  0.55507302002E+02  0.19440223365E+03  0.12959016821E+03 0.  0.
         35    2    3    3    0    0  0.95457162668E+02 -0.93837552562E+02  0.36782925064E+03  0.89161335920E+03  0.80109828891E+03 0.  0.
         22    1    5    5    0    0 -0.10778801208E+03  0.32204924979E+03  0.88426236441E+02  0.35093186536E+03  0.00000000000E+00 0.  1.
         22    1    5    5    0    0  0.20324517474E+03 -0.41588680235E+03  0.27940301420E+03  0.54068149383E+03  0.00000000000E+00 0.  1.
          5    1    4    4  502    0  0.77207331524E+01  0.70614946812E+02  0.52571381960E+02  0.88498139160E+02  0.47000000000E+01 0.  1.
         -5    1    4    4    0  502 -0.10317789582E+03  0.23222605750E+02  0.29359200425E+01  0.10590409449E+03  0.47000000000E+01 0.  1.
<mgrwt>
<rscale>  0 0.10001080E+04</rscale>
<asrwt>0</asrwt>
<pdfrwt beam="1">  1        2 0.11610401E+00 0.10001080E+04</pdfrwt>
<pdfrwt beam="2">  1       -2 0.50975311E-01 0.10001080E+04</pdfrwt>
<totfact> 0.16377936E+02</totfact>
</mgrwt>
</event>
<event>
 9    1  0.4488205E-036  0.1000254E+04  0.7818608E-02  0.8680797E-01
          2   -1    0    0  501    0  0.00000000000E+00  0.00000000000E+00  0.19056932342E+04  0.19056932342E+04  0.00000000000E+00 0. -1.
         -2   -1    0    0    0  501 -0.00000000000E+00 -0.00000000000E+00 -0.13125238775E+03  0.13125238775E+03  0.00000000000E+00 0. -1.
         36    2    1    2    0    0  0.28421709430E-13 -0.28421709430E-13  0.17744408464E+04  0.20369456219E+04  0.10002535425E+04 0.  0.
         25    2    3    3    0    0  0.42671421176E+02 -0.12954087952E+03  0.26273585313E+03  0.32121542090E+03  0.12468972872E+03 0.  0.
         35    2    3    3    0    0 -0.42671421176E+02  0.12954087952E+03  0.15117049933E+04  0.17157302010E+04  0.79992277522E+03 0.  0.
         22    1    5    5    0    0  0.28311423873E+03 -0.13496002747E+03  0.10308936625E+04  0.10775479686E+04  0.00000000000E+00 0.  1.
         22    1    5    5    0    0 -0.32578565991E+03  0.26450090699E+03  0.48081133077E+03  0.63818223244E+03  0.00000000000E+00 0.  1.
          5    1    4    4  502    0 -0.88679654414E+01 -0.51596241663E+02  0.20418798917E+03  0.21084505659E+03  0.47000000000E+01 0. -1.
         -5    1    4    4    0  502  0.51539386617E+02 -0.77944637857E+02  0.58547863962E+02  0.11037036431E+03  0.47000000000E+01 0. -1.
<mgrwt>
<rscale>  0 0.10002535E+04</rscale>
<asrwt>0</asrwt>
<pdfrwt beam="1">  1        2 0.29318355E+00 0.10002535E+04</pdfrwt>
<pdfrwt beam="2">  1       -2 0.20192676E-01 0.10002535E+04</pdfrwt>
<totfact> 0.18651665E+02</totfact>
</mgrwt>
</event>
<event>
 9    1  0.4488205E-036  0.9999659E+03  0.7818608E-02  0.8681070E-01
          2   -1    0    0  501    0  0.00000000000E+00  0.00000000000E+00  0.24372638501E+03  0.24372638501E+03  0.00000000000E+00 0.  1.
         -2   -1    0    0    0  501 -0.00000000000E+00 -0.00000000000E+00 -0.10256705252E+04  0.10256705252E+04  0.00000000000E+00 0.  1.
         36    2    1    2    0    0 -0.10658141036E-13  0.14210854715E-13 -0.78194414016E+03  0.12693969102E+04  0.99996593803E+03 0.  0.
         25    2    3    3    0    0  0.28753899835E+02  0.61321071227E+01 -0.31825630194E+03  0.34387225492E+03  0.12687263095E+03 0.  0.
         35    2    3    3    0    0 -0.28753899835E+02 -0.61321071227E+01 -0.46368783822E+03  0.92552465526E+03  0.80045305089E+03 0.  0.
         22    1    5    5    0    0  0.55897117391E+02  0.21750674860E+03 -0.60667812330E+03  0.64690959083E+03  0.00000000000E+00 0. -1.
         22    1    5    5    0    0 -0.84651017225E+02 -0.22363885572E+03  0.14299028507E+03  0.27861506443E+03  0.00000000000E+00 0. -1.
          5    1    4    4  502    0  0.54787247304E+02 -0.42421395185E+02 -0.12658642617E+03  0.14438639315E+03  0.47000000000E+01 0. -1.
         -5    1    4    4    0  502 -0.26033347470E+02  0.48553502307E+02 -0.19166987577E+03  0.19948586177E+03  0.47000000000E+01 0. -1.
<mgrwt>
<rscale>  0 0.99996594E+03</rscale>
<asrwt>0</asrwt>
<pdfrwt beam="1">  1        2 0.37496367E-01 0.99996594E+03</pdfrwt>
<pdfrwt beam="2">  1       -2 0.15779547E+00 0.99996594E+03</pdfrwt>
<totfact> 0.40717311E+01</totfact>
</mgrwt>
</event>
<event>
 9    1  0.4488205E-036  0.9999710E+03  0.7818608E-02  0.8681066E-01
          1   -1    0    0  501    0  0.00000000000E+00  0.00000000000E+00  0.18650868673E+04  0.18650868673E+04  0.00000000000E+00 0.  1.
         -1   -1    0    0    0  501 -0.00000000000E+00 -0.00000000000E+00 -0.13403423369E+03  0.13403423369E+03  0.00000000000E+00 0.  1.
         36    2    1    2    0    0  0.71054273576E-14  0.00000000000E+00  0.17310526336E+04  0.19991211010E+04  0.99997097760E+03 0.  0.
         25    2    3    3    0    0 -0.55479832983E+02 -0.66850703638E+02  0.10295837682E+03  0.18370160236E+03  0.12489524774E+03 0.  0.
         35    2    3    3    0    0  0.55479832983E+02  0.66850703638E+02  0.16280942568E+04  0.18154194986E+04  0.79844224495E+03 0.  0.
         22    1    5    5    0    0 -0.30803704596E+03 -0.24546493972E+02  0.28280972830E+03  0.41889222298E+03  0.00000000000E+00 0. -1.
         22    1    5    5    0    0  0.36351687895E+03  0.91397197609E+02  0.13452845285E+04  0.13965272756E+04  0.00000000000E+00 0. -1.
          5    1    4    4  502    0  0.87611909176E+01  0.27466531938E+02 -0.10461667956E+01  0.29229322742E+02  0.47000000000E+01 0. -1.
         -5    1    4    4    0  502 -0.64241023900E+02 -0.94317235576E+02  0.10400454361E+03  0.15447227962E+03  0.47000000000E+01 0. -1.
<mgrwt>
<rscale>  0 0.99997098E+03</rscale>
<asrwt>0</asrwt>
<pdfrwt beam="1">  1        1 0.28693642E+00 0.99997098E+03</pdfrwt>
<pdfrwt beam="2">  1       -1 0.20620653E-01 0.99997098E+03</pdfrwt>
<totfact> 0.75289638E+01</totfact>
</mgrwt>
</event>
<event>
 9    1  0.4488205E-036  0.1001953E+04  0.7818608E-02  0.8679181E-01
         -2   -1    0    0    0  501 -0.00000000000E+00  0.00000000000E+00  0.10199538463E+03  0.10199538463E+03  0.00000000000E+00 0.  1.
          2   -1    0    0  501    0  0.00000000000E+00 -0.00000000000E+00 -0.24606730890E+04  0.24606730890E+04  0.00000000000E+00 0.  1.
         36    2    1    2    0    0 -0.14210854715E-13 -0.14210854715E-13 -0.23586777044E+04  0.25626684736E+04  0.10019526898E+04 0.  0.
         25    2    3    3    0    0  0.11116394556E+03  0.88242383215E+02 -0.42556645143E+03  0.46580287637E+03  0.12538490364E+03 0.  0.
         35    2    3    3    0    0 -0.11116394556E+03 -0.88242383215E+02 -0.19331112529E+04  0.20968655973E+04  0.79986378576E+03 0.  0.
         22    1    5    5    0    0  0.54967128963E+02 -0.41622210000E+03 -0.76984889642E+03  0.87688627832E+03  0.00000000000E+00 0.  1.
         22    1    5    5    0    0 -0.16613107452E+03  0.32797971679E+03 -0.11632623565E+04  0.12199793189E+04  0.00000000000E+00 0.  1.
          5    1    4    4  502    0  0.38768183803E+02  0.83372571588E+02 -0.11750381935E+03  0.14927556843E+03  0.47000000000E+01 0.  1.
         -5    1    4    4    0  502  0.72395761758E+02  0.48698116267E+01 -0.30806263208E+03  0.31652730793E+03  0.47000000000E+01 0.  1.
<mgrwt>
<rscale>  0 0.10019527E+04</rscale>
<asrwt>0</asrwt>
<pdfrwt beam="1">  1        2 0.37856506E+00 0.10019527E+04</pdfrwt>
<pdfrwt beam="2">  1       -2 0.15691599E-01 0.10019527E+04</pdfrwt>
<totfact> 0.13638211E+02</totfact>
</mgrwt>
</event>
<event>
 9    1  0.4488205E-036  0.9983277E+03  0.7818608E-02  0.8682632E-01
          2   -1    0    0  501    0  0.00000000000E+00  0.00000000000E+00  0.15198964577E+04  0.15198964577E+04  0.00000000000E+00 0. -1.
         -2   -1    0    0    0  501 -0.00000000000E+00 -0.00000000000E+00 -0.16393520894E+03  0.16393520894E+03  0.00000000000E+00 0. -1.
         36    2    1    2    0    0 -0.14210854715E-13 -0.28421709430E-13  0.13559612488E+04  0.16838316667E+04  0.99832768844E+03 0.  0.
         25    2    3    3    0    0 -0.11177479396E+03 -0.67868118608E+02  0.32885422193E+03  0.37531611050E+03  0.12496958603E+03 0.  0.
         35    2    3    3    0    0  0.11177479396E+03  0.67868118608E+02  0.10271070269E+04  0.13085155562E+04  0.80010276218E+03 0.  0.
         22    1    5    5    0    0  0.37364407438E+03  0.14514262329E+03  0.94004222487E+03  0.10219372094E+04  0.00000000000E+00 0. -1.
         22    1    5    5    0    0 -0.26186928042E+03 -0.77274504687E+02  0.87064802004E+02  0.28657834679E+03  0.00000000000E+00 0. -1.
          5    1    4    4  502    0 -0.13052456213E+03 -0.76733838680E+02  0.23886758101E+03  0.28285076379E+03  0.47000000000E+01 0.  1.
         -5    1    4    4    0  502  0.18749768173E+02  0.88657200718E+01  0.89986640917E+02  0.92465346712E+02  0.47000000000E+01 0.  1.
<mgrwt>
<rscale>  0 0.99832769E+03</rscale>
<asrwt>0</asrwt>
<pdfrwt beam="1">  1        2 0.23383021E+00 0.99832769E+03</pdfrwt>
<pdfrwt beam="2">  1       -2 0.25220802E-01 0.99832769E+03</pdfrwt>
<totfact> 0.20849969E+02</totfact>
</mgrwt>
</event>
<event>
 9    1  0.4488205E-036  0.1000086E+04  0.7818608E-02  0.8680956E-01
         -2   -1    0    0    0  501 -0.00000000000E+00  0.00000000000E+00  0.11402453222E+04  0.11402453222E+04  0.00000000000E+00 0.  1.
          2   -1    0    0  501    0  0.00000000000E+00 -0.00000000000E+00 -0.21928862166E+03  0.21928862166E+03  0.00000000000E+00 0.  1.
         36    2    1    2    0    0  0.00000000000E+00 -0.14210854715E-13  0.92095670055E+03  0.13595339439E+04  0.10000856464E+04 0.  0.
         25    2    3    3    0    0 -0.13392688934E+03  0.24514630705E+02  0.12165358044E+03  0.22131929192E+03  0.12508099988E+03 0.  0.
         35    2    3    3    0    0  0.13392688934E+03 -0.24514630705E+02  0.79930312010E+03  0.11382146519E+04  0.79881771218E+03 0.  0.
         22    1    5    5    0    0  0.19601781801E+03  0.10384830799E+03 -0.88649945156E+02  0.23888547219E+03  0.00000000000E+00 0.  1.
         22    1    5    5    0    0 -0.62090928667E+02 -0.12836293869E+03  0.88795306526E+03  0.89932917975E+03  0.00000000000E+00 0.  1.
          5    1    4    4  502    0 -0.25760542438E+01  0.49346827912E+02  0.20895098819E+02  0.53855739111E+02  0.47000000000E+01 0.  1.
         -5    1    4    4    0  502 -0.13135083510E+03 -0.24832197208E+02  0.10075848162E+03  0.16746355281E+03  0.47000000000E+01 0.  1.
<mgrwt>
<rscale>  0 0.10000856E+04</rscale>
<asrwt>0</asrwt>
<pdfrwt beam="1">  1        2 0.33736712E-01 0.10000856E+04</pdfrwt>
<pdfrwt beam="2">  1       -2 0.17542235E+00 0.10000856E+04</pdfrwt>
<totfact> 0.33700187E+01</totfact>
</mgrwt>
</event>
<event>
 9    1  0.4488205E-036  0.9995577E+03  0.7818608E-02  0.8681459E-01
          1   -1    0    0  501    0  0.00000000000E+00  0.00000000000E+00  0.34429350536E+03  0.34429350536E+03  0.00000000000E+00 0.  1.
         -1   -1    0    0    0  501 -0.00000000000E+00 -0.00000000000E+00 -0.72548249947E+03  0.72548249947E+03  0.00000000000E+00 0.  1.
         36    2    1    2    0    0 -0.28421709430E-13  0.14210854715E-13 -0.38118899410E+03  0.10697760048E+04  0.99955772784E+03 0.  0.
         25    2    3    3    0    0  0.11361980952E+03 -0.31291652554E+02  0.77387270664E+01  0.17205299908E+03  0.12511481911E+03 0.  0.
         35    2    3    3    0    0 -0.11361980952E+03  0.31291652554E+02 -0.38892772117E+03  0.89772300575E+03  0.80047060791E+03 0.  0.
         22    1    5    5    0    0 -0.37274232590E+03 -0.82368072931E+02  0.40051338951E+02  0.38382997630E+03  0.00000000000E+00 0.  1.
         22    1    5    5    0    0  0.25912251638E+03  0.11365972548E+03 -0.42897906012E+03  0.51389302945E+03  0.00000000000E+00 0.  1.
          5    1    4    4  502    0 -0.27093606810E+02 -0.10340112955E+02 -0.14553749572E+01  0.29414105157E+02  0.47000000000E+01 0.  1.
         -5    1    4    4    0  502  0.14071341633E+03 -0.20951539599E+02  0.91941020236E+01  0.14263889392E+03  0.47000000000E+01 0.  1.
<mgrwt>
<rscale>  0 0.99955773E+03</rscale>
<asrwt>0</asrwt>
<pdfrwt beam="1">  1        1 0.52968232E-01 0.99955773E+03</pdfrwt>
<pdfrwt beam="2">  1       -1 0.11161269E+00 0.99955773E+03</pdfrwt>
<totfact> 0.64910971E+01</totfact>
</mgrwt>
</event>
<event>
 9    1  0.4488205E-036  0.1000301E+04  0.7818608E-02  0.8680751E-01
         -3   -1    0    0    0  501 -0.00000000000E+00  0.00000000000E+00  0.77296995010E+03  0.77296995010E+03  0.00000000000E+00 0. -1.
          3   -1    0    0  501    0  0.00000000000E+00 -0.00000000000E+00 -0.32362268631E+03  0.32362268631E+03  0.00000000000E+00 0. -1.
         36    2    1    2    0    0  0.28421709430E-13 -0.28421709430E-13  0.44934726378E+03  0.10965926364E+04  0.10003011780E+04 0.  0.
         25    2    3    3    0    0 -0.92845044336E+02 -0.10347115864E+03  0.99135122777E+02  0.21227508322E+03  0.12612079710E+03 0.  0.
         35    2    3    3    0    0  0.92845044336E+02  0.10347115864E+03  0.35021214101E+03  0.88431755319E+03  0.80002656721E+03 0.  0.
         22    1    5    5    0    0 -0.28810162739E+03 -0.16364414780E+03  0.23135085979E+03  0.40411035020E+03  0.00000000000E+00 0. -1.
         22    1    5    5    0    0  0.38094667173E+03  0.26711530643E+03  0.11886128122E+03  0.48020720299E+03  0.00000000000E+00 0. -1.
          5    1    4    4  502    0 -0.52775121036E+02 -0.73215056105E+02  0.12605908650E+03  0.15510848181E+03  0.47000000000E+01 0. -1.
         -5    1    4    4    0  502 -0.40069923300E+02 -0.30256102533E+02 -0.26923963726E+02  0.57166601407E+02  0.47000000000E+01 0. -1.
<mgrwt>
<rscale>  0 0.10003012E+04</rscale>
<asrwt>0</asrwt>
<pdfrwt beam="1">  1        3 0.49788106E-01 0.10003012E+04</pdfrwt>
<pdfrwt beam="2">  1       -3 0.11891845E+00 0.10003012E+04</pdfrwt>
<totfact> 0.81352943E+00</totfact>
</mgrwt>
</event>
<event>
 9    1  0.4488205E-036  0.1000946E+04  0.7818608E-02  0.8680138E-01
         -2   -1    0    0    0  501 -0.00000000000E+00  0.00000000000E+00  0.25687373311E+03  0.25687373311E+03  0.00000000000E+00 0.  1.
          2   -1    0    0  501    0  0.00000000000E+00 -0.00000000000E+00 -0.97508257477E+03  0.97508257477E+03  0.00000000000E+00 0.  1.
         36    2    1    2    0    0  0.28421709430E-13  0.28421709430E-13 -0.71820884166E+03  0.12319563079E+04  0.10009457549E+04 0.  0.
         25    2    3    3    0    0 -0.82336033472E+02 -0.10853016582E+03 -0.16181388404E+03  0.25108962221E+03  0.13529318538E+03 0.  0.
         35    2    3    3    0    0  0.82336033472E+02  0.10853016582E+03 -0.55639495762E+03  0.98086668567E+03  0.79621987346E+03 0.  0.
         22    1    5    5    0    0  0.24440277576E+03 -0.28530229018E+03 -0.20031027211E+03  0.42573973117E+03  0.00000000000E+00 0. -1.
         22    1    5    5    0    0 -0.16206674229E+03  0.39383245600E+03 -0.35608468551E+03  0.55512695450E+03  0.00000000000E+00 0. -1.
          5    1    4    4  502    0 -0.70165929379E+02 -0.14066879504E+03 -0.13458169844E+03  0.20699104111E+03  0.47000000000E+01 0.  1.
         -5    1    4    4    0  502 -0.12170104092E+02  0.32138629222E+02 -0.27232185600E+02  0.44098581093E+02  0.47000000000E+01 0.  1.
<mgrwt>
<rscale>  0 0.10009458E+04</rscale>
<asrwt>0</asrwt>
<pdfrwt beam="1">  1        2 0.15001271E+00 0.10009458E+04</pdfrwt>
<pdfrwt beam="2">  1       -2 0.39519036E-01 0.10009458E+04</pdfrwt>
<totfact> 0.19141631E+02</totfact>
</mgrwt>
</event>
<event>
 9    1  0.4488205E-036  0.9995080E+03  0.7818608E-02  0.8681507E-01
          1   -1    0    0  501    0  0.00000000000E+00  0.00000000000E+00  0.32399241912E+03  0.32399241912E+03  0.00000000000E+00 0. -1.
         -1   -1    0    0    0  501 -0.00000000000E+00 -0.00000000000E+00 -0.77086392503E+03  0.77086392503E+03  0.00000000000E+00 0. -1.
         36    2    1    2    0    0  0.00000000000E+00  0.15543122345E-13 -0.44687150591E+03  0.10948563442E+04  0.99950801474E+03 0.  0.
         25    2    3    3    0    0  0.37286770463E+02 -0.26484745507E+01 -0.20760710921E+03  0.24504559770E+03  0.12469689446E+03 0.  0.
         35    2    3    3    0    0 -0.37286770463E+02  0.26484745507E+01 -0.23926439670E+03  0.84981074645E+03  0.81457567825E+03 0.  0.
         22    1    5    5    0    0  0.15080781972E+03  0.34641395586E+03  0.22623922846E+02  0.37849368448E+03  0.00000000000E+00 0. -1.
         22    1    5    5    0    0 -0.18809459019E+03 -0.34376548131E+03 -0.26188831954E+03  0.47131706198E+03  0.00000000000E+00 0. -1.
          5    1    4    4  502    0 -0.49223658257E+01 -0.36100610159E+01  0.15830457975E+02  0.17605556667E+02  0.47000000000E+01 0.  1.
         -5    1    4    4    0  502  0.42209136289E+02  0.96158646525E+00 -0.22343756718E+03  0.22744004103E+03  0.47000000000E+01 0.  1.
<mgrwt>
<rscale>  0 0.99950801E+03</rscale>
<asrwt>0</asrwt>
<pdfrwt beam="1">  1        1 0.49844988E-01 0.99950801E+03</pdfrwt>
<pdfrwt beam="2">  1       -1 0.11859445E+00 0.99950801E+03</pdfrwt>
<totfact> 0.60733699E+01</totfact>
</mgrwt>
</event>
<event>
 9    1  0.4488205E-036  0.1001803E+04  0.7818608E-02  0.8679323E-01
          1   -1    0    0  501    0  0.00000000000E+00  0.00000000000E+00  0.23020284410E+03  0.23020284410E+03  0.00000000000E+00 0. -1.
         -1   -1    0    0    0  501 -0.00000000000E+00 -0.00000000000E+00 -0.10899178802E+04  0.10899178802E+04  0.00000000000E+00 0. -1.
         36    2    1    2    0    0  0.00000000000E+00  0.00000000000E+00 -0.85971503606E+03  0.13201207243E+04  0.10018027667E+04 0.  0.
         25    2    3    3    0    0  0.97692939442E+02  0.89617114552E+02 -0.98075250377E+02  0.20688208429E+03  0.12492519532E+03 0.  0.
         35    2    3    3    0    0 -0.97692939442E+02 -0.89617114552E+02 -0.76163978568E+03  0.11132386400E+04  0.80101808267E+03 0.  0.
         22    1    5    5    0    0  0.15060442835E+03  0.88661457082E+01 -0.82502551415E+03  0.83870578952E+03  0.00000000000E+00 0. -1.
         22    1    5    5    0    0 -0.24829736780E+03 -0.98483260261E+02  0.63385728465E+02  0.27453285046E+03  0.00000000000E+00 0. -1.
          5    1    4    4  502    0  0.44167578796E+02 -0.22058823819E+02 -0.58705635894E+02  0.76849257710E+02  0.47000000000E+01 0. -1.
         -5    1    4    4    0  502  0.53525360647E+02  0.11167593837E+03 -0.39369614483E+02  0.13003282658E+03  0.47000000000E+01 0. -1.
<mgrwt>
<rscale>  0 0.10018028E+04</rscale>
<asrwt>0</asrwt>
<pdfrwt beam="1">  1        1 0.35415822E-01 0.10018028E+04</pdfrwt>
<pdfrwt beam="2">  1       -1 0.16767967E+00 0.10018028E+04</pdfrwt>
<totfact> 0.36069702E+01</totfact>
</mgrwt>
</event>
<event>
 9    1  0.4488205E-036  0.9997878E+03  0.7818608E-02  0.8681240E-01
          1   -1    0    0  501    0  0.00000000000E+00  0.00000000000E+00  0.21867812547E+03  0.21867812547E+03  0.00000000000E+00 0. -1.
         -1   -1    0    0    0  501 -0.00000000000E+00 -0.00000000000E+00 -0.11427476613E+04  0.11427476613E+04  0.00000000000E+00 0. -1.
         36    2    1    2    0    0 -0.71054273576E-14  0.28421709430E-13 -0.92406953583E+03  0.13614257868E+04  0.99978781041E+03 0.  0.
         25    2    3    3    0    0  0.19965695848E+02 -0.13849202997E+03 -0.17245144749E+03  0.25510490680E+03  0.12554019419E+03 0.  0.
         35    2    3    3    0    0 -0.19965695848E+02  0.13849202997E+03 -0.75161808834E+03  0.11063208800E+04  0.79964833981E+03 0.  0.
         22    1    5    5    0    0  0.73426018021E+02  0.46529948113E+03 -0.46145500845E+03  0.65942073981E+03  0.00000000000E+00 0. -1.
         22    1    5    5    0    0 -0.93391713868E+02 -0.32680745115E+03 -0.29016307989E+03  0.44690014017E+03  0.00000000000E+00 0. -1.
          5    1    4    4  502    0 -0.16599322387E+02 -0.14702134628E+03 -0.15166415924E+03  0.21193140627E+03  0.47000000000E+01 0. -1.
         -5    1    4    4    0  502  0.36565018235E+02  0.85293163110E+01 -0.20787288246E+02  0.43173500528E+02  0.47000000000E+01 0. -1.
<mgrwt>
<rscale>  0 0.99978781E+03</rscale>
<asrwt>0</asrwt>
<pdfrwt beam="1">  1        1 0.33642788E-01 0.99978781E+03</pdfrwt>
<pdfrwt beam="2">  1       -1 0.17580733E+00 0.99978781E+03</pdfrwt>
<totfact> 0.32980697E+01</totfact>
</mgrwt>
</event>
<event>
 9    1  0.4488205E-036  0.1001058E+04  0.7818608E-02  0.8680031E-01
         -2   -1    0    0    0  501 -0.00000000000E+00  0.00000000000E+00  0.26274776262E+03  0.26274776262E+03  0.00000000000E+00 0. -1.
          2   -1    0    0  501    0  0.00000000000E+00 -0.00000000000E+00 -0.95349760496E+03  0.95349760496E+03  0.00000000000E+00 0. -1.
         36    2    1    2    0    0 -0.14210854715E-13  0.14210854715E-13 -0.69074984234E+03  0.12162453676E+04  0.10010581649E+04 0.  0.
         25    2    3    3    0    0  0.12099032256E+03  0.73102041980E+02 -0.10843566783E+03  0.21641893051E+03  0.12286697168E+03 0.  0.
         35    2    3    3    0    0 -0.12099032256E+03 -0.73102041980E+02 -0.58231417451E+03  0.99982643707E+03  0.80036275509E+03 0.  0.
         22    1    5    5    0    0 -0.38713089672E+03 -0.14720639132E+03 -0.59304301389E+03  0.72335335014E+03  0.00000000000E+00 0. -1.
         22    1    5    5    0    0  0.26614057416E+03  0.74104349337E+02  0.10728839378E+02  0.27647308693E+03  0.00000000000E+00 0. -1.
          5    1    4    4  502    0  0.69005619220E+02  0.70005041451E+02 -0.12723655478E+03  0.16085307640E+03  0.47000000000E+01 0.  1.
         -5    1    4    4    0  502  0.51984703339E+02  0.30970005294E+01  0.18800886952E+02  0.55565854116E+02  0.47000000000E+01 0.  1.
<mgrwt>
<rscale>  0 0.10010582E+04</rscale>
<asrwt>0</asrwt>
<pdfrwt beam="1">  1        2 0.14669194E+00 0.10010582E+04</pdfrwt>
<pdfrwt beam="2">  1       -2 0.40422732E-01 0.10010582E+04</pdfrwt>
<totfact> 0.18921528E+02</totfact>
</mgrwt>
</event>
<event>
 9    1  0.4488205E-036  0.1000523E+04  0.7818608E-02  0.8680540E-01
          1   -1    0    0  501    0  0.00000000000E+00  0.00000000000E+00  0.55272392809E+03  0.55272392809E+03  0.00000000000E+00 0. -1.
         -1   -1    0    0    0  501 -0.00000000000E+00 -0.00000000000E+00 -0.45277889502E+03  0.45277889502E+03  0.00000000000E+00 0. -1.
         36    2    1    2    0    0 -0.28421709430E-13  0.00000000000E+00  0.99945033073E+02  0.10055028231E+04  0.10005233219E+04 0.  0.
         25    2    3    3    0    0 -0.11934237924E+03 -0.64116693106E+02  0.23964878671E+01  0.18497517977E+03  0.12592267532E+03 0.  0.
         35    2    3    3    0    0  0.11934237924E+03  0.64116693106E+02  0.97548545205E+02  0.82052764335E+03  0.80336563345E+03 0.  0.
         22    1    5    5    0    0  0.35107380008E+03 -0.24447615678E+03  0.71423523562E+02  0.43373116565E+03  0.00000000000E+00 0. -1.
         22    1    5    5    0    0 -0.23173142084E+03  0.30859284988E+03  0.26125021644E+02  0.38679647770E+03  0.00000000000E+00 0. -1.
          5    1    4    4  502    0 -0.46194865444E+01  0.33422794442E+02  0.40762343621E+01  0.34309306767E+02  0.47000000000E+01 0.  1.
         -5    1    4    4    0  502 -0.11472289269E+03 -0.97539487549E+02 -0.16797464949E+01  0.15066587300E+03  0.47000000000E+01 0.  1.
<mgrwt>
<rscale>  0 0.10005233E+04</rscale>
<asrwt>0</asrwt>
<pdfrwt beam="1">  1        1 0.85034450E-01 0.10005233E+04</pdfrwt>
<pdfrwt beam="2">  1       -1 0.69658292E-01 0.10005233E+04</pdfrwt>
<totfact> 0.94062250E+01</totfact>
</mgrwt>
</event>
<event>
 9    1  0.4488205E-036  0.9997589E+03  0.7818608E-02  0.8681268E-01
         -2   -1    0    0    0  501 -0.00000000000E+00  0.00000000000E+00  0.11699968766E+04  0.11699968766E+04  0.00000000000E+00 0.  1.
          2   -1    0    0  501    0  0.00000000000E+00 -0.00000000000E+00 -0.21357277356E+03  0.21357277356E+03  0.00000000000E+00 0.  1.
         36    2    1    2    0    0  0.00000000000E+00  0.56843418861E-13  0.95642410304E+03  0.13835696502E+04  0.99975892693E+03 0.  0.
         25    2    3    3    0    0  0.27558378362E+02 -0.12802775802E+03  0.29660068849E+03  0.34755524882E+03  0.12518830427E+03 0.  0.
         35    2    3    3    0    0 -0.27558378362E+02  0.12802775802E+03  0.65982341454E+03  0.10360144013E+04  0.78791391051E+03 0.  0.
         22    1    5    5    0    0  0.10609218036E+02  0.28425281261E+03  0.78324208064E+03  0.83329489010E+03  0.00000000000E+00 0.  1.
         22    1    5    5    0    0 -0.38167596398E+02 -0.15622505459E+03 -0.12341866610E+03  0.20271951124E+03  0.00000000000E+00 0.  1.
          5    1    4    4  502    0  0.33677644038E+02 -0.11877829760E+03  0.12577806524E+03  0.17630847791E+03  0.47000000000E+01 0.  1.
         -5    1    4    4    0  502 -0.61192656769E+01 -0.92494604163E+01  0.17082262325E+03  0.17124677091E+03  0.47000000000E+01 0.  1.
<mgrwt>
<rscale>  0 0.99975893E+03</rscale>
<asrwt>0</asrwt>
<pdfrwt beam="1">  1        2 0.32857350E-01 0.99975893E+03</pdfrwt>
<pdfrwt beam="2">  1       -2 0.17999952E+00 0.99975893E+03</pdfrwt>
<totfact> 0.32152049E+01</totfact>
</mgrwt>
</event>
<event>
 9    1  0.4488205E-036  0.1000313E+04  0.7818608E-02  0.8680740E-01
          2   -1    0    0  501    0  0.00000000000E+00  0.00000000000E+00  0.15247696648E+04  0.15247696648E+04  0.00000000000E+00 0. -1.
         -2   -1    0    0    0  501 -0.00000000000E+00 -0.00000000000E+00 -0.16406178034E+03  0.16406178034E+03  0.00000000000E+00 0. -1.
         36    2    1    2    0    0  0.00000000000E+00  0.28421709430E-13  0.13607078844E+04  0.16888314451E+04  0.10003128027E+04 0.  0.
         25    2    3    3    0    0  0.11097005499E+03  0.88549544907E+02  0.25730355747E+03  0.31915847481E+03  0.12450556754E+03 0.  0.
         35    2    3    3    0    0 -0.11097005499E+03 -0.88549544907E+02  0.11034043270E+04  0.13696729703E+04  0.79896655864E+03 0.  0.
         22    1    5    5    0    0 -0.30955136627E+03  0.18469819308E+03  0.21617451414E+03  0.42031760783E+03  0.00000000000E+00 0. -1.
         22    1    5    5    0    0  0.19858131127E+03 -0.27324773799E+03  0.88722981284E+03  0.94935536249E+03  0.00000000000E+00 0. -1.
          5    1    4    4  502    0  0.81285201325E+02 -0.83138307925E+01  0.15396565957E+03  0.17436719320E+03  0.47000000000E+01 0.  1.
         -5    1    4    4    0  502  0.29684853667E+02  0.96863375700E+02  0.10333789790E+03  0.14479128161E+03  0.47000000000E+01 0.  1.
<mgrwt>
<rscale>  0 0.10003128E+04</rscale>
<asrwt>0</asrwt>
<pdfrwt beam="1">  1        2 0.23457994E+00 0.10003128E+04</pdfrwt>
<pdfrwt beam="2">  1       -2 0.25240275E-01 0.10003128E+04</pdfrwt>
<totfact> 0.20689488E+02</totfact>
</mgrwt>
</event>
<event>
 9    1  0.4488205E-036  0.9997734E+03  0.7818608E-02  0.8681254E-01
         -2   -1    0    0    0  501 -0.00000000000E+00  0.00000000000E+00  0.63007124046E+02  0.63007124046E+02  0.00000000000E+00 0. -1.
          2   -1    0    0  501    0  0.00000000000E+00 -0.00000000000E+00 -0.39660073586E+04  0.39660073586E+04  0.00000000000E+00 0. -1.
         36    2    1    2    0    0  0.21316282073E-13  0.00000000000E+00 -0.39030002345E+04  0.40290144826E+04  0.99977340955E+03 0.  0.
         25    2    3    3    0    0  0.31751850056E+02 -0.11503818947E+03 -0.97281066453E+03  0.98804395757E+03  0.12501323151E+03 0.  0.
         35    2    3    3    0    0 -0.31751850056E+02  0.11503818947E+03 -0.29301895700E+04  0.30409705251E+04  0.80451777672E+03 0.  0.
         22    1    5    5    0    0 -0.16441983204E+03  0.36917720457E+03 -0.85073247787E+03  0.94184469975E+03  0.00000000000E+00 0. -1.
         22    1    5    5    0    0  0.13266798199E+03 -0.25413901509E+03 -0.20794570921E+04  0.20991258253E+04  0.00000000000E+00 0. -1.
          5    1    4    4  502    0  0.65087735101E+01  0.25680181678E+02 -0.98467686884E+02  0.10207747657E+03  0.47000000000E+01 0.  1.
         -5    1    4    4    0  502  0.25243076546E+02 -0.14071837115E+03 -0.87434297765E+03  0.88596648100E+03  0.47000000000E+01 0.  1.
<mgrwt>
<rscale>  0 0.99977341E+03</rscale>
<asrwt>0</asrwt>
<pdfrwt beam="1">  1        2 0.61015502E+00 0.99977341E+03</pdfrwt>
<pdfrwt beam="2">  1       -2 0.96934031E-02 0.99977341E+03</pdfrwt>
<totfact> 0.25556951E+01</totfact>
</mgrwt>
</event>
<event>
 9    1  0.4488205E-036  0.9979619E+03  0.7818608E-02  0.8682981E-01
          2   -1    0    0  501    0  0.00000000000E+00  0.00000000000E+00  0.16886138527E+03  0.16886138527E+03  0.00000000000E+00 0.  1.
         -2   -1    0    0    0  501 -0.00000000000E+00 -0.00000000000E+00 -0.14744754579E+04  0.14744754579E+04  0.00000000000E+00 0.  1.
         36    2    1    2    0    0  0.00000000000E+00  0.21316282073E-13 -0.13056140726E+04  0.16433368432E+04  0.99796185972E+03 0.  0.
         25    2    3    3    0    0  0.99307339275E+02 -0.88672349913E+01 -0.39918513764E+03  0.42998503939E+03  0.12489109053E+03 0.  0.
         35    2    3    3    0    0 -0.99307339275E+02  0.88672349913E+01 -0.90642893499E+03  0.12133518038E+04  0.80041777220E+03 0.  0.
         22    1    5    5    0    0  0.21322975085E+03 -0.15546366060E+03 -0.80324054187E+03  0.84547693317E+03  0.00000000000E+00 0.  1.
         22    1    5    5    0    0 -0.31253709013E+03  0.16433089559E+03 -0.10318839312E+03  0.36787487061E+03  0.00000000000E+00 0.  1.
          5    1    4    4  502    0  0.59103606883E+02 -0.65282238407E+02 -0.25788373931E+03  0.27254562920E+03  0.47000000000E+01 0. -1.
         -5    1    4    4    0  502  0.40203732393E+02  0.56415003416E+02 -0.14130139833E+03  0.15743941018E+03  0.47000000000E+01 0. -1.
<mgrwt>
<rscale>  0 0.99796186E+03</rscale>
<asrwt>0</asrwt>
<pdfrwt beam="1">  1        2 0.25978674E-01 0.99796186E+03</pdfrwt>
<pdfrwt beam="2">  1       -2 0.22684238E+00 0.99796186E+03</pdfrwt>
<totfact> 0.20215790E+01</totfact>
</mgrwt>
</event>
<event>
 9    1  0.4488205E-036  0.1000733E+04  0.7818608E-02  0.8680340E-01
          2   -1    0    0  501    0  0.00000000000E+00  0.00000000000E+00  0.65940834974E+03  0.65940834974E+03  0.00000000000E+00 0. -1.
         -2   -1    0    0    0  501 -0.00000000000E+00 -0.00000000000E+00 -0.37968358854E+03  0.37968358854E+03  0.00000000000E+00 0. -1.
         36    2    1    2    0    0  0.56843418861E-13  0.14210854715E-13  0.27972476120E+03  0.10390919383E+04  0.10007327886E+04 0.  0.
         25    2    3    3    0    0  0.71845198417E+02 -0.10615964042E+03 -0.69919915726E+01  0.17979603972E+03  0.12588139721E+03 0.  0.
         35    2    3    3    0    0 -0.71845198417E+02  0.10615964042E+03  0.28671675277E+03  0.85929589855E+03  0.79984457437E+03 0.  0.
         22    1    5    5    0    0 -0.33968964672E+03  0.15247707116E+03 -0.10099119377E+03  0.38579467924E+03  0.00000000000E+00 0. -1.
         22    1    5    5    0    0  0.26784444830E+03 -0.46317430735E+02  0.38770794654E+03  0.47350121931E+03  0.00000000000E+00 0. -1.
          5    1    4    4  502    0  0.68456945687E+02 -0.47399992905E+01 -0.30949820089E+02  0.75424149777E+02  0.47000000000E+01 0. -1.
         -5    1    4    4    0  502  0.33882527299E+01 -0.10141964113E+03  0.23957828517E+02  0.10437188995E+03  0.47000000000E+01 0. -1.
<mgrwt>
<rscale>  0 0.10007328E+04</rscale>
<asrwt>0</asrwt>
<pdfrwt beam="1">  1        2 0.10144744E+00 0.10007328E+04</pdfrwt>
<pdfrwt beam="2">  1       -2 0.58412860E-01 0.10007328E+04</pdfrwt>
<totfact> 0.14647177E+02</totfact>
</mgrwt>
</event>
<event>
 9    1  0.4488205E-036  0.1000001E+04  0.7818608E-02  0.8681037E-01
         -2   -1    0    0    0  501 -0.00000000000E+00  0.00000000000E+00  0.25001077300E+03  0.25001077300E+03  0.00000000000E+00 0.  1.
          2   -1    0    0  501    0  0.00000000000E+00 -0.00000000000E+00 -0.99995872455E+03  0.99995872455E+03  0.00000000000E+00 0.  1.
         36    2    1    2    0    0  0.14210854715E-13  0.00000000000E+00 -0.74994795155E+03  0.12499694976E+04  0.10000009074E+04 0.  0.
         25    2    3    3    0    0  0.65108130131E+02 -0.10072468123E+03 -0.50422276467E+02  0.18060518663E+03  0.12526490912E+03 0.  0.
         35    2    3    3    0    0 -0.65108130131E+02  0.10072468123E+03 -0.69952567508E+03  0.10693643109E+04  0.79988707288E+03 0.  0.
         22    1    5    5    0    0  0.91635670290E+02  0.73261502996E+02 -0.84539223489E+03  0.85349421480E+03  0.00000000000E+00 0.  1.
         22    1    5    5    0    0 -0.15674380042E+03  0.27463178237E+02  0.14586655981E+03  0.21587009612E+03  0.00000000000E+00 0.  1.
          5    1    4    4  502    0 -0.28464312620E+02  0.46849701090E+01  0.38784346296E+01  0.29483864961E+02  0.47000000000E+01 0. -1.
         -5    1    4    4    0  502  0.93572442751E+02 -0.10540965134E+03 -0.54300711097E+02  0.15112132167E+03  0.47000000000E+01 0. -1.
<mgrwt>
<rscale>  0 0.10000009E+04</rscale>
<asrwt>0</asrwt>
<pdfrwt beam="1">  1        2 0.15383980E+00 0.10000009E+04</pdfrwt>
<pdfrwt beam="2">  1       -2 0.38463196E-01 0.10000009E+04</pdfrwt>
<totfact> 0.19439088E+02</totfact>
</mgrwt>
</event>
<event>
 9    1  0.4488205E-036  0.9996901E+03  0.7818608E-02  0.8681333E-01
         -3   -1    0    0    0  501 -0.00000000000E+00  0.00000000000E+00  0.24612054893E+03  0.24612054893E+03  0.00000000000E+00 0. -1.
          3   -1    0    0  501    0  0.00000000000E+00 -0.00000000000E+00 -0.10151329681E+04  0.10151329681E+04  0.00000000000E+00 0. -1.
         36    2    1    2    0    0 -0.14210854715E-13  0.00000000000E+00 -0.76901241918E+03  0.12612535170E+04  0.99969011867E+03 0.  0.
         25    2    3    3    0    0 -0.78803590545E+02  0.19333491409E+02 -0.34632751852E+01  0.15098528706E+03  0.12728225666E+03 0.  0.
         35    2    3    3    0    0  0.78803590545E+02 -0.19333491409E+02 -0.76554914399E+03  0.11102682300E+04  0.80002891251E+03 0.  0.
         22    1    5    5    0    0  0.87206210034E+02 -0.38037737691E+03 -0.59333301631E+03  0.71016613562E+03  0.00000000000E+00 0. -1.
         22    1    5    5    0    0 -0.84026194888E+01  0.36104388550E+03 -0.17221612769E+03  0.40010209436E+03  0.00000000000E+00 0. -1.
          5    1    4    4  502    0 -0.29531392530E+02 -0.48779012982E+02 -0.27419877641E+02  0.63446315434E+02  0.47000000000E+01 0. -1.
         -5    1    4    4    0  502 -0.49272198015E+02  0.68112504392E+02  0.23956602455E+02  0.87538971624E+02  0.47000000000E+01 0. -1.
<mgrwt>
<rscale>  0 0.99969012E+03</rscale>
<asrwt>0</asrwt>
<pdfrwt beam="1">  1        3 0.15617430E+00 0.99969012E+03</pdfrwt>
<pdfrwt beam="2">  1       -3 0.37864700E-01 0.99969012E+03</pdfrwt>
<totfact> 0.83587972E+00</totfact>
</mgrwt>
</event>
<event>
 9    1  0.4488205E-036  0.1002468E+04  0.7818608E-02  0.8678691E-01
          2   -1    0    0  501    0  0.00000000000E+00  0.00000000000E+00  0.11071415876E+04  0.11071415876E+04  0.00000000000E+00 0.  1.
         -2   -1    0    0    0  501 -0.00000000000E+00 -0.00000000000E+00 -0.22692265409E+03  0.22692265409E+03  0.00000000000E+00 0.  1.
         36    2    1    2    0    0  0.14210854715E-13 -0.21316282073E-13  0.88021893348E+03  0.13340642417E+04  0.10024679696E+04 0.  0.
         25    2    3    3    0    0  0.57083740390E+02 -0.58872394431E+02  0.32268619028E+03  0.35544231283E+03  0.12445219206E+03 0.  0.
         35    2    3    3    0    0 -0.57083740390E+02  0.58872394431E+02  0.55753274320E+03  0.97862192883E+03  0.80008350040E+03 0.  0.
         22    1    5    5    0    0  0.23808848040E+03 -0.21862731422E+03  0.45948689932E+03  0.56179376792E+03  0.00000000000E+00 0.  1.
         22    1    5    5    0    0 -0.29517222080E+03  0.27749970865E+03  0.98045843882E+02  0.41682816092E+03  0.00000000000E+00 0.  1.
          5    1    4    4  502    0  0.37649433541E+02 -0.52173732736E+01  0.12906174406E+02  0.40414850830E+02  0.47000000000E+01 0.  1.
         -5    1    4    4    0  502  0.19434306849E+02 -0.53655021158E+02  0.30978001587E+03  0.31502746200E+03  0.47000000000E+01 0.  1.
<mgrwt>
<rscale>  0 0.10024680E+04</rscale>
<asrwt>0</asrwt>
<pdfrwt beam="1">  1        2 0.17032947E+00 0.10024680E+04</pdfrwt>
<pdfrwt beam="2">  1       -2 0.34911178E-01 0.10024680E+04</pdfrwt>
<totfact> 0.20036449E+02</totfact>
</mgrwt>
</event>
<event>
 9    1  0.4488205E-036  0.1000133E+04  0.7818608E-02  0.8680911E-01
         -1   -1    0    0    0  501 -0.00000000000E+00  0.00000000000E+00  0.42508500785E+03  0.42508500785E+03  0.00000000000E+00 0. -1.
          1   -1    0    0  501    0  0.00000000000E+00 -0.00000000000E+00 -0.58827415382E+03  0.58827415382E+03  0.00000000000E+00 0. -1.
         36    2    1    2    0    0  0.00000000000E+00 -0.14210854715E-13 -0.16318914597E+03  0.10133591617E+04  0.10001330377E+04 0.  0.
         25    2    3    3    0    0  0.44689362915E+02 -0.12588488332E+03  0.13364928417E+02  0.18345081643E+03  0.12502574827E+03 0.  0.
         35    2    3    3    0    0 -0.44689362915E+02  0.12588488332E+03 -0.17655407438E+03  0.82990834525E+03  0.79983271834E+03 0.  0.
         22    1    5    5    0    0  0.14439640383E+03  0.42942419911E+03 -0.10875367753E+03  0.46592148115E+03  0.00000000000E+00 0. -1.
         22    1    5    5    0    0 -0.18908576675E+03 -0.30353931579E+03 -0.67800396857E+02  0.36398686409E+03  0.00000000000E+00 0. -1.
          5    1    4    4  502    0  0.15229450431E+02 -0.13872661219E+03 -0.14851787569E+02  0.14042675915E+03  0.47000000000E+01 0. -1.
         -5    1    4    4    0  502  0.29459912484E+02  0.12841728871E+02  0.28216715987E+02  0.43024057282E+02  0.47000000000E+01 0. -1.
<mgrwt>
<rscale>  0 0.10001330E+04</rscale>
<asrwt>0</asrwt>
<pdfrwt beam="1">  1        1 0.90503716E-01 0.10001330E+04</pdfrwt>
<pdfrwt beam="2">  1       -1 0.65397693E-01 0.10001330E+04</pdfrwt>
<totfact> 0.97368094E+01</totfact>
</mgrwt>
</event>
<event>
 9    1  0.4488205E-036  0.1000074E+04  0.7818608E-02  0.8680967E-01
          1   -1    0    0  501    0  0.00000000000E+00  0.00000000000E+00  0.13992641076E+04  0.13992641076E+04  0.00000000000E+00 0.  1.
         -1   -1    0    0    0  501 -0.00000000000E+00 -0.00000000000E+00 -0.17869195568E+03  0.17869195568E+03  0.00000000000E+00 0.  1.
         36    2    1    2    0    0  0.17763568394E-13  0.00000000000E+00  0.12205721519E+04  0.15779560633E+04  0.10000744770E+04 0.  0.
         25    2    3    3    0    0  0.17601516825E+02  0.13252989250E+03  0.28634423035E+03  0.33981259865E+03  0.12492236848E+03 0.  0.
         35    2    3    3    0    0 -0.17601516825E+02 -0.13252989250E+03  0.93422792157E+03  0.12381434646E+04  0.80146331405E+03 0.  0.
         22    1    5    5    0    0  0.25556446796E+03  0.23409057906E+02  0.45262396848E+01  0.25667424515E+03  0.00000000000E+00 0.  1.
         22    1    5    5    0    0 -0.27316598479E+03 -0.15593895040E+03  0.92970168188E+03  0.98146921948E+03  0.00000000000E+00 0.  1.
          5    1    4    4  502    0 -0.25903395911E+02 -0.13323575306E+02  0.62093125893E+02  0.68746998929E+02  0.47000000000E+01 0. -1.
         -5    1    4    4    0  502  0.43504912737E+02  0.14585346780E+03  0.22425110446E+03  0.27106559972E+03  0.47000000000E+01 0. -1.
<mgrwt>
<rscale>  0 0.10000745E+04</rscale>
<asrwt>0</asrwt>
<pdfrwt beam="1">  1        1 0.21527139E+00 0.10000745E+04</pdfrwt>
<pdfrwt beam="2">  1       -1 0.27491071E-01 0.10000745E+04</pdfrwt>
<totfact> 0.99395830E+01</totfact>
</mgrwt>
</event>
<event>
 9    1  0.4488205E-036  0.1004323E+04  0.7818608E-02  0.8676932E-01
          1   -1    0    0  501    0  0.00000000000E+00  0.00000000000E+00  0.65319315160E+03  0.65319315160E+03  0.00000000000E+00 0.  1.
         -1   -1    0    0    0  501 -0.00000000000E+00 -0.00000000000E+00 -0.38605126503E+03  0.38605126503E+03  0.00000000000E+00 0.  1.
         36    2    1    2    0    0  0.42632564146E-13  0.14210854715E-13  0.26714188656E+03  0.10392444166E+04  0.10043227419E+04 0.  0.
         25    2    3    3    0    0 -0.91760406271E+02 -0.10537973518E+03  0.11921001713E+02  0.18811662915E+03  0.12538299381E+03 0.  0.
         35    2    3    3    0    0  0.91760406271E+02  0.10537973518E+03  0.25522088485E+03  0.85112778748E+03  0.79984745409E+03 0.  0.
         22    1    5    5    0    0  0.39096102753E+03 -0.11380731248E+03  0.25459627999E+03  0.48023108521E+03  0.00000000000E+00 0. -1.
         22    1    5    5    0    0 -0.29920062126E+03  0.21918704766E+03  0.62460486233E+00  0.37089670227E+03  0.00000000000E+00 0. -1.
          5    1    4    4  502    0 -0.96122105976E+02 -0.15872167774E+02  0.12814534970E+02  0.98375237096E+02  0.47000000000E+01 0.  1.
         -5    1    4    4    0  502  0.43616997051E+01 -0.89507567401E+02 -0.89353325734E+00  0.89741392056E+02  0.47000000000E+01 0.  1.
<mgrwt>
<rscale>  0 0.10043227E+04</rscale>
<asrwt>0</asrwt>
<pdfrwt beam="1">  1        1 0.10049125E+00 0.10043227E+04</pdfrwt>
<pdfrwt beam="2">  1       -1 0.59392502E-01 0.10043227E+04</pdfrwt>
<totfact> 0.10046240E+02</totfact>
</mgrwt>
</event>
<event>
 9    1  0.4488205E-036  0.9998633E+03  0.7818608E-02  0.8681168E-01
          2   -1    0    0  501    0  0.00000000000E+00  0.00000000000E+00  0.62440258740E+03  0.62440258740E+03  0.00000000000E+00 0. -1.
         -2   -1    0    0    0  501 -0.00000000000E+00 -0.00000000000E+00 -0.40027322201E+03  0.40027322201E+03  0.00000000000E+00 0. -1.
         36    2    1    2    0    0 -0.21316282073E-13 -0.14210854715E-13  0.22412936539E+03  0.10246758094E+04  0.99986326164E+03 0.  0.
         25    2    3    3    0    0  0.11183009261E+02 -0.76514945872E+02  0.16346244197E+03  0.21980134233E+03  0.12495224494E+03 0.  0.
         35    2    3    3    0    0 -0.11183009261E+02  0.76514945872E+02  0.60666923414E+02  0.80487446708E+03  0.79885094701E+03 0.  0.
         22    1    5    5    0    0 -0.23735201354E+03  0.36246065114E+03 -0.10631609124E+02  0.43338981653E+03  0.00000000000E+00 0.  1.
         22    1    5    5    0    0  0.22616900428E+03 -0.28594570527E+03  0.71298532538E+02  0.37148465056E+03  0.00000000000E+00 0.  1.
          5    1    4    4  502    0  0.44092492534E+02 -0.71502969831E+02  0.16598142142E+03  0.18608800297E+03  0.47000000000E+01 0.  1.
         -5    1    4    4    0  502 -0.32909483272E+02 -0.50119760401E+01 -0.25189794509E+01  0.33713339356E+02  0.47000000000E+01 0.  1.
<mgrwt>
<rscale>  0 0.99986326E+03</rscale>
<asrwt>0</asrwt>
<pdfrwt beam="1">  1        2 0.96061936E-01 0.99986326E+03</pdfrwt>
<pdfrwt beam="2">  1       -2 0.61580496E-01 0.99986326E+03</pdfrwt>
<totfact> 0.14009866E+02</totfact>
</mgrwt>
</event>
<event>
 9    1  0.4488205E-036  0.1000286E+04  0.7818608E-02  0.8680766E-01
         -2   -1    0    0    0  501 -0.00000000000E+00  0.00000000000E+00  0.20063734010E+03  0.20063734010E+03  0.00000000000E+00 0.  1.
          2   -1    0    0  501    0  0.00000000000E+00 -0.00000000000E+00 -0.12467408842E+04  0.12467408842E+04  0.00000000000E+00 0.  1.
         36    2    1    2    0    0  0.14210854715E-13  0.14210854715E-13 -0.10461035441E+04  0.14473782243E+04  0.10002855088E+04 0.  0.
         25    2    3    3    0    0  0.64486951818E+02  0.70870187502E+02 -0.34524795116E+03  0.37986907937E+03  0.12618723885E+03 0.  0.
         35    2    3    3    0    0 -0.64486951818E+02 -0.70870187502E+02 -0.70085559296E+03  0.10675091449E+04  0.79949738081E+03 0.  0.
         22    1    5    5    0    0  0.22420247888E+03 -0.29989267383E+03 -0.55863869851E+03  0.67251733274E+03  0.00000000000E+00 0. -1.
         22    1    5    5    0    0 -0.28868943070E+03  0.22902248633E+03 -0.14221689445E+03  0.39499181220E+03  0.00000000000E+00 0. -1.
          5    1    4    4  502    0 -0.34975220243E+02  0.10700506987E+02 -0.47047047997E+02  0.59776932056E+02  0.47000000000E+01 0. -1.
         -5    1    4    4    0  502  0.99462172061E+02  0.60169680515E+02 -0.29820090316E+03  0.32009214731E+03  0.47000000000E+01 0. -1.
<mgrwt>
<rscale>  0 0.10002855E+04</rscale>
<asrwt>0</asrwt>
<pdfrwt beam="1">  1        2 0.19180629E+00 0.10002855E+04</pdfrwt>
<pdfrwt beam="2">  1       -2 0.30867283E-01 0.10002855E+04</pdfrwt>
<totfact> 0.20777747E+02</totfact>
</mgrwt>
</event>
<event>
 9    1  0.4488205E-036  0.9999321E+03  0.7818608E-02  0.8681103E-01
         -1   -1    0    0    0  501 -0.00000000000E+00  0.00000000000E+00  0.12257552551E+03  0.12257552551E+03  0.00000000000E+00 0. -1.
          1   -1    0    0  501    0  0.00000000000E+00 -0.00000000000E+00 -0.20392819299E+04  0.20392819299E+04  0.00000000000E+00 0. -1.
         36    2    1    2    0    0  0.00000000000E+00  0.42632564146E-13 -0.19167064044E+04  0.21618574554E+04  0.99993210614E+03 0.  0.
         25    2    3    3    0    0 -0.11624511338E+03  0.68696563054E+02 -0.27900222267E+03  0.33427353334E+03  0.12515754343E+03 0.  0.
         35    2    3    3    0    0  0.11624511338E+03 -0.68696563054E+02 -0.16377041817E+04  0.18275839220E+04  0.79984739872E+03 0.  0.
         22    1    5    5    0    0  0.17671688050E+03  0.34604341782E+03 -0.87267016462E+03  0.95526337682E+03  0.00000000000E+00 0.  1.
         22    1    5    5    0    0 -0.60471767121E+02 -0.41473998088E+03 -0.76503401706E+03  0.87232054522E+03  0.00000000000E+00 0.  1.
          5    1    4    4  502    0 -0.17750230689E+01 -0.14961145950E+01 -0.14299748041E+03  0.14309353049E+03  0.47000000000E+01 0.  1.
         -5    1    4    4    0  502 -0.11447009031E+03  0.70192677649E+02 -0.13600474227E+03  0.19118000285E+03  0.47000000000E+01 0.  1.
<mgrwt>
<rscale>  0 0.99993211E+03</rscale>
<asrwt>0</asrwt>
<pdfrwt beam="1">  1        1 0.31373568E+00 0.99993211E+03</pdfrwt>
<pdfrwt beam="2">  1       -1 0.18857773E-01 0.99993211E+03</pdfrwt>
<totfact> 0.65868271E+01</totfact>
</mgrwt>
</event>
<event>
 9    1  0.4488205E-036  0.1000143E+04  0.7818608E-02  0.8680901E-01
          2   -1    0    0  501    0  0.00000000000E+00  0.00000000000E+00  0.91283517370E+03  0.91283517370E+03  0.00000000000E+00 0.  1.
         -2   -1    0    0    0  501 -0.00000000000E+00 -0.00000000000E+00 -0.27395054810E+03  0.27395054810E+03  0.00000000000E+00 0.  1.
         36    2    1    2    0    0  0.00000000000E+00 -0.28421709430E-13  0.63888462560E+03  0.11867857218E+04  0.10001433820E+04 0.  0.
         25    2    3    3    0    0  0.12830935493E+03 -0.20147724976E+02  0.53130699813E+02  0.18783018791E+03  0.12485226006E+03 0.  0.
         35    2    3    3    0    0 -0.12830935493E+03  0.20147724976E+02  0.58575392579E+03  0.99895553390E+03  0.79870850486E+03 0.  0.
         22    1    5    5    0    0 -0.18315977471E+03 -0.14181643559E+03  0.73583517966E+03  0.77143555538E+03  0.00000000000E+00 0.  1.
         22    1    5    5    0    0  0.54850419776E+02  0.16196416057E+03 -0.15008125388E+03  0.22751997851E+03  0.00000000000E+00 0.  1.
          5    1    4    4  502    0  0.14267935744E+03 -0.37204947722E+02  0.21863027197E+02  0.14913647821E+03  0.47000000000E+01 0.  1.
         -5    1    4    4    0  502 -0.14370002503E+02  0.17057222746E+02  0.31267672616E+02  0.38693709703E+02  0.47000000000E+01 0.  1.
<mgrwt>
<rscale>  0 0.10001434E+04</rscale>
<asrwt>0</asrwt>
<pdfrwt beam="1">  1        2 0.14043618E+00 0.10001434E+04</pdfrwt>
<pdfrwt beam="2">  1       -2 0.42146238E-01 0.10001434E+04</pdfrwt>
<totfact> 0.18551387E+02</totfact>
</mgrwt>
</event>
<event>
 9    1  0.4488205E-036  0.1000354E+04  0.7818608E-02  0.8680701E-01
         -1   -1    0    0    0  501 -0.00000000000E+00  0.00000000000E+00  0.30685422451E+03  0.30685422451E+03  0.00000000000E+00 0. -1.
          1   -1    0    0  501    0  0.00000000000E+00 -0.00000000000E+00 -0.81529554103E+03  0.81529554103E+03  0.00000000000E+00 0. -1.
         36    2    1    2    0    0  0.71054273576E-14  0.14210854715E-13 -0.50844131652E+03  0.11221497655E+04  0.10003536994E+04 0.  0.
         25    2    3    3    0    0 -0.48581096410E+01  0.21854693316E+02 -0.25209729448E+03  0.28223194606E+03  0.12490234843E+03 0.  0.
         35    2    3    3    0    0  0.48581096410E+01 -0.21854693316E+02 -0.25634402204E+03  0.83991781948E+03  0.79953014765E+03 0.  0.
         22    1    5    5    0    0  0.11921817023E+03  0.28012202588E+03  0.13459842753E+03  0.33286342273E+03  0.00000000000E+00 0.  1.
         22    1    5    5    0    0 -0.11436006059E+03 -0.30197671919E+03 -0.39094244957E+03  0.50705439675E+03  0.00000000000E+00 0.  1.
          5    1    4    4  502    0  0.56900503224E+02 -0.65365529622E+00 -0.15218353622E+03  0.16254234288E+03  0.47000000000E+01 0.  1.
         -5    1    4    4    0  502 -0.61758612865E+02  0.22508348612E+02 -0.99913758257E+02  0.11968960318E+03  0.47000000000E+01 0.  1.
<mgrwt>
<rscale>  0 0.10003537E+04</rscale>
<asrwt>0</asrwt>
<pdfrwt beam="1">  1        1 0.12543008E+00 0.10003537E+04</pdfrwt>
<pdfrwt beam="2">  1       -1 0.47208344E-01 0.10003537E+04</pdfrwt>
<totfact> 0.10914746E+02</totfact>
</mgrwt>
</event>
<event>
 9    1  0.4488205E-036  0.1001546E+04  0.7818608E-02  0.8679567E-01
          3   -1    0    0  501    0  0.00000000000E+00  0.00000000000E+00  0.16049439096E+04  0.16049439096E+04  0.00000000000E+00 0. -1.
         -3   -1    0    0    0  501 -0.00000000000E+00 -0.00000000000E+00 -0.15625056487E+03  0.15625056487E+03  0.00000000000E+00 0. -1.
         36    2    1    2    0    0 -0.14210854715E-13  0.21316282073E-13  0.14486933447E+04  0.17611944745E+04  0.10015455905E+04 0.  0.
         25    2    3    3    0    0  0.72314207936E+02 -0.50369674500E+02  0.46849675172E+03  0.49291256001E+03  0.12532811602E+03 0.  0.
         35    2    3    3    0    0 -0.72314207936E+02  0.50369674500E+02  0.98019659301E+03  0.12682819145E+04  0.79999200297E+03 0.  0.
         22    1    5    5    0    0 -0.33864804337E+03 -0.23608922349E+03  0.53272908536E+03  0.67395912125E+03  0.00000000000E+00 0.  1.
         22    1    5    5    0    0  0.26633383543E+03  0.28645889799E+03  0.44746750766E+03  0.59432279322E+03  0.00000000000E+00 0.  1.
          5    1    4    4  502    0 -0.21424997960E+02 -0.68836430508E+00  0.13673970373E+02  0.25856756346E+02  0.47000000000E+01 0. -1.
         -5    1    4    4    0  502  0.93739205895E+02 -0.49681310195E+02  0.45482278135E+03  0.46705580367E+03  0.47000000000E+01 0. -1.
<mgrwt>
<rscale>  0 0.10015456E+04</rscale>
<asrwt>0</asrwt>
<pdfrwt beam="1">  1        3 0.24691444E+00 0.10015456E+04</pdfrwt>
<pdfrwt beam="2">  1       -3 0.24038550E-01 0.10015456E+04</pdfrwt>
<totfact> 0.50333287E+00</totfact>
</mgrwt>
</event>
<event>
 9    1  0.4488205E-036  0.9974664E+03  0.7818608E-02  0.8683454E-01
          2   -1    0    0  501    0  0.00000000000E+00  0.00000000000E+00  0.25763486480E+03  0.25763486480E+03  0.00000000000E+00 0. -1.
         -2   -1    0    0    0  501 -0.00000000000E+00 -0.00000000000E+00 -0.96545478993E+03  0.96545478993E+03  0.00000000000E+00 0. -1.
         36    2    1    2    0    0 -0.35527136788E-14 -0.14210854715E-13 -0.70781992513E+03  0.12230896547E+04  0.99746641904E+03 0.  0.
         25    2    3    3    0    0  0.25043380104E+02  0.89665913368E+02 -0.42825909040E+01  0.15614403857E+03  0.12528157601E+03 0.  0.
         35    2    3    3    0    0 -0.25043380104E+02 -0.89665913368E+02 -0.70353733423E+03  0.10669456162E+04  0.79670635763E+03 0.  0.
         22    1    5    5    0    0  0.23594688239E+02  0.23806891421E+03  0.49445902544E+02  0.24429165869E+03  0.00000000000E+00 0. -1.
         22    1    5    5    0    0 -0.48638068343E+02 -0.32773482758E+03 -0.75298323677E+03  0.82265395748E+03  0.00000000000E+00 0. -1.
          5    1    4    4  502    0 -0.37772483757E+02 -0.56235523588E+01 -0.15254346095E+02  0.41390457174E+02  0.47000000000E+01 0.  1.
         -5    1    4    4    0  502  0.62815863861E+02  0.95289465726E+02  0.10971755191E+02  0.11475358140E+03  0.47000000000E+01 0.  1.
<mgrwt>
<rscale>  0 0.99746642E+03</rscale>
<asrwt>0</asrwt>
<pdfrwt beam="1">  1        2 0.39636133E-01 0.99746642E+03</pdfrwt>
<pdfrwt beam="2">  1       -2 0.14853151E+00 0.99746642E+03</pdfrwt>
<totfact> 0.45391521E+01</totfact>
</mgrwt>
</event>
<event>
 9    1  0.4488205E-036  0.1000811E+04  0.7818608E-02  0.8680266E-01
          2   -1    0    0  501    0  0.00000000000E+00  0.00000000000E+00  0.18466706483E+04  0.18466706483E+04  0.00000000000E+00 0.  1.
         -2   -1    0    0    0  501 -0.00000000000E+00 -0.00000000000E+00 -0.13559855626E+03  0.13559855626E+03  0.00000000000E+00 0.  1.
         36    2    1    2    0    0  0.00000000000E+00 -0.14210854715E-13  0.17110720920E+04  0.19822692046E+04  0.10008114184E+04 0.  0.
         25    2    3    3    0    0 -0.15614987230E+02  0.12712212121E+03  0.20569984733E+03  0.27254139211E+03  0.12474983645E+03 0.  0.
         35    2    3    3    0    0  0.15614987230E+02 -0.12712212121E+03  0.15053722447E+04  0.17097278124E+04  0.80038724129E+03 0.  0.
         22    1    5    5    0    0 -0.12555770407E+02  0.61253169791E+02 -0.86371579116E+02  0.10662855086E+03  0.00000000000E+00 0. -1.
         22    1    5    5    0    0  0.28170757638E+02 -0.18837529100E+03  0.15917438238E+04  0.16030992616E+04  0.00000000000E+00 0. -1.
          5    1    4    4  502    0 -0.62918758957E+02  0.29176919539E+02  0.89217000698E+02  0.11310095524E+03  0.47000000000E+01 0.  1.
         -5    1    4    4    0  502  0.47303771727E+02  0.97945201672E+02  0.11648284663E+03  0.15944043687E+03  0.47000000000E+01 0.  1.
<mgrwt>
<rscale>  0 0.10008114E+04</rscale>
<asrwt>0</asrwt>
<pdfrwt beam="1">  1        2 0.28410316E+00 0.10008114E+04</pdfrwt>
<pdfrwt beam="2">  1       -2 0.20861318E-01 0.10008114E+04</pdfrwt>
<totfact> 0.19035691E+02</totfact>
</mgrwt>
</event>
<event>
 9    1  0.4488205E-036  0.9997365E+03  0.7818608E-02  0.8681289E-01
         -2   -1    0    0    0  501 -0.00000000000E+00  0.00000000000E+00  0.13785246703E+03  0.13785246703E+03  0.00000000000E+00 0. -1.
          2   -1    0    0  501    0  0.00000000000E+00 -0.00000000000E+00 -0.18125774603E+04  0.18125774603E+04  0.00000000000E+00 0. -1.
         36    2    1    2    0    0  0.00000000000E+00  0.00000000000E+00 -0.16747249933E+04  0.19504299273E+04  0.99973651446E+03 0.  0.
         25    2    3    3    0    0  0.86709646261E+02 -0.78198237131E+02 -0.16495559011E+03  0.23765569205E+03  0.12504540860E+03 0.  0.
         35    2    3    3    0    0 -0.86709646261E+02  0.78198237131E+02 -0.15097694032E+04  0.17127742353E+04  0.80034892595E+03 0.  0.
         22    1    5    5    0    0 -0.31401829643E+03 -0.20277543492E+03 -0.40847115411E+03  0.55369129598E+03  0.00000000000E+00 0.  1.
         22    1    5    5    0    0  0.22730865017E+03  0.28097367205E+03 -0.11012982490E+04  0.11590829393E+04  0.00000000000E+00 0.  1.
          5    1    4    4  502    0  0.38183009292E+02  0.67222764265E-01  0.10122011855E+02  0.39780546018E+02  0.47000000000E+01 0. -1.
         -5    1    4    4    0  502  0.48526636969E+02 -0.78265459895E+02 -0.17507760196E+03  0.19787514603E+03  0.47000000000E+01 0. -1.
<mgrwt>
<rscale>  0 0.99973651E+03</rscale>
<asrwt>0</asrwt>
<pdfrwt beam="1">  1        2 0.27885807E+00 0.99973651E+03</pdfrwt>
<pdfrwt beam="2">  1       -2 0.21208072E-01 0.99973651E+03</pdfrwt>
<totfact> 0.19335641E+02</totfact>
</mgrwt>
</event>
<event>
 9    1  0.4488205E-036  0.9999927E+03  0.7818608E-02  0.8681045E-01
         -2   -1    0    0    0  501 -0.00000000000E+00  0.00000000000E+00  0.64501849126E+03  0.64501849126E+03  0.00000000000E+00 0.  1.
          2   -1    0    0  501    0  0.00000000000E+00 -0.00000000000E+00 -0.38758015000E+03  0.38758015000E+03  0.00000000000E+00 0.  1.
         36    2    1    2    0    0  0.14210854715E-13  0.00000000000E+00  0.25743834126E+03  0.10325986413E+04  0.99999272717E+03 0.  0.
         25    2    3    3    0    0 -0.10006818184E+03  0.84712697015E+02  0.98268831024E+02  0.20632846307E+03  0.12539852260E+03 0.  0.
         35    2    3    3    0    0  0.10006818184E+03 -0.84712697015E+02  0.15916951024E+03  0.82627017820E+03  0.80012348568E+03 0.  0.
         22    1    5    5    0    0  0.41506889813E+03  0.27597145060E+02 -0.68662973056E+02  0.42161403734E+03  0.00000000000E+00 0. -1.
         22    1    5    5    0    0 -0.31500071630E+03 -0.11230984208E+03  0.22783248329E+03  0.40465614086E+03  0.00000000000E+00 0. -1.
          5    1    4    4  502    0 -0.28076540772E+02  0.41217908751E+02  0.11038536637E+03  0.12121974778E+03  0.47000000000E+01 0. -1.
         -5    1    4    4    0  502 -0.71991641066E+02  0.43494788264E+02 -0.12116535343E+02  0.85108715289E+02  0.47000000000E+01 0. -1.
<mgrwt>
<rscale>  0 0.99999273E+03</rscale>
<asrwt>0</asrwt>
<pdfrwt beam="1">  1        2 0.59627715E-01 0.99999273E+03</pdfrwt>
<pdfrwt beam="2">  1       -2 0.99233614E-01 0.99999273E+03</pdfrwt>
<totfact> 0.82389067E+01</totfact>
</mgrwt>
</event>
<event>
 9    1  0.4488205E-036  0.9986921E+03  0.7818608E-02  0.8682284E-01
          2   -1    0    0  501    0  0.00000000000E+00  0.00000000000E+00  0.24495073959E+04  0.24495073959E+04  0.00000000000E+00 0.  1.
         -2   -1    0    0    0  501 -0.00000000000E+00 -0.00000000000E+00 -0.10179453582E+03  0.10179453582E+03  0.00000000000E+00 0.  1.
         36    2    1    2    0    0  0.00000000000E+00  0.28421709430E-13  0.23477128601E+04  0.25513019317E+04  0.99869208140E+03 0.  0.
         25    2    3    3    0    0  0.11797196488E+03 -0.73949528786E+02  0.41429918721E+03  0.45452526188E+03  0.12475367672E+03 0.  0.
         35    2    3    3    0    0 -0.11797196488E+03  0.73949528786E+02  0.19334136729E+04  0.20967766698E+04  0.79937353939E+03 0.  0.
         22    1    5    5    0    0  0.71721249252E+02 -0.33338558007E+03  0.10761619357E+04  0.11288996387E+04  0.00000000000E+00 0.  1.
         22    1    5    5    0    0 -0.18969321414E+03  0.40733510885E+03  0.85725173721E+03  0.96787703111E+03  0.00000000000E+00 0.  1.
          5    1    4    4  502    0  0.86075537882E+02  0.19182584740E+02  0.20246040152E+03  0.22088294176E+03  0.47000000000E+01 0. -1.
         -5    1    4    4    0  502  0.31896427002E+02 -0.93132113525E+02  0.21183878569E+03  0.23364232011E+03  0.47000000000E+01 0. -1.
<mgrwt>
<rscale>  0 0.99869208E+03</rscale>
<asrwt>0</asrwt>
<pdfrwt beam="1">  1        2 0.37684725E+00 0.99869208E+03</pdfrwt>
<pdfrwt beam="2">  1       -2 0.15660700E-01 0.99869208E+03</pdfrwt>
<totfact> 0.13898378E+02</totfact>
</mgrwt>
</event>
<event>
 9    1  0.4488205E-036  0.1000482E+04  0.7818608E-02  0.8680579E-01
         -2   -1    0    0    0  501 -0.00000000000E+00  0.00000000000E+00  0.33087823245E+03  0.33087823245E+03  0.00000000000E+00 0. -1.
          2   -1    0    0  501    0  0.00000000000E+00 -0.00000000000E+00 -0.75629350336E+03  0.75629350336E+03  0.00000000000E+00 0. -1.
         36    2    1    2    0    0  0.28421709430E-13 -0.28421709430E-13 -0.42541527091E+03  0.10871717358E+04  0.10004819990E+04 0.  0.
         25    2    3    3    0    0 -0.70015977836E+02 -0.12224051977E+03 -0.85205119049E+02  0.20620417035E+03  0.12415822861E+03 0.  0.
         35    2    3    3    0    0  0.70015977836E+02  0.12224051977E+03 -0.34021015186E+03  0.88096756546E+03  0.80032238637E+03 0.  0.
         22    1    5    5    0    0 -0.15112677191E+03 -0.25885091639E+03  0.35616631541E+02  0.30184705158E+03  0.00000000000E+00 0.  1.
         22    1    5    5    0    0  0.22114274974E+03  0.38109143616E+03 -0.37582678340E+03  0.57912051388E+03  0.00000000000E+00 0.  1.
          5    1    4    4  502    0 -0.52624184885E+02 -0.14597427080E+03 -0.83703674121E+02  0.17636946343E+03  0.47000000000E+01 0.  1.
         -5    1    4    4    0  502 -0.17391792951E+02  0.23733751030E+02 -0.15014449274E+01  0.29834706918E+02  0.47000000000E+01 0.  1.
<mgrwt>
<rscale>  0 0.10004820E+04</rscale>
<asrwt>0</asrwt>
<pdfrwt beam="1">  1        2 0.11635285E+00 0.10004820E+04</pdfrwt>
<pdfrwt beam="2">  1       -2 0.50904344E-01 0.10004820E+04</pdfrwt>
<totfact> 0.16379371E+02</totfact>
</mgrwt>
</event>
<event>
 9    1  0.4488205E-036  0.9981982E+03  0.7818608E-02  0.8682756E-01
         -1   -1    0    0    0  501 -0.00000000000E+00  0.00000000000E+00  0.20432591537E+03  0.20432591537E+03  0.00000000000E+00 0. -1.
          1   -1    0    0  501    0  0.00000000000E+00 -0.00000000000E+00 -0.12191302186E+04  0.12191302186E+04  0.00000000000E+00 0. -1.
         36    2    1    2    0    0  0.00000000000E+00  0.00000000000E+00 -0.10148043032E+04  0.14234561339E+04  0.99819817244E+03 0.  0.
         25    2    3    3    0    0  0.12113457118E+03 -0.65905992380E+02 -0.19866585878E+03  0.27256894294E+03  0.12573194123E+03 0.  0.
         35    2    3    3    0    0 -0.12113457118E+03  0.65905992380E+02 -0.81613844443E+03  0.11508871910E+04  0.79965128761E+03 0.  0.
         22    1    5    5    0    0 -0.56048199999E+00 -0.25881627951E+03  0.58641447051E+01  0.25888331131E+03  0.00000000000E+00 0.  1.
         22    1    5    5    0    0 -0.12057408918E+03  0.32472227189E+03 -0.82200258914E+03  0.89200387969E+03  0.00000000000E+00 0.  1.
          5    1    4    4  502    0  0.12911519245E+03 -0.84794057865E+02 -0.13392602751E+03  0.20449703180E+03  0.47000000000E+01 0.  1.
         -5    1    4    4    0  502 -0.79806212721E+01  0.18888065485E+02 -0.64739831270E+02  0.68071911142E+02  0.47000000000E+01 0.  1.
<mgrwt>
<rscale>  0 0.99819817E+03</rscale>
<asrwt>0</asrwt>
<pdfrwt beam="1">  1        1 0.18755850E+00 0.99819817E+03</pdfrwt>
<pdfrwt beam="2">  1       -1 0.31434756E-01 0.99819817E+03</pdfrwt>
<totfact> 0.10703375E+02</totfact>
</mgrwt>
</event>
<event>
 9    1  0.4488205E-036  0.9995286E+03  0.7818608E-02  0.8681487E-01
          2   -1    0    0  501    0  0.00000000000E+00  0.00000000000E+00  0.81480385944E+03  0.81480385944E+03  0.00000000000E+00 0. -1.
         -2   -1    0    0    0  501 -0.00000000000E+00 -0.00000000000E+00 -0.30653313254E+03  0.30653313254E+03  0.00000000000E+00 0. -1.
         36    2    1    2    0    0  0.00000000000E+00  0.00000000000E+00  0.50827072689E+03  0.11213369920E+04  0.99952864780E+03 0.  0.
         25    2    3    3    0    0  0.11455194085E+03  0.60054495548E+02  0.15457401646E+03  0.23722133159E+03  0.12510852892E+03 0.  0.
         35    2    3    3    0    0 -0.11455194085E+03 -0.60054495548E+02  0.35369671044E+03  0.88411566039E+03  0.79989402322E+03 0.  0.
         22    1    5    5    0    0  0.23723856912E+03 -0.28565620974E+03  0.26687199400E+03  0.45727701672E+03  0.00000000000E+00 0. -1.
         22    1    5    5    0    0 -0.35179050997E+03  0.22560171419E+03  0.86824716439E+02  0.42683864367E+03  0.00000000000E+00 0. -1.
          5    1    4    4  502    0  0.30879583481E+02 -0.38321027881E+02  0.30618021703E+02  0.58151552918E+02  0.47000000000E+01 0. -1.
         -5    1    4    4    0  502  0.83672357369E+02  0.98375523429E+02  0.12395599475E+03  0.17906977867E+03  0.47000000000E+01 0. -1.
<mgrwt>
<rscale>  0 0.99952865E+03</rscale>
<asrwt>0</asrwt>
<pdfrwt beam="1">  1        2 0.12535444E+00 0.99952865E+03</pdfrwt>
<pdfrwt beam="2">  1       -2 0.47158944E-01 0.99952865E+03</pdfrwt>
<totfact> 0.17336065E+02</totfact>
</mgrwt>
</event>
<event>
 9    1  0.4488205E-036  0.9997358E+03  0.7818608E-02  0.8681290E-01
          2   -1    0    0  501    0  0.00000000000E+00  0.00000000000E+00  0.15557166444E+04  0.15557166444E+04  0.00000000000E+00 0. -1.
         -2   -1    0    0    0  501 -0.00000000000E+00 -0.00000000000E+00 -0.16061273470E+03  0.16061273470E+03  0.00000000000E+00 0. -1.
         36    2    1    2    0    0  0.28421709430E-13  0.00000000000E+00  0.13951039097E+04  0.17163293791E+04  0.99973577444E+03 0.  0.
         25    2    3    3    0    0  0.10668381458E+03 -0.62757230639E+02  0.37450792402E+03  0.41387916133E+03  0.12537890068E+03 0.  0.
         35    2    3    3    0    0 -0.10668381458E+03  0.62757230639E+02  0.10205959857E+04  0.13024502178E+04  0.79965023448E+03 0.  0.
         22    1    5    5    0    0  0.27896343762E+03  0.25490119109E+03  0.49800978399E+03  0.62514715204E+03  0.00000000000E+00 0. -1.
         22    1    5    5    0    0 -0.38564725219E+03 -0.19214396046E+03  0.52258620173E+03  0.67730306577E+03  0.00000000000E+00 0. -1.
          5    1    4    4  502    0  0.74032854371E+02 -0.26322825408E+02  0.69711076266E+02  0.10514503706E+03  0.47000000000E+01 0. -1.
         -5    1    4    4    0  502  0.32650960208E+02 -0.36434405231E+02  0.30479684775E+03  0.30873412427E+03  0.47000000000E+01 0. -1.
<mgrwt>
<rscale>  0 0.99973577E+03</rscale>
<asrwt>0</asrwt>
<pdfrwt beam="1">  1        2 0.23934101E+00 0.99973577E+03</pdfrwt>
<pdfrwt beam="2">  1       -2 0.24709653E-01 0.99973577E+03</pdfrwt>
<totfact> 0.20635863E+02</totfact>
</mgrwt>
</event>
<event>
 9    1  0.4488205E-036  0.1000290E+04  0.7818608E-02  0.8680762E-01
          2   -1    0    0  501    0  0.00000000000E+00  0.00000000000E+00  0.24017579943E+03  0.24017579943E+03  0.00000000000E+00 0.  1.
         -2   -1    0    0    0  501 -0.00000000000E+00 -0.00000000000E+00 -0.10415071866E+04  0.10415071866E+04  0.00000000000E+00 0.  1.
         36    2    1    2    0    0  0.14210854715E-13  0.00000000000E+00 -0.80133138714E+03  0.12816829860E+04  0.10002896004E+04 0.  0.
         25    2    3    3    0    0 -0.60434717022E+02 -0.12536803408E+03 -0.14829731676E+03  0.23873017464E+03  0.12502201060E+03 0.  0.
         35    2    3    3    0    0  0.60434717022E+02  0.12536803408E+03 -0.65303407037E+03  0.10429528114E+04  0.80120382592E+03 0.  0.
         22    1    5    5    0    0 -0.17775728784E+03 -0.41362991003E+02 -0.72152244795E+03  0.74424672878E+03  0.00000000000E+00 0. -1.
         22    1    5    5    0    0  0.23819200487E+03  0.16673102508E+03  0.68488377578E+02  0.29870608258E+03  0.00000000000E+00 0. -1.
          5    1    4    4  502    0  0.83306300946E+01 -0.11523725032E+03 -0.10813031091E+03  0.15831385725E+03  0.47000000000E+01 0.  1.
         -5    1    4    4    0  502 -0.68765347117E+02 -0.10130783761E+02 -0.40167005853E+02  0.80416317392E+02  0.47000000000E+01 0.  1.
<mgrwt>
<rscale>  0 0.10002896E+04</rscale>
<asrwt>0</asrwt>
<pdfrwt beam="1">  1        2 0.36950123E-01 0.10002896E+04</pdfrwt>
<pdfrwt beam="2">  1       -2 0.16023187E+00 0.10002896E+04</pdfrwt>
<totfact> 0.39618401E+01</totfact>
</mgrwt>
</event>
<event>
 9    1  0.4488205E-036  0.9999424E+03  0.7818608E-02  0.8681093E-01
         -1   -1    0    0    0  501 -0.00000000000E+00  0.00000000000E+00  0.10262277896E+04  0.10262277896E+04  0.00000000000E+00 0.  1.
          1   -1    0    0  501    0  0.00000000000E+00 -0.00000000000E+00 -0.24358255975E+03  0.24358255975E+03  0.00000000000E+00 0.  1.
         36    2    1    2    0    0 -0.28421709430E-13 -0.14210854715E-13  0.78264522981E+03  0.12698103493E+04  0.99994238208E+03 0.  0.
         25    2    3    3    0    0 -0.86925829276E+02 -0.98922253782E+02  0.20803825282E+03  0.27655587957E+03  0.12594255754E+03 0.  0.
         35    2    3    3    0    0  0.86925829276E+02  0.98922253782E+02  0.57460697698E+03  0.99325446974E+03  0.79939949435E+03 0.  0.
         22    1    5    5    0    0 -0.34838563537E+03  0.46398604397E+02  0.36690481626E+03  0.50807925132E+03  0.00000000000E+00 0. -1.
         22    1    5    5    0    0  0.43531146465E+03  0.52523649385E+02  0.20770216073E+03  0.48517521842E+03  0.00000000000E+00 0. -1.
          5    1    4    4  502    0  0.16944320360E+02  0.17159073327E+02  0.43307224478E+02  0.49791058253E+02  0.47000000000E+01 0.  1.
         -5    1    4    4    0  502 -0.10387014964E+03 -0.11608132711E+03  0.16473102835E+03  0.22676482132E+03  0.47000000000E+01 0.  1.
<mgrwt>
<rscale>  0 0.99994238E+03</rscale>
<asrwt>0</asrwt>
<pdfrwt beam="1">  1        1 0.37474241E-01 0.99994238E+03</pdfrwt>
<pdfrwt beam="2">  1       -1 0.15788120E+00 0.99994238E+03</pdfrwt>
<totfact> 0.40488304E+01</totfact>
</mgrwt>
</event>
<event>
 9    1  0.4488205E-036  0.9997541E+03  0.7818608E-02  0.8681272E-01
         -2   -1    0    0    0  501 -0.00000000000E+00  0.00000000000E+00  0.10546003306E+03  0.10546003306E+03  0.00000000000E+00 0.  1.
          2   -1    0    0  501    0  0.00000000000E+00 -0.00000000000E+00 -0.23694004981E+04  0.23694004981E+04  0.00000000000E+00 0.  1.
         36    2    1    2    0    0  0.00000000000E+00  0.21316282073E-13 -0.22639404651E+04  0.24748605312E+04  0.99975407948E+03 0.  0.
         25    2    3    3    0    0  0.95836089601E+02  0.63854413109E+02 -0.62437101815E+03  0.64717339808E+03  0.12542845263E+03 0.  0.
         35    2    3    3    0    0 -0.95836089601E+02 -0.63854413109E+02 -0.16395694469E+04  0.18276871331E+04  0.79936871537E+03 0.  0.
         22    1    5    5    0    0 -0.18357719630E+03  0.45193045040E+02 -0.16731124252E+04  0.16837601331E+04  0.00000000000E+00 0.  1.
         22    1    5    5    0    0  0.87741106702E+02 -0.10904745815E+03  0.33542978328E+02  0.14392700000E+03  0.00000000000E+00 0.  1.
          5    1    4    4  502    0  0.12430201504E+03  0.45189739154E+02 -0.43415617187E+03  0.45387969225E+03  0.47000000000E+01 0.  1.
         -5    1    4    4    0  502 -0.28465925441E+02  0.18664673955E+02 -0.19021484629E+03  0.19329370583E+03  0.47000000000E+01 0.  1.
<mgrwt>
<rscale>  0 0.99975408E+03</rscale>
<asrwt>0</asrwt>
<pdfrwt beam="1">  1        2 0.36452313E+00 0.99975408E+03</pdfrwt>
<pdfrwt beam="2">  1       -2 0.16224621E-01 0.99975408E+03</pdfrwt>
<totfact> 0.14623455E+02</totfact>
</mgrwt>
</event>
<event>
 9    1  0.4488205E-036  0.9999505E+03  0.7818608E-02  0.8681085E-01
         -2   -1    0    0    0  501 -0.00000000000E+00  0.00000000000E+00  0.23237061426E+03  0.23237061426E+03  0.00000000000E+00 0. -1.
          2   -1    0    0  501    0  0.00000000000E+00 -0.00000000000E+00 -0.10757610588E+04  0.10757610588E+04  0.00000000000E+00 0. -1.
         36    2    1    2    0    0 -0.39079850467E-13  0.00000000000E+00 -0.84339044457E+03  0.13081316731E+04  0.99995051485E+03 0.  0.
         25    2    3    3    0    0 -0.28511903583E+02 -0.13753874202E+03 -0.16191079798E+03  0.24793013938E+03  0.12459700360E+03 0.  0.
         35    2    3    3    0    0  0.28511903583E+02  0.13753874202E+03 -0.68147964659E+03  0.10602015337E+04  0.79992683988E+03 0.  0.
         22    1    5    5    0    0 -0.28153140896E+03  0.14393480178E+03 -0.52262370289E+01  0.31623484146E+03  0.00000000000E+00 0.  1.
         22    1    5    5    0    0  0.31004331255E+03 -0.63960597604E+01 -0.67625340956E+03  0.74396669225E+03  0.00000000000E+00 0.  1.
          5    1    4    4  502    0  0.27431855971E+02 -0.18145577946E+02 -0.93680514108E+02  0.99397673235E+02  0.47000000000E+01 0. -1.
         -5    1    4    4    0  502 -0.55943759554E+02 -0.11939316408E+03 -0.68230283870E+02  0.14853246614E+03  0.47000000000E+01 0. -1.
<mgrwt>
<rscale>  0 0.99995051E+03</rscale>
<asrwt>0</asrwt>
<pdfrwt beam="1">  1        2 0.16550170E+00 0.99995051E+03</pdfrwt>
<pdfrwt beam="2">  1       -2 0.35749325E-01 0.99995051E+03</pdfrwt>
<totfact> 0.20028771E+02</totfact>
</mgrwt>
</event>
<event>
 9    1  0.4488205E-036  0.9994143E+03  0.7818608E-02  0.8681596E-01
         -1   -1    0    0    0  501 -0.00000000000E+00  0.00000000000E+00  0.15392623549E+03  0.15392623549E+03  0.00000000000E+00 0.  1.
          1   -1    0    0  501    0  0.00000000000E+00 -0.00000000000E+00 -0.16222525274E+04  0.16222525274E+04  0.00000000000E+00 0.  1.
         36    2    1    2    0    0  0.14210854715E-13  0.42632564146E-13 -0.14683262919E+04  0.17761787628E+04  0.99941427757E+03 0.  0.
         25    2    3    3    0    0 -0.12729147818E+03 -0.56311706419E+02 -0.25830967357E+03  0.31902874451E+03  0.12522509200E+03 0.  0.
         35    2    3    3    0    0  0.12729147818E+03  0.56311706419E+02 -0.12100166183E+04  0.14571500183E+04  0.79985738147E+03 0.  0.
         22    1    5    5    0    0 -0.19406526528E+03 -0.27969086295E+03 -0.60399495227E+03  0.69332402841E+03  0.00000000000E+00 0.  1.
         22    1    5    5    0    0  0.32135674346E+03  0.33600256937E+03 -0.60602166602E+03  0.76382598992E+03  0.00000000000E+00 0.  1.
          5    1    4    4  502    0 -0.20638425558E+02  0.16499930932E+01 -0.16366093663E+03  0.16503229764E+03  0.47000000000E+01 0.  1.
         -5    1    4    4    0  502 -0.10665305262E+03 -0.57961699512E+02 -0.94648736942E+02  0.15399644687E+03  0.47000000000E+01 0.  1.
<mgrwt>
<rscale>  0 0.99941428E+03</rscale>
<asrwt>0</asrwt>
<pdfrwt beam="1">  1        1 0.24957731E+00 0.99941428E+03</pdfrwt>
<pdfrwt beam="2">  1       -1 0.23680960E-01 0.99941428E+03</pdfrwt>
<totfact> 0.88642058E+01</totfact>
</mgrwt>
</event>
<event>
 9    1  0.4488205E-036  0.1000172E+04  0.7818608E-02  0.8680874E-01
         -2   -1    0    0    0  501 -0.00000000000E+00  0.00000000000E+00  0.13356819472E+03  0.13356819472E+03  0.00000000000E+00 0. -1.
          2   -1    0    0  501    0  0.00000000000E+00 -0.00000000000E+00 -0.18723482660E+04  0.18723482660E+04  0.00000000000E+00 0. -1.
         36    2    1    2    0    0  0.35527136788E-13 -0.71054273576E-14 -0.17387800713E+04  0.20059164607E+04  0.10001723407E+04 0.  0.
         25    2    3    3    0    0 -0.44016980141E+02  0.33211383289E+02 -0.69417622717E+02  0.15365397281E+03  0.12549998604E+03 0.  0.
         35    2    3    3    0    0  0.44016980141E+02 -0.33211383289E+02 -0.16693624485E+04  0.18522624879E+04  0.80066525396E+03 0.  0.
         22    1    5    5    0    0 -0.30317399198E+03 -0.62732474152E+02 -0.13311168688E+04  0.13666462421E+04  0.00000000000E+00 0. -1.
         22    1    5    5    0    0  0.34719097213E+03  0.29521090863E+02 -0.33824557978E+03  0.48561624579E+03  0.00000000000E+00 0. -1.
          5    1    4    4  502    0 -0.10737765971E+02 -0.91365710961E+01  0.33917320132E+02  0.37030408510E+02  0.47000000000E+01 0.  1.
         -5    1    4    4    0  502 -0.33279214170E+02  0.42347954385E+02 -0.10333494285E+03  0.11662356430E+03  0.47000000000E+01 0.  1.
<mgrwt>
<rscale>  0 0.10001723E+04</rscale>
<asrwt>0</asrwt>
<pdfrwt beam="1">  1        2 0.28805356E+00 0.10001723E+04</pdfrwt>
<pdfrwt beam="2">  1       -2 0.20548954E-01 0.10001723E+04</pdfrwt>
<totfact> 0.18898853E+02</totfact>
</mgrwt>
</event>
<event>
 9    1  0.4488205E-036  0.9992944E+03  0.7818608E-02  0.8681710E-01
          2   -1    0    0  501    0  0.00000000000E+00  0.00000000000E+00  0.29746506549E+04  0.29746506549E+04  0.00000000000E+00 0.  1.
         -2   -1    0    0    0  501 -0.00000000000E+00 -0.00000000000E+00 -0.83924925895E+02  0.83924925895E+02  0.00000000000E+00 0.  1.
         36    2    1    2    0    0  0.21316282073E-13  0.71054273576E-14  0.28907257290E+04  0.30585755807E+04  0.99929442263E+03 0.  0.
         25    2    3    3    0    0 -0.10444615932E+02 -0.30379355170E+02  0.99172389360E+03  0.99976764603E+03  0.12242168793E+03 0.  0.
         35    2    3    3    0    0  0.10444615932E+02  0.30379355170E+02  0.18990018354E+04  0.20588079347E+04  0.79463837447E+03 0.  0.
         22    1    5    5    0    0 -0.18189977174E+03 -0.27910227183E+02  0.18402294128E+04  0.18494082295E+04  0.00000000000E+00 0. -1.
         22    1    5    5    0    0  0.19234438768E+03  0.58289582354E+02  0.58772422563E+02  0.20939970519E+03  0.00000000000E+00 0. -1.
          5    1    4    4  502    0 -0.22410262651E+02  0.34845450294E+02  0.15838761350E+03  0.16378385571E+03  0.47000000000E+01 0.  1.
         -5    1    4    4    0  502  0.11965646719E+02 -0.65224805465E+02  0.83333628010E+03  0.83598379032E+03  0.47000000000E+01 0.  1.
<mgrwt>
<rscale>  0 0.99929442E+03</rscale>
<asrwt>0</asrwt>
<pdfrwt beam="1">  1        2 0.45763848E+00 0.99929442E+03</pdfrwt>
<pdfrwt beam="2">  1       -2 0.12911529E-01 0.99929442E+03</pdfrwt>
<totfact> 0.89311539E+01</totfact>
</mgrwt>
</event>
<event>
 9    1  0.4488205E-036  0.9998207E+03  0.7818608E-02  0.8681209E-01
          2   -1    0    0  501    0  0.00000000000E+00  0.00000000000E+00  0.16943555056E+03  0.16943555056E+03  0.00000000000E+00 0.  1.
         -2   -1    0    0    0  501 -0.00000000000E+00 -0.00000000000E+00 -0.14749582562E+04  0.14749582562E+04  0.00000000000E+00 0.  1.
         36    2    1    2    0    0  0.00000000000E+00  0.00000000000E+00 -0.13055227056E+04  0.16443938067E+04  0.99982071230E+03 0.  0.
         25    2    3    3    0    0  0.44474857213E+02  0.11996407458E+02 -0.27483919117E+02  0.13567852422E+03  0.12462491488E+03 0.  0.
         35    2    3    3    0    0 -0.44474857213E+02 -0.11996407458E+02 -0.12780387865E+04  0.15087152825E+04  0.80044783539E+03 0.  0.
         22    1    5    5    0    0 -0.27958404879E+02  0.65669812039E+02  0.10304578281E+03  0.12535002980E+03  0.00000000000E+00 0. -1.
         22    1    5    5    0    0 -0.16516452334E+02 -0.77666219497E+02 -0.13810845693E+04  0.13833652527E+04  0.00000000000E+00 0. -1.
          5    1    4    4  502    0  0.10250624891E+02 -0.53508637638E+02 -0.28395388527E+02  0.61616862158E+02  0.47000000000E+01 0. -1.
         -5    1    4    4    0  502  0.34224232321E+02  0.65505045097E+02  0.91146940946E+00  0.74061662063E+02  0.47000000000E+01 0. -1.
<mgrwt>
<rscale>  0 0.99982071E+03</rscale>
<asrwt>0</asrwt>
<pdfrwt beam="1">  1        2 0.26067008E-01 0.99982071E+03</pdfrwt>
<pdfrwt beam="2">  1       -2 0.22691665E+00 0.99982071E+03</pdfrwt>
<totfact> 0.20110259E+01</totfact>
</mgrwt>
</event>
<event>
 9    1  0.4488205E-036  0.9996565E+03  0.7818608E-02  0.8681365E-01
          2   -1    0    0  501    0  0.00000000000E+00  0.00000000000E+00  0.24795672715E+04  0.24795672715E+04  0.00000000000E+00 0. -1.
         -2   -1    0    0    0  501 -0.00000000000E+00 -0.00000000000E+00 -0.10075479246E+03  0.10075479246E+03  0.00000000000E+00 0. -1.
         36    2    1    2    0    0  0.00000000000E+00  0.00000000000E+00  0.23788124791E+04  0.25803220640E+04  0.99965651267E+03 0.  0.
         25    2    3    3    0    0 -0.19325022758E+01 -0.12823338495E+03  0.32471701278E+03  0.37091266256E+03  0.12524986738E+03 0.  0.
         35    2    3    3    0    0  0.19325022758E+01  0.12823338495E+03  0.20540954663E+04  0.22094094014E+04  0.80357587253E+03 0.  0.
         22    1    5    5    0    0  0.25025600544E+03  0.36498802967E+03  0.14338786915E+04  0.15006173503E+04  0.00000000000E+00 0.  1.
         22    1    5    5    0    0 -0.24832350317E+03 -0.23675464472E+03  0.62021677480E+03  0.70879205115E+03  0.00000000000E+00 0.  1.
          5    1    4    4  502    0 -0.35270458885E+02 -0.98218552413E+02  0.30367617964E+03  0.32114202682E+03  0.47000000000E+01 0.  1.
         -5    1    4    4    0  502  0.33337956609E+02 -0.30014832532E+02  0.21040833142E+02  0.49770635741E+02  0.47000000000E+01 0.  1.
<mgrwt>
<rscale>  0 0.99965651E+03</rscale>
<asrwt>0</asrwt>
<pdfrwt beam="1">  1        2 0.38147184E+00 0.99965651E+03</pdfrwt>
<pdfrwt beam="2">  1       -2 0.15500739E-01 0.99965651E+03</pdfrwt>
<totfact> 0.13560720E+02</totfact>
</mgrwt>
</event>
<event>
 9    1  0.4488205E-036  0.1000710E+04  0.7818608E-02  0.8680362E-01
         -2   -1    0    0    0  501 -0.00000000000E+00  0.00000000000E+00  0.87461533843E+02  0.87461533843E+02  0.00000000000E+00 0.  1.
          2   -1    0    0  501    0  0.00000000000E+00 -0.00000000000E+00 -0.28624607083E+04  0.28624607083E+04  0.00000000000E+00 0.  1.
         36    2    1    2    0    0  0.14210854715E-13 -0.14210854715E-13 -0.27749991745E+04  0.29499222421E+04  0.10007101561E+04 0.  0.
         25    2    3    3    0    0 -0.80040954919E+02 -0.93236320413E+02 -0.34856302264E+03  0.39069932159E+03  0.12668943614E+03 0.  0.
         35    2    3    3    0    0  0.80040954919E+02  0.93236320413E+02 -0.24264361518E+04  0.25592229205E+04  0.80431958346E+03 0.  0.
         22    1    5    5    0    0  0.22000720880E+03 -0.18360325119E+03 -0.20568003992E+04  0.20766658874E+04  0.00000000000E+00 0.  1.
         22    1    5    5    0    0 -0.13996625388E+03  0.27683957160E+03 -0.36963575264E+03  0.48255703317E+03  0.00000000000E+00 0.  1.
          5    1    4    4  502    0 -0.43896219254E+02 -0.10955824134E+03 -0.16548281406E+03  0.20331389047E+03  0.47000000000E+01 0. -1.
         -5    1    4    4    0  502 -0.36144735666E+02  0.16321920931E+02 -0.18308020859E+03  0.18738543112E+03  0.47000000000E+01 0. -1.
<mgrwt>
<rscale>  0 0.10007102E+04</rscale>
<asrwt>0</asrwt>
<pdfrwt beam="1">  1        2 0.44037853E+00 0.10007102E+04</pdfrwt>
<pdfrwt beam="2">  1       -2 0.13455622E-01 0.10007102E+04</pdfrwt>
<totfact> 0.98814786E+01</totfact>
</mgrwt>
</event>
<event>
 9    1  0.4488205E-036  0.1001900E+04  0.7818608E-02  0.8679230E-01
         -1   -1    0    0    0  501 -0.00000000000E+00  0.00000000000E+00  0.17928744133E+03  0.17928744133E+03  0.00000000000E+00 0. -1.
          1   -1    0    0  501    0  0.00000000000E+00 -0.00000000000E+00 -0.13997137572E+04  0.13997137572E+04  0.00000000000E+00 0. -1.
         36    2    1    2    0    0  0.00000000000E+00  0.21316282073E-13 -0.12204263159E+04  0.15790011986E+04  0.10019003905E+04 0.  0.
         25    2    3    3    0    0  0.13805593596E+03  0.36050534918E+02 -0.25023104336E+03  0.31327026927E+03  0.12314058643E+03 0.  0.
         35    2    3    3    0    0 -0.13805593596E+03 -0.36050534918E+02 -0.97019527255E+03  0.12657309293E+04  0.80027297591E+03 0.  0.
         22    1    5    5    0    0 -0.33314365606E+03 -0.22974848392E+03 -0.20704425194E+03  0.45457274852E+03  0.00000000000E+00 0. -1.
         22    1    5    5    0    0  0.19508772010E+03  0.19369794900E+03 -0.76315102060E+03  0.81115818077E+03  0.00000000000E+00 0. -1.
          5    1    4    4  502    0  0.90529709977E+02  0.48048234522E+02 -0.24264882599E+03  0.26344791512E+03  0.47000000000E+01 0. -1.
         -5    1    4    4    0  502  0.47526225986E+02 -0.11997699604E+02 -0.75822173661E+01  0.49822354144E+02  0.47000000000E+01 0. -1.
<mgrwt>
<rscale>  0 0.10019004E+04</rscale>
<asrwt>0</asrwt>
<pdfrwt beam="1">  1        1 0.21534058E+00 0.10019004E+04</pdfrwt>
<pdfrwt beam="2">  1       -1 0.27582683E-01 0.10019004E+04</pdfrwt>
<totfact> 0.98747522E+01</totfact>
</mgrwt>
</event>
<event>
 9    1  0.4488205E-036  0.1002468E+04  0.7818608E-02  0.8678691E-01
          2   -1    0    0  501    0  0.00000000000E+00  0.00000000000E+00  0.53200240393E+03  0.53200240393E+03  0.00000000000E+00 0.  1.
         -2   -1    0    0    0  501 -0.00000000000E+00 -0.00000000000E+00 -0.47224542193E+03  0.47224542193E+03  0.00000000000E+00 0.  1.
         36    2    1    2    0    0  0.14210854715E-13  0.21316282073E-13  0.59756981997E+02  0.10042478259E+04  0.10024683530E+04 0.  0.
         25    2    3    3    0    0  0.73629767760E+02 -0.36384391226E+02  0.12847857960E+03  0.19592439705E+03  0.12302218222E+03 0.  0.
         35    2    3    3    0    0 -0.73629767760E+02  0.36384391226E+02 -0.68721597606E+02  0.80832342881E+03  0.80119844044E+03 0.  0.
         22    1    5    5    0    0 -0.28092862004E+03 -0.27598257650E+03  0.85434186089E+02  0.40297180080E+03  0.00000000000E+00 0. -1.
         22    1    5    5    0    0  0.20729885228E+03  0.31236696773E+03 -0.15415578370E+03  0.40535162801E+03  0.00000000000E+00 0. -1.
          5    1    4    4  502    0  0.94969070654E+02 -0.13426007411E+02  0.13285770726E+03  0.16392877244E+03  0.47000000000E+01 0. -1.
         -5    1    4    4    0  502 -0.21339302894E+02 -0.22958383815E+02 -0.43791276545E+01  0.31995624614E+02  0.47000000000E+01 0. -1.
<mgrwt>
<rscale>  0 0.10024684E+04</rscale>
<asrwt>0</asrwt>
<pdfrwt beam="1">  1        2 0.81846524E-01 0.10024684E+04</pdfrwt>
<pdfrwt beam="2">  1       -2 0.72653141E-01 0.10024684E+04</pdfrwt>
<totfact> 0.11859440E+02</totfact>
</mgrwt>
</event>
<event>
 9    1  0.4488205E-036  0.1000831E+04  0.7818608E-02  0.8680247E-01
         -4   -1    0    0    0  501 -0.00000000000E+00  0.00000000000E+00  0.12005263370E+04  0.12005263370E+04  0.00000000000E+00 0.  1.
          4   -1    0    0  501    0  0.00000000000E+00 -0.00000000000E+00 -0.20858808895E+03  0.20858808895E+03  0.00000000000E+00 0.  1.
         36    2    1    2    0    0  0.71054273576E-14  0.00000000000E+00  0.99193824804E+03  0.14091144259E+04  0.10008306438E+04 0.  0.
         25    2    3    3    0    0  0.24572767141E+02 -0.23213397484E+02 -0.66036484295E+01  0.12964950769E+03  0.12499081552E+03 0.  0.
         35    2    3    3    0    0 -0.24572767141E+02  0.23213397484E+02  0.99854189647E+03  0.12794649183E+04  0.79925082129E+03 0.  0.
         22    1    5    5    0    0  0.20794474314E+03 -0.13412227115E+03  0.96558869588E+03  0.99679051432E+03  0.00000000000E+00 0. -1.
         22    1    5    5    0    0 -0.23251751028E+03  0.15733566863E+03  0.32953200584E+02  0.28267440394E+03  0.00000000000E+00 0. -1.
          5    1    4    4  502    0  0.23043583694E+02  0.47284610702E+02  0.16450447974E+02  0.55313184660E+02  0.47000000000E+01 0.  1.
         -5    1    4    4    0  502  0.15291834472E+01 -0.70498008186E+02 -0.23054096404E+02  0.74336323027E+02  0.47000000000E+01 0.  1.
<mgrwt>
<rscale>  0 0.10008306E+04</rscale>
<asrwt>0</asrwt>
<pdfrwt beam="1">  1        4 0.32090476E-01 0.10008306E+04</pdfrwt>
<pdfrwt beam="2">  1       -4 0.18469636E+00 0.10008306E+04</pdfrwt>
<totfact> 0.28991184E+00</totfact>
</mgrwt>
</event>
<event>
 9    1  0.4488205E-036  0.9998988E+03  0.7818608E-02  0.8681134E-01
         -2   -1    0    0    0  501 -0.00000000000E+00  0.00000000000E+00  0.35043168229E+03  0.35043168229E+03  0.00000000000E+00 0. -1.
          2   -1    0    0  501    0  0.00000000000E+00 -0.00000000000E+00 -0.71326147310E+03  0.71326147310E+03  0.00000000000E+00 0. -1.
         36    2    1    2    0    0  0.71054273576E-14  0.14210854715E-13 -0.36282979081E+03  0.10636931554E+04  0.99989883075E+03 0.  0.
         25    2    3    3    0    0 -0.10953919903E+02  0.11664791920E+03 -0.14853109719E+03  0.22655880300E+03  0.12466225960E+03 0.  0.
         35    2    3    3    0    0  0.10953919903E+02 -0.11664791920E+03 -0.21429869362E+03  0.83713435239E+03  0.80071422396E+03 0.  0.
         22    1    5    5    0    0  0.62564002129E+02 -0.43169487199E+03  0.26873018108E+02  0.43703189353E+03  0.00000000000E+00 0. -1.
         22    1    5    5    0    0 -0.51610082226E+02  0.31504695278E+03 -0.24117171173E+03  0.40010245886E+03  0.00000000000E+00 0. -1.
          5    1    4    4  502    0 -0.66758343162E+02  0.50152178429E+02 -0.64089218518E+02  0.10536334900E+03  0.47000000000E+01 0. -1.
         -5    1    4    4    0  502  0.55804423259E+02  0.66495740774E+02 -0.84441878673E+02  0.12119545400E+03  0.47000000000E+01 0. -1.
<mgrwt>
<rscale>  0 0.99989883E+03</rscale>
<asrwt>0</asrwt>
<pdfrwt beam="1">  1        2 0.10973253E+00 0.99989883E+03</pdfrwt>
<pdfrwt beam="2">  1       -2 0.53912566E-01 0.99989883E+03</pdfrwt>
<totfact> 0.15691118E+02</totfact>
</mgrwt>
</event>
<event>
 9    1  0.4488205E-036  0.9990653E+03  0.7818608E-02  0.8681929E-01
         -1   -1    0    0    0  501 -0.00000000000E+00  0.00000000000E+00  0.81363654476E+02  0.81363654476E+02  0.00000000000E+00 0. -1.
          1   -1    0    0  501    0  0.00000000000E+00 -0.00000000000E+00 -0.30668839818E+04  0.30668839818E+04  0.00000000000E+00 0. -1.
         36    2    1    2    0    0  0.14210854715E-13  0.00000000000E+00 -0.29855203273E+04  0.31482476363E+04  0.99906534043E+03 0.  0.
         25    2    3    3    0    0  0.57230042942E+02 -0.12038489271E+03 -0.42912498322E+03  0.46649704025E+03  0.12531335575E+03 0.  0.
         35    2    3    3    0    0 -0.57230042942E+02  0.12038489271E+03 -0.25563953441E+04  0.26817505960E+04  0.79928799798E+03 0.  0.
         22    1    5    5    0    0 -0.20276984530E+03 -0.48431722778E+02 -0.13117447901E+03  0.24630872067E+03  0.00000000000E+00 0.  1.
         22    1    5    5    0    0  0.14553980236E+03  0.16881661549E+03 -0.24252208651E+04  0.24354418754E+04  0.00000000000E+00 0.  1.
          5    1    4    4  502    0 -0.91460488072E+01 -0.98831692938E+01 -0.22221896698E+03  0.22267619211E+03  0.47000000000E+01 0.  1.
         -5    1    4    4    0  502  0.66376091749E+02 -0.11050172342E+03 -0.20690601624E+03  0.24382084814E+03  0.47000000000E+01 0.  1.
<mgrwt>
<rscale>  0 0.99906534E+03</rscale>
<asrwt>0</asrwt>
<pdfrwt beam="1">  1        1 0.47182826E+00 0.99906534E+03</pdfrwt>
<pdfrwt beam="2">  1       -1 0.12517486E-01 0.99906534E+03</pdfrwt>
<totfact> 0.23941200E+01</totfact>
</mgrwt>
</event>
<event>
 9    1  0.4488205E-036  0.9978780E+03  0.7818608E-02  0.8683061E-01
         -2   -1    0    0    0  501 -0.00000000000E+00  0.00000000000E+00  0.15449184772E+03  0.15449184772E+03  0.00000000000E+00 0.  1.
          2   -1    0    0  501    0  0.00000000000E+00 -0.00000000000E+00 -0.16113481026E+04  0.16113481026E+04  0.00000000000E+00 0.  1.
         36    2    1    2    0    0  0.00000000000E+00  0.71054273576E-14 -0.14568562548E+04  0.17658399503E+04  0.99787804001E+03 0.  0.
         25    2    3    3    0    0 -0.10320407817E+03 -0.60972726370E+02 -0.15346600398E+03  0.23148079545E+03  0.12515106541E+03 0.  0.
         35    2    3    3    0    0  0.10320407817E+03  0.60972726370E+02 -0.13033902509E+04  0.15343591548E+04  0.80066417108E+03 0.  0.
         22    1    5    5    0    0  0.40277813642E+03  0.10891421689E+03 -0.10794261152E+04  0.11572611080E+04  0.00000000000E+00 0.  1.
         22    1    5    5    0    0 -0.29957405825E+03 -0.47941490520E+02 -0.22396413565E+03  0.37709804686E+03  0.00000000000E+00 0.  1.
          5    1    4    4  502    0 -0.76304260772E+02 -0.28477758885E+02 -0.10387768702E+02  0.82239398719E+02  0.47000000000E+01 0. -1.
         -5    1    4    4    0  502 -0.26899817401E+02 -0.32494967485E+02 -0.14307823528E+03  0.14924139674E+03  0.47000000000E+01 0. -1.
<mgrwt>
<rscale>  0 0.99787804E+03</rscale>
<asrwt>0</asrwt>
<pdfrwt beam="1">  1        2 0.24789970E+00 0.99787804E+03</pdfrwt>
<pdfrwt beam="2">  1       -2 0.23767977E-01 0.99787804E+03</pdfrwt>
<totfact> 0.20562146E+02</totfact>
</mgrwt>
</event>
<event>
 9    1  0.4488205E-036  0.1000659E+04  0.7818608E-02  0.8680411E-01
          2   -1    0    0  501    0  0.00000000000E+00  0.00000000000E+00  0.19298915283E+04  0.19298915283E+04  0.00000000000E+00 0.  1.
         -2   -1    0    0    0  501 -0.00000000000E+00 -0.00000000000E+00 -0.12971177259E+03  0.12971177259E+03  0.00000000000E+00 0.  1.
         36    2    1    2    0    0  0.14210854715E-13  0.00000000000E+00  0.18001797557E+04  0.20596033009E+04  0.10006590849E+04 0.  0.
         25    2    3    3    0    0  0.23419551925E+02 -0.50125802675E+02  0.60813742402E+03  0.62330847045E+03  0.12498500445E+03 0.  0.
         35    2    3    3    0    0 -0.23419551925E+02  0.50125802675E+02  0.11920423317E+04  0.14362948304E+04  0.79932274327E+03 0.  0.
         22    1    5    5    0    0  0.38179561816E+03 -0.44770442970E+02  0.54362156277E+03  0.66580529445E+03  0.00000000000E+00 0. -1.
         22    1    5    5    0    0 -0.40521517009E+03  0.94896245645E+02  0.64842076889E+03  0.77048953597E+03  0.00000000000E+00 0. -1.
          5    1    4    4  502    0 -0.39468924983E+02 -0.50425283308E+02  0.19279589027E+03  0.20320642347E+03  0.47000000000E+01 0.  1.
         -5    1    4    4    0  502  0.62888476909E+02  0.29948063295E+00  0.41534153375E+03  0.42010204698E+03  0.47000000000E+01 0.  1.
<mgrwt>
<rscale>  0 0.10006591E+04</rscale>
<asrwt>0</asrwt>
<pdfrwt beam="1">  1        2 0.29690637E+00 0.10006591E+04</pdfrwt>
<pdfrwt beam="2">  1       -2 0.19955659E-01 0.10006591E+04</pdfrwt>
<totfact> 0.18444501E+02</totfact>
</mgrwt>
</event>
<event>
 9    1  0.4488205E-036  0.1000041E+04  0.7818608E-02  0.8680998E-01
          2   -1    0    0  501    0  0.00000000000E+00  0.00000000000E+00  0.94850462388E+03  0.94850462388E+03  0.00000000000E+00 0.  1.
         -2   -1    0    0    0  501 -0.00000000000E+00 -0.00000000000E+00 -0.26359464034E+03  0.26359464034E+03  0.00000000000E+00 0.  1.
         36    2    1    2    0    0 -0.14210854715E-13 -0.14210854715E-13  0.68490998354E+03  0.12120992642E+04  0.10000414695E+04 0.  0.
         25    2    3    3    0    0 -0.70499535886E+02 -0.11156281544E+03  0.16167533243E+03  0.24900265555E+03  0.13581959727E+03 0.  0.
         35    2    3    3    0    0  0.70499535886E+02  0.11156281544E+03  0.52323465111E+03  0.96309660868E+03  0.79772434536E+03 0.  0.
         22    1    5    5    0    0  0.13333680605E+03 -0.51062350997E+02 -0.18501635397E+03  0.23370305683E+03  0.00000000000E+00 0.  1.
         22    1    5    5    0    0 -0.62837270163E+02  0.16262516644E+03  0.70825100508E+03  0.72939355185E+03  0.00000000000E+00 0.  1.
          5    1    4    4  502    0 -0.30619266983E+02 -0.62769987405E+02  0.17132964323E+03  0.18507713926E+03  0.47000000000E+01 0.  1.
         -5    1    4    4    0  502 -0.39880268904E+02 -0.48792828038E+02 -0.96543107924E+01  0.63925516288E+02  0.47000000000E+01 0.  1.
<mgrwt>
<rscale>  0 0.10000415E+04</rscale>
<asrwt>0</asrwt>
<pdfrwt beam="1">  1        2 0.14592379E+00 0.10000415E+04</pdfrwt>
<pdfrwt beam="2">  1       -2 0.40553022E-01 0.10000415E+04</pdfrwt>
<totfact> 0.18944581E+02</totfact>
</mgrwt>
</event>
<event>
 9    1  0.4488205E-036  0.9994338E+03  0.7818608E-02  0.8681577E-01
         -2   -1    0    0    0  501 -0.00000000000E+00  0.00000000000E+00  0.14280111200E+03  0.14280111200E+03  0.00000000000E+00 0.  1.
          2   -1    0    0  501    0  0.00000000000E+00 -0.00000000000E+00 -0.17487047570E+04  0.17487047570E+04  0.00000000000E+00 0.  1.
         36    2    1    2    0    0 -0.14210854715E-13  0.28421709430E-13 -0.16059036450E+04  0.18915058690E+04  0.99943380742E+03 0.  0.
         25    2    3    3    0    0 -0.16190845796E+02 -0.71824679990E+02 -0.52370496816E+03  0.54335013574E+03  0.12466574584E+03 0.  0.
         35    2    3    3    0    0  0.16190845796E+02  0.71824679990E+02 -0.10821986768E+04  0.13481557333E+04  0.80059289081E+03 0.  0.
         22    1    5    5    0    0 -0.86634267300E+02  0.40990077668E+03 -0.77014789488E+03  0.87672796407E+03  0.00000000000E+00 0.  1.
         22    1    5    5    0    0  0.10282511310E+03 -0.33807609669E+03 -0.31205078197E+03  0.47142776919E+03  0.00000000000E+00 0.  1.
          5    1    4    4  502    0 -0.40220622849E+02 -0.52982069777E+02 -0.11100407330E+03  0.12949437250E+03  0.47000000000E+01 0.  1.
         -5    1    4    4    0  502  0.24029777053E+02 -0.18842610213E+02 -0.41270089486E+03  0.41385576324E+03  0.47000000000E+01 0.  1.
<mgrwt>
<rscale>  0 0.99943381E+03</rscale>
<asrwt>0</asrwt>
<pdfrwt beam="1">  1        2 0.26903151E+00 0.99943381E+03</pdfrwt>
<pdfrwt beam="2">  1       -2 0.21969401E-01 0.99943381E+03</pdfrwt>
<totfact> 0.19754795E+02</totfact>
</mgrwt>
</event>
<event>
 9    1  0.4488205E-036  0.9972471E+03  0.7818608E-02  0.8683664E-01
          2   -1    0    0  501    0  0.00000000000E+00  0.00000000000E+00  0.31077944463E+03  0.31077944463E+03  0.00000000000E+00 0. -1.
         -2   -1    0    0    0  501 -0.00000000000E+00 -0.00000000000E+00 -0.80000603556E+03  0.80000603556E+03  0.00000000000E+00 0. -1.
         36    2    1    2    0    0  0.14210854715E-13  0.14210854715E-13 -0.48922659093E+03  0.11107854802E+04  0.99724707356E+03 0.  0.
         25    2    3    3    0    0 -0.89026563902E+02  0.26802655382E+02  0.19787166876E+02  0.15641461789E+03  0.12421710550E+03 0.  0.
         35    2    3    3    0    0  0.89026563902E+02 -0.26802655382E+02 -0.50901375780E+03  0.95437086230E+03  0.80192557370E+03 0.  0.
         22    1    5    5    0    0 -0.25889786444E+03 -0.21633161608E+03 -0.43634261671E+03  0.55156355163E+03  0.00000000000E+00 0. -1.
         22    1    5    5    0    0  0.34792442834E+03  0.18952896070E+03 -0.72671141089E+02  0.40280731067E+03  0.00000000000E+00 0. -1.
          5    1    4    4  502    0 -0.77714132678E+02  0.18073603726E+02  0.68604833127E+02  0.10533211617E+03  0.47000000000E+01 0. -1.
         -5    1    4    4    0  502 -0.11312431224E+02  0.87290516560E+01 -0.48817666251E+02  0.51082501712E+02  0.47000000000E+01 0. -1.
<mgrwt>
<rscale>  0 0.99724707E+03</rscale>
<asrwt>0</asrwt>
<pdfrwt beam="1">  1        2 0.47812223E-01 0.99724707E+03</pdfrwt>
<pdfrwt beam="2">  1       -2 0.12307785E+00 0.99724707E+03</pdfrwt>
<totfact> 0.61175777E+01</totfact>
</mgrwt>
</event>
<event>
 9    1  0.4488205E-036  0.1003657E+04  0.7818608E-02  0.8677563E-01
          1   -1    0    0  501    0  0.00000000000E+00  0.00000000000E+00  0.29893536457E+04  0.29893536457E+04  0.00000000000E+00 0. -1.
         -1   -1    0    0    0  501 -0.00000000000E+00 -0.00000000000E+00 -0.84242921053E+02  0.84242921053E+02  0.00000000000E+00 0. -1.
         36    2    1    2    0    0  0.42632564146E-13  0.14210854715E-13  0.29051107247E+04  0.30735965668E+04  0.10036570792E+04 0.  0.
         25    2    3    3    0    0 -0.12163172463E+03 -0.14037924059E+02  0.73765291021E+03  0.76006678725E+03  0.13630247754E+03 0.  0.
         35    2    3    3    0    0  0.12163172463E+03  0.14037924059E+02  0.21674578145E+04  0.23135297795E+04  0.79972202893E+03 0.  0.
         22    1    5    5    0    0  0.36686529297E+03  0.24249795593E+03  0.88838125884E+03  0.99127022697E+03  0.00000000000E+00 0. -1.
         22    1    5    5    0    0 -0.24523356834E+03 -0.22846003187E+03  0.12790765556E+04  0.13222595526E+04  0.00000000000E+00 0. -1.
          5    1    4    4  502    0 -0.11402146551E+03  0.43859839927E+02  0.55257529222E+03  0.56593826847E+03  0.47000000000E+01 0. -1.
         -5    1    4    4    0  502 -0.76102591237E+01 -0.57897763986E+02  0.18507761799E+03  0.19412851877E+03  0.47000000000E+01 0. -1.
<mgrwt>
<rscale>  0 0.10036571E+04</rscale>
<asrwt>0</asrwt>
<pdfrwt beam="1">  1        1 0.45990048E+00 0.10036571E+04</pdfrwt>
<pdfrwt beam="2">  1       -1 0.12960452E-01 0.10036571E+04</pdfrwt>
<totfact> 0.25778769E+01</totfact>
</mgrwt>
</event>
<event>
 9    1  0.4488205E-036  0.1001732E+04  0.7818608E-02  0.8679391E-01
         -2   -1    0    0    0  501 -0.00000000000E+00  0.00000000000E+00  0.29897936608E+03  0.29897936608E+03  0.00000000000E+00 0. -1.
          2   -1    0    0  501    0  0.00000000000E+00 -0.00000000000E+00 -0.83907654108E+03  0.83907654108E+03  0.00000000000E+00 0. -1.
         36    2    1    2    0    0  0.00000000000E+00  0.14210854715E-13 -0.54009717500E+03  0.11380559072E+04  0.10017316454E+04 0.  0.
         25    2    3    3    0    0 -0.99792448168E+02  0.44208857988E+02  0.12779748484E+01  0.16597612512E+03  0.12503393561E+03 0.  0.
         35    2    3    3    0    0  0.99792448168E+02 -0.44208857988E+02 -0.54137514985E+03  0.97207978205E+03  0.79996193282E+03 0.  0.
         22    1    5    5    0    0 -0.13047000345E+03  0.17842773312E+03  0.10949183157E+03  0.24667253379E+03  0.00000000000E+00 0.  1.
         22    1    5    5    0    0  0.23026245161E+03 -0.22263659111E+03 -0.65086698142E+03  0.72540724826E+03  0.00000000000E+00 0.  1.
          5    1    4    4  502    0 -0.65840538540E+02  0.63274949932E+02 -0.47778657507E+02  0.10316775619E+03  0.47000000000E+01 0. -1.
         -5    1    4    4    0  502 -0.33951909628E+02 -0.19066091944E+02  0.49056632356E+02  0.62808368929E+02  0.47000000000E+01 0. -1.
<mgrwt>
<rscale>  0 0.10017316E+04</rscale>
<asrwt>0</asrwt>
<pdfrwt beam="1">  1        2 0.12908870E+00 0.10017316E+04</pdfrwt>
<pdfrwt beam="2">  1       -2 0.45996825E-01 0.10017316E+04</pdfrwt>
<totfact> 0.17522397E+02</totfact>
</mgrwt>
</event>
<event>
 9    1  0.4488205E-036  0.9994638E+03  0.7818608E-02  0.8681549E-01
          2   -1    0    0  501    0  0.00000000000E+00  0.00000000000E+00  0.18083556004E+04  0.18083556004E+04  0.00000000000E+00 0.  1.
         -2   -1    0    0    0  501 -0.00000000000E+00 -0.00000000000E+00 -0.13809893642E+03  0.13809893642E+03  0.00000000000E+00 0.  1.
         36    2    1    2    0    0  0.14210854715E-13  0.14210854715E-13  0.16702566640E+04  0.19464545368E+04  0.99946382643E+03 0.  0.
         25    2    3    3    0    0  0.12068839371E+03  0.39292747589E+02  0.42759691209E+03  0.46327122890E+03  0.12518587742E+03 0.  0.
         35    2    3    3    0    0 -0.12068839371E+03 -0.39292747589E+02  0.12426597519E+04  0.14831833079E+04  0.79969985466E+03 0.  0.
         22    1    5    5    0    0  0.63643394597E+01 -0.40735176207E+03  0.76694678063E+03  0.86843729030E+03  0.00000000000E+00 0. -1.
         22    1    5    5    0    0 -0.12705273317E+03  0.36805901448E+03  0.47571297127E+03  0.61474601762E+03  0.00000000000E+00 0. -1.
          5    1    4    4  502    0  0.13409700933E+03  0.63380781154E+02  0.33173960846E+03  0.36341765113E+03  0.47000000000E+01 0.  1.
         -5    1    4    4    0  502 -0.13408615622E+02 -0.24088033565E+02  0.95857303623E+02  0.99853577761E+02  0.47000000000E+01 0.  1.
<mgrwt>
<rscale>  0 0.99946383E+03</rscale>
<asrwt>0</asrwt>
<pdfrwt beam="1">  1        2 0.27820854E+00 0.99946383E+03</pdfrwt>
<pdfrwt beam="2">  1       -2 0.21245992E-01 0.99946383E+03</pdfrwt>
<totfact> 0.19381657E+02</totfact>
</mgrwt>
</event>
<event>
 9    1  0.4488205E-036  0.1000097E+04  0.7818608E-02  0.8680945E-01
          2   -1    0    0  501    0  0.00000000000E+00  0.00000000000E+00  0.82058071259E+03  0.82058071259E+03  0.00000000000E+00 0. -1.
         -2   -1    0    0    0  501 -0.00000000000E+00 -0.00000000000E+00 -0.30472158105E+03  0.30472158105E+03  0.00000000000E+00 0. -1.
         36    2    1    2    0    0  0.00000000000E+00  0.28421709430E-13  0.51585913154E+03  0.11253022936E+04  0.10000972995E+04 0.  0.
         25    2    3    3    0    0  0.38960983115E+02  0.13441229319E+03  0.95773237379E+02  0.21198307167E+03  0.12719939823E+03 0.  0.
         35    2    3    3    0    0 -0.38960983115E+02 -0.13441229319E+03  0.42008589416E+03  0.91331922197E+03  0.79880862538E+03 0.  0.
         22    1    5    5    0    0  0.10852476938E+03  0.10370265263E+02 -0.21738092147E+03  0.24318641613E+03  0.00000000000E+00 0. -1.
         22    1    5    5    0    0 -0.14748575250E+03 -0.14478255846E+03  0.63746681563E+03  0.67013280584E+03  0.00000000000E+00 0. -1.
          5    1    4    4  502    0 -0.41627211037E+02  0.75797336136E+02  0.62569754004E+02  0.10684158825E+03  0.47000000000E+01 0.  1.
         -5    1    4    4    0  502  0.80588194153E+02  0.58614957058E+02  0.33203483376E+02  0.10514148342E+03  0.47000000000E+01 0.  1.
<mgrwt>
<rscale>  0 0.10000973E+04</rscale>
<asrwt>0</asrwt>
<pdfrwt beam="1">  1        2 0.12624319E+00 0.10000973E+04</pdfrwt>
<pdfrwt beam="2">  1       -2 0.46880244E-01 0.10000973E+04</pdfrwt>
<totfact> 0.17379226E+02</totfact>
</mgrwt>
</event>
<event>
 9    1  0.4488205E-036  0.9992845E+03  0.7818608E-02  0.8681720E-01
          2   -1    0    0  501    0  0.00000000000E+00  0.00000000000E+00  0.37455750333E+03  0.37455750333E+03  0.00000000000E+00 0.  1.
         -2   -1    0    0    0  501 -0.00000000000E+00 -0.00000000000E+00 -0.66649942229E+03  0.66649942229E+03  0.00000000000E+00 0.  1.
         36    2    1    2    0    0  0.71054273576E-14  0.21316282073E-13 -0.29194191896E+03  0.10410569256E+04  0.99928446318E+03 0.  0.
         25    2    3    3    0    0  0.16220443879E+02  0.50453181095E+02  0.78213546476E+02  0.15790134633E+03  0.12651818067E+03 0.  0.
         35    2    3    3    0    0 -0.16220443879E+02 -0.50453181095E+02 -0.37015546544E+03  0.88315557929E+03  0.80008754668E+03 0.  0.
         22    1    5    5    0    0  0.23625217659E+03  0.18155502227E+03 -0.44178278588E+03  0.53286897728E+03  0.00000000000E+00 0.  1.
         22    1    5    5    0    0 -0.25247262047E+03 -0.23200820336E+03  0.71627320441E+02  0.35028660201E+03  0.00000000000E+00 0.  1.
          5    1    4    4  502    0 -0.17691768631E+02 -0.19571694966E+02 -0.19328372027E+02  0.33041275495E+02  0.47000000000E+01 0. -1.
         -5    1    4    4    0  502  0.33912212510E+02  0.70024876062E+02  0.97541918503E+02  0.12486007084E+03  0.47000000000E+01 0. -1.
<mgrwt>
<rscale>  0 0.99928446E+03</rscale>
<asrwt>0</asrwt>
<pdfrwt beam="1">  1        2 0.57624232E-01 0.99928446E+03</pdfrwt>
<pdfrwt beam="2">  1       -2 0.10253837E+00 0.99928446E+03</pdfrwt>
<totfact> 0.79009609E+01</totfact>
</mgrwt>
</event>
<event>
 9    1  0.4488205E-036  0.1000716E+04  0.7818608E-02  0.8680356E-01
         -1   -1    0    0    0  501 -0.00000000000E+00  0.00000000000E+00  0.17434368230E+03  0.17434368230E+03  0.00000000000E+00 0. -1.
          1   -1    0    0  501    0  0.00000000000E+00 -0.00000000000E+00 -0.14360043242E+04  0.14360043242E+04  0.00000000000E+00 0. -1.
         36    2    1    2    0    0  0.00000000000E+00 -0.28421709430E-13 -0.12616606419E+04  0.16103480065E+04  0.10007163068E+04 0.  0.
         25    2    3    3    0    0 -0.13672466536E+03  0.33399095748E+02 -0.22258162609E+03  0.29152487928E+03  0.12504015857E+03 0.  0.
         35    2    3    3    0    0  0.13672466536E+03 -0.33399095748E+02 -0.10390790158E+04  0.13188231272E+04  0.79987505651E+03 0.  0.
         22    1    5    5    0    0  0.40718106881E+02  0.35374851209E+03 -0.73685537520E+03  0.81838366186E+03  0.00000000000E+00 0.  1.
         22    1    5    5    0    0  0.96006558478E+02 -0.38714760784E+03 -0.30222364058E+03  0.50043946532E+03  0.00000000000E+00 0.  1.
          5    1    4    4  502    0 -0.42870484910E+02 -0.24720386883E+02 -0.82513567992E+01  0.50389988024E+02  0.47000000000E+01 0. -1.
         -5    1    4    4    0  502 -0.93854180449E+02  0.58119482631E+02 -0.21433026929E+03  0.24113489126E+03  0.47000000000E+01 0. -1.
<mgrwt>
<rscale>  0 0.10007163E+04</rscale>
<asrwt>0</asrwt>
<pdfrwt beam="1">  1        1 0.22092373E+00 0.10007163E+04</pdfrwt>
<pdfrwt beam="2">  1       -1 0.26822107E-01 0.10007163E+04</pdfrwt>
<totfact> 0.97516250E+01</totfact>
</mgrwt>
</event>
<event>
 9    1  0.4488205E-036  0.1000936E+04  0.7818608E-02  0.8680147E-01
         -2   -1    0    0    0  501 -0.00000000000E+00  0.00000000000E+00  0.18328633337E+03  0.18328633337E+03  0.00000000000E+00 0.  1.
          2   -1    0    0  501    0  0.00000000000E+00 -0.00000000000E+00 -0.13665418551E+04  0.13665418551E+04  0.00000000000E+00 0.  1.
         36    2    1    2    0    0 -0.71054273576E-14  0.00000000000E+00 -0.11832555217E+04  0.15498281885E+04  0.10009364536E+04 0.  0.
         25    2    3    3    0    0  0.15954560237E+01 -0.10464179680E+02 -0.43856955289E+01  0.12496248879E+03  0.12443610707E+03 0.  0.
         35    2    3    3    0    0 -0.15954560237E+01  0.10464179680E+02 -0.11788698262E+04  0.14248656997E+04  0.80024755574E+03 0.  0.
         22    1    5    5    0    0  0.39258477079E+03  0.52923493453E+02 -0.68792170256E+03  0.79382615683E+03  0.00000000000E+00 0. -1.
         22    1    5    5    0    0 -0.39418022681E+03 -0.42459313773E+02 -0.49094812363E+03  0.63103954284E+03  0.00000000000E+00 0. -1.
          5    1    4    4  502    0 -0.60244686797E+02 -0.11916787243E+02 -0.11032690457E+02  0.62571897559E+02  0.47000000000E+01 0.  1.
         -5    1    4    4    0  502  0.61840142820E+02  0.14526075630E+01  0.66469949283E+01  0.62390591233E+02  0.47000000000E+01 0.  1.
<mgrwt>
<rscale>  0 0.10009365E+04</rscale>
<asrwt>0</asrwt>
<pdfrwt beam="1">  1        2 0.21023721E+00 0.10009365E+04</pdfrwt>
<pdfrwt beam="2">  1       -2 0.28197897E-01 0.10009365E+04</pdfrwt>
<totfact> 0.20873956E+02</totfact>
</mgrwt>
</event>
<event>
 9    1  0.4488205E-036  0.9996687E+03  0.7818608E-02  0.8681354E-01
          3   -1    0    0  501    0  0.00000000000E+00  0.00000000000E+00  0.53623063493E+03  0.53623063493E+03  0.00000000000E+00 0.  1.
         -3   -1    0    0    0  501 -0.00000000000E+00 -0.00000000000E+00 -0.46590843832E+03  0.46590843832E+03  0.00000000000E+00 0.  1.
         36    2    1    2    0    0  0.00000000000E+00  0.28421709430E-13  0.70322196607E+02  0.10021390733E+04  0.99966870052E+03 0.  0.
         25    2    3    3    0    0  0.11319019662E+03  0.85465396607E+02  0.12810662824E+02  0.18846122418E+03  0.12343891327E+03 0.  0.
         35    2    3    3    0    0 -0.11319019662E+03 -0.85465396607E+02  0.57511533783E+02  0.81367784907E+03  0.79915437240E+03 0.  0.
         22    1    5    5    0    0  0.18449645718E+03 -0.24231291925E+03  0.27720975638E+03  0.41182489310E+03  0.00000000000E+00 0.  1.
         22    1    5    5    0    0 -0.29768665380E+03  0.15684752265E+03 -0.21969822260E+03  0.40185295597E+03  0.00000000000E+00 0.  1.
          5    1    4    4  502    0 -0.89220389115E+01 -0.46628045045E+01  0.33426199090E+02  0.35224214821E+02  0.47000000000E+01 0.  1.
         -5    1    4    4    0  502  0.12211223553E+03  0.90128201111E+02 -0.20615536266E+02  0.15323700936E+03  0.47000000000E+01 0.  1.
<mgrwt>
<rscale>  0 0.99966870E+03</rscale>
<asrwt>0</asrwt>
<pdfrwt beam="1">  1        3 0.82497021E-01 0.99966870E+03</pdfrwt>
<pdfrwt beam="2">  1       -3 0.71678221E-01 0.99966870E+03</pdfrwt>
<totfact> 0.10144719E+01</totfact>
</mgrwt>
</event>
<event>
 9    1  0.4488205E-036  0.9995224E+03  0.7818608E-02  0.8681493E-01
         -1   -1    0    0    0  501 -0.00000000000E+00  0.00000000000E+00  0.47528675219E+03  0.47528675219E+03  0.00000000000E+00 0. -1.
          1   -1    0    0  501    0  0.00000000000E+00 -0.00000000000E+00 -0.52549592761E+03  0.52549592761E+03  0.00000000000E+00 0. -1.
         36    2    1    2    0    0  0.28421709430E-13  0.28421709430E-13 -0.50209175418E+02  0.10007826798E+04  0.99952239139E+03 0.  0.
         25    2    3    3    0    0 -0.66299090030E+02 -0.94310000857E+02  0.70047362828E+02  0.18375134346E+03  0.12477170186E+03 0.  0.
         35    2    3    3    0    0  0.66299090030E+02  0.94310000857E+02 -0.12025653825E+03  0.81703133633E+03  0.79986787907E+03 0.  0.
         22    1    5    5    0    0 -0.13834199546E+03 -0.31133850860E+03  0.20714095088E+02  0.34131986227E+03  0.00000000000E+00 0.  1.
         22    1    5    5    0    0  0.20464108549E+03  0.40564850945E+03 -0.14097063333E+03  0.47571147406E+03  0.00000000000E+00 0.  1.
          5    1    4    4  502    0 -0.69572407813E+01  0.17099823927E+02  0.52963753549E+02  0.56285489850E+02  0.47000000000E+01 0.  1.
         -5    1    4    4    0  502 -0.59341849248E+02 -0.11140982478E+03  0.17083609279E+02  0.12746585361E+03  0.47000000000E+01 0.  1.
<mgrwt>
<rscale>  0 0.99952239E+03</rscale>
<asrwt>0</asrwt>
<pdfrwt beam="1">  1        1 0.80845527E-01 0.99952239E+03</pdfrwt>
<pdfrwt beam="2">  1       -1 0.73121039E-01 0.99952239E+03</pdfrwt>
<totfact> 0.91708351E+01</totfact>
</mgrwt>
</event>
<event>
 9    1  0.4488205E-036  0.9998099E+03  0.7818608E-02  0.8681219E-01
         -2   -1    0    0    0  501 -0.00000000000E+00  0.00000000000E+00  0.13752076248E+03  0.13752076248E+03  0.00000000000E+00 0.  1.
          2   -1    0    0  501    0  0.00000000000E+00 -0.00000000000E+00 -0.18172162267E+04  0.18172162267E+04  0.00000000000E+00 0.  1.
         36    2    1    2    0    0  0.28421709430E-13  0.00000000000E+00 -0.16796954642E+04  0.19547369892E+04  0.99980990411E+03 0.  0.
         25    2    3    3    0    0 -0.12443934933E+03  0.23898585712E+02 -0.33133604098E+03  0.37642654995E+03  0.12592490377E+03 0.  0.
         35    2    3    3    0    0  0.12443934933E+03 -0.23898585712E+02 -0.13483594232E+04  0.15783104392E+04  0.81051490690E+03 0.  0.
         22    1    5    5    0    0  0.45357458550E+03 -0.13004534750E+03 -0.84041770334E+03  0.96381720938E+03  0.00000000000E+00 0. -1.
         22    1    5    5    0    0 -0.32913523617E+03  0.10614676179E+03 -0.50794171989E+03  0.61449322985E+03  0.00000000000E+00 0. -1.
          5    1    4    4  502    0 -0.95559454998E+02  0.69454982937E+02 -0.17686533899E+03  0.21274172659E+03  0.47000000000E+01 0. -1.
         -5    1    4    4    0  502 -0.28879894333E+02 -0.45556397225E+02 -0.15447070199E+03  0.16368482336E+03  0.47000000000E+01 0. -1.
<mgrwt>
<rscale>  0 0.99980990E+03</rscale>
<asrwt>0</asrwt>
<pdfrwt beam="1">  1        2 0.27957173E+00 0.99980990E+03</pdfrwt>
<pdfrwt beam="2">  1       -2 0.21157040E-01 0.99980990E+03</pdfrwt>
<totfact> 0.19300186E+02</totfact>
</mgrwt>
</event>
<event>
 9    1  0.4488205E-036  0.9998374E+03  0.7818608E-02  0.8681193E-01
         -2   -1    0    0    0  501 -0.00000000000E+00  0.00000000000E+00  0.14630320956E+03  0.14630320956E+03  0.00000000000E+00 0.  1.
          2   -1    0    0  501    0  0.00000000000E+00 -0.00000000000E+00 -0.17082242864E+04  0.17082242864E+04  0.00000000000E+00 0.  1.
         36    2    1    2    0    0  0.00000000000E+00 -0.28421709430E-13 -0.15619210768E+04  0.18545274960E+04  0.99983737828E+03 0.  0.
         25    2    3    3    0    0  0.27549403816E+02 -0.91470538620E+02 -0.48190023450E+03  0.50695641879E+03  0.12510453808E+03 0.  0.
         35    2    3    3    0    0 -0.27549403816E+02  0.91470538620E+02 -0.10800208423E+04  0.13475710772E+04  0.80023556474E+03 0.  0.
         22    1    5    5    0    0  0.86833708346E+02  0.21898227458E+03  0.18011270433E+02  0.23625777310E+03  0.00000000000E+00 0.  1.
         22    1    5    5    0    0 -0.11438311216E+03 -0.12751173596E+03 -0.10980321128E+04  0.11113133041E+04  0.00000000000E+00 0.  1.
          5    1    4    4  502    0  0.71082085699E+02 -0.60729323709E+02 -0.38553093920E+03  0.39673279263E+03  0.47000000000E+01 0. -1.
         -5    1    4    4    0  502 -0.43532681883E+02 -0.30741214911E+02 -0.96369295300E+02  0.11022362615E+03  0.47000000000E+01 0. -1.
<mgrwt>
<rscale>  0 0.99983738E+03</rscale>
<asrwt>0</asrwt>
<pdfrwt beam="1">  1        2 0.26280372E+00 0.99983738E+03</pdfrwt>
<pdfrwt beam="2">  1       -2 0.22508188E-01 0.99983738E+03</pdfrwt>
<totfact> 0.19954949E+02</totfact>
</mgrwt>
</event>
<event>
 9    1  0.4488205E-036  0.9997929E+03  0.7818608E-02  0.8681235E-01
          2   -1    0    0  501    0  0.00000000000E+00  0.00000000000E+00  0.35644222884E+04  0.35644222884E+04  0.00000000000E+00 0.  1.
         -2   -1    0    0    0  501 -0.00000000000E+00 -0.00000000000E+00 -0.70108540434E+02  0.70108540434E+02  0.00000000000E+00 0.  1.
         36    2    1    2    0    0 -0.14210854715E-13  0.00000000000E+00  0.34943137480E+04  0.36345308288E+04  0.99979286681E+03 0.  0.
         25    2    3    3    0    0  0.69715832504E+02  0.97116351850E+02  0.40646869644E+03  0.44171890209E+03  0.12492759577E+03 0.  0.
         35    2    3    3    0    0 -0.69715832504E+02 -0.97116351850E+02  0.30878450515E+04  0.31928119267E+04  0.80309965396E+03 0.  0.
         22    1    5    5    0    0 -0.23177955193E+03  0.19979734111E+03  0.52447043975E+03  0.60721493755E+03  0.00000000000E+00 0.  1.
         22    1    5    5    0    0  0.16206371942E+03 -0.29691369296E+03  0.25633746118E+04  0.25855969892E+04  0.00000000000E+00 0.  1.
          5    1    4    4  502    0  0.81982470987E+02  0.12065985496E+03  0.34280851409E+03  0.37258514931E+03  0.47000000000E+01 0. -1.
         -5    1    4    4    0  502 -0.12266638483E+02 -0.23543503110E+02  0.63660182342E+02  0.69133752786E+02  0.47000000000E+01 0. -1.
<mgrwt>
<rscale>  0 0.99979287E+03</rscale>
<asrwt>0</asrwt>
<pdfrwt beam="1">  1        2 0.54837252E+00 0.99979287E+03</pdfrwt>
<pdfrwt beam="2">  1       -2 0.10785932E-01 0.99979287E+03</pdfrwt>
<totfact> 0.45563717E+01</totfact>
</mgrwt>
</event>
<event>
 9    1  0.4488205E-036  0.9996138E+03  0.7818608E-02  0.8681406E-01
         -1   -1    0    0    0  501 -0.00000000000E+00  0.00000000000E+00  0.15546306550E+03  0.15546306550E+03  0.00000000000E+00 0.  1.
          1   -1    0    0  501    0  0.00000000000E+00 -0.00000000000E+00 -0.16068570618E+04  0.16068570618E+04  0.00000000000E+00 0.  1.
         36    2    1    2    0    0  0.00000000000E+00  0.28421709430E-13 -0.14513939962E+04  0.17623201273E+04  0.99961377471E+03 0.  0.
         25    2    3    3    0    0 -0.65471902073E+02 -0.12002528486E+03 -0.19793467933E+03  0.26886725204E+03  0.12007840343E+03 0.  0.
         35    2    3    3    0    0  0.65471902073E+02  0.12002528486E+03 -0.12534593169E+04  0.14934528752E+04  0.80034279678E+03 0.  0.
         22    1    5    5    0    0  0.76303180349E+02  0.39418711286E+03 -0.29973494600E+03  0.50104559985E+03  0.00000000000E+00 0.  1.
         22    1    5    5    0    0 -0.10831278276E+02 -0.27416182800E+03 -0.95372437091E+03  0.99240727536E+03  0.00000000000E+00 0.  1.
          5    1    4    4  502    0  0.60279984787E+01 -0.87409240775E+02 -0.15766978440E+03  0.18043991535E+03  0.47000000000E+01 0.  1.
         -5    1    4    4    0  502 -0.71499900552E+02 -0.32616044082E+02 -0.40264894938E+02  0.88427336694E+02  0.47000000000E+01 0.  1.
<mgrwt>
<rscale>  0 0.99961377E+03</rscale>
<asrwt>0</asrwt>
<pdfrwt beam="1">  1        1 0.24720878E+00 0.99961377E+03</pdfrwt>
<pdfrwt beam="2">  1       -1 0.23917395E-01 0.99961377E+03</pdfrwt>
<totfact> 0.89391694E+01</totfact>
</mgrwt>
</event>
<event>
 9    1  0.4488205E-036  0.1000329E+04  0.7818608E-02  0.8680725E-01
          2   -1    0    0  501    0  0.00000000000E+00  0.00000000000E+00  0.16636280505E+03  0.16636280505E+03  0.00000000000E+00 0. -1.
         -2   -1    0    0    0  501 -0.00000000000E+00 -0.00000000000E+00 -0.15037287121E+04  0.15037287121E+04  0.00000000000E+00 0. -1.
         36    2    1    2    0    0  0.71054273576E-14  0.00000000000E+00 -0.13373659070E+04  0.16700915171E+04  0.10003289990E+04 0.  0.
         25    2    3    3    0    0  0.36149200244E+02  0.34015788631E+02 -0.47087143631E+03  0.48963537144E+03  0.12473591657E+03 0.  0.
         35    2    3    3    0    0 -0.36149200244E+02 -0.34015788631E+02 -0.86649447070E+03  0.11804561457E+04  0.80012511867E+03 0.  0.
         22    1    5    5    0    0  0.24990218178E+03 -0.30961422798E+03 -0.50897973749E+03  0.64604368568E+03  0.00000000000E+00 0. -1.
         22    1    5    5    0    0 -0.28605138203E+03  0.27559843934E+03 -0.35751473321E+03  0.53441245999E+03  0.00000000000E+00 0. -1.
          5    1    4    4  502    0 -0.12399069806E+02 -0.27878273571E+02 -0.34879176355E+02  0.46578772124E+02  0.47000000000E+01 0.  1.
         -5    1    4    4    0  502  0.48548270050E+02  0.61894062202E+02 -0.43599225995E+03  0.44305659932E+03  0.47000000000E+01 0.  1.
<mgrwt>
<rscale>  0 0.10003290E+04</rscale>
<asrwt>0</asrwt>
<pdfrwt beam="1">  1        2 0.25594279E-01 0.10003290E+04</pdfrwt>
<pdfrwt beam="2">  1       -2 0.23134287E+00 0.10003290E+04</pdfrwt>
<totfact> 0.19237567E+01</totfact>
</mgrwt>
</event>
<event>
 9    1  0.4488205E-036  0.1001356E+04  0.7818608E-02  0.8679748E-01
          2   -1    0    0  501    0  0.00000000000E+00  0.00000000000E+00  0.13126082148E+03  0.13126082148E+03  0.00000000000E+00 0.  1.
         -2   -1    0    0    0  501 -0.00000000000E+00 -0.00000000000E+00 -0.19097731103E+04  0.19097731103E+04  0.00000000000E+00 0.  1.
         36    2    1    2    0    0  0.00000000000E+00 -0.42632564146E-13 -0.17785122889E+04  0.20410339318E+04  0.10013558554E+04 0.  0.
         25    2    3    3    0    0  0.69986936613E+02 -0.57675590879E+02 -0.55555819122E+03  0.57649936777E+03  0.12442657325E+03 0.  0.
         35    2    3    3    0    0 -0.69986936613E+02  0.57675590879E+02 -0.12229540976E+04  0.14645345640E+04  0.80063732068E+03 0.  0.
         22    1    5    5    0    0  0.19098594062E+03  0.35619040817E+03 -0.53509422993E+03  0.67057667070E+03  0.00000000000E+00 0. -1.
         22    1    5    5    0    0 -0.26097287723E+03 -0.29851481729E+03 -0.68785986771E+03  0.79395789334E+03  0.00000000000E+00 0. -1.
          5    1    4    4  502    0  0.44788956392E+02 -0.96240892615E+02 -0.42075009143E+03  0.43395977863E+03  0.47000000000E+01 0. -1.
         -5    1    4    4    0  502  0.25197980221E+02  0.38565301737E+02 -0.13480809979E+03  0.14253958915E+03  0.47000000000E+01 0. -1.
<mgrwt>
<rscale>  0 0.10013559E+04</rscale>
<asrwt>0</asrwt>
<pdfrwt beam="1">  1        2 0.20193974E-01 0.10013559E+04</pdfrwt>
<pdfrwt beam="2">  1       -2 0.29381122E+00 0.10013559E+04</pdfrwt>
<totfact> 0.10610992E+01</totfact>
</mgrwt>
</event>
<event>
 9    1  0.4488205E-036  0.1000602E+04  0.7818608E-02  0.8680465E-01
         -2   -1    0    0    0  501 -0.00000000000E+00  0.00000000000E+00  0.12912208023E+03  0.12912208023E+03  0.00000000000E+00 0.  1.
          2   -1    0    0  501    0  0.00000000000E+00 -0.00000000000E+00 -0.19384845221E+04  0.19384845221E+04  0.00000000000E+00 0.  1.
         36    2    1    2    0    0  0.00000000000E+00  0.00000000000E+00 -0.18093624419E+04  0.20676066024E+04  0.10006021267E+04 0.  0.
         25    2    3    3    0    0  0.38303198022E+02 -0.59587392220E+02 -0.91765635079E+02  0.17046542242E+03  0.12497894290E+03 0.  0.
         35    2    3    3    0    0 -0.38303198022E+02  0.59587392220E+02 -0.17175968068E+04  0.18971411800E+04  0.80248867505E+03 0.  0.
         22    1    5    5    0    0  0.90197426746E+02  0.28574131700E+02 -0.17567332359E+04  0.17592793180E+04  0.00000000000E+00 0. -1.
         22    1    5    5    0    0 -0.12850062477E+03  0.31013260520E+02  0.39136429059E+02  0.13786186192E+03  0.00000000000E+00 0. -1.
          5    1    4    4  502    0 -0.35603131406E+02  0.14200091122E+02 -0.31207640140E+02  0.49651106301E+02  0.47000000000E+01 0. -1.
         -5    1    4    4    0  502  0.73906329428E+02 -0.73787483342E+02 -0.60557994940E+02  0.12081431612E+03  0.47000000000E+01 0. -1.
<mgrwt>
<rscale>  0 0.10006021E+04</rscale>
<asrwt>0</asrwt>
<pdfrwt beam="1">  1        2 0.29822838E+00 0.10006021E+04</pdfrwt>
<pdfrwt beam="2">  1       -2 0.19864936E-01 0.10006021E+04</pdfrwt>
<totfact> 0.18382827E+02</totfact>
</mgrwt>
</event>
<event>
 9    1  0.4488205E-036  0.9993272E+03  0.7818608E-02  0.8681679E-01
         -1   -1    0    0    0  501 -0.00000000000E+00  0.00000000000E+00  0.21024390894E+03  0.21024390894E+03  0.00000000000E+00 0.  1.
          1   -1    0    0  501    0  0.00000000000E+00 -0.00000000000E+00 -0.11874955803E+04  0.11874955803E+04  0.00000000000E+00 0.  1.
         36    2    1    2    0    0  0.21316282073E-13  0.00000000000E+00 -0.97725167141E+03  0.13977394893E+04  0.99932719900E+03 0.  0.
         25    2    3    3    0    0 -0.79608220978E+01  0.94319699607E+02 -0.32800556138E+03  0.36328432354E+03  0.12421059139E+03 0.  0.
         35    2    3    3    0    0  0.79608220978E+01 -0.94319699607E+02 -0.64924611003E+03  0.10344551657E+04  0.79976083808E+03 0.  0.
         22    1    5    5    0    0 -0.25392515852E+03  0.22172843091E+03 -0.48876718748E+03  0.59374644989E+03  0.00000000000E+00 0. -1.
         22    1    5    5    0    0  0.26188598062E+03 -0.31604813052E+03 -0.16047892255E+03  0.44070871586E+03  0.00000000000E+00 0. -1.
          5    1    4    4  502    0  0.39811707945E+02  0.73255509472E+02 -0.10477988047E+03  0.13398602580E+03  0.47000000000E+01 0.  1.
         -5    1    4    4    0  502 -0.47772530042E+02  0.21064190135E+02 -0.22322568091E+03  0.22929829774E+03  0.47000000000E+01 0.  1.
<mgrwt>
<rscale>  0 0.99932720E+03</rscale>
<asrwt>0</asrwt>
<pdfrwt beam="1">  1        1 0.18269163E+00 0.99932720E+03</pdfrwt>
<pdfrwt beam="2">  1       -1 0.32345217E-01 0.99932720E+03</pdfrwt>
<totfact> 0.10757736E+02</totfact>
</mgrwt>
</event>
<event>
 9    1  0.4488205E-036  0.1000291E+04  0.7818608E-02  0.8680761E-01
          2   -1    0    0  501    0  0.00000000000E+00  0.00000000000E+00  0.34002785626E+03  0.34002785626E+03  0.00000000000E+00 0. -1.
         -2   -1    0    0    0  501 -0.00000000000E+00 -0.00000000000E+00 -0.73566144664E+03  0.73566144664E+03  0.00000000000E+00 0. -1.
         36    2    1    2    0    0 -0.14210854715E-13  0.14210854715E-13 -0.39563359037E+03  0.10756893029E+04  0.10002907270E+04 0.  0.
         25    2    3    3    0    0  0.58040805258E+01  0.12389828890E+03 -0.25236837836E+02  0.18491563616E+03  0.13480512294E+03 0.  0.
         35    2    3    3    0    0 -0.58040805258E+01 -0.12389828890E+03 -0.37039675254E+03  0.89077366673E+03  0.80056198868E+03 0.  0.
         22    1    5    5    0    0 -0.14491379991E+03 -0.12145086402E+03 -0.59624679429E+03  0.62550824253E+03  0.00000000000E+00 0. -1.
         22    1    5    5    0    0  0.13910971939E+03 -0.24474248756E+01  0.22585004175E+03  0.26526542420E+03  0.00000000000E+00 0. -1.
          5    1    4    4  502    0  0.66447041658E+02  0.41435806092E+02 -0.25364366616E+02  0.82447416366E+02  0.47000000000E+01 0. -1.
         -5    1    4    4    0  502 -0.60642961132E+02  0.82462482803E+02  0.12752878004E+00  0.10246821980E+03  0.47000000000E+01 0. -1.
<mgrwt>
<rscale>  0 0.10002907E+04</rscale>
<asrwt>0</asrwt>
<pdfrwt beam="1">  1        2 0.52311978E-01 0.10002907E+04</pdfrwt>
<pdfrwt beam="2">  1       -2 0.11317868E+00 0.10002907E+04</pdfrwt>
<totfact> 0.68746185E+01</totfact>
</mgrwt>
</event>
<event>
 9    1  0.4488205E-036  0.9994421E+03  0.7818608E-02  0.8681569E-01
          3   -1    0    0  501    0  0.00000000000E+00  0.00000000000E+00  0.85978594657E+03  0.85978594657E+03  0.00000000000E+00 0.  1.
         -3   -1    0    0    0  501 -0.00000000000E+00 -0.00000000000E+00 -0.29044569205E+03  0.29044569205E+03  0.00000000000E+00 0.  1.
         36    2    1    2    0    0  0.00000000000E+00 -0.14210854715E-13  0.56934025452E+03  0.11502316386E+04  0.99944209290E+03 0.  0.
         25    2    3    3    0    0  0.57604093583E+02  0.10222158806E+03  0.19976948568E+02  0.17265617437E+03  0.12507434354E+03 0.  0.
         35    2    3    3    0    0 -0.57604093583E+02 -0.10222158806E+03  0.54936330595E+03  0.97757546425E+03  0.80005391175E+03 0.  0.
         22    1    5    5    0    0 -0.14483288426E+03 -0.24692756754E+03  0.69681060238E+03  0.75332250966E+03  0.00000000000E+00 0.  1.
         22    1    5    5    0    0  0.87228790672E+02  0.14470597947E+03 -0.14744729643E+03  0.22425295459E+03  0.00000000000E+00 0.  1.
          5    1    4    4  502    0  0.64180940097E+02  0.61823604671E+02  0.65920668859E+02  0.11094582349E+03  0.47000000000E+01 0. -1.
         -5    1    4    4    0  502 -0.65768465139E+01  0.40397983393E+02 -0.45943720291E+02  0.61710350886E+02  0.47000000000E+01 0. -1.
<mgrwt>
<rscale>  0 0.99944209E+03</rscale>
<asrwt>0</asrwt>
<pdfrwt beam="1">  1        3 0.13227476E+00 0.99944209E+03</pdfrwt>
<pdfrwt beam="2">  1       -3 0.44683953E-01 0.99944209E+03</pdfrwt>
<totfact> 0.93056981E+00</totfact>
</mgrwt>
</event>
<event>
 9    1  0.4488205E-036  0.9972321E+03  0.7818608E-02  0.8683678E-01
         -2   -1    0    0    0  501 -0.00000000000E+00  0.00000000000E+00  0.79293716375E+03  0.79293716375E+03  0.00000000000E+00 0. -1.
          2   -1    0    0  501    0  0.00000000000E+00 -0.00000000000E+00 -0.31354053368E+03  0.31354053368E+03  0.00000000000E+00 0. -1.
         36    2    1    2    0    0  0.14210854715E-13  0.71054273576E-14  0.47939663007E+03  0.11064776974E+04  0.99723205223E+03 0.  0.
         25    2    3    3    0    0  0.33388259651E+02  0.56988021955E+01 -0.58610217228E+02  0.14205851775E+03  0.12489280473E+03 0.  0.
         35    2    3    3    0    0 -0.33388259651E+02 -0.56988021955E+01  0.53800684730E+03  0.96441917969E+03  0.79969102420E+03 0.  0.
         22    1    5    5    0    0  0.35403491640E+03 -0.40603789088E+02  0.83178468303E+02  0.36593448499E+03  0.00000000000E+00 0.  1.
         22    1    5    5    0    0 -0.38742317605E+03  0.34904986892E+02  0.45482837899E+03  0.59848469470E+03  0.00000000000E+00 0.  1.
          5    1    4    4  502    0 -0.25146311308E+02 -0.37568843603E+02 -0.51626625550E+02  0.68783380607E+02  0.47000000000E+01 0.  1.
         -5    1    4    4    0  502  0.58534570959E+02  0.43267645799E+02 -0.69835916786E+01  0.73275137141E+02  0.47000000000E+01 0.  1.
<mgrwt>
<rscale>  0 0.99723205E+03</rscale>
<asrwt>0</asrwt>
<pdfrwt beam="1">  1        2 0.48237005E-01 0.99723205E+03</pdfrwt>
<pdfrwt beam="2">  1       -2 0.12199033E+00 0.99723205E+03</pdfrwt>
<totfact> 0.61999035E+01</totfact>
</mgrwt>
</event>
<event>
 9    1  0.4488205E-036  0.1000811E+04  0.7818608E-02  0.8680266E-01
         -3   -1    0    0    0  501 -0.00000000000E+00  0.00000000000E+00  0.36843266068E+03  0.36843266068E+03  0.00000000000E+00 0. -1.
          3   -1    0    0  501    0  0.00000000000E+00 -0.00000000000E+00 -0.67965127323E+03  0.67965127323E+03  0.00000000000E+00 0. -1.
         36    2    1    2    0    0  0.00000000000E+00  0.00000000000E+00 -0.31121861255E+03  0.10480839339E+04  0.10008111249E+04 0.  0.
         25    2    3    3    0    0 -0.97594285676E+02 -0.24192283007E+02 -0.16300068218E+03  0.22838849084E+03  0.12442736517E+03 0.  0.
         35    2    3    3    0    0  0.97594285676E+02  0.24192283007E+02 -0.14821793037E+03  0.81969544306E+03  0.79988883812E+03 0.  0.
         22    1    5    5    0    0 -0.47974630715E+02  0.60842868448E+02 -0.46380170905E+03  0.47022914111E+03  0.00000000000E+00 0.  1.
         22    1    5    5    0    0  0.14556891639E+03 -0.36650585441E+02  0.31558377868E+03  0.34946630195E+03  0.00000000000E+00 0.  1.
          5    1    4    4  502    0 -0.90236290450E+01  0.28944349359E+02  0.50350152090E+01  0.31090876783E+02  0.47000000000E+01 0. -1.
         -5    1    4    4    0  502 -0.88570656631E+02 -0.53136632366E+02 -0.16803569739E+03  0.19729761406E+03  0.47000000000E+01 0. -1.
<mgrwt>
<rscale>  0 0.10008111E+04</rscale>
<asrwt>0</asrwt>
<pdfrwt beam="1">  1        3 0.10456173E+00 0.10008111E+04</pdfrwt>
<pdfrwt beam="2">  1       -3 0.56681948E-01 0.10008111E+04</pdfrwt>
<totfact> 0.10012686E+01</totfact>
</mgrwt>
</event>
<event>
 9    1  0.4488205E-036  0.1000273E+04  0.7818608E-02  0.8680778E-01
         -1   -1    0    0    0  501 -0.00000000000E+00  0.00000000000E+00  0.19890392198E+03  0.19890392198E+03  0.00000000000E+00 0.  1.
          1   -1    0    0  501    0  0.00000000000E+00 -0.00000000000E+00 -0.12575752646E+04  0.12575752646E+04  0.00000000000E+00 0.  1.
         36    2    1    2    0    0  0.14210854715E-13 -0.28421709430E-13 -0.10586713427E+04  0.14564791866E+04  0.10002732673E+04 0.  0.
         25    2    3    3    0    0 -0.26267598900E+02 -0.86772850207E+02 -0.40995549259E+02  0.15908736933E+03  0.12413155013E+03 0.  0.
         35    2    3    3    0    0  0.26267598900E+02  0.86772850207E+02 -0.10176757934E+04  0.12973918173E+04  0.79958863972E+03 0.  0.
         22    1    5    5    0    0  0.13817085341E+03  0.39875257599E+03 -0.78882948399E+03  0.89462101272E+03  0.00000000000E+00 0.  1.
         22    1    5    5    0    0 -0.11190325451E+03 -0.31197972578E+03 -0.22884630941E+03  0.40277080455E+03  0.00000000000E+00 0.  1.
          5    1    4    4  502    0  0.88025816611E+01  0.29972021927E+02 -0.11157105192E+02  0.33501918431E+02  0.47000000000E+01 0. -1.
         -5    1    4    4    0  502 -0.35070180561E+02 -0.11674487213E+03 -0.29838444067E+02  0.12558545090E+03  0.47000000000E+01 0. -1.
<mgrwt>
<rscale>  0 0.10002733E+04</rscale>
<asrwt>0</asrwt>
<pdfrwt beam="1">  1        1 0.19347311E+00 0.10002733E+04</pdfrwt>
<pdfrwt beam="2">  1       -1 0.30600604E-01 0.10002733E+04</pdfrwt>
<totfact> 0.10497167E+02</totfact>
</mgrwt>
</event>
<event>
 9    1  0.4488205E-036  0.9998421E+03  0.7818608E-02  0.8681188E-01
         -2   -1    0    0    0  501 -0.00000000000E+00  0.00000000000E+00  0.15995195859E+03  0.15995195859E+03  0.00000000000E+00 0. -1.
          2   -1    0    0  501    0  0.00000000000E+00 -0.00000000000E+00 -0.15624758648E+04  0.15624758648E+04  0.00000000000E+00 0. -1.
         36    2    1    2    0    0 -0.71054273576E-14  0.00000000000E+00 -0.14025239062E+04  0.17224278234E+04  0.99984213718E+03 0.  0.
         25    2    3    3    0    0 -0.26431159863E+01  0.39254755637E+02 -0.44756862952E+02  0.14589063693E+03  0.13316523293E+03 0.  0.
         35    2    3    3    0    0  0.26431159863E+01 -0.39254755637E+02 -0.13577670432E+04  0.15765371864E+04  0.80024385946E+03 0.  0.
         22    1    5    5    0    0  0.11801409827E+03 -0.11795954780E+03 -0.14155829084E+04  0.14253830197E+04  0.00000000000E+00 0. -1.
         22    1    5    5    0    0 -0.11537098228E+03  0.78704792164E+02  0.57815865148E+02  0.15115416674E+03  0.00000000000E+00 0. -1.
          5    1    4    4  502    0  0.58589317751E+02  0.15938103914E+02 -0.51632378786E+02  0.79841867777E+02  0.47000000000E+01 0.  1.
         -5    1    4    4    0  502 -0.61232433738E+02  0.23316651722E+02  0.68755158335E+01  0.66048769156E+02  0.47000000000E+01 0.  1.
<mgrwt>
<rscale>  0 0.99984214E+03</rscale>
<asrwt>0</asrwt>
<pdfrwt beam="1">  1        2 0.24038089E+00 0.99984214E+03</pdfrwt>
<pdfrwt beam="2">  1       -2 0.24607995E-01 0.99984214E+03</pdfrwt>
<totfact> 0.20605128E+02</totfact>
</mgrwt>
</event>
<event>
 9    1  0.4488205E-036  0.1000090E+04  0.7818608E-02  0.8680952E-01
          1   -1    0    0  501    0  0.00000000000E+00  0.00000000000E+00  0.10382808420E+04  0.10382808420E+04  0.00000000000E+00 0. -1.
         -1   -1    0    0    0  501 -0.00000000000E+00 -0.00000000000E+00 -0.24082590753E+03  0.24082590753E+03  0.00000000000E+00 0. -1.
         36    2    1    2    0    0 -0.28421709430E-13  0.28421709430E-13  0.79745493444E+03  0.12791067495E+04  0.10000898480E+04 0.  0.
         25    2    3    3    0    0 -0.12804046603E+03 -0.43084253485E+02  0.10574596483E+03  0.21208499347E+03  0.12468849801E+03 0.  0.
         35    2    3    3    0    0  0.12804046603E+03  0.43084253485E+02  0.69170896962E+03  0.10670217560E+04  0.80113888645E+03 0.  0.
         22    1    5    5    0    0  0.23914616069E+03 -0.25994236026E+03  0.65240412994E+03  0.74188413219E+03  0.00000000000E+00 0. -1.
         22    1    5    5    0    0 -0.11110569466E+03  0.30302661374E+03  0.39304839671E+02  0.32513762385E+03  0.00000000000E+00 0. -1.
          5    1    4    4  502    0 -0.74736270851E+02 -0.65512242546E+02  0.11636292947E+03  0.15310057302E+03  0.47000000000E+01 0.  1.
         -5    1    4    4    0  502 -0.53304195183E+02  0.22427989060E+02 -0.10616964640E+02  0.58984420448E+02  0.47000000000E+01 0.  1.
<mgrwt>
<rscale>  0 0.10000898E+04</rscale>
<asrwt>0</asrwt>
<pdfrwt beam="1">  1        1 0.15973551E+00 0.10000898E+04</pdfrwt>
<pdfrwt beam="2">  1       -1 0.37050140E-01 0.10000898E+04</pdfrwt>
<totfact> 0.11042876E+02</totfact>
</mgrwt>
</event>
<event>
 9    1  0.4488205E-036  0.9998217E+03  0.7818608E-02  0.8681208E-01
          2   -1    0    0  501    0  0.00000000000E+00  0.00000000000E+00  0.18386339295E+04  0.18386339295E+04  0.00000000000E+00 0. -1.
         -2   -1    0    0    0  501 -0.00000000000E+00 -0.00000000000E+00 -0.13592203741E+03  0.13592203741E+03  0.00000000000E+00 0. -1.
         36    2    1    2    0    0  0.00000000000E+00  0.00000000000E+00  0.17027118921E+04  0.19745559669E+04  0.99982172360E+03 0.  0.
         25    2    3    3    0    0 -0.10107298667E+03 -0.94366412269E+02  0.35514961834E+03  0.40107837023E+03  0.12494734594E+03 0.  0.
         35    2    3    3    0    0  0.10107298667E+03  0.94366412269E+02  0.13475622738E+04  0.15734775967E+04  0.80049165969E+03 0.  0.
         22    1    5    5    0    0  0.44759044152E+03  0.72846767321E+01  0.85337252048E+03  0.96365705963E+03  0.00000000000E+00 0. -1.
         22    1    5    5    0    0 -0.34651745485E+03  0.87081735537E+02  0.49418975327E+03  0.60982053706E+03  0.00000000000E+00 0. -1.
          5    1    4    4  502    0 -0.12169951614E+03 -0.95870436424E+02  0.34357055540E+03  0.37691475077E+03  0.47000000000E+01 0. -1.
         -5    1    4    4    0  502  0.20626529471E+02  0.15040241551E+01  0.11579062938E+02  0.24163619456E+02  0.47000000000E+01 0. -1.
<mgrwt>
<rscale>  0 0.99982172E+03</rscale>
<asrwt>0</asrwt>
<pdfrwt beam="1">  1        2 0.28286674E+00 0.99982172E+03</pdfrwt>
<pdfrwt beam="2">  1       -2 0.20911084E-01 0.99982172E+03</pdfrwt>
<totfact> 0.19156064E+02</totfact>
</mgrwt>
</event>
<event>
 9    1  0.4488205E-036  0.9991037E+03  0.7818608E-02  0.8681892E-01
         -1   -1    0    0    0  501 -0.00000000000E+00  0.00000000000E+00  0.16827779038E+03  0.16827779038E+03  0.00000000000E+00 0. -1.
          1   -1    0    0  501    0  0.00000000000E+00 -0.00000000000E+00 -0.14829768045E+04  0.14829768045E+04  0.00000000000E+00 0. -1.
         36    2    1    2    0    0  0.71054273576E-14 -0.21316282073E-13 -0.13146990141E+04  0.16512545948E+04  0.99910371802E+03 0.  0.
         25    2    3    3    0    0 -0.57422040099E+02  0.60096154673E+02 -0.43261911216E+03  0.45802188510E+03  0.12536312270E+03 0.  0.
         35    2    3    3    0    0  0.57422040099E+02 -0.60096154673E+02 -0.88207990193E+03  0.11932327097E+04  0.79926873311E+03 0.  0.
         22    1    5    5    0    0  0.27332239791E+03  0.14775729610E+03 -0.83362855530E+03  0.88964820011E+03  0.00000000000E+00 0.  1.
         22    1    5    5    0    0 -0.21590035781E+03 -0.20785345077E+03 -0.48451346628E+02  0.30358450964E+03  0.00000000000E+00 0.  1.
          5    1    4    4  502    0 -0.82794383687E+02  0.38204381753E+02 -0.16765043424E+03  0.19090113372E+03  0.47000000000E+01 0. -1.
         -5    1    4    4    0  502  0.25372343588E+02  0.21891772920E+02 -0.26496867792E+03  0.26712075138E+03  0.47000000000E+01 0. -1.
<mgrwt>
<rscale>  0 0.99910372E+03</rscale>
<asrwt>0</asrwt>
<pdfrwt beam="1">  1        1 0.22815028E+00 0.99910372E+03</pdfrwt>
<pdfrwt beam="2">  1       -1 0.25888891E-01 0.99910372E+03</pdfrwt>
<totfact> 0.95835404E+01</totfact>
</mgrwt>
</event>
<event>
 9    1  0.4488205E-036  0.9990844E+03  0.7818608E-02  0.8681910E-01
         -2   -1    0    0    0  501 -0.00000000000E+00  0.00000000000E+00  0.15406761679E+03  0.15406761679E+03  0.00000000000E+00 0.  1.
          2   -1    0    0  501    0  0.00000000000E+00 -0.00000000000E+00 -0.16196942421E+04  0.16196942421E+04  0.00000000000E+00 0.  1.
         36    2    1    2    0    0  0.00000000000E+00  0.00000000000E+00 -0.14656266253E+04  0.17737618589E+04  0.99908444449E+03 0.  0.
         25    2    3    3    0    0  0.42222434919E+02 -0.12255369076E+03 -0.36955585931E+03  0.41102004569E+03  0.12475497458E+03 0.  0.
         35    2    3    3    0    0 -0.42222434919E+02  0.12255369076E+03 -0.10960707660E+04  0.13627418132E+04  0.79930719014E+03 0.  0.
         22    1    5    5    0    0 -0.14968608630E+03  0.44496173818E+03 -0.65785341452E+03  0.80818808942E+03  0.00000000000E+00 0.  1.
         22    1    5    5    0    0  0.10746365138E+03 -0.32240804742E+03 -0.43821735147E+03  0.55455372377E+03  0.00000000000E+00 0.  1.
          5    1    4    4  502    0 -0.44069928728E+02 -0.34189847693E+02 -0.12701095205E+03  0.13879832940E+03  0.47000000000E+01 0.  1.
         -5    1    4    4    0  502  0.86292363647E+02 -0.88363843067E+02 -0.24254490726E+03  0.27222171630E+03  0.47000000000E+01 0.  1.
<mgrwt>
<rscale>  0 0.99908444E+03</rscale>
<asrwt>0</asrwt>
<pdfrwt beam="1">  1        2 0.24918373E+00 0.99908444E+03</pdfrwt>
<pdfrwt beam="2">  1       -2 0.23702710E-01 0.99908444E+03</pdfrwt>
<totfact> 0.20439555E+02</totfact>
</mgrwt>
</event>
<event>
 9    1  0.4488205E-036  0.9994553E+03  0.7818608E-02  0.8681557E-01
         -2   -1    0    0    0  501 -0.00000000000E+00  0.00000000000E+00  0.34502915163E+03  0.34502915163E+03  0.00000000000E+00 0. -1.
          2   -1    0    0  501    0  0.00000000000E+00 -0.00000000000E+00 -0.72378738331E+03  0.72378738331E+03  0.00000000000E+00 0. -1.
         36    2    1    2    0    0  0.71054273576E-14  0.00000000000E+00 -0.37875823168E+03  0.10688165349E+04  0.99945534532E+03 0.  0.
         25    2    3    3    0    0  0.21300307424E+02 -0.13278345473E+03 -0.12676314809E+03  0.22335082468E+03  0.12542546085E+03 0.  0.
         35    2    3    3    0    0 -0.21300307424E+02  0.13278345473E+03 -0.25199508360E+03  0.84546571026E+03  0.79575473364E+03 0.  0.
         22    1    5    5    0    0  0.91447598573E+02  0.31987146678E+03 -0.44388181536E+03  0.55471748174E+03  0.00000000000E+00 0. -1.
         22    1    5    5    0    0 -0.11274790600E+03 -0.18708801205E+03  0.19188673176E+03  0.29074822852E+03  0.00000000000E+00 0. -1.
          5    1    4    4  502    0  0.72231596455E+02 -0.95974666579E+02 -0.73993459136E+02  0.14115828756E+03  0.47000000000E+01 0.  1.
         -5    1    4    4    0  502 -0.50931289030E+02 -0.36808788152E+02 -0.52769688950E+02  0.82192537127E+02  0.47000000000E+01 0.  1.
<mgrwt>
<rscale>  0 0.99945535E+03</rscale>
<asrwt>0</asrwt>
<pdfrwt beam="1">  1        2 0.11135190E+00 0.99945535E+03</pdfrwt>
<pdfrwt beam="2">  1       -2 0.53081409E-01 0.99945535E+03</pdfrwt>
<totfact> 0.15903272E+02</totfact>
</mgrwt>
</event>
<event>
 9    1  0.4488205E-036  0.9978526E+03  0.7818608E-02  0.8683086E-01
         -2   -1    0    0    0  501 -0.00000000000E+00  0.00000000000E+00  0.46368263100E+03  0.46368263100E+03  0.00000000000E+00 0.  1.
          2   -1    0    0  501    0  0.00000000000E+00 -0.00000000000E+00 -0.53684873444E+03  0.53684873444E+03  0.00000000000E+00 0.  1.
         36    2    1    2    0    0  0.00000000000E+00  0.28421709430E-13 -0.73166103440E+02  0.10005313654E+04  0.99785256153E+03 0.  0.
         25    2    3    3    0    0  0.62016970788E+02  0.31062476261E+02 -0.13405390155E+03  0.19519330686E+03  0.12376993344E+03 0.  0.
         35    2    3    3    0    0 -0.62016970788E+02 -0.31062476261E+02  0.60887798112E+02  0.80533805859E+03  0.80003192596E+03 0.  0.
         22    1    5    5    0    0 -0.60010009716E+02 -0.30214323626E+03  0.31010586113E+03  0.43710111141E+03  0.00000000000E+00 0. -1.
         22    1    5    5    0    0 -0.20069610722E+01  0.27108076000E+03 -0.24921806302E+03  0.36823694718E+03  0.00000000000E+00 0. -1.
          5    1    4    4  502    0 -0.22660919101E+02 -0.28993510302E+02 -0.45135984113E+02  0.58425062738E+02  0.47000000000E+01 0. -1.
         -5    1    4    4    0  502  0.84677889889E+02  0.60055986563E+02 -0.88917917439E+02  0.13676824412E+03  0.47000000000E+01 0. -1.
<mgrwt>
<rscale>  0 0.99785256E+03</rscale>
<asrwt>0</asrwt>
<pdfrwt beam="1">  1        2 0.82592113E-01 0.99785256E+03</pdfrwt>
<pdfrwt beam="2">  1       -2 0.71335789E-01 0.99785256E+03</pdfrwt>
<totfact> 0.12218075E+02</totfact>
</mgrwt>
</event>
<event>
 9    1  0.4488205E-036  0.1000012E+04  0.7818608E-02  0.8681026E-01
         -1   -1    0    0    0  501 -0.00000000000E+00  0.00000000000E+00  0.18385551280E+03  0.18385551280E+03  0.00000000000E+00 0.  1.
          1   -1    0    0  501    0  0.00000000000E+00 -0.00000000000E+00 -0.13597971967E+04  0.13597971967E+04  0.00000000000E+00 0.  1.
         36    2    1    2    0    0  0.00000000000E+00  0.00000000000E+00 -0.11759416839E+04  0.15436527095E+04  0.10000124217E+04 0.  0.
         25    2    3    3    0    0 -0.81922119014E+01 -0.13016273508E+03 -0.29485778871E+03  0.34625091193E+03  0.12625026143E+03 0.  0.
         35    2    3    3    0    0  0.81922119014E+01  0.13016273508E+03 -0.88108389518E+03  0.11974017976E+04  0.80028294028E+03 0.  0.
         22    1    5    5    0    0 -0.12997793540E+03  0.36014375262E+03 -0.13737687267E+03  0.40678027409E+03  0.00000000000E+00 0. -1.
         22    1    5    5    0    0  0.13817014730E+03 -0.22998101754E+03 -0.74370702251E+03  0.79062152346E+03  0.00000000000E+00 0. -1.
          5    1    4    4  502    0  0.13583464460E+02 -0.12857237252E+03 -0.29686146149E+03  0.32382739662E+03  0.47000000000E+01 0.  1.
         -5    1    4    4    0  502 -0.21775676361E+02 -0.15903625534E+01  0.20036727849E+01  0.22423515306E+02  0.47000000000E+01 0.  1.
<mgrwt>
<rscale>  0 0.10000124E+04</rscale>
<asrwt>0</asrwt>
<pdfrwt beam="1">  1        1 0.20919957E+00 0.10000124E+04</pdfrwt>
<pdfrwt beam="2">  1       -1 0.28285463E-01 0.10000124E+04</pdfrwt>
<totfact> 0.10111659E+02</totfact>
</mgrwt>
</event>
<event>
 9    1  0.4488205E-036  0.1000674E+04  0.7818608E-02  0.8680396E-01
         -2   -1    0    0    0  501 -0.00000000000E+00  0.00000000000E+00  0.10322815517E+03  0.10322815517E+03  0.00000000000E+00 0. -1.
          2   -1    0    0  501    0  0.00000000000E+00 -0.00000000000E+00 -0.24250857620E+04  0.24250857620E+04  0.00000000000E+00 0. -1.
         36    2    1    2    0    0  0.14210854715E-13 -0.14210854715E-13 -0.23218576068E+04  0.25283139172E+04  0.10006740315E+04 0.  0.
         25    2    3    3    0    0  0.65471787153E+02 -0.62337093132E+02 -0.70630199799E+03  0.72301535861E+03  0.12536438220E+03 0.  0.
         35    2    3    3    0    0 -0.65471787153E+02  0.62337093132E+02 -0.16155556088E+04  0.18052985586E+04  0.80056885538E+03 0.  0.
         22    1    5    5    0    0 -0.21183699193E+03 -0.10826064812E+03 -0.76471030953E+02  0.24988616940E+03  0.00000000000E+00 0. -1.
         22    1    5    5    0    0  0.14636520477E+03  0.17059774125E+03 -0.15390845779E+04  0.15554123892E+04  0.00000000000E+00 0. -1.
          5    1    4    4  502    0  0.10580502850E+02 -0.80295103202E+02 -0.55676118670E+03  0.56264052436E+03  0.47000000000E+01 0.  1.
         -5    1    4    4    0  502  0.54891284303E+02  0.17958010070E+02 -0.14954081130E+03  0.16037483425E+03  0.47000000000E+01 0.  1.
<mgrwt>
<rscale>  0 0.10006740E+04</rscale>
<asrwt>0</asrwt>
<pdfrwt beam="1">  1        2 0.37309011E+00 0.10006740E+04</pdfrwt>
<pdfrwt beam="2">  1       -2 0.15881255E-01 0.10006740E+04</pdfrwt>
<totfact> 0.14041287E+02</totfact>
</mgrwt>
</event>
<event>
 9    1  0.4488205E-036  0.1000307E+04  0.7818608E-02  0.8680746E-01
          2   -1    0    0  501    0  0.00000000000E+00  0.00000000000E+00  0.11237279135E+04  0.11237279135E+04  0.00000000000E+00 0.  1.
         -2   -1    0    0    0  501 -0.00000000000E+00 -0.00000000000E+00 -0.22261025464E+03  0.22261025464E+03  0.00000000000E+00 0.  1.
         36    2    1    2    0    0  0.00000000000E+00  0.14210854715E-13  0.90111765888E+03  0.13463381682E+04  0.10003066669E+04 0.  0.
         25    2    3    3    0    0  0.86314716883E+02  0.13997103817E+02  0.31683686392E+03  0.35187819332E+03  0.12564440033E+03 0.  0.
         35    2    3    3    0    0 -0.86314716883E+02 -0.13997103817E+02  0.58428079497E+03  0.99445997484E+03  0.79995027654E+03 0.  0.
         22    1    5    5    0    0 -0.76373544202E+02  0.38259378709E+03  0.18564122947E+03  0.43205739231E+03  0.00000000000E+00 0.  1.
         22    1    5    5    0    0 -0.99411726811E+01 -0.39659089090E+03  0.39863956549E+03  0.56240258253E+03  0.00000000000E+00 0.  1.
          5    1    4    4  502    0  0.10585795547E+03 -0.24429194863E+02  0.20777032212E+03  0.23450647976E+03  0.47000000000E+01 0.  1.
         -5    1    4    4    0  502 -0.19543238586E+02  0.38426298680E+02  0.10906654180E+03  0.11737171356E+03  0.47000000000E+01 0.  1.
<mgrwt>
<rscale>  0 0.10003067E+04</rscale>
<asrwt>0</asrwt>
<pdfrwt beam="1">  1        2 0.17288121E+00 0.10003067E+04</pdfrwt>
<pdfrwt beam="2">  1       -2 0.34247732E-01 0.10003067E+04</pdfrwt>
<totfact> 0.20292593E+02</totfact>
</mgrwt>
</event>
<event>
 9    1  0.4488205E-036  0.1000118E+04  0.7818608E-02  0.8680926E-01
          1   -1    0    0  501    0  0.00000000000E+00  0.00000000000E+00  0.22098739343E+04  0.22098739343E+04  0.00000000000E+00 0. -1.
         -1   -1    0    0    0  501 -0.00000000000E+00 -0.00000000000E+00 -0.11315532686E+03  0.11315532686E+03  0.00000000000E+00 0. -1.
         36    2    1    2    0    0  0.28421709430E-13  0.00000000000E+00  0.20967186074E+04  0.23230292611E+04  0.10001180077E+04 0.  0.
         25    2    3    3    0    0 -0.11413931554E+03 -0.62708793427E+02  0.57515660069E+03  0.60215950775E+03  0.12178169536E+03 0.  0.
         35    2    3    3    0    0  0.11413931554E+03  0.62708793427E+02  0.15215620067E+04  0.17208697534E+04  0.79327270953E+03 0.  0.
         22    1    5    5    0    0  0.12713713173E+03 -0.19074358753E+03  0.59339713163E+02  0.23678717872E+03  0.00000000000E+00 0.  1.
         22    1    5    5    0    0 -0.12997816195E+02  0.25345238095E+03  0.14622222936E+04  0.14840825747E+04  0.00000000000E+00 0.  1.
          5    1    4    4  502    0  0.24447404103E+02  0.16842857266E+01  0.96815521239E+02  0.99979235537E+02  0.47000000000E+01 0.  1.
         -5    1    4    4    0  502 -0.13858671964E+03 -0.64393079153E+02  0.47834107945E+03  0.50218027221E+03  0.47000000000E+01 0.  1.
<mgrwt>
<rscale>  0 0.10001180E+04</rscale>
<asrwt>0</asrwt>
<pdfrwt beam="1">  1        1 0.33998057E+00 0.10001180E+04</pdfrwt>
<pdfrwt beam="2">  1       -1 0.17408513E-01 0.10001180E+04</pdfrwt>
<totfact> 0.57004060E+01</totfact>
</mgrwt>
</event>
<event>
 9    1  0.4488205E-036  0.9968377E+03  0.7818608E-02  0.8684055E-01
         -2   -1    0    0    0  501 -0.00000000000E+00  0.00000000000E+00  0.91342912973E+02  0.91342912973E+02  0.00000000000E+00 0.  1.
          2   -1    0    0  501    0  0.00000000000E+00 -0.00000000000E+00 -0.27196567036E+04  0.27196567036E+04  0.00000000000E+00 0.  1.
         36    2    1    2    0    0  0.71054273576E-14  0.00000000000E+00 -0.26283137906E+04  0.28109996166E+04  0.99683773122E+03 0.  0.
         25    2    3    3    0    0 -0.52142445243E+02  0.12138393205E+03 -0.58332804813E+03  0.61108934834E+03  0.12532232986E+03 0.  0.
         35    2    3    3    0    0  0.52142445243E+02 -0.12138393205E+03 -0.20449857425E+04  0.21999102682E+04  0.80011599641E+03 0.  0.
         22    1    5    5    0    0  0.94923827043E+02 -0.10579405994E+03 -0.21131564867E+04  0.21179313618E+04  0.00000000000E+00 0.  1.
         22    1    5    5    0    0 -0.42781381800E+02 -0.15589872113E+02  0.68170744176E+02  0.81978906450E+02  0.00000000000E+00 0.  1.
          5    1    4    4  502    0 -0.64119429765E+02  0.30949492382E+02 -0.12666182549E+03  0.14537702841E+03  0.47000000000E+01 0. -1.
         -5    1    4    4    0  502  0.11976984522E+02  0.90434439672E+02 -0.45666622264E+03  0.46571231993E+03  0.47000000000E+01 0. -1.
<mgrwt>
<rscale>  0 0.99683773E+03</rscale>
<asrwt>0</asrwt>
<pdfrwt beam="1">  1        2 0.41840872E+00 0.99683773E+03</pdfrwt>
<pdfrwt beam="2">  1       -2 0.14052756E-01 0.99683773E+03</pdfrwt>
<totfact> 0.11349669E+02</totfact>
</mgrwt>
</event>
<event>
 9    1  0.4488205E-036  0.9997362E+03  0.7818608E-02  0.8681289E-01
         -2   -1    0    0    0  501 -0.00000000000E+00  0.00000000000E+00  0.11655075927E+03  0.11655075927E+03  0.00000000000E+00 0.  1.
          2   -1    0    0  501    0  0.00000000000E+00 -0.00000000000E+00 -0.21438565073E+04  0.21438565073E+04  0.00000000000E+00 0.  1.
         36    2    1    2    0    0  0.21316282073E-13  0.00000000000E+00 -0.20273057480E+04  0.22604072665E+04  0.99973617258E+03 0.  0.
         25    2    3    3    0    0  0.19336032373E+02  0.99397484200E+02 -0.16178667276E+03  0.22796498154E+03  0.12465698261E+03 0.  0.
         35    2    3    3    0    0 -0.19336032373E+02 -0.99397484200E+02 -0.18655190752E+04  0.20324422850E+04  0.80025400953E+03 0.  0.
         22    1    5    5    0    0 -0.24606986147E+03 -0.31516382732E+03 -0.54867534722E+03  0.67891328712E+03  0.00000000000E+00 0. -1.
         22    1    5    5    0    0  0.22673382910E+03  0.21576634312E+03 -0.13168437280E+04  0.13535289979E+04  0.00000000000E+00 0. -1.
          5    1    4    4  502    0 -0.18488315778E+02 -0.19339278544E+02 -0.49813839754E+01  0.27617561464E+02  0.47000000000E+01 0. -1.
         -5    1    4    4    0  502  0.37824348151E+02  0.11873676274E+03 -0.15680528878E+03  0.20034742007E+03  0.47000000000E+01 0. -1.
<mgrwt>
<rscale>  0 0.99973617E+03</rscale>
<asrwt>0</asrwt>
<pdfrwt beam="1">  1        2 0.32982406E+00 0.99973617E+03</pdfrwt>
<pdfrwt beam="2">  1       -2 0.17930887E-01 0.99973617E+03</pdfrwt>
<totfact> 0.16727767E+02</totfact>
</mgrwt>
</event>
<event>
 9    1  0.4488205E-036  0.9928941E+03  0.7818608E-02  0.8687835E-01
          2   -1    0    0  501    0  0.00000000000E+00  0.00000000000E+00  0.13190017787E+04  0.13190017787E+04  0.00000000000E+00 0. -1.
         -2   -1    0    0    0  501 -0.00000000000E+00 -0.00000000000E+00 -0.18685317248E+03  0.18685317248E+03  0.00000000000E+00 0. -1.
         36    2    1    2    0    0 -0.14210854715E-13 -0.14210854715E-13  0.11321486062E+04  0.15058549512E+04  0.99289408672E+03 0.  0.
         25    2    3    3    0    0  0.11231770268E+03 -0.44427944996E+02  0.13171192980E+03  0.21975284901E+03  0.12788343741E+03 0.  0.
         35    2    3    3    0    0 -0.11231770268E+03  0.44427944996E+02  0.10004366764E+04  0.12861021022E+04  0.79912199636E+03 0.  0.
         22    1    5    5    0    0 -0.21442105301E+03 -0.30629477042E+03  0.76511152841E+03  0.85158001695E+03  0.00000000000E+00 0.  1.
         22    1    5    5    0    0  0.10210335033E+03  0.35072271542E+03  0.23532514799E+03  0.43452208521E+03  0.00000000000E+00 0.  1.
          5    1    4    4  502    0  0.10621923820E+03 -0.82084825296E+02  0.83760556616E+02  0.15829834475E+03  0.47000000000E+01 0. -1.
         -5    1    4    4    0  502  0.60984644787E+01  0.37656880300E+02  0.47951373185E+02  0.61454504255E+02  0.47000000000E+01 0. -1.
<mgrwt>
<rscale>  0 0.99289409E+03</rscale>
<asrwt>0</asrwt>
<pdfrwt beam="1">  1        2 0.20292334E+00 0.99289409E+03</pdfrwt>
<pdfrwt beam="2">  1       -2 0.28746643E-01 0.99289409E+03</pdfrwt>
<totfact> 0.21470920E+02</totfact>
</mgrwt>
</event>
<event>
 9    1  0.4488205E-036  0.1000640E+04  0.7818608E-02  0.8680429E-01
          1   -1    0    0  501    0  0.00000000000E+00  0.00000000000E+00  0.76453561396E+03  0.76453561396E+03  0.00000000000E+00 0.  1.
         -1   -1    0    0    0  501 -0.00000000000E+00 -0.00000000000E+00 -0.32741460004E+03  0.32741460004E+03  0.00000000000E+00 0.  1.
         36    2    1    2    0    0  0.14210854715E-13  0.00000000000E+00  0.43712101392E+03  0.10919502140E+04  0.10006400397E+04 0.  0.
         25    2    3    3    0    0  0.48769160979E+02  0.11233413053E+03  0.16601637982E+03  0.24200419383E+03  0.12651957760E+03 0.  0.
         35    2    3    3    0    0 -0.48769160979E+02 -0.11233413053E+03  0.27110463410E+03  0.84994602017E+03  0.79618661545E+03 0.  0.
         22    1    5    5    0    0 -0.23001390359E+03  0.13379109377E+03  0.42983174324E+03  0.50553118609E+03  0.00000000000E+00 0.  1.
         22    1    5    5    0    0  0.18124474261E+03 -0.24612522430E+03 -0.15872710914E+03  0.34441483408E+03  0.00000000000E+00 0.  1.
          5    1    4    4  502    0  0.86571526157E+02  0.64324677238E+02  0.71952229114E+02  0.12973629607E+03  0.47000000000E+01 0. -1.
         -5    1    4    4    0  502 -0.37802365178E+02  0.48009453293E+02  0.94064150710E+02  0.11226789776E+03  0.47000000000E+01 0. -1.
<mgrwt>
<rscale>  0 0.10006400E+04</rscale>
<asrwt>0</asrwt>
<pdfrwt beam="1">  1        1 0.11762086E+00 0.10006400E+04</pdfrwt>
<pdfrwt beam="2">  1       -1 0.50371477E-01 0.10006400E+04</pdfrwt>
<totfact> 0.10747935E+02</totfact>
</mgrwt>
</event>
<event>
 9    1  0.4488205E-036  0.1000488E+04  0.7818608E-02  0.8680574E-01
         -2   -1    0    0    0  501 -0.00000000000E+00  0.00000000000E+00  0.24326380653E+03  0.24326380653E+03  0.00000000000E+00 0. -1.
          2   -1    0    0  501    0  0.00000000000E+00 -0.00000000000E+00 -0.10286937165E+04  0.10286937165E+04  0.00000000000E+00 0. -1.
         36    2    1    2    0    0  0.35527136788E-14  0.14210854715E-13 -0.78542991000E+03  0.12719575230E+04  0.10004877795E+04 0.  0.
         25    2    3    3    0    0 -0.18851533840E+02  0.48022180106E+02 -0.31028493407E+03  0.33832549543E+03  0.12460293110E+03 0.  0.
         35    2    3    3    0    0  0.18851533840E+02 -0.48022180106E+02 -0.47514497592E+03  0.93363202761E+03  0.80202525193E+03 0.  0.
         22    1    5    5    0    0 -0.19869013017E+03 -0.11403610512E+03  0.14636142513E+03  0.27185229052E+03  0.00000000000E+00 0.  1.
         22    1    5    5    0    0  0.21754166401E+03  0.66013925011E+02 -0.62150640105E+03  0.66177973709E+03  0.00000000000E+00 0.  1.
          5    1    4    4  502    0  0.23863532920E+02  0.20580083161E+02 -0.27375434107E+03  0.27560213585E+03  0.47000000000E+01 0.  1.
         -5    1    4    4    0  502 -0.42715066761E+02  0.27442096945E+02 -0.36530592998E+02  0.62723359587E+02  0.47000000000E+01 0.  1.
<mgrwt>
<rscale>  0 0.10004878E+04</rscale>
<asrwt>0</asrwt>
<pdfrwt beam="1">  1        2 0.15826057E+00 0.10004878E+04</pdfrwt>
<pdfrwt beam="2">  1       -2 0.37425201E-01 0.10004878E+04</pdfrwt>
<totfact> 0.19644131E+02</totfact>
</mgrwt>
</event>
<event>
 9    1  0.4488205E-036  0.1005566E+04  0.7818608E-02  0.8675755E-01
          2   -1    0    0  501    0  0.00000000000E+00  0.00000000000E+00  0.17607906755E+03  0.17607906755E+03  0.00000000000E+00 0. -1.
         -2   -1    0    0    0  501 -0.00000000000E+00 -0.00000000000E+00 -0.14356660981E+04  0.14356660981E+04  0.00000000000E+00 0. -1.
         36    2    1    2    0    0  0.14210854715E-13 -0.17763568394E-14 -0.12595870306E+04  0.16117451657E+04  0.10055660056E+04 0.  0.
         25    2    3    3    0    0  0.12461716009E+02  0.51514699047E+00 -0.47038072563E+03  0.48689099248E+03  0.12509696948E+03 0.  0.
         35    2    3    3    0    0 -0.12461716009E+02 -0.51514699047E+00 -0.78920630496E+03  0.11248541732E+04  0.80143294135E+03 0.  0.
         22    1    5    5    0    0 -0.37736797966E+03  0.10475362190E+03 -0.55289769282E+03  0.67755130588E+03  0.00000000000E+00 0.  1.
         22    1    5    5    0    0  0.36490626365E+03 -0.10526876889E+03 -0.23630861214E+03  0.44730286734E+03  0.00000000000E+00 0.  1.
          5    1    4    4  502    0 -0.48098814611E+02 -0.48109634247E+01 -0.96092377640E+02  0.10766836293E+03  0.47000000000E+01 0.  1.
         -5    1    4    4    0  502  0.60560530620E+02  0.53261104151E+01 -0.37428834799E+03  0.37922262955E+03  0.47000000000E+01 0.  1.
<mgrwt>
<rscale>  0 0.10055660E+04</rscale>
<asrwt>0</asrwt>
<pdfrwt beam="1">  1        2 0.27089089E-01 0.10055660E+04</pdfrwt>
<pdfrwt beam="2">  1       -2 0.22087170E+00 0.10055660E+04</pdfrwt>
<totfact> 0.21036222E+01</totfact>
</mgrwt>
</event>
<event>
 9    1  0.4488205E-036  0.1000069E+04  0.7818608E-02  0.8680973E-01
          1   -1    0    0  501    0  0.00000000000E+00  0.00000000000E+00  0.22072197587E+04  0.22072197587E+04  0.00000000000E+00 0.  1.
         -1   -1    0    0    0  501 -0.00000000000E+00 -0.00000000000E+00 -0.11328020718E+03  0.11328020718E+03  0.00000000000E+00 0.  1.
         36    2    1    2    0    0  0.28421709430E-13  0.00000000000E+00  0.20939395516E+04  0.23204999659E+04  0.10000686207E+04 0.  0.
         25    2    3    3    0    0 -0.87183290828E+02 -0.18135027689E+02  0.14916218053E+03  0.21434764362E+03  0.12556174099E+03 0.  0.
         35    2    3    3    0    0  0.87183290828E+02  0.18135027689E+02  0.19447773710E+04  0.21061523223E+04  0.80360984088E+03 0.  0.
         22    1    5    5    0    0  0.29309972746E+03 -0.14928251212E+03  0.31677476106E+03  0.45666067041E+03  0.00000000000E+00 0.  1.
         22    1    5    5    0    0 -0.20591643663E+03  0.16741753981E+03  0.16280026100E+04  0.16494916519E+04  0.00000000000E+00 0.  1.
          5    1    4    4  502    0 -0.93856197642E+02 -0.27442664517E+02  0.16643743296E+03  0.19309478181E+03  0.47000000000E+01 0. -1.
         -5    1    4    4    0  502  0.66729068135E+01  0.93076368284E+01 -0.17275252434E+02  0.21252861815E+02  0.47000000000E+01 0. -1.
<mgrwt>
<rscale>  0 0.10000686E+04</rscale>
<asrwt>0</asrwt>
<pdfrwt beam="1">  1        1 0.33957224E+00 0.10000686E+04</pdfrwt>
<pdfrwt beam="2">  1       -1 0.17427726E-01 0.10000686E+04</pdfrwt>
<totfact> 0.57146271E+01</totfact>
</mgrwt>
</event>
<event>
 9    1  0.4488205E-036  0.9977823E+03  0.7818608E-02  0.8683153E-01
          1   -1    0    0  501    0  0.00000000000E+00  0.00000000000E+00  0.15383910053E+03  0.15383910053E+03  0.00000000000E+00 0.  1.
         -1   -1    0    0    0  501 -0.00000000000E+00 -0.00000000000E+00 -0.16178745941E+04  0.16178745941E+04  0.00000000000E+00 0.  1.
         36    2    1    2    0    0  0.14210854715E-13  0.00000000000E+00 -0.14640354936E+04  0.17717136947E+04  0.99778228554E+03 0.  0.
         25    2    3    3    0    0 -0.23575573005E+02 -0.13010838379E+03 -0.30202650996E+03  0.35258846456E+03  0.12495844688E+03 0.  0.
         35    2    3    3    0    0  0.23575573005E+02  0.13010838379E+03 -0.11620089836E+04  0.14191252301E+04  0.80384547114E+03 0.  0.
         22    1    5    5    0    0 -0.11811758045E+03 -0.23298241354E+03 -0.86487745966E+02  0.27515940477E+03  0.00000000000E+00 0. -1.
         22    1    5    5    0    0  0.14169315346E+03  0.36309079733E+03 -0.10755212377E+04  0.11439658253E+04  0.00000000000E+00 0. -1.
          5    1    4    4  502    0 -0.47701854925E+01  0.13373279200E+02  0.27155658597E+01  0.15200775116E+02  0.47000000000E+01 0. -1.
         -5    1    4    4    0  502 -0.18805387513E+02 -0.14348166299E+03 -0.30474207582E+03  0.33738768944E+03  0.47000000000E+01 0. -1.
<mgrwt>
<rscale>  0 0.99778229E+03</rscale>
<asrwt>0</asrwt>
<pdfrwt beam="1">  1        1 0.23667554E-01 0.99778229E+03</pdfrwt>
<pdfrwt beam="2">  1       -1 0.24890378E+00 0.99778229E+03</pdfrwt>
<totfact> 0.12063385E+01</totfact>
</mgrwt>
</event>
<event>
 9    1  0.4488205E-036  0.9996034E+03  0.7818608E-02  0.8681416E-01
          2   -1    0    0  501    0  0.00000000000E+00  0.00000000000E+00  0.95632344127E+03  0.95632344127E+03  0.00000000000E+00 0.  1.
         -2   -1    0    0    0  501 -0.00000000000E+00 -0.00000000000E+00 -0.26121051668E+03  0.26121051668E+03  0.00000000000E+00 0.  1.
         36    2    1    2    0    0 -0.28421709430E-13  0.00000000000E+00  0.69511292459E+03  0.12175339580E+04  0.99960340178E+03 0.  0.
         25    2    3    3    0    0  0.13809984943E+03  0.24474531656E+02  0.13272959564E+03  0.22979349831E+03  0.12456859635E+03 0.  0.
         35    2    3    3    0    0 -0.13809984943E+03 -0.24474531656E+02  0.56238332895E+03  0.98774045964E+03  0.79980349825E+03 0.  0.
         22    1    5    5    0    0  0.31178852765E+03 -0.14742261935E+03  0.25995310884E+03  0.43188092510E+03  0.00000000000E+00 0.  1.
         22    1    5    5    0    0 -0.44988837708E+03  0.12294808770E+03  0.30243022010E+03  0.55585953453E+03  0.00000000000E+00 0.  1.
          5    1    4    4  502    0  0.12343136214E+03  0.56550289501E+02  0.59364232205E+02  0.14825464063E+03  0.47000000000E+01 0.  1.
         -5    1    4    4    0  502  0.14668487285E+02 -0.32075757845E+02  0.73365363434E+02  0.81538857684E+02  0.47000000000E+01 0.  1.
<mgrwt>
<rscale>  0 0.99960340E+03</rscale>
<asrwt>0</asrwt>
<pdfrwt beam="1">  1        2 0.14712668E+00 0.99960340E+03</pdfrwt>
<pdfrwt beam="2">  1       -2 0.40186234E-01 0.99960340E+03</pdfrwt>
<totfact> 0.19056244E+02</totfact>
</mgrwt>
</event>
<event>
 9    1  0.4488205E-036  0.9977009E+03  0.7818608E-02  0.8683230E-01
         -2   -1    0    0    0  501 -0.00000000000E+00  0.00000000000E+00  0.34297478819E+03  0.34297478819E+03  0.00000000000E+00 0. -1.
          2   -1    0    0  501    0  0.00000000000E+00 -0.00000000000E+00 -0.72556869975E+03  0.72556869975E+03  0.00000000000E+00 0. -1.
         36    2    1    2    0    0  0.00000000000E+00 -0.28421709430E-13 -0.38259391157E+03  0.10685434879E+04  0.99770089929E+03 0.  0.
         25    2    3    3    0    0  0.80777627565E+02 -0.10703242219E+03 -0.10887103256E+03  0.21292894642E+03  0.12451855274E+03 0.  0.
         35    2    3    3    0    0 -0.80777627565E+02  0.10703242219E+03 -0.27372287901E+03  0.85561454152E+03  0.79948174755E+03 0.  0.
         22    1    5    5    0    0  0.75251907342E+02  0.17030784387E+03  0.24644620672E+03  0.30887431756E+03  0.00000000000E+00 0.  1.
         22    1    5    5    0    0 -0.15602953491E+03 -0.63275421682E+02 -0.52016908573E+03  0.54674022396E+03  0.00000000000E+00 0.  1.
          5    1    4    4  502    0  0.76613284822E+02 -0.10165789899E+03 -0.13494882287E+03  0.18557262361E+03  0.47000000000E+01 0.  1.
         -5    1    4    4    0  502  0.41643427433E+01 -0.53745231980E+01  0.26077790312E+02  0.27356322809E+02  0.47000000000E+01 0.  1.
<mgrwt>
<rscale>  0 0.99770090E+03</rscale>
<asrwt>0</asrwt>
<pdfrwt beam="1">  1        2 0.11162595E+00 0.99770090E+03</pdfrwt>
<pdfrwt beam="2">  1       -2 0.52765352E-01 0.99770090E+03</pdfrwt>
<totfact> 0.16048594E+02</totfact>
</mgrwt>
</event>
<event>
 9    1  0.4488205E-036  0.9970229E+03  0.7818608E-02  0.8683878E-01
         -1   -1    0    0    0  501 -0.00000000000E+00  0.00000000000E+00  0.45308629910E+03  0.45308629910E+03  0.00000000000E+00 0.  1.
          1   -1    0    0  501    0  0.00000000000E+00 -0.00000000000E+00 -0.54849074370E+03  0.54849074370E+03  0.00000000000E+00 0.  1.
         36    2    1    2    0    0  0.00000000000E+00  0.71054273576E-14 -0.95404444598E+02  0.10015770428E+04  0.99702285059E+03 0.  0.
         25    2    3    3    0    0 -0.48864983141E+02 -0.13993526797E+02  0.10972987946E+03  0.17393163715E+03  0.12501184979E+03 0.  0.
         35    2    3    3    0    0  0.48864983141E+02  0.13993526797E+02 -0.20513432405E+03  0.82764540564E+03  0.80020823615E+03 0.  0.
         22    1    5    5    0    0 -0.10441888376E+03 -0.35753721801E+03  0.83278775820E+01  0.37256612714E+03  0.00000000000E+00 0. -1.
         22    1    5    5    0    0  0.15328386690E+03  0.37153074481E+03 -0.21346220164E+03  0.45507927850E+03  0.00000000000E+00 0. -1.
          5    1    4    4  502    0  0.11595830771E+02 -0.56840662045E+02  0.64990285755E+02  0.87241913066E+02  0.47000000000E+01 0. -1.
         -5    1    4    4    0  502 -0.60460813911E+02  0.42847135247E+02  0.44739593701E+02  0.86689724087E+02  0.47000000000E+01 0. -1.
<mgrwt>
<rscale>  0 0.99702285E+03</rscale>
<asrwt>0</asrwt>
<pdfrwt beam="1">  1        1 0.84383191E-01 0.99702285E+03</pdfrwt>
<pdfrwt beam="2">  1       -1 0.69705585E-01 0.99702285E+03</pdfrwt>
<totfact> 0.95000063E+01</totfact>
</mgrwt>
</event>
<event>
 9    1  0.4488205E-036  0.9998762E+03  0.7818608E-02  0.8681156E-01
          2   -1    0    0  501    0  0.00000000000E+00  0.00000000000E+00  0.28385470478E+04  0.28385470478E+04  0.00000000000E+00 0. -1.
         -2   -1    0    0    0  501 -0.00000000000E+00 -0.00000000000E+00 -0.88051424905E+02  0.88051424905E+02  0.00000000000E+00 0. -1.
         36    2    1    2    0    0  0.00000000000E+00  0.00000000000E+00  0.27504956229E+04  0.29265984727E+04  0.99987621678E+03 0.  0.
         25    2    3    3    0    0  0.91195094105E+02 -0.21056670293E+02  0.82186913369E+03  0.83651971591E+03  0.12464523115E+03 0.  0.
         35    2    3    3    0    0 -0.91195094105E+02  0.21056670293E+02  0.19286264892E+04  0.20900787568E+04  0.80004321520E+03 0.  0.
         22    1    5    5    0    0  0.21152220862E+03 -0.24065540123E+03  0.13436829955E+04  0.13813546465E+04  0.00000000000E+00 0. -1.
         22    1    5    5    0    0 -0.30271730273E+03  0.26171207152E+03  0.58494349371E+03  0.70872411034E+03  0.00000000000E+00 0. -1.
          5    1    4    4  502    0  0.58150247882E+02  0.40523983848E+02  0.59114980948E+03  0.59540224374E+03  0.47000000000E+01 0.  1.
         -5    1    4    4    0  502  0.33044846223E+02 -0.61580654140E+02  0.23071932420E+03  0.24111747217E+03  0.47000000000E+01 0.  1.
<mgrwt>
<rscale>  0 0.99987622E+03</rscale>
<asrwt>0</asrwt>
<pdfrwt beam="1">  1        2 0.43669947E+00 0.99987622E+03</pdfrwt>
<pdfrwt beam="2">  1       -2 0.13546375E-01 0.99987622E+03</pdfrwt>
<totfact> 0.10126986E+02</totfact>
</mgrwt>
</event>
<event>
 9    1  0.4488205E-036  0.1000844E+04  0.7818608E-02  0.8680234E-01
         -2   -1    0    0    0  501 -0.00000000000E+00  0.00000000000E+00  0.18198902613E+03  0.18198902613E+03  0.00000000000E+00 0. -1.
          2   -1    0    0  501    0  0.00000000000E+00 -0.00000000000E+00 -0.13760299044E+04  0.13760299044E+04  0.00000000000E+00 0. -1.
         36    2    1    2    0    0  0.00000000000E+00  0.14210854715E-13 -0.11940408783E+04  0.15580189305E+04  0.10008443280E+04 0.  0.
         25    2    3    3    0    0  0.77863697654E+02  0.11056654814E+03 -0.28856394251E+03  0.34228125020E+03  0.12489831201E+03 0.  0.
         35    2    3    3    0    0 -0.77863697654E+02 -0.11056654814E+03 -0.90547693576E+03  0.12157376803E+04  0.79990118715E+03 0.  0.
         22    1    5    5    0    0  0.99309662381E+02 -0.43031571289E+03 -0.55553254440E+03  0.70968333057E+03  0.00000000000E+00 0.  1.
         22    1    5    5    0    0 -0.17717336004E+03  0.31974916475E+03 -0.34994439136E+03  0.50605434976E+03  0.00000000000E+00 0.  1.
          5    1    4    4  502    0  0.10995725600E+03  0.10258805601E+03 -0.22936486920E+03  0.27430865937E+03  0.47000000000E+01 0. -1.
         -5    1    4    4    0  502 -0.32093558342E+02  0.79784921278E+01 -0.59199073308E+02  0.67972590830E+02  0.47000000000E+01 0. -1.
<mgrwt>
<rscale>  0 0.10008443E+04</rscale>
<asrwt>0</asrwt>
<pdfrwt beam="1">  1        2 0.21169690E+00 0.10008443E+04</pdfrwt>
<pdfrwt beam="2">  1       -2 0.27998313E-01 0.10008443E+04</pdfrwt>
<totfact> 0.20880236E+02</totfact>
</mgrwt>
</event>
<event>
 9    1  0.4488205E-036  0.1000054E+04  0.7818608E-02  0.8680987E-01
          2   -1    0    0  501    0  0.00000000000E+00  0.00000000000E+00  0.84069107539E+03  0.84069107539E+03  0.00000000000E+00 0.  1.
         -2   -1    0    0    0  501 -0.00000000000E+00 -0.00000000000E+00 -0.29740650040E+03  0.29740650040E+03  0.00000000000E+00 0.  1.
         36    2    1    2    0    0 -0.35527136788E-14  0.00000000000E+00  0.54328457499E+03  0.11380975758E+04  0.10000539798E+04 0.  0.
         25    2    3    3    0    0  0.94558043499E+01  0.14043264139E+03  0.97624663754E+02  0.21157180680E+03  0.12418258919E+03 0.  0.
         35    2    3    3    0    0 -0.94558043499E+01 -0.14043264139E+03  0.44565991124E+03  0.92652576899E+03  0.80001656552E+03 0.  0.
         22    1    5    5    0    0  0.11682855677E+03  0.21476514712E+03 -0.99301795963E+02  0.26388222141E+03  0.00000000000E+00 0.  1.
         22    1    5    5    0    0 -0.12628436112E+03 -0.35519778851E+03  0.54496170720E+03  0.66264354757E+03  0.00000000000E+00 0.  1.
          5    1    4    4  502    0  0.13314600246E+02  0.11372118331E+03  0.46973838797E+01  0.11469063400E+03  0.47000000000E+01 0.  1.
         -5    1    4    4    0  502 -0.38587958965E+01  0.26711458077E+02  0.92927279874E+02  0.96881172800E+02  0.47000000000E+01 0.  1.
<mgrwt>
<rscale>  0 0.10000540E+04</rscale>
<asrwt>0</asrwt>
<pdfrwt beam="1">  1        2 0.12933709E+00 0.10000540E+04</pdfrwt>
<pdfrwt beam="2">  1       -2 0.45754847E-01 0.10000540E+04</pdfrwt>
<totfact> 0.17660698E+02</totfact>
</mgrwt>
</event>
<event>
 9    1  0.4488205E-036  0.1000277E+04  0.7818608E-02  0.8680774E-01
         -2   -1    0    0    0  501 -0.00000000000E+00  0.00000000000E+00  0.37375497407E+03  0.37375497407E+03  0.00000000000E+00 0. -1.
          2   -1    0    0  501    0  0.00000000000E+00 -0.00000000000E+00 -0.66925816914E+03  0.66925816914E+03  0.00000000000E+00 0. -1.
         36    2    1    2    0    0  0.14210854715E-13 -0.14210854715E-13 -0.29550319506E+03  0.10430131432E+04  0.10002771009E+04 0.  0.
         25    2    3    3    0    0 -0.62292088257E+02  0.11394376509E+03  0.12006839531E+01  0.17960255063E+03  0.12406509859E+03 0.  0.
         35    2    3    3    0    0  0.62292088257E+02 -0.11394376509E+03 -0.29670387902E+03  0.86341059258E+03  0.80036315113E+03 0.  0.
         22    1    5    5    0    0  0.24913243888E+03 -0.39545564468E+03 -0.12202928080E+03  0.48305619174E+03  0.00000000000E+00 0. -1.
         22    1    5    5    0    0 -0.18684035062E+03  0.28151187959E+03 -0.17467459822E+03  0.38035440084E+03  0.00000000000E+00 0. -1.
          5    1    4    4  502    0  0.21449185258E+02 -0.39769302957E+01 -0.23940791655E+02  0.32728199276E+02  0.47000000000E+01 0. -1.
         -5    1    4    4    0  502 -0.83741273515E+02  0.11792069538E+03  0.25141475608E+02  0.14687435135E+03  0.47000000000E+01 0. -1.
<mgrwt>
<rscale>  0 0.10002771E+04</rscale>
<asrwt>0</asrwt>
<pdfrwt beam="1">  1        2 0.10296280E+00 0.10002771E+04</pdfrwt>
<pdfrwt beam="2">  1       -2 0.57500765E-01 0.10002771E+04</pdfrwt>
<totfact> 0.14862919E+02</totfact>
</mgrwt>
</event>
<event>
 9    1  0.4488205E-036  0.9998486E+03  0.7818608E-02  0.8681182E-01
         -2   -1    0    0    0  501 -0.00000000000E+00  0.00000000000E+00  0.16606968462E+03  0.16606968462E+03  0.00000000000E+00 0.  1.
          2   -1    0    0  501    0  0.00000000000E+00 -0.00000000000E+00 -0.15049364415E+04  0.15049364415E+04  0.00000000000E+00 0.  1.
         36    2    1    2    0    0  0.00000000000E+00  0.28421709430E-13 -0.13388667569E+04  0.16710061262E+04  0.99984862899E+03 0.  0.
         25    2    3    3    0    0 -0.32000153627E+02 -0.13600951384E+03 -0.26255303910E+03  0.32285281708E+03  0.12560750560E+03 0.  0.
         35    2    3    3    0    0  0.32000153627E+02  0.13600951384E+03 -0.10763137178E+04  0.13481533091E+04  0.79971465409E+03 0.  0.
         22    1    5    5    0    0  0.31337920632E+03  0.34102957703E+03 -0.63846190670E+03  0.78875934586E+03  0.00000000000E+00 0. -1.
         22    1    5    5    0    0 -0.28137905270E+03 -0.20502006319E+03 -0.43785181111E+03  0.55939396323E+03  0.00000000000E+00 0. -1.
          5    1    4    4  502    0 -0.46947370132E+02 -0.26128806280E+02 -0.16995139913E+03  0.17830406093E+03  0.47000000000E+01 0. -1.
         -5    1    4    4    0  502  0.14947216506E+02 -0.10988070756E+03 -0.92601639976E+02  0.14454875614E+03  0.47000000000E+01 0. -1.
<mgrwt>
<rscale>  0 0.99984863E+03</rscale>
<asrwt>0</asrwt>
<pdfrwt beam="1">  1        2 0.23152868E+00 0.99984863E+03</pdfrwt>
<pdfrwt beam="2">  1       -2 0.25549182E-01 0.99984863E+03</pdfrwt>
<totfact> 0.20776955E+02</totfact>
</mgrwt>
</event>
<event>
 9    1  0.4488205E-036  0.9980412E+03  0.7818608E-02  0.8682906E-01
         -2   -1    0    0    0  501 -0.00000000000E+00  0.00000000000E+00  0.10063089232E+03  0.10063089232E+03  0.00000000000E+00 0. -1.
          2   -1    0    0  501    0  0.00000000000E+00 -0.00000000000E+00 -0.24746034454E+04  0.24746034454E+04  0.00000000000E+00 0. -1.
         36    2    1    2    0    0 -0.28421709430E-13  0.28421709430E-13 -0.23739725530E+04  0.25752343377E+04  0.99804118724E+03 0.  0.
         25    2    3    3    0    0  0.87131764230E+02 -0.10538832340E+03 -0.49393235971E+03  0.52758845412E+03  0.12522682584E+03 0.  0.
         35    2    3    3    0    0 -0.87131764230E+02  0.10538832340E+03 -0.18800401933E+04  0.20476458836E+04  0.79975239474E+03 0.  0.
         22    1    5    5    0    0  0.22074511208E+03 -0.34875284009E+02 -0.15791333928E+04  0.15948689482E+04  0.00000000000E+00 0. -1.
         22    1    5    5    0    0 -0.30787687631E+03  0.14026360741E+03 -0.30090680056E+03  0.45277693532E+03  0.00000000000E+00 0. -1.
          5    1    4    4  502    0  0.51028800269E+02  0.19880799695E+02 -0.14569156573E+03  0.15571546801E+03  0.47000000000E+01 0. -1.
         -5    1    4    4    0  502  0.36102963960E+02 -0.12526912309E+03 -0.34824079398E+03  0.37187298611E+03  0.47000000000E+01 0. -1.
<mgrwt>
<rscale>  0 0.99804119E+03</rscale>
<asrwt>0</asrwt>
<pdfrwt beam="1">  1        2 0.38070821E+00 0.99804119E+03</pdfrwt>
<pdfrwt beam="2">  1       -2 0.15481676E-01 0.99804119E+03</pdfrwt>
<totfact> 0.13683710E+02</totfact>
</mgrwt>
</event>
<event>
 9    1  0.4488205E-036  0.9983439E+03  0.7818608E-02  0.8682617E-01
         -1   -1    0    0    0  501 -0.00000000000E+00  0.00000000000E+00  0.26438408606E+03  0.26438408606E+03  0.00000000000E+00 0.  1.
          1   -1    0    0  501    0  0.00000000000E+00 -0.00000000000E+00 -0.94246457731E+03  0.94246457731E+03  0.00000000000E+00 0.  1.
         36    2    1    2    0    0  0.14210854715E-13  0.00000000000E+00 -0.67808049126E+03  0.12068486634E+04  0.99834390049E+03 0.  0.
         25    2    3    3    0    0  0.11983012271E+03  0.57721451453E+02 -0.79886936484E+02  0.19870893513E+03  0.12414626057E+03 0.  0.
         35    2    3    3    0    0 -0.11983012271E+03 -0.57721451453E+02 -0.59819355477E+03  0.10081397282E+04  0.80051181029E+03 0.  0.
         22    1    5    5    0    0  0.26380104558E+03 -0.11791720097E+03 -0.54409557756E+03  0.61606448969E+03  0.00000000000E+00 0. -1.
         22    1    5    5    0    0 -0.38363116829E+03  0.60195749519E+02 -0.54097977216E+02  0.39207523855E+03  0.00000000000E+00 0. -1.
          5    1    4    4  502    0  0.60642301971E+02  0.46565939485E+02  0.22490131409E+02  0.79835903698E+02  0.47000000000E+01 0. -1.
         -5    1    4    4    0  502  0.59187820740E+02  0.11155511968E+02 -0.10237706789E+03  0.11887303143E+03  0.47000000000E+01 0. -1.
<mgrwt>
<rscale>  0 0.99834390E+03</rscale>
<asrwt>0</asrwt>
<pdfrwt beam="1">  1        1 0.14499455E+00 0.99834390E+03</pdfrwt>
<pdfrwt beam="2">  1       -1 0.40674475E-01 0.99834390E+03</pdfrwt>
<totfact> 0.11163378E+02</totfact>
</mgrwt>
</event>
<event>
 9    1  0.4488205E-036  0.1000480E+04  0.7818608E-02  0.8680581E-01
          1   -1    0    0  501    0  0.00000000000E+00  0.00000000000E+00  0.16968937938E+04  0.16968937938E+04  0.00000000000E+00 0.  1.
         -1   -1    0    0    0  501 -0.00000000000E+00 -0.00000000000E+00 -0.14746954731E+03  0.14746954731E+03  0.00000000000E+00 0.  1.
         36    2    1    2    0    0  0.00000000000E+00 -0.49737991503E-13  0.15494242465E+04  0.18443633411E+04  0.10004802039E+04 0.  0.
         25    2    3    3    0    0  0.13326992409E+03  0.98498241039E+01  0.20591306841E+03  0.27536451325E+03  0.12476991509E+03 0.  0.
         35    2    3    3    0    0 -0.13326992409E+03 -0.98498241039E+01  0.13435111781E+04  0.15689988279E+04  0.79929790723E+03 0.  0.
         22    1    5    5    0    0 -0.27141192169E+03 -0.28132246268E+03  0.33279070421E+03  0.51337745573E+03  0.00000000000E+00 0. -1.
         22    1    5    5    0    0  0.13814199760E+03  0.27147263858E+03  0.10107204739E+04  0.10556213721E+04  0.00000000000E+00 0. -1.
          5    1    4    4  502    0  0.48535028725E+02 -0.45556884322E+02  0.13822043528E+03  0.15348634288E+03  0.47000000000E+01 0.  1.
         -5    1    4    4    0  502  0.84734895363E+02  0.55406708426E+02  0.67692633134E+02  0.12187817036E+03  0.47000000000E+01 0.  1.
<mgrwt>
<rscale>  0 0.10004802E+04</rscale>
<asrwt>0</asrwt>
<pdfrwt beam="1">  1        1 0.26106057E+00 0.10004802E+04</pdfrwt>
<pdfrwt beam="2">  1       -1 0.22687624E-01 0.10004802E+04</pdfrwt>
<totfact> 0.84328253E+01</totfact>
</mgrwt>
</event>
<event>
 9    1  0.4488205E-036  0.1000322E+04  0.7818608E-02  0.8680731E-01
          2   -1    0    0  501    0  0.00000000000E+00  0.00000000000E+00  0.32644781403E+04  0.32644781403E+04  0.00000000000E+00 0. -1.
         -2   -1    0    0    0  501 -0.00000000000E+00 -0.00000000000E+00 -0.76631258335E+02  0.76631258335E+02  0.00000000000E+00 0. -1.
         36    2    1    2    0    0  0.71054273576E-14 -0.35527136788E-14  0.31878468820E+04  0.33411093987E+04  0.10003220835E+04 0.  0.
         25    2    3    3    0    0 -0.33907201808E+02 -0.11295379260E+02  0.10326569474E+04  0.10417086773E+04  0.13228497112E+03 0.  0.
         35    2    3    3    0    0  0.33907201808E+02  0.11295379260E+02  0.21551899346E+04  0.22994007213E+04  0.80070140437E+03 0.  0.
         22    1    5    5    0    0  0.21626471573E+03  0.27558109941E+03  0.48299639697E+03  0.59665810068E+03  0.00000000000E+00 0. -1.
         22    1    5    5    0    0 -0.18235751392E+03 -0.26428572015E+03  0.16721935377E+04  0.17027426206E+04  0.00000000000E+00 0. -1.
          5    1    4    4  502    0 -0.18210151588E+02  0.22423952995E+02  0.95527813158E+03  0.95572634262E+03  0.47000000000E+01 0.  1.
         -5    1    4    4    0  502 -0.15697050220E+02 -0.33719332255E+02  0.77378815779E+02  0.85982334725E+02  0.47000000000E+01 0.  1.
<mgrwt>
<rscale>  0 0.10003221E+04</rscale>
<asrwt>0</asrwt>
<pdfrwt beam="1">  1        2 0.50222730E+00 0.10003221E+04</pdfrwt>
<pdfrwt beam="2">  1       -2 0.11789427E-01 0.10003221E+04</pdfrwt>
<totfact> 0.65624116E+01</totfact>
</mgrwt>
</event>
<event>
 9    1  0.4488205E-036  0.9998593E+03  0.7818608E-02  0.8681172E-01
         -2   -1    0    0    0  501 -0.00000000000E+00  0.00000000000E+00  0.95286089585E+03  0.95286089585E+03  0.00000000000E+00 0.  1.
          2   -1    0    0  501    0  0.00000000000E+00 -0.00000000000E+00 -0.26229396034E+03  0.26229396034E+03  0.00000000000E+00 0.  1.
         36    2    1    2    0    0 -0.14210854715E-13  0.28421709430E-13  0.69056693551E+03  0.12151548562E+04  0.99985930615E+03 0.  0.
         25    2    3    3    0    0  0.84946801167E+02 -0.64883984736E+02  0.18805308294E+02  0.16578712613E+03  0.12532294709E+03 0.  0.
         35    2    3    3    0    0 -0.84946801167E+02  0.64883984736E+02  0.67176162722E+03  0.10493677301E+04  0.79905134915E+03 0.  0.
         22    1    5    5    0    0  0.23296897276E+03 -0.14222681707E+03 -0.55621215944E+01  0.27300906022E+03  0.00000000000E+00 0. -1.
         22    1    5    5    0    0 -0.31791577393E+03  0.20711080181E+03  0.67732374881E+03  0.77635866984E+03  0.00000000000E+00 0. -1.
          5    1    4    4  502    0  0.53218945659E+02 -0.85474255814E+02  0.53614312360E+02  0.11416956282E+03  0.47000000000E+01 0. -1.
         -5    1    4    4    0  502  0.31727855507E+02  0.20590271078E+02 -0.34809004067E+02  0.51617563312E+02  0.47000000000E+01 0. -1.
<mgrwt>
<rscale>  0 0.99985931E+03</rscale>
<asrwt>0</asrwt>
<pdfrwt beam="1">  1        2 0.40352917E-01 0.99985931E+03</pdfrwt>
<pdfrwt beam="2">  1       -2 0.14659398E+00 0.99985931E+03</pdfrwt>
<totfact> 0.46129542E+01</totfact>
</mgrwt>
</event>
<event>
 9    1  0.4488205E-036  0.9991954E+03  0.7818608E-02  0.8681805E-01
          1   -1    0    0  501    0  0.00000000000E+00  0.00000000000E+00  0.20870927183E+04  0.20870927183E+04  0.00000000000E+00 0.  1.
         -1   -1    0    0    0  501 -0.00000000000E+00 -0.00000000000E+00 -0.11959118203E+03  0.11959118203E+03  0.00000000000E+00 0.  1.
         36    2    1    2    0    0  0.00000000000E+00  0.14210854715E-13  0.19675015362E+04  0.22066839003E+04  0.99919544672E+03 0.  0.
         25    2    3    3    0    0 -0.86058682927E+02  0.10780153868E+03  0.40204390256E+03  0.44301511358E+03  0.12488323599E+03 0.  0.
         35    2    3    3    0    0  0.86058682927E+02 -0.10780153868E+03  0.15654576337E+04  0.17636687867E+04  0.80052652532E+03 0.  0.
         22    1    5    5    0    0  0.63546195749E+02  0.11531794649E+03  0.15311577119E+04  0.15368084742E+04  0.00000000000E+00 0. -1.
         22    1    5    5    0    0  0.22512487178E+02 -0.22311948517E+03  0.34299921779E+02  0.22686031248E+03  0.00000000000E+00 0. -1.
          5    1    4    4  502    0 -0.38320708233E+02 -0.24195415840E+02  0.10366786212E+03  0.11323873217E+03  0.47000000000E+01 0. -1.
         -5    1    4    4    0  502 -0.47737974694E+02  0.13199695452E+03  0.29837604044E+03  0.32977638142E+03  0.47000000000E+01 0. -1.
<mgrwt>
<rscale>  0 0.99919545E+03</rscale>
<asrwt>0</asrwt>
<pdfrwt beam="1">  1        1 0.32109116E+00 0.99919545E+03</pdfrwt>
<pdfrwt beam="2">  1       -1 0.18398645E-01 0.99919545E+03</pdfrwt>
<totfact> 0.63499450E+01</totfact>
</mgrwt>
</event>
<event>
 9    1  0.4488205E-036  0.9997491E+03  0.7818608E-02  0.8681277E-01
          2   -1    0    0  501    0  0.00000000000E+00  0.00000000000E+00  0.26904975455E+03  0.26904975455E+03  0.00000000000E+00 0.  1.
         -2   -1    0    0    0  501 -0.00000000000E+00 -0.00000000000E+00 -0.92873003156E+03  0.92873003156E+03  0.00000000000E+00 0.  1.
         36    2    1    2    0    0  0.28421709430E-13  0.28421709430E-13 -0.65968027701E+03  0.11977797861E+04  0.99974914261E+03 0.  0.
         25    2    3    3    0    0 -0.11778829670E+03 -0.73831269711E+02 -0.14168383137E+03  0.23415867844E+03  0.12422092977E+03 0.  0.
         35    2    3    3    0    0  0.11778829670E+03  0.73831269711E+02 -0.51799644564E+03  0.96362110767E+03  0.80057490732E+03 0.  0.
         22    1    5    5    0    0 -0.20994989617E+03 -0.13867737651E+03 -0.51480302332E+03  0.57300307719E+03  0.00000000000E+00 0. -1.
         22    1    5    5    0    0  0.32773819288E+03  0.21250864622E+03 -0.31934223255E+01  0.39061803048E+03  0.00000000000E+00 0. -1.
          5    1    4    4  502    0 -0.99801387912E+02 -0.10259858774E+03 -0.13936495211E+03  0.19982859433E+03  0.47000000000E+01 0. -1.
         -5    1    4    4    0  502 -0.17986908790E+02  0.28767318027E+02 -0.23188792562E+01  0.34330084114E+02  0.47000000000E+01 0. -1.
<mgrwt>
<rscale>  0 0.99974914E+03</rscale>
<asrwt>0</asrwt>
<pdfrwt beam="1">  1        2 0.41392270E-01 0.99974914E+03</pdfrwt>
<pdfrwt beam="2">  1       -2 0.14288154E+00 0.99974914E+03</pdfrwt>
<totfact> 0.48122335E+01</totfact>
</mgrwt>
</event>
<event>
 9    1  0.4488205E-036  0.9993847E+03  0.7818608E-02  0.8681624E-01
          2   -1    0    0  501    0  0.00000000000E+00  0.00000000000E+00  0.23349351354E+04  0.23349351354E+04  0.00000000000E+00 0. -1.
         -2   -1    0    0    0  501 -0.00000000000E+00 -0.00000000000E+00 -0.10693763463E+03  0.10693763463E+03  0.00000000000E+00 0. -1.
         36    2    1    2    0    0 -0.71054273576E-14  0.21316282073E-13  0.22279975008E+04  0.24418727701E+04  0.99938469152E+03 0.  0.
         25    2    3    3    0    0 -0.12450889144E+02 -0.37718625844E+02  0.89536887841E+02  0.15862449818E+03  0.12476841652E+03 0.  0.
         35    2    3    3    0    0  0.12450889144E+02  0.37718625844E+02  0.21384606130E+04  0.22832482719E+04  0.79914401615E+03 0.  0.
         22    1    5    5    0    0 -0.37573596076E+02  0.32430155559E+03  0.38042344033E+03  0.50130356874E+03  0.00000000000E+00 0.  1.
         22    1    5    5    0    0  0.50024485220E+02 -0.28658292975E+03  0.17580371726E+04  0.17819447032E+04  0.00000000000E+00 0.  1.
          5    1    4    4  502    0  0.39534148409E+02 -0.39573922182E+02  0.13740729855E+01  0.56151778992E+02  0.47000000000E+01 0. -1.
         -5    1    4    4    0  502 -0.51985037553E+02  0.18552963389E+01  0.88162814855E+02  0.10247271918E+03  0.47000000000E+01 0. -1.
<mgrwt>
<rscale>  0 0.99938469E+03</rscale>
<asrwt>0</asrwt>
<pdfrwt beam="1">  1        2 0.35922075E+00 0.99938469E+03</pdfrwt>
<pdfrwt beam="2">  1       -2 0.16451946E-01 0.99938469E+03</pdfrwt>
<totfact> 0.14972918E+02</totfact>
</mgrwt>
</event>
<event>
 9    1  0.4488205E-036  0.9990559E+03  0.7818608E-02  0.8681938E-01
         -2   -1    0    0    0  501 -0.00000000000E+00  0.00000000000E+00  0.12835691435E+03  0.12835691435E+03  0.00000000000E+00 0. -1.
          2   -1    0    0  501    0  0.00000000000E+00 -0.00000000000E+00 -0.19440182670E+04  0.19440182670E+04  0.00000000000E+00 0. -1.
         36    2    1    2    0    0 -0.14210854715E-13  0.28421709430E-13 -0.18156613527E+04  0.20723751814E+04  0.99905592677E+03 0.  0.
         25    2    3    3    0    0  0.86937950872E+02  0.84562170347E+02 -0.19893928084E+03  0.26445900449E+03  0.12511098928E+03 0.  0.
         35    2    3    3    0    0 -0.86937950872E+02 -0.84562170347E+02 -0.16167220718E+04  0.18079161769E+04  0.80003854729E+03 0.  0.
         22    1    5    5    0    0 -0.18687801493E+02  0.34919356646E+03 -0.52087219934E+03  0.62737008921E+03  0.00000000000E+00 0.  1.
         22    1    5    5    0    0 -0.68250149380E+02 -0.43375573681E+03 -0.10958498725E+04  0.11805460877E+04  0.00000000000E+00 0.  1.
          5    1    4    4  502    0 -0.19833781234E+02  0.28735078467E+02 -0.10751594920E+03  0.11314085444E+03  0.47000000000E+01 0.  1.
         -5    1    4    4    0  502  0.10677173211E+03  0.55827091880E+02 -0.91423331642E+02  0.15131815005E+03  0.47000000000E+01 0.  1.
<mgrwt>
<rscale>  0 0.99905593E+03</rscale>
<asrwt>0</asrwt>
<pdfrwt beam="1">  1        2 0.29907972E+00 0.99905593E+03</pdfrwt>
<pdfrwt beam="2">  1       -2 0.19747218E-01 0.99905593E+03</pdfrwt>
<totfact> 0.18438911E+02</totfact>
</mgrwt>
</event>
<event>
 9    1  0.4488205E-036  0.9995897E+03  0.7818608E-02  0.8681429E-01
          1   -1    0    0  501    0  0.00000000000E+00  0.00000000000E+00  0.15017144088E+03  0.15017144088E+03  0.00000000000E+00 0. -1.
         -1   -1    0    0    0  501 -0.00000000000E+00 -0.00000000000E+00 -0.16633982077E+04  0.16633982077E+04  0.00000000000E+00 0. -1.
         36    2    1    2    0    0 -0.35527136788E-13  0.00000000000E+00 -0.15132267668E+04  0.18135696486E+04  0.99958972706E+03 0.  0.
         25    2    3    3    0    0  0.13760245272E+02 -0.13680076148E+03 -0.25647103546E+03  0.31673973982E+03  0.12507149179E+03 0.  0.
         35    2    3    3    0    0 -0.13760245272E+02  0.13680076148E+03 -0.12567557313E+04  0.14968299087E+04  0.80134949602E+03 0.  0.
         22    1    5    5    0    0  0.38760877800E+03  0.99610465071E+02 -0.51051889995E+03  0.64868509829E+03  0.00000000000E+00 0. -1.
         22    1    5    5    0    0 -0.40136902327E+03  0.37190296411E+02 -0.74623683138E+03  0.84814481046E+03  0.00000000000E+00 0. -1.
          5    1    4    4  502    0  0.32712877243E+02 -0.21088145396E+02 -0.53682588258E+01  0.39569564271E+02  0.47000000000E+01 0. -1.
         -5    1    4    4    0  502 -0.18952631971E+02 -0.11571261609E+03 -0.25110277663E+03  0.27717017555E+03  0.47000000000E+01 0. -1.
<mgrwt>
<rscale>  0 0.99958973E+03</rscale>
<asrwt>0</asrwt>
<pdfrwt beam="1">  1        1 0.23103298E-01 0.99958973E+03</pdfrwt>
<pdfrwt beam="2">  1       -1 0.25590742E+00 0.99958973E+03</pdfrwt>
<totfact> 0.10678332E+01</totfact>
</mgrwt>
</event>
<event>
 9    1  0.4488205E-036  0.1000303E+04  0.7818608E-02  0.8680749E-01
          2   -1    0    0  501    0  0.00000000000E+00  0.00000000000E+00  0.80024226429E+03  0.80024226429E+03  0.00000000000E+00 0. -1.
         -2   -1    0    0    0  501 -0.00000000000E+00 -0.00000000000E+00 -0.31259500422E+03  0.31259500422E+03  0.00000000000E+00 0. -1.
         36    2    1    2    0    0  0.00000000000E+00  0.00000000000E+00  0.48764726007E+03  0.11128372685E+04  0.10003034219E+04 0.  0.
         25    2    3    3    0    0 -0.68081570671E+02 -0.84232233763E+02  0.18881079099E+03  0.25106253799E+03  0.12511080576E+03 0.  0.
         35    2    3    3    0    0  0.68081570671E+02  0.84232233763E+02  0.29883646909E+03  0.86177473053E+03  0.80101328419E+03 0.  0.
         22    1    5    5    0    0 -0.27000125142E+03 -0.10276064739E+03 -0.10074596974E+03  0.30595780238E+03  0.00000000000E+00 0.  1.
         22    1    5    5    0    0  0.33808282209E+03  0.18699288115E+03  0.39958243882E+03  0.55581692814E+03  0.00000000000E+00 0.  1.
          5    1    4    4  502    0  0.11578080150E+02 -0.81741263854E+02  0.11959772358E+03  0.14540079657E+03  0.47000000000E+01 0. -1.
         -5    1    4    4    0  502 -0.79659650821E+02 -0.24909699083E+01  0.69213067404E+02  0.10566174142E+03  0.47000000000E+01 0. -1.
<mgrwt>
<rscale>  0 0.10003034E+04</rscale>
<asrwt>0</asrwt>
<pdfrwt beam="1">  1        2 0.12311419E+00 0.10003034E+04</pdfrwt>
<pdfrwt beam="2">  1       -2 0.48091539E-01 0.10003034E+04</pdfrwt>
<totfact> 0.17070857E+02</totfact>
</mgrwt>
</event>
<event>
 9    1  0.4488205E-036  0.9959715E+03  0.7818608E-02  0.8684884E-01
          1   -1    0    0  501    0  0.00000000000E+00  0.00000000000E+00  0.47531799797E+03  0.47531799797E+03  0.00000000000E+00 0.  1.
         -1   -1    0    0    0  501 -0.00000000000E+00 -0.00000000000E+00 -0.52173450363E+03  0.52173450363E+03  0.00000000000E+00 0.  1.
         36    2    1    2    0    0 -0.42632564146E-13  0.14210854715E-13 -0.46416505658E+02  0.99705250160E+03  0.99597148501E+03 0.  0.
         25    2    3    3    0    0 -0.11388815187E+03  0.67744666657E+02  0.18061680062E+02  0.18339275275E+03  0.12548635973E+03 0.  0.
         35    2    3    3    0    0  0.11388815187E+03 -0.67744666657E+02 -0.64478185720E+02  0.81365974884E+03  0.80020303640E+03 0.  0.
         22    1    5    5    0    0  0.35070095594E+03 -0.10648937223E+03  0.23083394736E+03  0.43314600096E+03  0.00000000000E+00 0. -1.
         22    1    5    5    0    0 -0.23681280407E+03  0.38744705571E+02 -0.29531213308E+03  0.38051374788E+03  0.00000000000E+00 0. -1.
          5    1    4    4  502    0 -0.13249736656E+03  0.81122949491E+02  0.27932456050E+01  0.15545538685E+03  0.47000000000E+01 0.  1.
         -5    1    4    4    0  502  0.18609214688E+02 -0.13378282834E+02  0.15268434457E+02  0.27937365904E+02  0.47000000000E+01 0.  1.
<mgrwt>
<rscale>  0 0.99597149E+03</rscale>
<asrwt>0</asrwt>
<pdfrwt beam="1">  1        1 0.73125846E-01 0.99597149E+03</pdfrwt>
<pdfrwt beam="2">  1       -1 0.80266846E-01 0.99597149E+03</pdfrwt>
<totfact> 0.87124733E+01</totfact>
</mgrwt>
</event>
<event>
 9    1  0.4488205E-036  0.1000281E+04  0.7818608E-02  0.8680771E-01
         -2   -1    0    0    0  501 -0.00000000000E+00  0.00000000000E+00  0.98031994998E+02  0.98031994998E+02  0.00000000000E+00 0.  1.
          2   -1    0    0  501    0  0.00000000000E+00 -0.00000000000E+00 -0.25516193079E+04  0.25516193079E+04  0.00000000000E+00 0.  1.
         36    2    1    2    0    0 -0.28421709430E-13  0.17763568394E-13 -0.24535873129E+04  0.26496513029E+04  0.10002806231E+04 0.  0.
         25    2    3    3    0    0 -0.13117294049E+03  0.24489986444E+01 -0.33125048971E+03  0.37771060817E+03  0.12540366296E+03 0.  0.
         35    2    3    3    0    0  0.13117294049E+03 -0.24489986444E+01 -0.21223368231E+04  0.22719406947E+04  0.80011786091E+03 0.  0.
         22    1    5    5    0    0 -0.15169522323E+03 -0.24408895410E+03 -0.16284459459E+04  0.16536103099E+04  0.00000000000E+00 0.  1.
         22    1    5    5    0    0  0.28286816372E+03  0.24163995546E+03 -0.49389087723E+03  0.61833038477E+03  0.00000000000E+00 0.  1.
          5    1    4    4  502    0 -0.58715828540E+02 -0.21455353282E+02 -0.35086580333E+02  0.71840370441E+02  0.47000000000E+01 0. -1.
         -5    1    4    4    0  502 -0.72457111947E+02  0.23904351927E+02 -0.29616390938E+03  0.30587023773E+03  0.47000000000E+01 0. -1.
<mgrwt>
<rscale>  0 0.10002806E+04</rscale>
<asrwt>0</asrwt>
<pdfrwt beam="1">  1        2 0.39255676E+00 0.10002806E+04</pdfrwt>
<pdfrwt beam="2">  1       -2 0.15081847E-01 0.10002806E+04</pdfrwt>
<totfact> 0.12832109E+02</totfact>
</mgrwt>
</event>
<event>
 9    1  0.4488205E-036  0.9995824E+03  0.7818608E-02  0.8681436E-01
         -1   -1    0    0    0  501 -0.00000000000E+00  0.00000000000E+00  0.84023554715E+02  0.84023554715E+02  0.00000000000E+00 0.  1.
          1   -1    0    0  501    0  0.00000000000E+00 -0.00000000000E+00 -0.29728716834E+04  0.29728716834E+04  0.00000000000E+00 0.  1.
         36    2    1    2    0    0 -0.28421709430E-13 -0.35527136788E-14 -0.28888481287E+04  0.30568952381E+04  0.99958240591E+03 0.  0.
         25    2    3    3    0    0  0.13948345453E+03 -0.23088784243E+02 -0.53773017293E+03  0.56942124486E+03  0.12287428196E+03 0.  0.
         35    2    3    3    0    0 -0.13948345453E+03  0.23088784243E+02 -0.23511179558E+04  0.24874739933E+04  0.79986405046E+03 0.  0.
         22    1    5    5    0    0  0.69535360148E+02  0.16566078640E+03 -0.70715765244E+02  0.19307869358E+03  0.00000000000E+00 0. -1.
         22    1    5    5    0    0 -0.20901881468E+03 -0.14257200216E+03 -0.22804021905E+04  0.22943952997E+04  0.00000000000E+00 0. -1.
          5    1    4    4  502    0  0.12809920776E+03 -0.45035180586E+02 -0.28814568017E+03  0.31857118124E+03  0.47000000000E+01 0.  1.
         -5    1    4    4    0  502  0.11384246772E+02  0.21946396343E+02 -0.24958449276E+03  0.25085006361E+03  0.47000000000E+01 0.  1.
<mgrwt>
<rscale>  0 0.99958241E+03</rscale>
<asrwt>0</asrwt>
<pdfrwt beam="1">  1        1 0.45736484E+00 0.99958241E+03</pdfrwt>
<pdfrwt beam="2">  1       -1 0.12926702E-01 0.99958241E+03</pdfrwt>
<totfact> 0.26616088E+01</totfact>
</mgrwt>
</event>
<event>
 9    1  0.4488205E-036  0.9990607E+03  0.7818608E-02  0.8681933E-01
         -1   -1    0    0    0  501 -0.00000000000E+00  0.00000000000E+00  0.14096559850E+03  0.14096559850E+03  0.00000000000E+00 0.  1.
          1   -1    0    0  501    0  0.00000000000E+00 -0.00000000000E+00 -0.17701522853E+04  0.17701522853E+04  0.00000000000E+00 0.  1.
         36    2    1    2    0    0  0.00000000000E+00 -0.14210854715E-13 -0.16291866868E+04  0.19111178838E+04  0.99906071155E+03 0.  0.
         25    2    3    3    0    0  0.21602298372E+02 -0.82190468293E+02 -0.51626779646E+03  0.53802533294E+03  0.12536701658E+03 0.  0.
         35    2    3    3    0    0 -0.21602298372E+02  0.82190468293E+02 -0.11129188904E+04  0.13730925509E+04  0.79973293318E+03 0.  0.
         22    1    5    5    0    0  0.10589624308E+03 -0.12396028277E+03 -0.11188123083E+04  0.11306286513E+04  0.00000000000E+00 0. -1.
         22    1    5    5    0    0 -0.12749854145E+03  0.20615075106E+03  0.58934178934E+01  0.24246389960E+03  0.00000000000E+00 0. -1.
          5    1    4    4  502    0 -0.19909451559E+02 -0.94355469885E+02 -0.24583040160E+03  0.26410985841E+03  0.47000000000E+01 0.  1.
         -5    1    4    4    0  502  0.41511749931E+02  0.12165001592E+02 -0.27043739486E+03  0.27391547453E+03  0.47000000000E+01 0.  1.
<mgrwt>
<rscale>  0 0.99906071E+03</rscale>
<asrwt>0</asrwt>
<pdfrwt beam="1">  1        1 0.27233112E+00 0.99906071E+03</pdfrwt>
<pdfrwt beam="2">  1       -1 0.21687015E-01 0.99906071E+03</pdfrwt>
<totfact> 0.80738316E+01</totfact>
</mgrwt>
</event>
<event>
 9    1  0.4488205E-036  0.1000743E+04  0.7818608E-02  0.8680331E-01
         -1   -1    0    0    0  501 -0.00000000000E+00  0.00000000000E+00  0.14863430513E+03  0.14863430513E+03  0.00000000000E+00 0.  1.
          1   -1    0    0  501    0  0.00000000000E+00 -0.00000000000E+00 -0.16844814027E+04  0.16844814027E+04  0.00000000000E+00 0.  1.
         36    2    1    2    0    0  0.00000000000E+00 -0.28421709430E-13 -0.15358470975E+04  0.18331157078E+04  0.10007431694E+04 0.  0.
         25    2    3    3    0    0 -0.90978969654E+02  0.10518799729E+03 -0.33247773143E+03  0.38183867400E+03  0.12616514327E+03 0.  0.
         35    2    3    3    0    0  0.90978969654E+02 -0.10518799729E+03 -0.12033693661E+04  0.14512770338E+04  0.79922807123E+03 0.  0.
         22    1    5    5    0    0  0.74986318170E+02 -0.16289405370E+03  0.58012108467E+02  0.18847499933E+03  0.00000000000E+00 0.  1.
         22    1    5    5    0    0  0.15992651484E+02  0.57706056409E+02 -0.12613814746E+04  0.12628020345E+04  0.00000000000E+00 0.  1.
          5    1    4    4  502    0 -0.98711115309E+02  0.92368164251E+02 -0.33888855656E+03  0.36488807300E+03  0.47000000000E+01 0. -1.
         -5    1    4    4    0  502  0.77321456554E+01  0.12819833038E+02  0.64108251273E+01  0.16950601003E+02  0.47000000000E+01 0. -1.
<mgrwt>
<rscale>  0 0.10007432E+04</rscale>
<asrwt>0</asrwt>
<pdfrwt beam="1">  1        1 0.25915097E+00 0.10007432E+04</pdfrwt>
<pdfrwt beam="2">  1       -1 0.22866818E-01 0.10007432E+04</pdfrwt>
<totfact> 0.84922014E+01</totfact>
</mgrwt>
</event>
<event>
 9    1  0.4488205E-036  0.9996848E+03  0.7818608E-02  0.8681338E-01
         -2   -1    0    0    0  501 -0.00000000000E+00  0.00000000000E+00  0.25341340759E+04  0.25341340759E+04  0.00000000000E+00 0. -1.
          2   -1    0    0  501    0  0.00000000000E+00 -0.00000000000E+00 -0.98590853249E+02  0.98590853249E+02  0.00000000000E+00 0. -1.
         36    2    1    2    0    0 -0.28421709430E-13  0.21316282073E-13  0.24355432227E+04  0.26327249292E+04  0.99968483192E+03 0.  0.
         25    2    3    3    0    0 -0.10792332024E+03  0.18377553719E+02  0.22262719130E+03  0.27702978881E+03  0.12327797877E+03 0.  0.
         35    2    3    3    0    0  0.10792332024E+03 -0.18377553719E+02  0.22129160314E+04  0.23556951404E+04  0.80019813476E+03 0.  0.
         22    1    5    5    0    0 -0.15463856077E+03  0.32041767290E+03  0.12889334672E+04  0.13371350165E+04  0.00000000000E+00 0. -1.
         22    1    5    5    0    0  0.26256188101E+03 -0.33879522662E+03  0.92398256418E+03  0.10185601238E+04  0.00000000000E+00 0. -1.
          5    1    4    4  502    0  0.58297944143E+01 -0.28940694255E+02  0.94933442106E+02  0.99528883833E+02  0.47000000000E+01 0. -1.
         -5    1    4    4    0  502 -0.11375311466E+03  0.47318247974E+02  0.12769374920E+03  0.17750090498E+03  0.47000000000E+01 0. -1.
<mgrwt>
<rscale>  0 0.99968483E+03</rscale>
<asrwt>0</asrwt>
<pdfrwt beam="1">  1        2 0.15167826E-01 0.99968483E+03</pdfrwt>
<pdfrwt beam="2">  1       -2 0.38986673E+00 0.99968483E+03</pdfrwt>
<totfact> 0.48429599E+00</totfact>
</mgrwt>
</event>
<event>
 9    1  0.4488205E-036  0.9998020E+03  0.7818608E-02  0.8681227E-01
          1   -1    0    0  501    0  0.00000000000E+00  0.00000000000E+00  0.43006503921E+03  0.43006503921E+03  0.00000000000E+00 0. -1.
         -1   -1    0    0    0  501 -0.00000000000E+00 -0.00000000000E+00 -0.58107727160E+03  0.58107727160E+03  0.00000000000E+00 0. -1.
         36    2    1    2    0    0 -0.14210854715E-13 -0.28421709430E-13 -0.15101223239E+03  0.10111423108E+04  0.99980201960E+03 0.  0.
         25    2    3    3    0    0 -0.23735154042E+02 -0.10247094004E+03  0.65196412713E+02  0.17594362914E+03  0.12506773091E+03 0.  0.
         35    2    3    3    0    0  0.23735154042E+02  0.10247094004E+03 -0.21620864510E+03  0.83519868167E+03  0.79984186472E+03 0.  0.
         22    1    5    5    0    0 -0.47479456280E+02 -0.31424620010E+02 -0.50543050177E+03  0.50862736618E+03  0.00000000000E+00 0. -1.
         22    1    5    5    0    0  0.71214610322E+02  0.13389556005E+03  0.28922185667E+03  0.32657131549E+03  0.00000000000E+00 0. -1.
          5    1    4    4  502    0  0.25606215618E+02  0.17675928049E+02  0.24086944227E+02  0.39628116191E+02  0.47000000000E+01 0. -1.
         -5    1    4    4    0  502 -0.49341369660E+02 -0.12014686809E+03  0.41109468486E+02  0.13631551295E+03  0.47000000000E+01 0. -1.
<mgrwt>
<rscale>  0 0.99980202E+03</rscale>
<asrwt>0</asrwt>
<pdfrwt beam="1">  1        1 0.66163852E-01 0.99980202E+03</pdfrwt>
<pdfrwt beam="2">  1       -1 0.89396504E-01 0.99980202E+03</pdfrwt>
<totfact> 0.79403871E+01</totfact>
</mgrwt>
</event>
<event>
 9    1  0.4488205E-036  0.9995958E+03  0.7818608E-02  0.8681423E-01
         -2   -1    0    0    0  501 -0.00000000000E+00  0.00000000000E+00  0.25240908365E+03  0.25240908365E+03  0.00000000000E+00 0. -1.
          2   -1    0    0  501    0  0.00000000000E+00 -0.00000000000E+00 -0.98965514486E+03  0.98965514486E+03  0.00000000000E+00 0. -1.
         36    2    1    2    0    0  0.71054273576E-14  0.21316282073E-13 -0.73724606121E+03  0.12420642285E+04  0.99959581480E+03 0.  0.
         25    2    3    3    0    0 -0.29737351577E+02 -0.12388047329E+02  0.31584736283E+02  0.13293653569E+03  0.12504700380E+03 0.  0.
         35    2    3    3    0    0  0.29737351577E+02  0.12388047329E+02 -0.76883079750E+03  0.11091276928E+04  0.79876509063E+03 0.  0.
         22    1    5    5    0    0  0.16391327859E+03  0.37669641946E+03 -0.41211770771E+03  0.58190098844E+03  0.00000000000E+00 0.  1.
         22    1    5    5    0    0 -0.13417592702E+03 -0.36430837213E+03 -0.35671308978E+03  0.52722670438E+03  0.00000000000E+00 0.  1.
          5    1    4    4  502    0 -0.52821655588E+02 -0.57492732244E+02  0.17772236496E+02  0.80209001677E+02  0.47000000000E+01 0.  1.
         -5    1    4    4    0  502  0.23084304011E+02  0.45104684914E+02  0.13812499787E+02  0.52727534015E+02  0.47000000000E+01 0.  1.
<mgrwt>
<rscale>  0 0.99959581E+03</rscale>
<asrwt>0</asrwt>
<pdfrwt beam="1">  1        2 0.15225464E+00 0.99959581E+03</pdfrwt>
<pdfrwt beam="2">  1       -2 0.38832167E-01 0.99959581E+03</pdfrwt>
<totfact> 0.19376706E+02</totfact>
</mgrwt>
</event>
<event>
 9    1  0.4488205E-036  0.9999131E+03  0.7818608E-02  0.8681121E-01
          2   -1    0    0  501    0  0.00000000000E+00  0.00000000000E+00  0.56991589869E+03  0.56991589869E+03  0.00000000000E+00 0. -1.
         -2   -1    0    0    0  501 -0.00000000000E+00 -0.00000000000E+00 -0.43858495120E+03  0.43858495120E+03  0.00000000000E+00 0. -1.
         36    2    1    2    0    0  0.00000000000E+00  0.00000000000E+00  0.13133094749E+03  0.10085008499E+04  0.99991306945E+03 0.  0.
         25    2    3    3    0    0 -0.58408462971E+02  0.12514789783E+03 -0.32162555315E+01  0.18628683625E+03  0.12497558234E+03 0.  0.
         35    2    3    3    0    0  0.58408462971E+02 -0.12514789783E+03  0.13454720302E+03  0.82221401364E+03  0.79928680053E+03 0.  0.
         22    1    5    5    0    0 -0.50931028112E+02 -0.37502468608E+03  0.31731467844E+03  0.49388874247E+03  0.00000000000E+00 0.  1.
         22    1    5    5    0    0  0.10933949108E+03  0.24987678824E+03 -0.18276747542E+03  0.32832527116E+03  0.00000000000E+00 0.  1.
          5    1    4    4  502    0 -0.34993177826E+02  0.87650426726E+02  0.57816650275E+02  0.11077894587E+03  0.47000000000E+01 0. -1.
         -5    1    4    4    0  502 -0.23415285145E+02  0.37497471107E+02 -0.61032905807E+02  0.75507890376E+02  0.47000000000E+01 0. -1.
<mgrwt>
<rscale>  0 0.99991307E+03</rscale>
<asrwt>0</asrwt>
<pdfrwt beam="1">  1        2 0.87679369E-01 0.99991307E+03</pdfrwt>
<pdfrwt beam="2">  1       -2 0.67474608E-01 0.99991307E+03</pdfrwt>
<totfact> 0.12855286E+02</totfact>
</mgrwt>
</event>
<event>
 9    1  0.4488205E-036  0.9959802E+03  0.7818608E-02  0.8684875E-01
          2   -1    0    0  501    0  0.00000000000E+00  0.00000000000E+00  0.12930954440E+04  0.12930954440E+04  0.00000000000E+00 0.  1.
         -2   -1    0    0    0  501 -0.00000000000E+00 -0.00000000000E+00 -0.19178333885E+03  0.19178333885E+03  0.00000000000E+00 0.  1.
         36    2    1    2    0    0  0.14210854715E-13  0.14210854715E-13  0.11013121052E+04  0.14848787829E+04  0.99598024419E+03 0.  0.
         25    2    3    3    0    0 -0.26726970270E+02  0.10233831864E+03  0.29549762048E+03  0.33910454355E+03  0.12839620457E+03 0.  0.
         35    2    3    3    0    0  0.26726970270E+02 -0.10233831864E+03  0.80581448469E+03  0.11457742393E+04  0.80763491835E+03 0.  0.
         22    1    5    5    0    0  0.22875730723E+03 -0.52061603519E+02 -0.70577580937E+02  0.24499287970E+03  0.00000000000E+00 0. -1.
         22    1    5    5    0    0 -0.20203033696E+03 -0.50276715119E+02  0.87639206563E+03  0.90078135961E+03  0.00000000000E+00 0. -1.
          5    1    4    4  502    0 -0.10177582639E+02 -0.28289461483E+02  0.30100445224E+02  0.42801911430E+02  0.47000000000E+01 0. -1.
         -5    1    4    4    0  502 -0.16549387631E+02  0.13062778012E+03  0.26539717525E+03  0.29630263212E+03  0.47000000000E+01 0. -1.
<mgrwt>
<rscale>  0 0.99598024E+03</rscale>
<asrwt>0</asrwt>
<pdfrwt beam="1">  1        2 0.19893776E+00 0.99598024E+03</pdfrwt>
<pdfrwt beam="2">  1       -2 0.29505130E-01 0.99598024E+03</pdfrwt>
<totfact> 0.21200128E+02</totfact>
</mgrwt>
</event>
<event>
 9    1  0.4488205E-036  0.9998583E+03  0.7818608E-02  0.8681173E-01
          2   -1    0    0  501    0  0.00000000000E+00  0.00000000000E+00  0.37041399689E+03  0.37041399689E+03  0.00000000000E+00 0. -1.
         -2   -1    0    0    0  501 -0.00000000000E+00 -0.00000000000E+00 -0.67472922252E+03  0.67472922252E+03  0.00000000000E+00 0. -1.
         36    2    1    2    0    0 -0.17763568394E-14  0.00000000000E+00 -0.30431522563E+03  0.10451432194E+04  0.99985828622E+03 0.  0.
         25    2    3    3    0    0  0.15190105223E+02  0.11901389435E+03  0.21521310892E+02  0.17385230277E+03  0.12396132466E+03 0.  0.
         35    2    3    3    0    0 -0.15190105223E+02 -0.11901389435E+03 -0.32583653652E+03  0.87129091664E+03  0.79911411359E+03 0.  0.
         22    1    5    5    0    0 -0.13447756017E+03 -0.16548003882E+03 -0.56286480773E+03  0.60190086329E+03  0.00000000000E+00 0. -1.
         22    1    5    5    0    0  0.11928745495E+03  0.46466144471E+02  0.23702827122E+03  0.26939005335E+03  0.00000000000E+00 0. -1.
          5    1    4    4  502    0  0.18248053827E+02  0.34862371556E+01 -0.38895366031E+02  0.43359944842E+02  0.47000000000E+01 0. -1.
         -5    1    4    4    0  502 -0.30579486047E+01  0.11552765720E+03  0.60416676923E+02  0.13049235793E+03  0.47000000000E+01 0. -1.
<mgrwt>
<rscale>  0 0.99985829E+03</rscale>
<asrwt>0</asrwt>
<pdfrwt beam="1">  1        2 0.56986769E-01 0.99985829E+03</pdfrwt>
<pdfrwt beam="2">  1       -2 0.10380449E+00 0.99985829E+03</pdfrwt>
<totfact> 0.77612532E+01</totfact>
</mgrwt>
</event>
<event>
 9    1  0.4488205E-036  0.1000081E+04  0.7818608E-02  0.8680961E-01
         -1   -1    0    0    0  501 -0.00000000000E+00  0.00000000000E+00  0.60056645926E+03  0.60056645926E+03  0.00000000000E+00 0. -1.
          1   -1    0    0  501    0  0.00000000000E+00 -0.00000000000E+00 -0.41634084145E+03  0.41634084145E+03  0.00000000000E+00 0. -1.
         36    2    1    2    0    0 -0.14210854715E-13  0.00000000000E+00  0.18422561781E+03  0.10169073007E+04  0.10000806867E+04 0.  0.
         25    2    3    3    0    0 -0.11410397534E+03 -0.81088336667E+02  0.38800876470E+02  0.19152914326E+03  0.12483136293E+03 0.  0.
         35    2    3    3    0    0  0.11410397534E+03  0.81088336667E+02  0.14542474134E+03  0.82537815745E+03  0.80031600751E+03 0.  0.
         22    1    5    5    0    0  0.39013791227E+03  0.25536166849E+03  0.17399468791E+03  0.49768596900E+03  0.00000000000E+00 0. -1.
         22    1    5    5    0    0 -0.27603393693E+03 -0.17427333182E+03 -0.28569946575E+02  0.32769218845E+03  0.00000000000E+00 0. -1.
          5    1    4    4  502    0 -0.83587393055E+02 -0.12805065764E+02 -0.29947691826E+02  0.89831933257E+02  0.47000000000E+01 0. -1.
         -5    1    4    4    0  502 -0.30516582280E+02 -0.68283270904E+02  0.68748568296E+02  0.10169721000E+03  0.47000000000E+01 0. -1.
<mgrwt>
<rscale>  0 0.10000807E+04</rscale>
<asrwt>0</asrwt>
<pdfrwt beam="1">  1        1 0.64052437E-01 0.10000807E+04</pdfrwt>
<pdfrwt beam="2">  1       -1 0.92394840E-01 0.10000807E+04</pdfrwt>
<totfact> 0.77261858E+01</totfact>
</mgrwt>
</event>
<event>
 9    1  0.4488205E-036  0.1001494E+04  0.7818608E-02  0.8679617E-01
         -1   -1    0    0    0  501 -0.00000000000E+00  0.00000000000E+00  0.29220277204E+03  0.29220277204E+03  0.00000000000E+00 0. -1.
          1   -1    0    0  501    0  0.00000000000E+00 -0.00000000000E+00 -0.85812825129E+03  0.85812825129E+03  0.00000000000E+00 0. -1.
         36    2    1    2    0    0  0.00000000000E+00  0.00000000000E+00 -0.56592547925E+03  0.11503310233E+04  0.10014937919E+04 0.  0.
         25    2    3    3    0    0 -0.84212307554E+02  0.25486079194E+02 -0.23317696996E+03  0.27920687032E+03  0.12587185602E+03 0.  0.
         35    2    3    3    0    0  0.84212307554E+02 -0.25486079194E+02 -0.33274850928E+03  0.87112415301E+03  0.80024650362E+03 0.  0.
         22    1    5    5    0    0 -0.14012526207E+02 -0.27939104214E+01 -0.59240854102E+03  0.59258082681E+03  0.00000000000E+00 0.  1.
         22    1    5    5    0    0  0.98224833761E+02 -0.22692168773E+02  0.25966003174E+03  0.27854332620E+03  0.00000000000E+00 0.  1.
          5    1    4    4  502    0  0.57562720142E+01 -0.38472993293E+02 -0.36133368044E+02  0.53301183539E+02  0.47000000000E+01 0. -1.
         -5    1    4    4    0  502 -0.89968579568E+02  0.63959072488E+02 -0.19704360192E+03  0.22590568678E+03  0.47000000000E+01 0. -1.
<mgrwt>
<rscale>  0 0.10014938E+04</rscale>
<asrwt>0</asrwt>
<pdfrwt beam="1">  1        1 0.13201973E+00 0.10014938E+04</pdfrwt>
<pdfrwt beam="2">  1       -1 0.44954274E-01 0.10014938E+04</pdfrwt>
<totfact> 0.10957338E+02</totfact>
</mgrwt>
</event>
<event>
 9    1  0.4488205E-036  0.1000200E+04  0.7818608E-02  0.8680847E-01
          2   -1    0    0  501    0  0.00000000000E+00  0.00000000000E+00  0.34497450237E+04  0.34497450237E+04  0.00000000000E+00 0. -1.
         -2   -1    0    0    0  501 -0.00000000000E+00 -0.00000000000E+00 -0.72498133505E+02  0.72498133505E+02  0.00000000000E+00 0. -1.
         36    2    1    2    0    0  0.00000000000E+00  0.00000000000E+00  0.33772468902E+04  0.35222431572E+04  0.10002001305E+04 0.  0.
         25    2    3    3    0    0 -0.11032366479E+03  0.68273575050E+02  0.76822351400E+03  0.78989484122E+03  0.13013032183E+03 0.  0.
         35    2    3    3    0    0  0.11032366479E+03 -0.68273575050E+02  0.26090233762E+04  0.27323483160E+04  0.80118147150E+03 0.  0.
         22    1    5    5    0    0  0.86760927786E+02 -0.12236514458E+03  0.30402176225E+02  0.15305221174E+03  0.00000000000E+00 0. -1.
         22    1    5    5    0    0  0.23562736999E+02  0.54091569528E+02  0.25786211999E+04  0.25792961042E+04  0.00000000000E+00 0. -1.
          5    1    4    4  502    0 -0.33209087039E+01 -0.33788441495E+02  0.18850342884E+03  0.19159415413E+03  0.47000000000E+01 0. -1.
         -5    1    4    4    0  502 -0.10700275608E+03  0.10206201655E+03  0.57972008516E+03  0.59830068709E+03  0.47000000000E+01 0. -1.
<mgrwt>
<rscale>  0 0.10002001E+04</rscale>
<asrwt>0</asrwt>
<pdfrwt beam="1">  1        2 0.53072988E+00 0.10002001E+04</pdfrwt>
<pdfrwt beam="2">  1       -2 0.11153562E-01 0.10002001E+04</pdfrwt>
<totfact> 0.52688588E+01</totfact>
</mgrwt>
</event>
<event>
 9    1  0.4488205E-036  0.1000039E+04  0.7818608E-02  0.8681001E-01
         -2   -1    0    0    0  501 -0.00000000000E+00  0.00000000000E+00  0.12781646747E+03  0.12781646747E+03  0.00000000000E+00 0. -1.
          2   -1    0    0  501    0  0.00000000000E+00 -0.00000000000E+00 -0.19560832484E+04  0.19560832484E+04  0.00000000000E+00 0. -1.
         36    2    1    2    0    0  0.53290705182E-14  0.00000000000E+00 -0.18282667810E+04  0.20838997159E+04  0.10000393010E+04 0.  0.
         25    2    3    3    0    0  0.12793306006E+02 -0.12606991110E+03 -0.21648994682E+03  0.28000455429E+03  0.12440804710E+03 0.  0.
         35    2    3    3    0    0 -0.12793306006E+02  0.12606991110E+03 -0.16117768341E+04  0.18038951616E+04  0.80009743147E+03 0.  0.
         22    1    5    5    0    0 -0.14839498000E+03  0.35975489588E+03 -0.14205491333E+04  0.14728898449E+04  0.00000000000E+00 0.  1.
         22    1    5    5    0    0  0.13560167400E+03 -0.23368498478E+03 -0.19122770086E+03  0.33100531669E+03  0.00000000000E+00 0.  1.
          5    1    4    4  502    0  0.63468174862E+00 -0.90711822323E+02 -0.22387687915E+03  0.24160294813E+03  0.47000000000E+01 0. -1.
         -5    1    4    4    0  502  0.12158624258E+02 -0.35358088782E+02  0.73869323262E+01  0.38401606156E+02  0.47000000000E+01 0. -1.
<mgrwt>
<rscale>  0 0.10000393E+04</rscale>
<asrwt>0</asrwt>
<pdfrwt beam="1">  1        2 0.30093584E+00 0.10000393E+04</pdfrwt>
<pdfrwt beam="2">  1       -2 0.19664075E-01 0.10000393E+04</pdfrwt>
<totfact> 0.18283085E+02</totfact>
</mgrwt>
</event>
<event>
 9    1  0.4488205E-036  0.9992684E+03  0.7818608E-02  0.8681735E-01
          1   -1    0    0  501    0  0.00000000000E+00  0.00000000000E+00  0.59383991547E+03  0.59383991547E+03  0.00000000000E+00 0. -1.
         -1   -1    0    0    0  501 -0.00000000000E+00 -0.00000000000E+00 -0.42037315036E+03  0.42037315036E+03  0.00000000000E+00 0. -1.
         36    2    1    2    0    0  0.28421709430E-13  0.14210854715E-13  0.17346676511E+03  0.10142130658E+04  0.99926844457E+03 0.  0.
         25    2    3    3    0    0 -0.17033301681E+02  0.20967235566E+02 -0.10067311465E+03  0.16856451051E+03  0.13247324204E+03 0.  0.
         35    2    3    3    0    0  0.17033301681E+02 -0.20967235566E+02  0.27413987976E+03  0.84564855532E+03  0.79952426299E+03 0.  0.
         22    1    5    5    0    0 -0.35242831063E+03  0.16058078170E+03  0.15439667687E+03  0.41692953291E+03  0.00000000000E+00 0. -1.
         22    1    5    5    0    0  0.36946161231E+03 -0.18154801727E+03  0.11974320289E+03  0.42871902242E+03  0.00000000000E+00 0. -1.
          5    1    4    4  502    0  0.36468699506E+02  0.53277563923E+02 -0.22870518958E+02  0.68655775421E+02  0.47000000000E+01 0. -1.
         -5    1    4    4    0  502 -0.53502001188E+02 -0.32310328358E+02 -0.77802595696E+02  0.99908735087E+02  0.47000000000E+01 0. -1.
<mgrwt>
<rscale>  0 0.99926844E+03</rscale>
<asrwt>0</asrwt>
<pdfrwt beam="1">  1        1 0.91359987E-01 0.99926844E+03</pdfrwt>
<pdfrwt beam="2">  1       -1 0.64672792E-01 0.99926844E+03</pdfrwt>
<totfact> 0.98161695E+01</totfact>
</mgrwt>
</event>
<event>
 9    1  0.4488205E-036  0.1000124E+04  0.7818608E-02  0.8680920E-01
          1   -1    0    0  501    0  0.00000000000E+00  0.00000000000E+00  0.13706945824E+04  0.13706945824E+04  0.00000000000E+00 0. -1.
         -1   -1    0    0    0  501 -0.00000000000E+00 -0.00000000000E+00 -0.18243444766E+03  0.18243444766E+03  0.00000000000E+00 0. -1.
         36    2    1    2    0    0  0.28421709430E-13  0.14210854715E-13  0.11882601348E+04  0.15531290301E+04  0.10001238104E+04 0.  0.
         25    2    3    3    0    0  0.27886841220E+02 -0.70517092794E+02  0.37334465370E+02  0.15141058575E+03  0.12562231841E+03 0.  0.
         35    2    3    3    0    0 -0.27886841220E+02  0.70517092794E+02  0.11509256694E+04  0.14017184444E+04  0.79651388213E+03 0.  0.
         22    1    5    5    0    0  0.30053080223E+03 -0.18752983733E+03  0.71532627667E+03  0.79823422945E+03  0.00000000000E+00 0.  1.
         22    1    5    5    0    0 -0.32841764345E+03  0.25804693013E+03  0.43559939275E+03  0.60348421490E+03  0.00000000000E+00 0.  1.
          5    1    4    4  502    0  0.62440100828E+02 -0.26760505474E+02  0.60273293935E+02  0.90938720061E+02  0.47000000000E+01 0. -1.
         -5    1    4    4    0  502 -0.34553259608E+02 -0.43756587320E+02 -0.22938828564E+02  0.60471865684E+02  0.47000000000E+01 0. -1.
<mgrwt>
<rscale>  0 0.10001238E+04</rscale>
<asrwt>0</asrwt>
<pdfrwt beam="1">  1        1 0.21087608E+00 0.10001238E+04</pdfrwt>
<pdfrwt beam="2">  1       -1 0.28066839E-01 0.10001238E+04</pdfrwt>
<totfact> 0.10061813E+02</totfact>
</mgrwt>
</event>
<event>
 9    1  0.4488205E-036  0.9996700E+03  0.7818608E-02  0.8681352E-01
         -2   -1    0    0    0  501 -0.00000000000E+00  0.00000000000E+00  0.57193483666E+03  0.57193483666E+03  0.00000000000E+00 0. -1.
          2   -1    0    0  501    0  0.00000000000E+00 -0.00000000000E+00 -0.43682432615E+03  0.43682432615E+03  0.00000000000E+00 0. -1.
         36    2    1    2    0    0 -0.71054273576E-14  0.28421709430E-13  0.13511051051E+03  0.10087591628E+04  0.99967004481E+03 0.  0.
         25    2    3    3    0    0 -0.46191738760E+02 -0.12463265821E+03  0.71495399329E+02  0.19598873853E+03  0.12503206502E+03 0.  0.
         35    2    3    3    0    0  0.46191738760E+02  0.12463265821E+03  0.63615111177E+02  0.81277042428E+03  0.79930088452E+03 0.  0.
         22    1    5    5    0    0  0.80720517571E+01 -0.47880970117E+01  0.42599049280E+03  0.42609386742E+03  0.00000000000E+00 0.  1.
         22    1    5    5    0    0  0.38119687003E+02  0.12942075522E+03 -0.36237538162E+03  0.38667655686E+03  0.00000000000E+00 0.  1.
          5    1    4    4  502    0 -0.65296602893E+02 -0.13090887848E+03  0.29669515104E+02  0.14934239499E+03  0.47000000000E+01 0. -1.
         -5    1    4    4    0  502  0.19104864133E+02  0.62762202696E+01  0.41825884225E+02  0.46646343540E+02  0.47000000000E+01 0. -1.
<mgrwt>
<rscale>  0 0.99967004E+03</rscale>
<asrwt>0</asrwt>
<pdfrwt beam="1">  1        2 0.67203743E-01 0.99967004E+03</pdfrwt>
<pdfrwt beam="2">  1       -2 0.87989975E-01 0.99967004E+03</pdfrwt>
<totfact> 0.95853969E+01</totfact>
</mgrwt>
</event>
<event>
 9    1  0.4488205E-036  0.1000848E+04  0.7818608E-02  0.8680231E-01
         -1   -1    0    0    0  501 -0.00000000000E+00  0.00000000000E+00  0.31331053219E+03  0.31331053219E+03  0.00000000000E+00 0. -1.
          1   -1    0    0  501    0  0.00000000000E+00 -0.00000000000E+00 -0.79928440304E+03  0.79928440304E+03  0.00000000000E+00 0. -1.
         36    2    1    2    0    0 -0.28421709430E-13 -0.14210854715E-13 -0.48597387085E+03  0.11125949352E+04  0.10008480838E+04 0.  0.
         25    2    3    3    0    0 -0.12520414921E+03 -0.53196244879E+02 -0.13494778237E+03  0.22892093674E+03  0.12525163417E+03 0.  0.
         35    2    3    3    0    0  0.12520414921E+03  0.53196244879E+02 -0.35102608848E+03  0.88367399849E+03  0.79947138871E+03 0.  0.
         22    1    5    5    0    0  0.41178951574E+03 -0.14761591706E+03 -0.29904727676E+03  0.52989653516E+03  0.00000000000E+00 0. -1.
         22    1    5    5    0    0 -0.28658536653E+03  0.20081216194E+03 -0.51978811723E+02  0.35377746333E+03  0.00000000000E+00 0. -1.
          5    1    4    4  502    0  0.13383200578E+02  0.77054122192E+01  0.10241861231E+02  0.19117247622E+02  0.47000000000E+01 0. -1.
         -5    1    4    4    0  502 -0.13858734979E+03 -0.60901657098E+02 -0.14518964360E+03  0.20980368912E+03  0.47000000000E+01 0. -1.
<mgrwt>
<rscale>  0 0.10008481E+04</rscale>
<asrwt>0</asrwt>
<pdfrwt beam="1">  1        1 0.12296683E+00 0.10008481E+04</pdfrwt>
<pdfrwt beam="2">  1       -1 0.48201621E-01 0.10008481E+04</pdfrwt>
<totfact> 0.10851761E+02</totfact>
</mgrwt>
</event>
<event>
 9    1  0.4488205E-036  0.9996912E+03  0.7818608E-02  0.8681332E-01
         -1   -1    0    0    0  501 -0.00000000000E+00  0.00000000000E+00  0.97629913563E+03  0.97629913563E+03  0.00000000000E+00 0.  1.
          1   -1    0    0  501    0  0.00000000000E+00 -0.00000000000E+00 -0.25591091668E+03  0.25591091668E+03  0.00000000000E+00 0.  1.
         36    2    1    2    0    0  0.00000000000E+00  0.00000000000E+00  0.72038821895E+03  0.12322100523E+04  0.99969116581E+03 0.  0.
         25    2    3    3    0    0  0.13686289794E+03  0.25593637734E+02  0.10752525351E+03  0.21493239662E+03  0.12348185232E+03 0.  0.
         35    2    3    3    0    0 -0.13686289794E+03 -0.25593637734E+02  0.61286296543E+03  0.10172776557E+04  0.79991645015E+03 0.  0.
         22    1    5    5    0    0 -0.48549837712E+02 -0.30603511056E+03  0.65081980552E+03  0.72081966878E+03  0.00000000000E+00 0. -1.
         22    1    5    5    0    0 -0.88313060226E+02  0.28044147283E+03 -0.37956840086E+02  0.29645798690E+03  0.00000000000E+00 0. -1.
          5    1    4    4  502    0  0.11558372052E+03  0.55391940042E+02  0.12032112068E+03  0.17586109733E+03  0.47000000000E+01 0.  1.
         -5    1    4    4    0  502  0.21279177415E+02 -0.29798302308E+02 -0.12795867170E+02  0.39071299294E+02  0.47000000000E+01 0.  1.
<mgrwt>
<rscale>  0 0.99969117E+03</rscale>
<asrwt>0</asrwt>
<pdfrwt beam="1">  1        1 0.39370911E-01 0.99969117E+03</pdfrwt>
<pdfrwt beam="2">  1       -1 0.15019986E+00 0.99969117E+03</pdfrwt>
<totfact> 0.44043013E+01</totfact>
</mgrwt>
</event>
<event>
 9    1  0.4488205E-036  0.9946029E+03  0.7818608E-02  0.8686195E-01
         -2   -1    0    0    0  501 -0.00000000000E+00  0.00000000000E+00  0.41543204141E+03  0.41543204141E+03  0.00000000000E+00 0. -1.
          2   -1    0    0  501    0  0.00000000000E+00 -0.00000000000E+00 -0.59530485301E+03  0.59530485301E+03  0.00000000000E+00 0. -1.
         36    2    1    2    0    0  0.14210854715E-13 -0.28421709430E-13 -0.17987281160E+03  0.10107368944E+04  0.99460285611E+03 0.  0.
         25    2    3    3    0    0  0.37006108344E+02  0.11520534114E+03 -0.85814714821E+02  0.19395195901E+03  0.12494588605E+03 0.  0.
         35    2    3    3    0    0 -0.37006108344E+02 -0.11520534114E+03 -0.94058096776E+02  0.81678493541E+03  0.80227737252E+03 0.  0.
         22    1    5    5    0    0 -0.17777711412E+03 -0.42947789770E+03 -0.24453565558E+02  0.46546100136E+03  0.00000000000E+00 0. -1.
         22    1    5    5    0    0  0.14077100577E+03  0.31427255656E+03 -0.69604531218E+02  0.35132393405E+03  0.00000000000E+00 0. -1.
          5    1    4    4  502    0 -0.25323878509E+02  0.77176804597E+02 -0.89168432558E+02  0.12070897794E+03  0.47000000000E+01 0. -1.
         -5    1    4    4    0  502  0.62329986852E+02  0.38028536547E+02  0.33537177376E+01  0.73242981067E+02  0.47000000000E+01 0. -1.
<mgrwt>
<rscale>  0 0.99460286E+03</rscale>
<asrwt>0</asrwt>
<pdfrwt beam="1">  1        2 0.91585362E-01 0.99460286E+03</pdfrwt>
<pdfrwt beam="2">  1       -2 0.63912622E-01 0.99460286E+03</pdfrwt>
<totfact> 0.13712037E+02</totfact>
</mgrwt>
</event>
<event>
 9    1  0.4488205E-036  0.9978607E+03  0.7818608E-02  0.8683078E-01
          1   -1    0    0  501    0  0.00000000000E+00  0.00000000000E+00  0.12032854464E+04  0.12032854464E+04  0.00000000000E+00 0.  1.
         -1   -1    0    0    0  501 -0.00000000000E+00 -0.00000000000E+00 -0.20687650877E+03  0.20687650877E+03  0.00000000000E+00 0.  1.
         36    2    1    2    0    0  0.00000000000E+00 -0.28421709430E-13  0.99640893763E+03  0.14101619552E+04  0.99786069610E+03 0.  0.
         25    2    3    3    0    0  0.11882944101E+03 -0.68186286232E+02  0.16778773445E+03  0.25028783964E+03  0.12538529881E+03 0.  0.
         35    2    3    3    0    0 -0.11882944101E+03  0.68186286232E+02  0.82862120318E+03  0.11598741155E+04  0.79995316103E+03 0.  0.
         22    1    5    5    0    0 -0.27619411152E+02 -0.32729197946E+03  0.13269541424E+03  0.35424701079E+03  0.00000000000E+00 0. -1.
         22    1    5    5    0    0 -0.91210029858E+02  0.39547826570E+03  0.69592578894E+03  0.80562710474E+03  0.00000000000E+00 0. -1.
          5    1    4    4  502    0  0.84652771297E+02 -0.26494240436E+02  0.17445247131E+03  0.19576463217E+03  0.47000000000E+01 0. -1.
         -5    1    4    4    0  502  0.34176669713E+02 -0.41692045796E+02 -0.66647368547E+01  0.54523207469E+02  0.47000000000E+01 0. -1.
<mgrwt>
<rscale>  0 0.99786070E+03</rscale>
<asrwt>0</asrwt>
<pdfrwt beam="1">  1        1 0.18512083E+00 0.99786070E+03</pdfrwt>
<pdfrwt beam="2">  1       -1 0.31827156E-01 0.99786070E+03</pdfrwt>
<totfact> 0.10766153E+02</totfact>
</mgrwt>
</event>
<event>
 9    1  0.4488205E-036  0.9931476E+03  0.7818608E-02  0.8687591E-01
         -2   -1    0    0    0  501 -0.00000000000E+00  0.00000000000E+00  0.24629102385E+03  0.24629102385E+03  0.00000000000E+00 0. -1.
          2   -1    0    0  501    0  0.00000000000E+00 -0.00000000000E+00 -0.10011958927E+04  0.10011958927E+04  0.00000000000E+00 0. -1.
         36    2    1    2    0    0 -0.21316282073E-13  0.00000000000E+00 -0.75490486881E+03  0.12474869165E+04  0.99314764558E+03 0.  0.
         25    2    3    3    0    0 -0.17474855749E+02  0.93264842242E+02 -0.24738043812E+03  0.29389241228E+03  0.12716905067E+03 0.  0.
         35    2    3    3    0    0  0.17474855749E+02 -0.93264842242E+02 -0.50752443069E+03  0.95359450424E+03  0.80172172815E+03 0.  0.
         22    1    5    5    0    0 -0.34846955217E+03  0.25794332472E+02 -0.45616458647E+02  0.35238790796E+03  0.00000000000E+00 0.  1.
         22    1    5    5    0    0  0.36594440792E+03 -0.11905917471E+03 -0.46190797204E+03  0.60120659628E+03  0.00000000000E+00 0.  1.
          5    1    4    4  502    0 -0.41400402252E+02  0.11489756856E+03 -0.21842059702E+03  0.25029001532E+03  0.47000000000E+01 0.  1.
         -5    1    4    4    0  502  0.23925546503E+02 -0.21632726322E+02 -0.28959841101E+02  0.43602396955E+02  0.47000000000E+01 0.  1.
<mgrwt>
<rscale>  0 0.99314765E+03</rscale>
<asrwt>0</asrwt>
<pdfrwt beam="1">  1        2 0.15403014E+00 0.99314765E+03</pdfrwt>
<pdfrwt beam="2">  1       -2 0.37890927E-01 0.99314765E+03</pdfrwt>
<totfact> 0.19965131E+02</totfact>
</mgrwt>
</event>
<event>
 9    1  0.4488205E-036  0.1002712E+04  0.7818608E-02  0.8678459E-01
          2   -1    0    0  501    0  0.00000000000E+00  0.00000000000E+00  0.40157411256E+03  0.40157411256E+03  0.00000000000E+00 0.  1.
         -2   -1    0    0    0  501 -0.00000000000E+00 -0.00000000000E+00 -0.62593170329E+03  0.62593170329E+03  0.00000000000E+00 0.  1.
         36    2    1    2    0    0  0.00000000000E+00 -0.28421709430E-13 -0.22435759073E+03  0.10275058158E+04  0.10027122584E+04 0.  0.
         25    2    3    3    0    0 -0.29910346764E+01 -0.13724637561E+03 -0.61913370561E+01  0.18675186156E+03  0.12646110562E+03 0.  0.
         35    2    3    3    0    0  0.29910346764E+01  0.13724637561E+03 -0.21816625367E+03  0.84075395428E+03  0.80026569556E+03 0.  0.
         22    1    5    5    0    0 -0.83034327859E+02  0.13709935020E+03 -0.51099874361E+03  0.53554705433E+03  0.00000000000E+00 0.  1.
         22    1    5    5    0    0  0.86025362536E+02  0.14702541566E+00  0.29283248994E+03  0.30520689995E+03  0.00000000000E+00 0.  1.
          5    1    4    4  502    0  0.20736716088E+02  0.89005864275E+01 -0.28813762561E+02  0.36899251291E+02  0.47000000000E+01 0.  1.
         -5    1    4    4    0  502 -0.23727750764E+02 -0.14614696204E+03  0.22622425505E+02  0.14985261027E+03  0.47000000000E+01 0.  1.
<mgrwt>
<rscale>  0 0.10027123E+04</rscale>
<asrwt>0</asrwt>
<pdfrwt beam="1">  1        2 0.61780633E-01 0.10027123E+04</pdfrwt>
<pdfrwt beam="2">  1       -2 0.96297185E-01 0.10027123E+04</pdfrwt>
<totfact> 0.85115606E+01</totfact>
</mgrwt>
</event>
<event>
 9    1  0.4488205E-036  0.9998931E+03  0.7818608E-02  0.8681140E-01
          3   -1    0    0  501    0  0.00000000000E+00  0.00000000000E+00  0.14588587685E+03  0.14588587685E+03  0.00000000000E+00 0.  1.
         -3   -1    0    0    0  501 -0.00000000000E+00 -0.00000000000E+00 -0.17133017567E+04  0.17133017567E+04  0.00000000000E+00 0.  1.
         36    2    1    2    0    0  0.71054273576E-14 -0.71054273576E-14 -0.15674158799E+04  0.18591876336E+04  0.99989305245E+03 0.  0.
         25    2    3    3    0    0 -0.27072897337E+02 -0.63543951734E+02 -0.52040181073E+03  0.53967206009E+03  0.12512838308E+03 0.  0.
         35    2    3    3    0    0  0.27072897337E+02  0.63543951734E+02 -0.10470140692E+04  0.13195155735E+04  0.80007006700E+03 0.  0.
         22    1    5    5    0    0  0.82248427409E+02 -0.21616776052E+03 -0.10050778810E+04  0.10313461356E+04  0.00000000000E+00 0. -1.
         22    1    5    5    0    0 -0.55175530072E+02  0.27971171225E+03 -0.41936188194E+02  0.28816943795E+03  0.00000000000E+00 0. -1.
          5    1    4    4  502    0 -0.69350398587E+02 -0.70524727432E+02 -0.38762373312E+03  0.40007182286E+03  0.47000000000E+01 0. -1.
         -5    1    4    4    0  502  0.42277501250E+02  0.69807756983E+01 -0.13277807761E+03  0.13960023723E+03  0.47000000000E+01 0. -1.
<mgrwt>
<rscale>  0 0.99989305E+03</rscale>
<asrwt>0</asrwt>
<pdfrwt beam="1">  1        3 0.22443982E-01 0.99989305E+03</pdfrwt>
<pdfrwt beam="2">  1       -3 0.26358487E+00 0.99989305E+03</pdfrwt>
<totfact> 0.24515370E+00</totfact>
</mgrwt>
</event>
<event>
 9    1  0.4488205E-036  0.9993733E+03  0.7818608E-02  0.8681635E-01
          2   -1    0    0  501    0  0.00000000000E+00  0.00000000000E+00  0.24513257817E+03  0.24513257817E+03  0.00000000000E+00 0.  1.
         -2   -1    0    0    0  501 -0.00000000000E+00 -0.00000000000E+00 -0.10185784477E+04  0.10185784477E+04  0.00000000000E+00 0.  1.
         36    2    1    2    0    0  0.00000000000E+00  0.28421709430E-13 -0.77344586958E+03  0.12637110259E+04  0.99937332557E+03 0.  0.
         25    2    3    3    0    0  0.56674879178E+02  0.98618133231E+02 -0.43795576436E+02  0.17476107105E+03  0.12524296910E+03 0.  0.
         35    2    3    3    0    0 -0.56674879178E+02 -0.98618133231E+02 -0.72965029314E+03  0.10889499549E+04  0.80030298999E+03 0.  0.
         22    1    5    5    0    0  0.27753107621E+03 -0.26239639248E+03 -0.56498756964E+03  0.68197237399E+03  0.00000000000E+00 0. -1.
         22    1    5    5    0    0 -0.33420595538E+03  0.16377825925E+03 -0.16466272350E+03  0.40697758087E+03  0.00000000000E+00 0. -1.
          5    1    4    4  502    0 -0.37997736876E+02  0.35008088563E+02  0.16185356810E+01  0.51904758262E+02  0.47000000000E+01 0. -1.
         -5    1    4    4    0  502  0.94672616054E+02  0.63610044669E+02 -0.45414112117E+02  0.12285631279E+03  0.47000000000E+01 0. -1.
<mgrwt>
<rscale>  0 0.99937333E+03</rscale>
<asrwt>0</asrwt>
<pdfrwt beam="1">  1        2 0.37712705E-01 0.99937333E+03</pdfrwt>
<pdfrwt beam="2">  1       -2 0.15670438E+00 0.99937333E+03</pdfrwt>
<totfact> 0.41265958E+01</totfact>
</mgrwt>
</event>
<event>
 9    1  0.4488205E-036  0.1012789E+04  0.7818608E-02  0.8668954E-01
          1   -1    0    0  501    0  0.00000000000E+00  0.00000000000E+00  0.40556091464E+03  0.40556091464E+03  0.00000000000E+00 0. -1.
         -1   -1    0    0    0  501 -0.00000000000E+00 -0.00000000000E+00 -0.63229813215E+03  0.63229813215E+03  0.00000000000E+00 0. -1.
         36    2    1    2    0    0  0.00000000000E+00  0.00000000000E+00 -0.22673721751E+03  0.10378590468E+04  0.10127890379E+04 0.  0.
         25    2    3    3    0    0  0.64620653863E+02 -0.63922538468E+02  0.82954076571E+02  0.17542383820E+03  0.12502089569E+03 0.  0.
         35    2    3    3    0    0 -0.64620653863E+02  0.63922538468E+02 -0.30969129408E+03  0.86243520859E+03  0.79976488517E+03 0.  0.
         22    1    5    5    0    0 -0.36491484953E+02  0.45801251749E+02  0.27278426099E+03  0.27899934799E+03  0.00000000000E+00 0. -1.
         22    1    5    5    0    0 -0.28129168910E+02  0.18121286718E+02 -0.58247555507E+03  0.58343586060E+03  0.00000000000E+00 0. -1.
          5    1    4    4  502    0  0.80571287566E+02 -0.49856386648E+02  0.55653975655E+01  0.95028707871E+02  0.47000000000E+01 0.  1.
         -5    1    4    4    0  502 -0.15950633703E+02 -0.14066151820E+02  0.77388679006E+02  0.80395130330E+02  0.47000000000E+01 0.  1.
<mgrwt>
<rscale>  0 0.10127890E+04</rscale>
<asrwt>0</asrwt>
<pdfrwt beam="1">  1        1 0.62393987E-01 0.10127890E+04</pdfrwt>
<pdfrwt beam="2">  1       -1 0.97276636E-01 0.10127890E+04</pdfrwt>
<totfact> 0.71408576E+01</totfact>
</mgrwt>
</event>
<event>
 9    1  0.4488205E-036  0.1000262E+04  0.7818608E-02  0.8680788E-01
         -1   -1    0    0    0  501 -0.00000000000E+00  0.00000000000E+00  0.21909004843E+03  0.21909004843E+03  0.00000000000E+00 0. -1.
          1   -1    0    0  501    0  0.00000000000E+00 -0.00000000000E+00 -0.11416814694E+04  0.11416814694E+04  0.00000000000E+00 0. -1.
         36    2    1    2    0    0  0.00000000000E+00  0.21316282073E-13 -0.92259142095E+03  0.13607715178E+04  0.10002620625E+04 0.  0.
         25    2    3    3    0    0 -0.13385048341E+03 -0.22494073261E+02 -0.22657625806E+03  0.29226256319E+03  0.12513460707E+03 0.  0.
         35    2    3    3    0    0  0.13385048341E+03  0.22494073261E+02 -0.69601516289E+03  0.10685089546E+04  0.79928239309E+03 0.  0.
         22    1    5    5    0    0  0.30483319625E+03 -0.18442608109E+03 -0.38550750384E+02  0.35836073624E+03  0.00000000000E+00 0.  1.
         22    1    5    5    0    0 -0.17098271284E+03  0.20692015435E+03 -0.65746441251E+03  0.71014821839E+03  0.00000000000E+00 0.  1.
          5    1    4    4  502    0  0.91897688865E+01 -0.81529363799E+00  0.10335769585E+02  0.14629924429E+02  0.47000000000E+01 0. -1.
         -5    1    4    4    0  502 -0.14304025230E+03 -0.21678779623E+02 -0.23691202765E+03  0.27763263876E+03  0.47000000000E+01 0. -1.
<mgrwt>
<rscale>  0 0.10002621E+04</rscale>
<asrwt>0</asrwt>
<pdfrwt beam="1">  1        1 0.17564330E+00 0.10002621E+04</pdfrwt>
<pdfrwt beam="2">  1       -1 0.33706161E-01 0.10002621E+04</pdfrwt>
<totfact> 0.10844986E+02</totfact>
</mgrwt>
</event>
<event>
 9    1  0.4488205E-036  0.9998391E+03  0.7818608E-02  0.8681191E-01
          2   -1    0    0  501    0  0.00000000000E+00  0.00000000000E+00  0.13554603360E+04  0.13554603360E+04  0.00000000000E+00 0. -1.
         -2   -1    0    0    0  501 -0.00000000000E+00 -0.00000000000E+00 -0.18437983655E+03  0.18437983655E+03  0.00000000000E+00 0. -1.
         36    2    1    2    0    0 -0.42632564146E-13 -0.71054273576E-14  0.11710804994E+04  0.15398401725E+04  0.99983909745E+03 0.  0.
         25    2    3    3    0    0 -0.12719267674E+03 -0.39832125915E+02  0.28851776977E+03  0.34124898535E+03  0.12427305121E+03 0.  0.
         35    2    3    3    0    0  0.12719267674E+03  0.39832125915E+02  0.88256272966E+03  0.11985911872E+04  0.79996205342E+03 0.  0.
         22    1    5    5    0    0 -0.21583577499E+03 -0.20762446843E+03  0.11232449983E+03  0.31985902351E+03  0.00000000000E+00 0. -1.
         22    1    5    5    0    0  0.34302845173E+03  0.24745659434E+03  0.77023822982E+03  0.87873216367E+03  0.00000000000E+00 0. -1.
          5    1    4    4  502    0 -0.28260461984E+02 -0.72444780632E+02  0.12745998349E+03  0.14938218549E+03  0.47000000000E+01 0. -1.
         -5    1    4    4    0  502 -0.98932214761E+02  0.32612654718E+02  0.16105778629E+03  0.19186679986E+03  0.47000000000E+01 0. -1.
<mgrwt>
<rscale>  0 0.99983910E+03</rscale>
<asrwt>0</asrwt>
<pdfrwt beam="1">  1        2 0.20853235E+00 0.99983910E+03</pdfrwt>
<pdfrwt beam="2">  1       -2 0.28366130E-01 0.99983910E+03</pdfrwt>
<totfact> 0.20955539E+02</totfact>
</mgrwt>
</event>
<event>
 9    1  0.4488205E-036  0.9991570E+03  0.7818608E-02  0.8681841E-01
          1   -1    0    0  501    0  0.00000000000E+00  0.00000000000E+00  0.24566943744E+04  0.24566943744E+04  0.00000000000E+00 0. -1.
         -1   -1    0    0    0  501 -0.00000000000E+00 -0.00000000000E+00 -0.10159126392E+03  0.10159126392E+03  0.00000000000E+00 0. -1.
         36    2    1    2    0    0  0.17763568394E-14 -0.56843418861E-13  0.23551031105E+04  0.25582856383E+04  0.99915701779E+03 0.  0.
         25    2    3    3    0    0  0.10888141873E+02 -0.13617226030E+03  0.51926068479E+03  0.55110950856E+03  0.12421189779E+03 0.  0.
         35    2    3    3    0    0 -0.10888141873E+02  0.13617226030E+03  0.18358424257E+04  0.20071761297E+04  0.79986071773E+03 0.  0.
         22    1    5    5    0    0 -0.12289393970E+03 -0.39140482572E+02  0.17893679044E+04  0.17940101435E+04  0.00000000000E+00 0. -1.
         22    1    5    5    0    0  0.11200579783E+03  0.17531274287E+03  0.46474521314E+02  0.21316598624E+03  0.00000000000E+00 0. -1.
          5    1    4    4  502    0  0.82251809093E+01  0.13964006384E+02  0.88618048187E+01  0.19059608074E+02  0.47000000000E+01 0. -1.
         -5    1    4    4    0  502  0.26629609639E+01 -0.15013626668E+03  0.51039887997E+03  0.53204990049E+03  0.47000000000E+01 0. -1.
<mgrwt>
<rscale>  0 0.99915702E+03</rscale>
<asrwt>0</asrwt>
<pdfrwt beam="1">  1        1 0.37795294E+00 0.99915702E+03</pdfrwt>
<pdfrwt beam="2">  1       -1 0.15629427E-01 0.99915702E+03</pdfrwt>
<totfact> 0.45566242E+01</totfact>
</mgrwt>
</event>
<event>
 9    1  0.4488205E-036  0.9998086E+03  0.7818608E-02  0.8681220E-01
          2   -1    0    0  501    0  0.00000000000E+00  0.00000000000E+00  0.22907362512E+04  0.22907362512E+04  0.00000000000E+00 0.  1.
         -2   -1    0    0    0  501 -0.00000000000E+00 -0.00000000000E+00 -0.10909344069E+03  0.10909344069E+03  0.00000000000E+00 0.  1.
         36    2    1    2    0    0  0.00000000000E+00  0.00000000000E+00  0.21816428105E+04  0.23998296919E+04  0.99980858040E+03 0.  0.
         25    2    3    3    0    0 -0.12036211259E+03 -0.44515226298E+02  0.54742417208E+03  0.57591064361E+03  0.12462424215E+03 0.  0.
         35    2    3    3    0    0  0.12036211259E+03  0.44515226298E+02  0.16342186384E+04  0.18239190483E+04  0.79971338176E+03 0.  0.
         22    1    5    5    0    0  0.18575138325E+03  0.18225490489E+03  0.16502165547E+04  0.16706092015E+04  0.00000000000E+00 0.  1.
         22    1    5    5    0    0 -0.65389270655E+02 -0.13773967859E+03 -0.15997916333E+02  0.15330984672E+03  0.00000000000E+00 0.  1.
          5    1    4    4  502    0 -0.32830553233E+02  0.41366915442E+02  0.21847076976E+03  0.22481244217E+03  0.47000000000E+01 0.  1.
         -5    1    4    4    0  502 -0.87531559359E+02 -0.85882141740E+02  0.32895340232E+03  0.35109820144E+03  0.47000000000E+01 0.  1.
<mgrwt>
<rscale>  0 0.99980858E+03</rscale>
<asrwt>0</asrwt>
<pdfrwt beam="1">  1        2 0.35242093E+00 0.99980858E+03</pdfrwt>
<pdfrwt beam="2">  1       -2 0.16783608E-01 0.99980858E+03</pdfrwt>
<totfact> 0.15371099E+02</totfact>
</mgrwt>
</event>
<event>
 9    1  0.4488205E-036  0.1000465E+04  0.7818608E-02  0.8680595E-01
          2   -1    0    0  501    0  0.00000000000E+00  0.00000000000E+00  0.31318351046E+03  0.31318351046E+03  0.00000000000E+00 0. -1.
         -2   -1    0    0    0  501 -0.00000000000E+00 -0.00000000000E+00 -0.79899654026E+03  0.79899654026E+03  0.00000000000E+00 0. -1.
         36    2    1    2    0    0 -0.10658141036E-13  0.14210854715E-13 -0.48581302981E+03  0.11121800507E+04  0.10004649745E+04 0.  0.
         25    2    3    3    0    0 -0.20752434477E+02 -0.76347063714E+02  0.38212553451E+02  0.15252308055E+03  0.12467378707E+03 0.  0.
         35    2    3    3    0    0  0.20752434477E+02  0.76347063714E+02 -0.52402558326E+03  0.95965697018E+03  0.80004946774E+03 0.  0.
         22    1    5    5    0    0 -0.38120430839E+03  0.94705902185E+02 -0.18819371378E+03  0.43554885668E+03  0.00000000000E+00 0.  1.
         22    1    5    5    0    0  0.40195674287E+03 -0.18358838471E+02 -0.33583186947E+03  0.52410811350E+03  0.00000000000E+00 0.  1.
          5    1    4    4  502    0 -0.25569551357E+02  0.14721497572E+02 -0.27033671199E+02  0.40291858059E+02  0.47000000000E+01 0.  1.
         -5    1    4    4    0  502  0.48171168801E+01 -0.91068561286E+02  0.65246224650E+02  0.11223122249E+03  0.47000000000E+01 0.  1.
<mgrwt>
<rscale>  0 0.10004650E+04</rscale>
<asrwt>0</asrwt>
<pdfrwt beam="1">  1        2 0.48182078E-01 0.10004650E+04</pdfrwt>
<pdfrwt beam="2">  1       -2 0.12292255E+00 0.10004650E+04</pdfrwt>
<totfact> 0.60839034E+01</totfact>
</mgrwt>
</event>
<event>
 9    1  0.4488205E-036  0.1003670E+04  0.7818608E-02  0.8677551E-01
         -2   -1    0    0    0  501 -0.00000000000E+00  0.00000000000E+00  0.56371264052E+03  0.56371264052E+03  0.00000000000E+00 0. -1.
          2   -1    0    0  501    0  0.00000000000E+00 -0.00000000000E+00 -0.44674916883E+03  0.44674916883E+03  0.00000000000E+00 0. -1.
         36    2    1    2    0    0  0.71054273576E-14 -0.14210854715E-13  0.11696347169E+03  0.10104618093E+04  0.10036695743E+04 0.  0.
         25    2    3    3    0    0  0.32788689858E+02 -0.12480497427E+03 -0.40640135136E+02  0.18406065383E+03  0.12480113748E+03 0.  0.
         35    2    3    3    0    0 -0.32788689858E+02  0.12480497427E+03  0.15760360682E+03  0.82640115552E+03  0.80090485900E+03 0.  0.
         22    1    5    5    0    0 -0.60968757116E+01 -0.47127064508E+02  0.46808524545E+03  0.47049115731E+03  0.00000000000E+00 0. -1.
         22    1    5    5    0    0 -0.26691814147E+02  0.17193203878E+03 -0.31048163862E+03  0.35590999821E+03  0.00000000000E+00 0. -1.
          5    1    4    4  502    0 -0.20465065509E+02 -0.12272595005E+03 -0.39221164561E+02  0.13054067363E+03  0.47000000000E+01 0.  1.
         -5    1    4    4    0  502  0.53253755367E+02 -0.20790242206E+01 -0.14189705751E+01  0.53519980193E+02  0.47000000000E+01 0.  1.
<mgrwt>
<rscale>  0 0.10036696E+04</rscale>
<asrwt>0</asrwt>
<pdfrwt beam="1">  1        2 0.68730641E-01 0.10036696E+04</pdfrwt>
<pdfrwt beam="2">  1       -2 0.86725022E-01 0.10036696E+04</pdfrwt>
<totfact> 0.96654170E+01</totfact>
</mgrwt>
</event>
<event>
 9    1  0.4488205E-036  0.9995912E+03  0.7818608E-02  0.8681427E-01
          2   -1    0    0  501    0  0.00000000000E+00  0.00000000000E+00  0.18756904384E+04  0.18756904384E+04  0.00000000000E+00 0. -1.
         -2   -1    0    0    0  501 -0.00000000000E+00 -0.00000000000E+00 -0.13317530068E+03  0.13317530068E+03  0.00000000000E+00 0. -1.
         36    2    1    2    0    0  0.00000000000E+00  0.14210854715E-13  0.17425151377E+04  0.20088657391E+04  0.99959119267E+03 0.  0.
         25    2    3    3    0    0 -0.13406409314E+03  0.31452614406E+02  0.31093427363E+03  0.36330855290E+03  0.12786920689E+03 0.  0.
         35    2    3    3    0    0  0.13406409314E+03 -0.31452614406E+02  0.14315808641E+04  0.16455571862E+04  0.79967007855E+03 0.  0.
         22    1    5    5    0    0 -0.69875495233E+02 -0.23790113832E+03  0.13060469381E+04  0.13293750941E+04  0.00000000000E+00 0.  1.
         22    1    5    5    0    0  0.20393958838E+03  0.20644852392E+03  0.12553392597E+03  0.31618209201E+03  0.00000000000E+00 0.  1.
          5    1    4    4  502    0  0.22079863851E+02  0.38783342532E+01  0.14528138500E+02  0.27124134503E+02  0.47000000000E+01 0.  1.
         -5    1    4    4    0  502 -0.15614395700E+03  0.27574280153E+02  0.29640613513E+03  0.33618441840E+03  0.47000000000E+01 0.  1.
<mgrwt>
<rscale>  0 0.99959119E+03</rscale>
<asrwt>0</asrwt>
<pdfrwt beam="1">  1        2 0.28856774E+00 0.99959119E+03</pdfrwt>
<pdfrwt beam="2">  1       -2 0.20488509E-01 0.99959119E+03</pdfrwt>
<totfact> 0.18913176E+02</totfact>
</mgrwt>
</event>
<event>
 9    1  0.4488205E-036  0.9998973E+03  0.7818608E-02  0.8681136E-01
          1   -1    0    0  501    0  0.00000000000E+00  0.00000000000E+00  0.59931059592E+03  0.59931059592E+03  0.00000000000E+00 0.  1.
         -1   -1    0    0    0  501 -0.00000000000E+00 -0.00000000000E+00 -0.41706028348E+03  0.41706028348E+03  0.00000000000E+00 0.  1.
         36    2    1    2    0    0  0.00000000000E+00 -0.14210854715E-13  0.18225031244E+03  0.10163708794E+04  0.99989728877E+03 0.  0.
         25    2    3    3    0    0  0.54861832953E+02 -0.13176156888E+02 -0.95397550236E+02  0.16755216709E+03  0.12565669215E+03 0.  0.
         35    2    3    3    0    0 -0.54861832953E+02  0.13176156888E+02  0.27764786268E+03  0.84881871230E+03  0.80013838733E+03 0.  0.
         22    1    5    5    0    0 -0.19701484157E+03  0.13505264922E+03  0.50239744708E+03  0.55628882848E+03  0.00000000000E+00 0.  1.
         22    1    5    5    0    0  0.14215300861E+03 -0.12187649233E+03 -0.22474958440E+03  0.29252988382E+03  0.00000000000E+00 0.  1.
          5    1    4    4  502    0  0.67843865839E+02 -0.48772085607E+02 -0.24788047991E+02  0.87281405750E+02  0.47000000000E+01 0.  1.
         -5    1    4    4    0  502 -0.12982032886E+02  0.35595928718E+02 -0.70609502245E+02  0.80270761342E+02  0.47000000000E+01 0.  1.
<mgrwt>
<rscale>  0 0.99989729E+03</rscale>
<asrwt>0</asrwt>
<pdfrwt beam="1">  1        1 0.92201631E-01 0.99989729E+03</pdfrwt>
<pdfrwt beam="2">  1       -1 0.64163120E-01 0.99989729E+03</pdfrwt>
<totfact> 0.98355002E+01</totfact>
</mgrwt>
</event>
<event>
 9    1  0.4488205E-036  0.9997277E+03  0.7818608E-02  0.8681297E-01
          2   -1    0    0  501    0  0.00000000000E+00  0.00000000000E+00  0.70473631064E+03  0.70473631064E+03  0.00000000000E+00 0. -1.
         -2   -1    0    0    0  501 -0.00000000000E+00 -0.00000000000E+00 -0.35454946745E+03  0.35454946745E+03  0.00000000000E+00 0. -1.
         36    2    1    2    0    0  0.00000000000E+00  0.71054273576E-14  0.35018684319E+03  0.10592857781E+04  0.99972773020E+03 0.  0.
         25    2    3    3    0    0  0.81493728564E+02  0.72513084506E+01  0.18391104678E+03  0.23767200131E+03  0.12637601754E+03 0.  0.
         35    2    3    3    0    0 -0.81493728564E+02 -0.72513084506E+01  0.16627579641E+03  0.82161377678E+03  0.80044222056E+03 0.  0.
         22    1    5    5    0    0 -0.11883735964E+03  0.34648052910E+03 -0.97190045064E+02  0.37896830996E+03  0.00000000000E+00 0. -1.
         22    1    5    5    0    0  0.37343631077E+02 -0.35373183755E+03  0.26346584147E+03  0.44264546682E+03  0.00000000000E+00 0. -1.
          5    1    4    4  502    0 -0.75043987499E+01  0.50420987305E+02  0.70238562288E+02  0.86914541900E+02  0.47000000000E+01 0.  1.
         -5    1    4    4    0  502  0.88998127314E+02 -0.43169678854E+02  0.11367248449E+03  0.15075745941E+03  0.47000000000E+01 0.  1.
<mgrwt>
<rscale>  0 0.99972773E+03</rscale>
<asrwt>0</asrwt>
<pdfrwt beam="1">  1        2 0.10842097E+00 0.99972773E+03</pdfrwt>
<pdfrwt beam="2">  1       -2 0.54546072E-01 0.99972773E+03</pdfrwt>
<totfact> 0.15550929E+02</totfact>
</mgrwt>
</event>
<event>
 9    1  0.4488205E-036  0.1001946E+04  0.7818608E-02  0.8679187E-01
         -1   -1    0    0    0  501 -0.00000000000E+00  0.00000000000E+00  0.23293011530E+03  0.23293011530E+03  0.00000000000E+00 0.  1.
          1   -1    0    0  501    0  0.00000000000E+00 -0.00000000000E+00 -0.10774649306E+04  0.10774649306E+04  0.00000000000E+00 0.  1.
         36    2    1    2    0    0 -0.14210854715E-13 -0.14210854715E-13 -0.84453481527E+03  0.13103950459E+04  0.10019461672E+04 0.  0.
         25    2    3    3    0    0  0.95677654170E+02  0.11670930340E+02 -0.29852952798E+03  0.33731709202E+03  0.12398595635E+03 0.  0.
         35    2    3    3    0    0 -0.95677654170E+02 -0.11670930340E+02 -0.54600528729E+03  0.97307795385E+03  0.79966774751E+03 0.  0.
         22    1    5    5    0    0 -0.36931948231E+03 -0.11188945074E+03 -0.56141872613E+03  0.68125407540E+03  0.00000000000E+00 0. -1.
         22    1    5    5    0    0  0.27364182814E+03  0.10021852040E+03  0.15413438840E+02  0.29182387845E+03  0.00000000000E+00 0. -1.
          5    1    4    4  502    0 -0.10694026262E+02 -0.36653749021E+02 -0.96569946615E+02  0.10395048872E+03  0.47000000000E+01 0.  1.
         -5    1    4    4    0  502  0.10637168043E+03  0.48324679361E+02 -0.20195958136E+03  0.23336660331E+03  0.47000000000E+01 0.  1.
<mgrwt>
<rscale>  0 0.10019462E+04</rscale>
<asrwt>0</asrwt>
<pdfrwt beam="1">  1        1 0.16576383E+00 0.10019462E+04</pdfrwt>
<pdfrwt beam="2">  1       -1 0.35835404E-01 0.10019462E+04</pdfrwt>
<totfact> 0.10912312E+02</totfact>
</mgrwt>
</event>
<event>
 9    1  0.4488205E-036  0.1000348E+04  0.7818608E-02  0.8680707E-01
         -2   -1    0    0    0  501 -0.00000000000E+00  0.00000000000E+00  0.55882809571E+03  0.55882809571E+03  0.00000000000E+00 0.  1.
          2   -1    0    0  501    0  0.00000000000E+00 -0.00000000000E+00 -0.44767584997E+03  0.44767584997E+03  0.00000000000E+00 0.  1.
         36    2    1    2    0    0  0.00000000000E+00  0.28421709430E-13  0.11115224574E+03  0.10065039457E+04  0.10003476250E+04 0.  0.
         25    2    3    3    0    0  0.10126127538E+03 -0.92560081128E+02 -0.13013525512E+02  0.18596046308E+03  0.12486283464E+03 0.  0.
         35    2    3    3    0    0 -0.10126127538E+03  0.92560081128E+02  0.12416577126E+03  0.82054348259E+03  0.79940806448E+03 0.  0.
         22    1    5    5    0    0 -0.55626361981E+02 -0.25799615653E+03 -0.20755757684E+03  0.33576250034E+03  0.00000000000E+00 0. -1.
         22    1    5    5    0    0 -0.45634913399E+02  0.35055623766E+03  0.33172334810E+03  0.48478098225E+03  0.00000000000E+00 0. -1.
          5    1    4    4  502    0  0.11706040340E+03 -0.99035531078E+02 -0.35379106113E+02  0.15743235249E+03  0.47000000000E+01 0.  1.
         -5    1    4    4    0  502 -0.15799128024E+02  0.64754499509E+01  0.22365580602E+02  0.28528110593E+02  0.47000000000E+01 0.  1.
<mgrwt>
<rscale>  0 0.10003476E+04</rscale>
<asrwt>0</asrwt>
<pdfrwt beam="1">  1        2 0.68873207E-01 0.10003476E+04</pdfrwt>
<pdfrwt beam="2">  1       -2 0.85973554E-01 0.10003476E+04</pdfrwt>
<totfact> 0.98427967E+01</totfact>
</mgrwt>
</event>
<event>
 9    1  0.4488205E-036  0.1000139E+04  0.7818608E-02  0.8680905E-01
          2   -1    0    0  501    0  0.00000000000E+00  0.00000000000E+00  0.14930212354E+04  0.14930212354E+04  0.00000000000E+00 0.  1.
         -2   -1    0    0    0  501 -0.00000000000E+00 -0.00000000000E+00 -0.16749239476E+03  0.16749239476E+03  0.00000000000E+00 0.  1.
         36    2    1    2    0    0 -0.14210854715E-13  0.28421709430E-13  0.13255288407E+04  0.16605136302E+04  0.10001393946E+04 0.  0.
         25    2    3    3    0    0 -0.11167249810E+03  0.79953506576E+02  0.29259615139E+03  0.34671070175E+03  0.12542923446E+03 0.  0.
         35    2    3    3    0    0  0.11167249810E+03 -0.79953506576E+02  0.10329326893E+04  0.13138029284E+04  0.80016553544E+03 0.  0.
         22    1    5    5    0    0  0.30267279562E+03 -0.32964539372E+03  0.81980181800E+03  0.93399781991E+03  0.00000000000E+00 0. -1.
         22    1    5    5    0    0 -0.19100029752E+03  0.24969188714E+03  0.21313087126E+03  0.37980510850E+03  0.00000000000E+00 0. -1.
          5    1    4    4  502    0 -0.12854918728E+03  0.97102341136E+02  0.24677201581E+03  0.29474103207E+03  0.47000000000E+01 0. -1.
         -5    1    4    4    0  502  0.16876689180E+02 -0.17148834560E+02  0.45824135584E+02  0.51969669679E+02  0.47000000000E+01 0. -1.
<mgrwt>
<rscale>  0 0.10001394E+04</rscale>
<asrwt>0</asrwt>
<pdfrwt beam="1">  1        2 0.22969557E+00 0.10001394E+04</pdfrwt>
<pdfrwt beam="2">  1       -2 0.25768062E-01 0.10001394E+04</pdfrwt>
<totfact> 0.20784085E+02</totfact>
</mgrwt>
</event>
<event>
 9    1  0.4488205E-036  0.1000986E+04  0.7818608E-02  0.8680100E-01
          2   -1    0    0  501    0  0.00000000000E+00  0.00000000000E+00  0.13278811977E+04  0.13278811977E+04  0.00000000000E+00 0. -1.
         -2   -1    0    0    0  501 -0.00000000000E+00 -0.00000000000E+00 -0.18864112685E+03  0.18864112685E+03  0.00000000000E+00 0. -1.
         36    2    1    2    0    0 -0.14210854715E-13 -0.28421709430E-13  0.11392400708E+04  0.15165223245E+04  0.10009855253E+04 0.  0.
         25    2    3    3    0    0  0.87496571930E+02  0.98854972609E+02  0.27613991806E+03  0.33063093381E+03  0.12504241014E+03 0.  0.
         35    2    3    3    0    0 -0.87496571930E+02 -0.98854972609E+02  0.86310015278E+03  0.11858913907E+04  0.80247651753E+03 0.  0.
         22    1    5    5    0    0  0.25162645013E+02 -0.34710781110E+03  0.80556801066E+02  0.35722036536E+03  0.00000000000E+00 0. -1.
         22    1    5    5    0    0 -0.11265921694E+03  0.24825283849E+03  0.78254335172E+03  0.82867102538E+03  0.00000000000E+00 0. -1.
          5    1    4    4  502    0  0.89653620936E+02  0.10184452525E+03  0.28741730899E+03  0.31786927907E+03  0.47000000000E+01 0. -1.
         -5    1    4    4    0  502 -0.21570490063E+01 -0.29895526422E+01 -0.11277390929E+02  0.12761654736E+02  0.47000000000E+01 0. -1.
<mgrwt>
<rscale>  0 0.10009855E+04</rscale>
<asrwt>0</asrwt>
<pdfrwt beam="1">  1        2 0.20428941E+00 0.10009855E+04</pdfrwt>
<pdfrwt beam="2">  1       -2 0.29021713E-01 0.10009855E+04</pdfrwt>
<totfact> 0.20855264E+02</totfact>
</mgrwt>
</event>
<event>
 9    1  0.4488205E-036  0.9995833E+03  0.7818608E-02  0.8681435E-01
          2   -1    0    0  501    0  0.00000000000E+00  0.00000000000E+00  0.20618403533E+04  0.20618403533E+04  0.00000000000E+00 0.  1.
         -2   -1    0    0    0  501 -0.00000000000E+00 -0.00000000000E+00 -0.12114987992E+03  0.12114987992E+03  0.00000000000E+00 0.  1.
         36    2    1    2    0    0  0.21316282073E-13  0.35527136788E-14  0.19406904734E+04  0.21829902332E+04  0.99958333562E+03 0.  0.
         25    2    3    3    0    0  0.60891092223E+02  0.15146785362E+02  0.69896885684E+02  0.14749230239E+03  0.11371567358E+03 0.  0.
         35    2    3    3    0    0 -0.60891092223E+02 -0.15146785362E+02  0.18707935877E+04  0.20354979308E+04  0.79965369280E+03 0.  0.
         22    1    5    5    0    0 -0.28360856210E+03 -0.68847393851E+02  0.17544334719E+04  0.17785417025E+04  0.00000000000E+00 0. -1.
         22    1    5    5    0    0  0.22271746987E+03  0.53700608489E+02  0.11636011580E+03  0.25695622835E+03  0.00000000000E+00 0. -1.
          5    1    4    4  502    0  0.82925479773E+02  0.10658529134E+02  0.11231732261E+02  0.84489533366E+02  0.47000000000E+01 0.  1.
         -5    1    4    4    0  502 -0.22034387550E+02  0.44882562275E+01  0.58665153422E+02  0.63002769024E+02  0.47000000000E+01 0.  1.
<mgrwt>
<rscale>  0 0.99958334E+03</rscale>
<asrwt>0</asrwt>
<pdfrwt beam="1">  1        2 0.31720618E+00 0.99958334E+03</pdfrwt>
<pdfrwt beam="2">  1       -2 0.18638445E-01 0.99958334E+03</pdfrwt>
<totfact> 0.17450382E+02</totfact>
</mgrwt>
</event>
<event>
 9    1  0.4488205E-036  0.1000699E+04  0.7818608E-02  0.8680373E-01
         -2   -1    0    0    0  501 -0.00000000000E+00  0.00000000000E+00  0.12096310767E+03  0.12096310767E+03  0.00000000000E+00 0. -1.
          2   -1    0    0  501    0  0.00000000000E+00 -0.00000000000E+00 -0.20696349244E+04  0.20696349244E+04  0.00000000000E+00 0. -1.
         36    2    1    2    0    0  0.28421709430E-13  0.14210854715E-13 -0.19486718167E+04  0.21905980321E+04  0.10006987003E+04 0.  0.
         25    2    3    3    0    0 -0.81617001535E+02 -0.79629364188E+02 -0.18357648565E+03  0.24976041527E+03  0.12521089557E+03 0.  0.
         35    2    3    3    0    0  0.81617001535E+02  0.79629364188E+02 -0.17650953311E+04  0.19408376168E+04  0.79892863036E+03 0.  0.
         22    1    5    5    0    0  0.21499474859E+03  0.20428052465E+03 -0.17296237537E+04  0.17548651242E+04  0.00000000000E+00 0.  1.
         22    1    5    5    0    0 -0.13337774706E+03 -0.12465116046E+03 -0.35471577387E+02  0.18597249264E+03  0.00000000000E+00 0.  1.
          5    1    4    4  502    0  0.13292478408E+01 -0.68613695208E+02 -0.13840314412E+03  0.15455460644E+03  0.47000000000E+01 0.  1.
         -5    1    4    4    0  502 -0.82946249376E+02 -0.11015668980E+02 -0.45173341531E+02  0.95205808823E+02  0.47000000000E+01 0.  1.
<mgrwt>
<rscale>  0 0.10006987E+04</rscale>
<asrwt>0</asrwt>
<pdfrwt beam="1">  1        2 0.31840537E+00 0.10006987E+04</pdfrwt>
<pdfrwt beam="2">  1       -2 0.18609709E-01 0.10006987E+04</pdfrwt>
<totfact> 0.17317567E+02</totfact>
</mgrwt>
</event>
<event>
 9    1  0.4488205E-036  0.9999258E+03  0.7818608E-02  0.8681109E-01
          2   -1    0    0  501    0  0.00000000000E+00  0.00000000000E+00  0.67462776176E+03  0.67462776176E+03  0.00000000000E+00 0. -1.
         -2   -1    0    0    0  501 -0.00000000000E+00 -0.00000000000E+00 -0.37051975317E+03  0.37051975317E+03  0.00000000000E+00 0. -1.
         36    2    1    2    0    0  0.14210854715E-13  0.10658141036E-13  0.30410800859E+03  0.10451475149E+04  0.99992582079E+03 0.  0.
         25    2    3    3    0    0 -0.27192204808E+02 -0.26264922720E+02  0.19848248417E+03  0.23762705613E+03  0.12506821784E+03 0.  0.
         35    2    3    3    0    0  0.27192204808E+02  0.26264922720E+02  0.10562552442E+03  0.80752045880E+03  0.79968948836E+03 0.  0.
         22    1    5    5    0    0  0.24829787370E+03 -0.23059139013E+03 -0.16208500676E+03  0.37562717248E+03  0.00000000000E+00 0.  1.
         22    1    5    5    0    0 -0.22110566889E+03  0.25685631285E+03  0.26771053118E+03  0.43189328632E+03  0.00000000000E+00 0.  1.
          5    1    4    4  502    0 -0.39705607245E+02 -0.83172612880E+01  0.30880677681E+01  0.40955320101E+02  0.47000000000E+01 0. -1.
         -5    1    4    4    0  502  0.12513402437E+02 -0.17947661432E+02  0.19539441640E+03  0.19667173603E+03  0.47000000000E+01 0. -1.
<mgrwt>
<rscale>  0 0.99992582E+03</rscale>
<asrwt>0</asrwt>
<pdfrwt beam="1">  1        2 0.10378889E+00 0.99992582E+03</pdfrwt>
<pdfrwt beam="2">  1       -2 0.57003039E-01 0.99992582E+03</pdfrwt>
<totfact> 0.14986114E+02</totfact>
</mgrwt>
</event>
<event>
 9    1  0.4488205E-036  0.1000204E+04  0.7818608E-02  0.8680844E-01
         -2   -1    0    0    0  501 -0.00000000000E+00  0.00000000000E+00  0.12215012403E+03  0.12215012403E+03  0.00000000000E+00 0. -1.
          2   -1    0    0  501    0  0.00000000000E+00 -0.00000000000E+00 -0.20474968049E+04  0.20474968049E+04  0.00000000000E+00 0. -1.
         36    2    1    2    0    0 -0.46185277824E-13  0.00000000000E+00 -0.19253466808E+04  0.21696469289E+04  0.10002039565E+04 0.  0.
         25    2    3    3    0    0 -0.14656631614E+02 -0.67084190979E+02 -0.63283221193E+03  0.64879636843E+03  0.12547913652E+03 0.  0.
         35    2    3    3    0    0  0.14656631614E+02  0.67084190979E+02 -0.12925144689E+04  0.15208505605E+04  0.79854722428E+03 0.  0.
         22    1    5    5    0    0  0.29665271494E+03 -0.24104635519E+03 -0.66516451254E+03  0.76717012935E+03  0.00000000000E+00 0. -1.
         22    1    5    5    0    0 -0.28199608332E+03  0.30813054617E+03 -0.62734995637E+03  0.75368043111E+03  0.00000000000E+00 0. -1.
          5    1    4    4  502    0 -0.99390916194E+01 -0.59749929004E+02 -0.10834660276E+03  0.12421721253E+03  0.47000000000E+01 0.  1.
         -5    1    4    4    0  502 -0.47175399950E+01 -0.73342619744E+01 -0.52448560917E+03  0.52457915590E+03  0.47000000000E+01 0.  1.
<mgrwt>
<rscale>  0 0.10002040E+04</rscale>
<asrwt>0</asrwt>
<pdfrwt beam="1">  1        2 0.31499947E+00 0.10002040E+04</pdfrwt>
<pdfrwt beam="2">  1       -2 0.18792329E-01 0.10002040E+04</pdfrwt>
<totfact> 0.17533828E+02</totfact>
</mgrwt>
</event>
<event>
 9    1  0.4488205E-036  0.9994509E+03  0.7818608E-02  0.8681561E-01
         -1   -1    0    0    0  501 -0.00000000000E+00  0.00000000000E+00  0.16806526135E+03  0.16806526135E+03  0.00000000000E+00 0.  1.
          1   -1    0    0  501    0  0.00000000000E+00 -0.00000000000E+00 -0.14858841442E+04  0.14858841442E+04  0.00000000000E+00 0.  1.
         36    2    1    2    0    0  0.14210854715E-13  0.00000000000E+00 -0.13178188829E+04  0.16539494056E+04  0.99945086329E+03 0.  0.
         25    2    3    3    0    0  0.46204078751E+02 -0.92100847120E+02 -0.40356194979E+03  0.43473753163E+03  0.12456761680E+03 0.  0.
         35    2    3    3    0    0 -0.46204078751E+02  0.92100847120E+02 -0.91425693307E+03  0.12192118739E+04  0.79999654433E+03 0.  0.
         22    1    5    5    0    0  0.14942234444E+03  0.36512761518E+03 -0.22924731291E+03  0.45628888094E+03  0.00000000000E+00 0. -1.
         22    1    5    5    0    0 -0.19562642319E+03 -0.27302676806E+03 -0.68500962015E+03  0.76292299299E+03  0.00000000000E+00 0. -1.
          5    1    4    4  502    0  0.73192148997E+02 -0.98491044666E+01 -0.16237128347E+03  0.17843939932E+03  0.47000000000E+01 0. -1.
         -5    1    4    4    0  502 -0.26988070247E+02 -0.82251742654E+02 -0.24119066632E+03  0.25629813231E+03  0.47000000000E+01 0. -1.
<mgrwt>
<rscale>  0 0.99945086E+03</rscale>
<asrwt>0</asrwt>
<pdfrwt beam="1">  1        1 0.22859755E+00 0.99945086E+03</pdfrwt>
<pdfrwt beam="2">  1       -1 0.25856195E-01 0.99945086E+03</pdfrwt>
<totfact> 0.95580048E+01</totfact>
</mgrwt>
</event>
<event>
 9    1  0.4488205E-036  0.9999702E+03  0.7818608E-02  0.8681066E-01
          2   -1    0    0  501    0  0.00000000000E+00  0.00000000000E+00  0.14160862727E+04  0.14160862727E+04  0.00000000000E+00 0. -1.
         -2   -1    0    0    0  501 -0.00000000000E+00 -0.00000000000E+00 -0.17653239552E+03  0.17653239552E+03  0.00000000000E+00 0. -1.
         36    2    1    2    0    0  0.00000000000E+00  0.00000000000E+00  0.12395538772E+04  0.15926186682E+04  0.99997020351E+03 0.  0.
         25    2    3    3    0    0 -0.72155267972E+02  0.12226381352E+03  0.21457884337E+03  0.28572670091E+03  0.12426119587E+03 0.  0.
         35    2    3    3    0    0  0.72155267972E+02 -0.12226381352E+03  0.10249750338E+04  0.13068919673E+04  0.79827186564E+03 0.  0.
         22    1    5    5    0    0 -0.23258915885E+03  0.10024375432E+02  0.35867815505E+01  0.23283270801E+03  0.00000000000E+00 0.  1.
         22    1    5    5    0    0  0.30474442682E+03 -0.13228818895E+03  0.10213882522E+04  0.10740592593E+04  0.00000000000E+00 0.  1.
          5    1    4    4  502    0 -0.96096748048E+02  0.70072157618E+02  0.18745083837E+03  0.22204638944E+03  0.47000000000E+01 0.  1.
         -5    1    4    4    0  502  0.23941480076E+02  0.52191655899E+02  0.27128005003E+02  0.63680311472E+02  0.47000000000E+01 0.  1.
<mgrwt>
<rscale>  0 0.99997020E+03</rscale>
<asrwt>0</asrwt>
<pdfrwt beam="1">  1        2 0.21785942E+00 0.99997020E+03</pdfrwt>
<pdfrwt beam="2">  1       -2 0.27158831E-01 0.99997020E+03</pdfrwt>
<totfact> 0.20923202E+02</totfact>
</mgrwt>
</event>
<event>
 9    1  0.4488205E-036  0.1001283E+04  0.7818608E-02  0.8679817E-01
          2   -1    0    0  501    0  0.00000000000E+00  0.00000000000E+00  0.18519955384E+04  0.18519955384E+04  0.00000000000E+00 0.  1.
         -2   -1    0    0    0  501 -0.00000000000E+00 -0.00000000000E+00 -0.13533602840E+03  0.13533602840E+03  0.00000000000E+00 0.  1.
         36    2    1    2    0    0 -0.71054273576E-14  0.28421709430E-13  0.17166595100E+04  0.19873315668E+04  0.10012826190E+04 0.  0.
         25    2    3    3    0    0  0.18219622753E+02  0.12711818219E+03  0.21600417583E+03  0.28037093877E+03  0.12433451826E+03 0.  0.
         35    2    3    3    0    0 -0.18219622753E+02 -0.12711818219E+03  0.15006553341E+04  0.17069606280E+04  0.80327900928E+03 0.  0.
         22    1    5    5    0    0 -0.94026177623E+01  0.23521581423E+03  0.12358990223E+04  0.12581181509E+04  0.00000000000E+00 0. -1.
         22    1    5    5    0    0 -0.88170049905E+01 -0.36233399642E+03  0.26475631188E+03  0.44884247706E+03  0.00000000000E+00 0. -1.
          5    1    4    4  502    0  0.51484320857E+02  0.54762951654E+02  0.17534264766E+03  0.19083173283E+03  0.47000000000E+01 0. -1.
         -5    1    4    4    0  502 -0.33264698105E+02  0.72355230536E+02  0.40661528174E+02  0.89539205935E+02  0.47000000000E+01 0. -1.
<mgrwt>
<rscale>  0 0.10012826E+04</rscale>
<asrwt>0</asrwt>
<pdfrwt beam="1">  1        2 0.28492237E+00 0.10012826E+04</pdfrwt>
<pdfrwt beam="2">  1       -2 0.20820929E-01 0.10012826E+04</pdfrwt>
<totfact> 0.18968119E+02</totfact>
</mgrwt>
</event>
<event>
 9    1  0.4488205E-036  0.9997918E+03  0.7818608E-02  0.8681236E-01
          2   -1    0    0  501    0  0.00000000000E+00  0.00000000000E+00  0.11080202583E+04  0.11080202583E+04  0.00000000000E+00 0.  1.
         -2   -1    0    0    0  501 -0.00000000000E+00 -0.00000000000E+00 -0.22553372209E+03  0.22553372209E+03  0.00000000000E+00 0.  1.
         36    2    1    2    0    0  0.71054273576E-14 -0.28421709430E-13  0.88248653625E+03  0.13335539804E+04  0.99979184435E+03 0.  0.
         25    2    3    3    0    0 -0.18817181322E+02  0.12298704832E+03  0.25492481984E+03  0.30961423469E+03  0.12407421240E+03 0.  0.
         35    2    3    3    0    0  0.18817181322E+02 -0.12298704832E+03  0.62756171641E+03  0.10239397457E+04  0.79946169053E+03 0.  0.
         22    1    5    5    0    0  0.23149705605E+03 -0.29806727263E+03  0.45699646716E+02  0.38016239120E+03  0.00000000000E+00 0.  1.
         22    1    5    5    0    0 -0.21267987473E+03  0.17508022431E+03  0.58186206970E+03  0.64377735453E+03  0.00000000000E+00 0.  1.
          5    1    4    4  502    0 -0.71664034658E+02  0.75663219879E+02  0.16034397527E+03  0.19129280465E+03  0.47000000000E+01 0.  1.
         -5    1    4    4    0  502  0.52846853336E+02  0.47323828444E+02  0.94580844571E+02  0.11832143004E+03  0.47000000000E+01 0.  1.
<mgrwt>
<rscale>  0 0.99979184E+03</rscale>
<asrwt>0</asrwt>
<pdfrwt beam="1">  1        2 0.17046465E+00 0.99979184E+03</pdfrwt>
<pdfrwt beam="2">  1       -2 0.34697496E-01 0.99979184E+03</pdfrwt>
<totfact> 0.20242739E+02</totfact>
</mgrwt>
</event>
<event>
 9    1  0.4488205E-036  0.1000161E+04  0.7818608E-02  0.8680884E-01
          3   -1    0    0  501    0  0.00000000000E+00  0.00000000000E+00  0.19845429926E+03  0.19845429926E+03  0.00000000000E+00 0. -1.
         -3   -1    0    0    0  501 -0.00000000000E+00 -0.00000000000E+00 -0.12601426314E+04  0.12601426314E+04  0.00000000000E+00 0. -1.
         36    2    1    2    0    0 -0.14210854715E-13  0.00000000000E+00 -0.10616883322E+04  0.14585969307E+04  0.10001614327E+04 0.  0.
         25    2    3    3    0    0  0.10542860409E+03 -0.33156422028E+02 -0.65494838577E+02  0.17787154719E+03  0.12302103290E+03 0.  0.
         35    2    3    3    0    0 -0.10542860409E+03  0.33156422028E+02 -0.99619349358E+03  0.12807253835E+04  0.79727127905E+03 0.  0.
         22    1    5    5    0    0 -0.42259819114E+03  0.24294883759E+02 -0.30982907314E+03  0.52456984959E+03  0.00000000000E+00 0.  1.
         22    1    5    5    0    0  0.31716958705E+03  0.88615382691E+01 -0.68636442044E+03  0.75615553390E+03  0.00000000000E+00 0.  1.
          5    1    4    4  502    0  0.95354822519E+02  0.13056133448E+02  0.72185972925E+00  0.96361900561E+02  0.47000000000E+01 0.  1.
         -5    1    4    4    0  502  0.10073781575E+02 -0.46212555476E+02 -0.66216698306E+02  0.81509646628E+02  0.47000000000E+01 0.  1.
<mgrwt>
<rscale>  0 0.10001614E+04</rscale>
<asrwt>0</asrwt>
<pdfrwt beam="1">  1        3 0.30531431E-01 0.10001614E+04</pdfrwt>
<pdfrwt beam="2">  1       -3 0.19386810E+00 0.10001614E+04</pdfrwt>
<totfact> 0.47311439E+00</totfact>
</mgrwt>
</event>
<event>
 9    1  0.4488205E-036  0.1001738E+04  0.7818608E-02  0.8679385E-01
         -2   -1    0    0    0  501 -0.00000000000E+00  0.00000000000E+00  0.27319670030E+03  0.27319670030E+03  0.00000000000E+00 0.  1.
          2   -1    0    0  501    0  0.00000000000E+00 -0.00000000000E+00 -0.91827511345E+03  0.91827511345E+03  0.00000000000E+00 0.  1.
         36    2    1    2    0    0 -0.28421709430E-13  0.00000000000E+00 -0.64507841315E+03  0.11914718138E+04  0.10017379517E+04 0.  0.
         25    2    3    3    0    0 -0.11306227867E+03 -0.27290688840E+02 -0.22072462672E+03  0.27891982465E+03  0.12469581863E+03 0.  0.
         35    2    3    3    0    0  0.11306227867E+03  0.27290688840E+02 -0.42435378643E+03  0.91255198910E+03  0.79946678243E+03 0.  0.
         22    1    5    5    0    0 -0.25403073298E+03 -0.22515025146E+03 -0.29209120950E+03  0.44781862813E+03  0.00000000000E+00 0.  1.
         22    1    5    5    0    0  0.36709301165E+03  0.25244094030E+03 -0.13226257692E+03  0.46473336097E+03  0.00000000000E+00 0.  1.
          5    1    4    4  502    0  0.12201625411E+02 -0.32398020375E+02 -0.15134352563E+02  0.38074269716E+02  0.47000000000E+01 0. -1.
         -5    1    4    4    0  502 -0.12526390409E+03  0.51073315351E+01 -0.20559027416E+03  0.24084555493E+03  0.47000000000E+01 0. -1.
<mgrwt>
<rscale>  0 0.10017380E+04</rscale>
<asrwt>0</asrwt>
<pdfrwt beam="1">  1        2 0.14127309E+00 0.10017380E+04</pdfrwt>
<pdfrwt beam="2">  1       -2 0.42030262E-01 0.10017380E+04</pdfrwt>
<totfact> 0.18498072E+02</totfact>
</mgrwt>
</event>
<event>
 9    1  0.4488205E-036  0.9988858E+03  0.7818608E-02  0.8682100E-01
         -3   -1    0    0    0  501 -0.00000000000E+00  0.00000000000E+00  0.35241685644E+03  0.35241685644E+03  0.00000000000E+00 0. -1.
          3   -1    0    0  501    0  0.00000000000E+00 -0.00000000000E+00 -0.70780720628E+03  0.70780720628E+03  0.00000000000E+00 0. -1.
         36    2    1    2    0    0 -0.28421709430E-13  0.00000000000E+00 -0.35539034984E+03  0.10602240627E+04  0.99888576045E+03 0.  0.
         25    2    3    3    0    0 -0.12225452211E+03  0.70623013959E+02 -0.68330249936E+02  0.19950231681E+03  0.12328168184E+03 0.  0.
         35    2    3    3    0    0  0.12225452211E+03 -0.70623013959E+02 -0.28706009990E+03  0.86072174592E+03  0.79906485636E+03 0.  0.
         22    1    5    5    0    0 -0.15052693049E+03 -0.15874366369E+03 -0.47154956544E+03  0.51982391271E+03  0.00000000000E+00 0.  1.
         22    1    5    5    0    0  0.27278145260E+03  0.88120649733E+02  0.18448946553E+03  0.34089783321E+03  0.00000000000E+00 0.  1.
          5    1    4    4  502    0  0.79548539516E+01 -0.10039562169E+02  0.18794466580E+02  0.23224867792E+02  0.47000000000E+01 0.  1.
         -5    1    4    4    0  502 -0.13020937606E+03  0.80662576128E+02 -0.87124716516E+02  0.17627744901E+03  0.47000000000E+01 0.  1.
<mgrwt>
<rscale>  0 0.99888576E+03</rscale>
<asrwt>0</asrwt>
<pdfrwt beam="1">  1        3 0.10889342E+00 0.99888576E+03</pdfrwt>
<pdfrwt beam="2">  1       -3 0.54217978E-01 0.99888576E+03</pdfrwt>
<totfact> 0.10020231E+01</totfact>
</mgrwt>
</event>
<event>
 9    1  0.4488205E-036  0.1000763E+04  0.7818608E-02  0.8680312E-01
         -2   -1    0    0    0  501 -0.00000000000E+00  0.00000000000E+00  0.86561193468E+02  0.86561193468E+02  0.00000000000E+00 0. -1.
          2   -1    0    0  501    0  0.00000000000E+00 -0.00000000000E+00 -0.28925400853E+04  0.28925400853E+04  0.00000000000E+00 0. -1.
         36    2    1    2    0    0  0.71054273576E-14  0.17763568394E-14 -0.28059788919E+04  0.29791012788E+04  0.10007631527E+04 0.  0.
         25    2    3    3    0    0 -0.58689304509E+02 -0.11030437958E+01 -0.90984029670E+03  0.92023570485E+03  0.12481480609E+03 0.  0.
         35    2    3    3    0    0  0.58689304509E+02  0.11030437958E+01 -0.18961385952E+04  0.20588655739E+04  0.80008763791E+03 0.  0.
         22    1    5    5    0    0 -0.16276308526E+03  0.33431818080E+03 -0.63580661744E+03  0.73655313638E+03  0.00000000000E+00 0.  1.
         22    1    5    5    0    0  0.22145238977E+03 -0.33321513700E+03 -0.12603319777E+04  0.13223124376E+04  0.00000000000E+00 0.  1.
          5    1    4    4  502    0 -0.27483498479E+02  0.22478930849E+01 -0.86416587057E+03  0.86461849250E+03  0.47000000000E+01 0. -1.
         -5    1    4    4    0  502 -0.31205806029E+02 -0.33509368806E+01 -0.45674426131E+02  0.55617212356E+02  0.47000000000E+01 0. -1.
<mgrwt>
<rscale>  0 0.10007632E+04</rscale>
<asrwt>0</asrwt>
<pdfrwt beam="1">  1        2 0.44500609E+00 0.10007632E+04</pdfrwt>
<pdfrwt beam="2">  1       -2 0.13317109E-01 0.10007632E+04</pdfrwt>
<totfact> 0.96092387E+01</totfact>
</mgrwt>
</event>
<event>
 9    1  0.4488205E-036  0.1003179E+04  0.7818608E-02  0.8678016E-01
         -2   -1    0    0    0  501 -0.00000000000E+00  0.00000000000E+00  0.19906957361E+03  0.19906957361E+03  0.00000000000E+00 0.  1.
          2   -1    0    0  501    0  0.00000000000E+00 -0.00000000000E+00 -0.12638407722E+04  0.12638407722E+04  0.00000000000E+00 0.  1.
         36    2    1    2    0    0  0.00000000000E+00 -0.71054273576E-14 -0.10647711985E+04  0.14629103458E+04  0.10031794328E+04 0.  0.
         25    2    3    3    0    0  0.81686373533E+02 -0.43752921866E+02 -0.36934666189E+03  0.40092508619E+03  0.12544714542E+03 0.  0.
         35    2    3    3    0    0 -0.81686373533E+02  0.43752921866E+02 -0.69542453665E+03  0.10619852596E+04  0.79725179434E+03 0.  0.
         22    1    5    5    0    0 -0.81203292251E+02 -0.15438367545E+03  0.12716560363E+03  0.21586890620E+03  0.00000000000E+00 0.  1.
         22    1    5    5    0    0 -0.48308128197E+00  0.19813659731E+03 -0.82259014028E+03  0.84611635337E+03  0.00000000000E+00 0.  1.
          5    1    4    4  502    0  0.95075968121E+02 -0.40671520194E+02 -0.37202545887E+03  0.38615883302E+03  0.47000000000E+01 0.  1.
         -5    1    4    4    0  502 -0.13389594588E+02 -0.30814016715E+01  0.26787969795E+01  0.14766253172E+02  0.47000000000E+01 0.  1.
<mgrwt>
<rscale>  0 0.10031794E+04</rscale>
<asrwt>0</asrwt>
<pdfrwt beam="1">  1        2 0.19443704E+00 0.10031794E+04</pdfrwt>
<pdfrwt beam="2">  1       -2 0.30626088E-01 0.10031794E+04</pdfrwt>
<totfact> 0.20598629E+02</totfact>
</mgrwt>
</event>
<event>
 9    1  0.4488205E-036  0.1000078E+04  0.7818608E-02  0.8680964E-01
          1   -1    0    0  501    0  0.00000000000E+00  0.00000000000E+00  0.40838060304E+03  0.40838060304E+03  0.00000000000E+00 0. -1.
         -1   -1    0    0    0  501 -0.00000000000E+00 -0.00000000000E+00 -0.61226922729E+03  0.61226922729E+03  0.00000000000E+00 0. -1.
         36    2    1    2    0    0  0.00000000000E+00  0.42632564146E-13 -0.20388862425E+03  0.10206498303E+04  0.10000777495E+04 0.  0.
         25    2    3    3    0    0 -0.68814014936E+02 -0.12318283976E+03 -0.11403076712E+02  0.18848115274E+03  0.12444168963E+03 0.  0.
         35    2    3    3    0    0  0.68814014936E+02  0.12318283976E+03 -0.19248554753E+03  0.83216867759E+03  0.79721053762E+03 0.  0.
         22    1    5    5    0    0  0.64917676315E+02  0.34142604479E+03 -0.40076083061E+03  0.53046705092E+03  0.00000000000E+00 0.  1.
         22    1    5    5    0    0  0.38963386217E+01 -0.21824320504E+03  0.20827528307E+03  0.30170162668E+03  0.00000000000E+00 0.  1.
          5    1    4    4  502    0  0.24946800213E+02 -0.51202641529E+01 -0.26299907604E+02  0.36909823704E+02  0.47000000000E+01 0.  1.
         -5    1    4    4    0  502 -0.93760815149E+02 -0.11806257560E+03  0.14896830892E+02  0.15157132904E+03  0.47000000000E+01 0.  1.
<mgrwt>
<rscale>  0 0.10000777E+04</rscale>
<asrwt>0</asrwt>
<pdfrwt beam="1">  1        1 0.62827785E-01 0.10000777E+04</pdfrwt>
<pdfrwt beam="2">  1       -1 0.94195266E-01 0.10000777E+04</pdfrwt>
<totfact> 0.76037574E+01</totfact>
</mgrwt>
</event>
<event>
 9    1  0.4488205E-036  0.9996701E+03  0.7818608E-02  0.8681352E-01
          2   -1    0    0  501    0  0.00000000000E+00  0.00000000000E+00  0.81577971171E+03  0.81577971171E+03  0.00000000000E+00 0.  1.
         -2   -1    0    0    0  501 -0.00000000000E+00 -0.00000000000E+00 -0.30625308850E+03  0.30625308850E+03  0.00000000000E+00 0.  1.
         36    2    1    2    0    0 -0.14210854715E-13  0.00000000000E+00  0.50952662322E+03  0.11220328002E+04  0.99967005806E+03 0.  0.
         25    2    3    3    0    0 -0.90270368032E+02 -0.13100311010E+02  0.21381636050E+03  0.26352440078E+03  0.12412621116E+03 0.  0.
         35    2    3    3    0    0  0.90270368032E+02  0.13100311010E+02  0.29571026271E+03  0.85850839943E+03  0.80079445235E+03 0.  0.
         22    1    5    5    0    0 -0.22254461470E+03 -0.40395150615E+02 -0.17834212256E+03  0.28803434934E+03  0.00000000000E+00 0.  1.
         22    1    5    5    0    0  0.31281498273E+03  0.53495461625E+02  0.47405238527E+03  0.57047405008E+03  0.00000000000E+00 0.  1.
          5    1    4    4  502    0 -0.25284067249E+02  0.32624500968E+02  0.16499800283E+03  0.17014720996E+03  0.47000000000E+01 0. -1.
         -5    1    4    4    0  502 -0.64986300784E+02 -0.45724811978E+02  0.48818357669E+02  0.93377190820E+02  0.47000000000E+01 0. -1.
<mgrwt>
<rscale>  0 0.99967006E+03</rscale>
<asrwt>0</asrwt>
<pdfrwt beam="1">  1        2 0.12550457E+00 0.99967006E+03</pdfrwt>
<pdfrwt beam="2">  1       -2 0.47115860E-01 0.99967006E+03</pdfrwt>
<totfact> 0.17340314E+02</totfact>
</mgrwt>
</event>
<event>
 9    1  0.4488205E-036  0.1000409E+04  0.7818608E-02  0.8680648E-01
          2   -1    0    0  501    0  0.00000000000E+00  0.00000000000E+00  0.14765846708E+04  0.14765846708E+04  0.00000000000E+00 0. -1.
         -2   -1    0    0    0  501 -0.00000000000E+00 -0.00000000000E+00 -0.16944818625E+03  0.16944818625E+03  0.00000000000E+00 0. -1.
         36    2    1    2    0    0  0.71054273576E-14  0.00000000000E+00  0.13071364846E+04  0.16460328571E+04  0.10004091050E+04 0.  0.
         25    2    3    3    0    0  0.17320830315E+02 -0.13192978616E+03  0.17062822073E+03  0.24976157128E+03  0.12474523293E+03 0.  0.
         35    2    3    3    0    0 -0.17320830315E+02  0.13192978616E+03  0.11365082639E+04  0.13962712858E+04  0.80013560734E+03 0.  0.
         22    1    5    5    0    0 -0.20968863652E+02  0.33410171820E+03  0.11350909933E+03  0.35347979713E+03  0.00000000000E+00 0.  1.
         22    1    5    5    0    0  0.36480333362E+01 -0.20217193204E+03  0.10229991645E+04  0.10427914887E+04  0.00000000000E+00 0.  1.
          5    1    4    4  502    0  0.67540518005E+02 -0.53708693994E+02  0.10441198451E+03  0.13553707202E+03  0.47000000000E+01 0. -1.
         -5    1    4    4    0  502 -0.50219687689E+02 -0.78221092171E+02  0.66216236226E+02  0.11422449926E+03  0.47000000000E+01 0. -1.
<mgrwt>
<rscale>  0 0.10004091E+04</rscale>
<asrwt>0</asrwt>
<pdfrwt beam="1">  1        2 0.22716686E+00 0.10004091E+04</pdfrwt>
<pdfrwt beam="2">  1       -2 0.26068953E-01 0.10004091E+04</pdfrwt>
<totfact> 0.20799399E+02</totfact>
</mgrwt>
</event>
<event>
 9    1  0.4488205E-036  0.9992880E+03  0.7818608E-02  0.8681716E-01
          2   -1    0    0  501    0  0.00000000000E+00  0.00000000000E+00  0.82410657714E+03  0.82410657714E+03  0.00000000000E+00 0. -1.
         -2   -1    0    0    0  501 -0.00000000000E+00 -0.00000000000E+00 -0.30292697148E+03  0.30292697148E+03  0.00000000000E+00 0. -1.
         36    2    1    2    0    0  0.00000000000E+00  0.14210854715E-13  0.52117960566E+03  0.11270335486E+04  0.99928796569E+03 0.  0.
         25    2    3    3    0    0 -0.98938972054E+02  0.92738585702E+02  0.12901457239E+03  0.22491749096E+03  0.12471468390E+03 0.  0.
         35    2    3    3    0    0  0.98938972054E+02 -0.92738585702E+02  0.39216503326E+03  0.90211605766E+03  0.80101847838E+03 0.  0.
         22    1    5    5    0    0 -0.27905146566E+03 -0.25662340504E+03  0.85793498353E+02  0.38869759050E+03  0.00000000000E+00 0. -1.
         22    1    5    5    0    0  0.37799043772E+03  0.16388481934E+03  0.30637153491E+03  0.51341846716E+03  0.00000000000E+00 0. -1.
          5    1    4    4  502    0  0.49542616551E+01 -0.15578892132E+02 -0.10464635766E+02  0.19971108891E+02  0.47000000000E+01 0. -1.
         -5    1    4    4    0  502 -0.10389323371E+03  0.10831747783E+03  0.13947920816E+03  0.20494638207E+03  0.47000000000E+01 0. -1.
<mgrwt>
<rscale>  0 0.99928797E+03</rscale>
<asrwt>0</asrwt>
<pdfrwt beam="1">  1        2 0.12678563E+00 0.99928797E+03</pdfrwt>
<pdfrwt beam="2">  1       -2 0.46604150E-01 0.99928797E+03</pdfrwt>
<totfact> 0.17484963E+02</totfact>
</mgrwt>
</event>
<event>
 9    1  0.4488205E-036  0.9999132E+03  0.7818608E-02  0.8681121E-01
         -2   -1    0    0    0  501 -0.00000000000E+00  0.00000000000E+00  0.32005943578E+03  0.32005943578E+03  0.00000000000E+00 0.  1.
          2   -1    0    0  501    0  0.00000000000E+00 -0.00000000000E+00 -0.78096931371E+03  0.78096931371E+03  0.00000000000E+00 0.  1.
         36    2    1    2    0    0  0.28421709430E-13  0.00000000000E+00 -0.46090987793E+03  0.11010287495E+04  0.99991319204E+03 0.  0.
         25    2    3    3    0    0 -0.98327509469E+02  0.65235669232E+02 -0.42347705229E+01  0.17221327958E+03  0.12536143236E+03 0.  0.
         35    2    3    3    0    0  0.98327509469E+02 -0.65235669232E+02 -0.45667510741E+03  0.92881546990E+03  0.80013875781E+03 0.  0.
         22    1    5    5    0    0 -0.32466724337E+03  0.18871027264E+02 -0.36320531107E+03  0.48752746854E+03  0.00000000000E+00 0.  1.
         22    1    5    5    0    0  0.42299475284E+03 -0.84106696497E+02 -0.93469796338E+02  0.44128800137E+03  0.00000000000E+00 0.  1.
          5    1    4    4  502    0 -0.62288476639E+01 -0.34977527347E+02  0.19035158355E+01  0.35887871699E+02  0.47000000000E+01 0.  1.
         -5    1    4    4    0  502 -0.92098661805E+02  0.10021319658E+03 -0.61382863584E+01  0.13632540788E+03  0.47000000000E+01 0.  1.
<mgrwt>
<rscale>  0 0.99991319E+03</rscale>
<asrwt>0</asrwt>
<pdfrwt beam="1">  1        2 0.12014912E+00 0.99991319E+03</pdfrwt>
<pdfrwt beam="2">  1       -2 0.49239914E-01 0.99991319E+03</pdfrwt>
<totfact> 0.16806562E+02</totfact>
</mgrwt>
</event>
<event>
 9    1  0.4488205E-036  0.1001707E+04  0.7818608E-02  0.8679414E-01
          2   -1    0    0  501    0  0.00000000000E+00  0.00000000000E+00  0.80877454651E+03  0.80877454651E+03  0.00000000000E+00 0. -1.
         -2   -1    0    0    0  501 -0.00000000000E+00 -0.00000000000E+00 -0.31016599363E+03  0.31016599363E+03  0.00000000000E+00 0. -1.
         36    2    1    2    0    0  0.00000000000E+00 -0.28421709430E-13  0.49860855289E+03  0.11189405401E+04  0.10017072643E+04 0.  0.
         25    2    3    3    0    0 -0.41567345027E+02 -0.83014655954E+02 -0.27980111442E+02  0.15777031267E+03  0.12445604705E+03 0.  0.
         35    2    3    3    0    0  0.41567345027E+02  0.83014655954E+02  0.52658866433E+03  0.96117022747E+03  0.79870727272E+03 0.  0.
         22    1    5    5    0    0  0.12544915433E+02 -0.34087919836E+03  0.91797270089E+02  0.35324600715E+03  0.00000000000E+00 0.  1.
         22    1    5    5    0    0  0.29022429594E+02  0.42389385431E+03  0.43479139424E+03  0.60792422032E+03  0.00000000000E+00 0.  1.
          5    1    4    4  502    0 -0.69003420771E+02 -0.16960314427E+01 -0.92175778616E+01  0.69795432103E+02  0.47000000000E+01 0.  1.
         -5    1    4    4    0  502  0.27436075744E+02 -0.81318624511E+02 -0.18762533580E+02  0.87974880568E+02  0.47000000000E+01 0.  1.
<mgrwt>
<rscale>  0 0.10017073E+04</rscale>
<asrwt>0</asrwt>
<pdfrwt beam="1">  1        2 0.12442685E+00 0.10017073E+04</pdfrwt>
<pdfrwt beam="2">  1       -2 0.47717845E-01 0.10017073E+04</pdfrwt>
<totfact> 0.17100048E+02</totfact>
</mgrwt>
</event>
<event>
 9    1  0.4488205E-036  0.9974544E+03  0.7818608E-02  0.8683466E-01
         -2   -1    0    0    0  501 -0.00000000000E+00  0.00000000000E+00  0.17414671179E+03  0.17414671179E+03  0.00000000000E+00 0.  1.
          2   -1    0    0  501    0  0.00000000000E+00 -0.00000000000E+00 -0.14282718318E+04  0.14282718318E+04  0.00000000000E+00 0.  1.
         36    2    1    2    0    0  0.21316282073E-13  0.00000000000E+00 -0.12541251200E+04  0.16024185436E+04  0.99745444617E+03 0.  0.
         25    2    3    3    0    0 -0.72645148719E+01 -0.13651272972E+03 -0.24595763440E+03  0.30776216632E+03  0.12463504542E+03 0.  0.
         35    2    3    3    0    0  0.72645148719E+01  0.13651272972E+03 -0.10081674856E+04  0.12946563772E+04  0.80065283212E+03 0.  0.
         22    1    5    5    0    0  0.27840292431E+03 -0.18091842690E+03 -0.70325611574E+03  0.77769456072E+03  0.00000000000E+00 0.  1.
         22    1    5    5    0    0 -0.27113840944E+03  0.31743115663E+03 -0.30491136985E+03  0.51696181652E+03  0.00000000000E+00 0.  1.
          5    1    4    4  502    0  0.53815489646E+02 -0.50524107892E+02 -0.66055279563E+02  0.99167446081E+02  0.47000000000E+01 0.  1.
         -5    1    4    4    0  502 -0.61080004518E+02 -0.85988621832E+02 -0.17990235484E+03  0.20859472024E+03  0.47000000000E+01 0.  1.
<mgrwt>
<rscale>  0 0.99745445E+03</rscale>
<asrwt>0</asrwt>
<pdfrwt beam="1">  1        2 0.21973413E+00 0.99745445E+03</pdfrwt>
<pdfrwt beam="2">  1       -2 0.26791802E-01 0.99745445E+03</pdfrwt>
<totfact> 0.21100078E+02</totfact>
</mgrwt>
</event>
<event>
 9    1  0.4488205E-036  0.1000192E+04  0.7818608E-02  0.8680855E-01
          1   -1    0    0  501    0  0.00000000000E+00  0.00000000000E+00  0.63034299043E+03  0.63034299043E+03  0.00000000000E+00 0.  1.
         -1   -1    0    0    0  501 -0.00000000000E+00 -0.00000000000E+00 -0.39676210073E+03  0.39676210073E+03  0.00000000000E+00 0.  1.
         36    2    1    2    0    0  0.14210854715E-13  0.14210854715E-13  0.23358088971E+03  0.10271050912E+04  0.10001923996E+04 0.  0.
         25    2    3    3    0    0  0.66063869243E+02  0.85481434160E+02  0.13313234480E+03  0.21262622387E+03  0.12575444104E+03 0.  0.
         35    2    3    3    0    0 -0.66063869243E+02 -0.85481434160E+02  0.10044854491E+03  0.81447886729E+03  0.80100836742E+03 0.  0.
         22    1    5    5    0    0  0.18530383359E+03  0.28993689287E+03  0.11396227355E+03  0.36247525761E+03  0.00000000000E+00 0. -1.
         22    1    5    5    0    0 -0.25136770283E+03 -0.37541832703E+03 -0.13513728640E+02  0.45200360967E+03  0.00000000000E+00 0. -1.
          5    1    4    4  502    0  0.59644232556E+02  0.88921452840E+01  0.19541123197E+01  0.60517875705E+02  0.47000000000E+01 0. -1.
         -5    1    4    4    0  502  0.64196366875E+01  0.76589288876E+02  0.13117823248E+03  0.15210834817E+03  0.47000000000E+01 0. -1.
<mgrwt>
<rscale>  0 0.10001924E+04</rscale>
<asrwt>0</asrwt>
<pdfrwt beam="1">  1        1 0.96975844E-01 0.10001924E+04</pdfrwt>
<pdfrwt beam="2">  1       -1 0.61040323E-01 0.10001924E+04</pdfrwt>
<totfact> 0.10055961E+02</totfact>
</mgrwt>
</event>
<event>
 9    1  0.4488205E-036  0.1000310E+04  0.7818608E-02  0.8680742E-01
          2   -1    0    0  501    0  0.00000000000E+00  0.00000000000E+00  0.13543935430E+04  0.13543935430E+04  0.00000000000E+00 0.  1.
         -2   -1    0    0    0  501 -0.00000000000E+00 -0.00000000000E+00 -0.18469903852E+03  0.18469903852E+03  0.00000000000E+00 0.  1.
         36    2    1    2    0    0 -0.14210854715E-13 -0.35527136788E-13  0.11696945045E+04  0.15390925815E+04  0.10003103222E+04 0.  0.
         25    2    3    3    0    0  0.66828243584E+02 -0.59265948573E+02  0.52323962216E+02  0.16214324567E+03  0.12479650754E+03 0.  0.
         35    2    3    3    0    0 -0.66828243584E+02  0.59265948573E+02  0.11173705423E+04  0.13769493358E+04  0.79968373623E+03 0.  0.
         22    1    5    5    0    0  0.85934668671E+02  0.37990744801E+03  0.32015871860E+03  0.50419841474E+03  0.00000000000E+00 0. -1.
         22    1    5    5    0    0 -0.15276291225E+03 -0.32064149944E+03  0.79721182365E+03  0.87275092110E+03  0.00000000000E+00 0. -1.
          5    1    4    4  502    0  0.30049054696E+02  0.54252048147E+01  0.77510443923E+02  0.83440622316E+02  0.47000000000E+01 0.  1.
         -5    1    4    4    0  502  0.36779188887E+02 -0.64691153388E+02 -0.25186481707E+02  0.78702623353E+02  0.47000000000E+01 0.  1.
<mgrwt>
<rscale>  0 0.10003103E+04</rscale>
<asrwt>0</asrwt>
<pdfrwt beam="1">  1        2 0.20836823E+00 0.10003103E+04</pdfrwt>
<pdfrwt beam="2">  1       -2 0.28415238E-01 0.10003103E+04</pdfrwt>
<totfact> 0.20919584E+02</totfact>
</mgrwt>
</event>
<event>
 9    1  0.4488205E-036  0.1001364E+04  0.7818608E-02  0.8679740E-01
         -1   -1    0    0    0  501 -0.00000000000E+00  0.00000000000E+00  0.45395084289E+03  0.45395084289E+03  0.00000000000E+00 0.  1.
          1   -1    0    0  501    0  0.00000000000E+00 -0.00000000000E+00 -0.55222421906E+03  0.55222421906E+03  0.00000000000E+00 0.  1.
         36    2    1    2    0    0  0.35527136788E-14 -0.28421709430E-13 -0.98273376164E+02  0.10061750620E+04  0.10013643687E+04 0.  0.
         25    2    3    3    0    0 -0.88830068059E+01  0.13851833135E+03 -0.47810065987E+02  0.19113192757E+03  0.12239025859E+03 0.  0.
         35    2    3    3    0    0  0.88830068059E+01 -0.13851833135E+03 -0.50463310176E+02  0.81504313438E+03  0.80155007909E+03 0.  0.
         22    1    5    5    0    0  0.81555020382E+02  0.23358924363E+03  0.23439580015E+03  0.34081746906E+03  0.00000000000E+00 0. -1.
         22    1    5    5    0    0 -0.72672013576E+02 -0.37210757497E+03 -0.28485911033E+03  0.47422566532E+03  0.00000000000E+00 0. -1.
          5    1    4    4  502    0 -0.23542259770E+02 -0.10601170243E+02  0.13084265632E+02  0.29324235927E+02  0.47000000000E+01 0. -1.
         -5    1    4    4    0  502  0.14659252964E+02  0.14911950159E+03 -0.60894331619E+02  0.16180769164E+03  0.47000000000E+01 0. -1.
<mgrwt>
<rscale>  0 0.10013644E+04</rscale>
<asrwt>0</asrwt>
<pdfrwt beam="1">  1        1 0.84957572E-01 0.10013644E+04</pdfrwt>
<pdfrwt beam="2">  1       -1 0.69838591E-01 0.10013644E+04</pdfrwt>
<totfact> 0.93694464E+01</totfact>
</mgrwt>
</event>
<event>
 9    1  0.4488205E-036  0.9993500E+03  0.7818608E-02  0.8681657E-01
         -2   -1    0    0    0  501 -0.00000000000E+00  0.00000000000E+00  0.13396414434E+03  0.13396414434E+03  0.00000000000E+00 0. -1.
          2   -1    0    0  501    0  0.00000000000E+00 -0.00000000000E+00 -0.18637458185E+04  0.18637458185E+04  0.00000000000E+00 0. -1.
         36    2    1    2    0    0  0.28421709430E-13  0.00000000000E+00 -0.17297816742E+04  0.19977099629E+04  0.99935001644E+03 0.  0.
         25    2    3    3    0    0  0.13675451528E+03  0.26878644876E+02 -0.31588166117E+03  0.36701323575E+03  0.12447181349E+03 0.  0.
         35    2    3    3    0    0 -0.13675451528E+03 -0.26878644876E+02 -0.14139000130E+04  0.16306967271E+04  0.80039634557E+03 0.  0.
         22    1    5    5    0    0  0.20475235539E+03  0.75032093048E+02 -0.53698986072E+02  0.22458166250E+03  0.00000000000E+00 0. -1.
         22    1    5    5    0    0 -0.34150687067E+03 -0.10191073792E+03 -0.13602010269E+04  0.14061150646E+04  0.00000000000E+00 0. -1.
          5    1    4    4  502    0  0.11708809267E+02  0.55732117837E+02 -0.78124420234E+02  0.96791942898E+02  0.47000000000E+01 0.  1.
         -5    1    4    4    0  502  0.12504570601E+03 -0.28853472961E+02 -0.23775724094E+03  0.27022129285E+03  0.47000000000E+01 0.  1.
<mgrwt>
<rscale>  0 0.99935002E+03</rscale>
<asrwt>0</asrwt>
<pdfrwt beam="1">  1        2 0.28673012E+00 0.99935002E+03</pdfrwt>
<pdfrwt beam="2">  1       -2 0.20609869E-01 0.99935002E+03</pdfrwt>
<totfact> 0.19013855E+02</totfact>
</mgrwt>
</event>
<event>
 9    1  0.4488205E-036  0.1000239E+04  0.7818608E-02  0.8680810E-01
         -1   -1    0    0    0  501 -0.00000000000E+00  0.00000000000E+00  0.22512300495E+03  0.22512300495E+03  0.00000000000E+00 0. -1.
          1   -1    0    0  501    0  0.00000000000E+00 -0.00000000000E+00 -0.11110359704E+04  0.11110359704E+04  0.00000000000E+00 0. -1.
         36    2    1    2    0    0 -0.28421709430E-13  0.14210854715E-13 -0.88591296545E+03  0.13361589754E+04  0.10002394839E+04 0.  0.
         25    2    3    3    0    0  0.77038444166E+02 -0.11238647466E+03 -0.13264719624E+03  0.22935611971E+03  0.12823146810E+03 0.  0.
         35    2    3    3    0    0 -0.77038444166E+02  0.11238647466E+03 -0.75326576922E+03  0.11068028556E+04  0.79939827410E+03 0.  0.
         22    1    5    5    0    0  0.33861161723E+03  0.12034639400E+02 -0.15793430028E+03  0.37382603317E+03  0.00000000000E+00 0. -1.
         22    1    5    5    0    0 -0.41565006140E+03  0.10035183526E+03 -0.59533146894E+03  0.73297682248E+03  0.00000000000E+00 0. -1.
          5    1    4    4  502    0  0.97324127952E+02 -0.99977067669E+02 -0.58533857949E+02  0.15137933303E+03  0.47000000000E+01 0. -1.
         -5    1    4    4    0  502 -0.20285683786E+02 -0.12409406994E+02 -0.74113338288E+02  0.77976786679E+02  0.47000000000E+01 0. -1.
<mgrwt>
<rscale>  0 0.10002395E+04</rscale>
<asrwt>0</asrwt>
<pdfrwt beam="1">  1        1 0.17092861E+00 0.10002395E+04</pdfrwt>
<pdfrwt beam="2">  1       -1 0.34634308E-01 0.10002395E+04</pdfrwt>
<totfact> 0.10915100E+02</totfact>
</mgrwt>
</event>
<event>
 9    1  0.4488205E-036  0.9992798E+03  0.7818608E-02  0.8681724E-01
         -2   -1    0    0    0  501 -0.00000000000E+00  0.00000000000E+00  0.10287336562E+03  0.10287336562E+03  0.00000000000E+00 0.  1.
          2   -1    0    0  501    0  0.00000000000E+00 -0.00000000000E+00 -0.24266730665E+04  0.24266730665E+04  0.00000000000E+00 0.  1.
         36    2    1    2    0    0  0.71054273576E-14  0.00000000000E+00 -0.23237997009E+04  0.25295464321E+04  0.99927979187E+03 0.  0.
         25    2    3    3    0    0 -0.14811705479E+02  0.11909997307E+02 -0.86857854400E+02  0.15384994471E+03  0.12555589975E+03 0.  0.
         35    2    3    3    0    0  0.14811705479E+02 -0.11909997307E+02 -0.22369418465E+04  0.23756964874E+04  0.79978981056E+03 0.  0.
         22    1    5    5    0    0  0.29132568022E+03 -0.28503309795E+03 -0.10294134626E+04  0.11071615039E+04  0.00000000000E+00 0.  1.
         22    1    5    5    0    0 -0.27651397474E+03  0.27312310064E+03 -0.12075283839E+04  0.12685349835E+04  0.00000000000E+00 0.  1.
          5    1    4    4  502    0 -0.57429576708E+02  0.44551656747E+02 -0.54787053514E+02  0.91141196133E+02  0.47000000000E+01 0.  1.
         -5    1    4    4    0  502  0.42617871230E+02 -0.32641659440E+02 -0.32070800886E+02  0.62708748581E+02  0.47000000000E+01 0.  1.
<mgrwt>
<rscale>  0 0.99927979E+03</rscale>
<asrwt>0</asrwt>
<pdfrwt beam="1">  1        2 0.37333426E+00 0.99927979E+03</pdfrwt>
<pdfrwt beam="2">  1       -2 0.15826674E-01 0.99927979E+03</pdfrwt>
<totfact> 0.14092389E+02</totfact>
</mgrwt>
</event>
<event>
 9    1  0.4488205E-036  0.9995065E+03  0.7818608E-02  0.8681508E-01
         -1   -1    0    0    0  501 -0.00000000000E+00  0.00000000000E+00  0.15414388504E+03  0.15414388504E+03  0.00000000000E+00 0. -1.
          1   -1    0    0  501    0  0.00000000000E+00 -0.00000000000E+00 -0.16202607785E+04  0.16202607785E+04  0.00000000000E+00 0. -1.
         36    2    1    2    0    0  0.00000000000E+00 -0.28421709430E-13 -0.14661168934E+04  0.17744046635E+04  0.99950646054E+03 0.  0.
         25    2    3    3    0    0 -0.97242952817E+02  0.71245156882E+02 -0.38569243330E+03  0.42507596684E+03  0.13190473922E+03 0.  0.
         35    2    3    3    0    0  0.97242952817E+02 -0.71245156882E+02 -0.10804244601E+04  0.13493286967E+04  0.79927395387E+03 0.  0.
         22    1    5    5    0    0  0.56671244185E+02 -0.40507536536E+03 -0.84511338938E+03  0.93888994160E+03  0.00000000000E+00 0.  1.
         22    1    5    5    0    0  0.40571708632E+02  0.33383020848E+03 -0.23531107075E+03  0.41043875506E+03  0.00000000000E+00 0.  1.
          5    1    4    4  502    0 -0.87506528663E+02 -0.38830245089E+00 -0.11342204747E+03  0.14333246035E+03  0.47000000000E+01 0. -1.
         -5    1    4    4    0  502 -0.97364241542E+01  0.71633459333E+02 -0.27227038582E+03  0.28174350649E+03  0.47000000000E+01 0. -1.
<mgrwt>
<rscale>  0 0.99950646E+03</rscale>
<asrwt>0</asrwt>
<pdfrwt beam="1">  1        1 0.24927089E+00 0.99950646E+03</pdfrwt>
<pdfrwt beam="2">  1       -1 0.23714444E-01 0.99950646E+03</pdfrwt>
<totfact> 0.88719369E+01</totfact>
</mgrwt>
</event>
<event>
 9    1  0.4488205E-036  0.1002138E+04  0.7818608E-02  0.8679004E-01
          1   -1    0    0  501    0  0.00000000000E+00  0.00000000000E+00  0.19220213407E+04  0.19220213407E+04  0.00000000000E+00 0.  1.
         -1   -1    0    0    0  501 -0.00000000000E+00 -0.00000000000E+00 -0.13062825332E+03  0.13062825332E+03  0.00000000000E+00 0.  1.
         36    2    1    2    0    0  0.28421709430E-13  0.00000000000E+00  0.17913930874E+04  0.20526495940E+04  0.10021382950E+04 0.  0.
         25    2    3    3    0    0 -0.10800787854E+03  0.58131516024E+02  0.18701834047E+03  0.25560372447E+03  0.12374340107E+03 0.  0.
         35    2    3    3    0    0  0.10800787854E+03 -0.58131516024E+02  0.16043747469E+04  0.17970458696E+04  0.80019407258E+03 0.  0.
         22    1    5    5    0    0 -0.54158688207E+02  0.33013604737E+03  0.40100999862E+03  0.52223748647E+03  0.00000000000E+00 0.  1.
         22    1    5    5    0    0  0.16216656674E+03 -0.38826756340E+03  0.12033647483E+04  0.12748083831E+04  0.00000000000E+00 0.  1.
          5    1    4    4  502    0 -0.54450407197E+02 -0.12202363500E+02  0.14914986577E+03  0.15931577755E+03  0.47000000000E+01 0. -1.
         -5    1    4    4    0  502 -0.53557471338E+02  0.70333879523E+02  0.37868474701E+02  0.96287946915E+02  0.47000000000E+01 0. -1.
<mgrwt>
<rscale>  0 0.10021383E+04</rscale>
<asrwt>0</asrwt>
<pdfrwt beam="1">  1        1 0.29569557E+00 0.10021383E+04</pdfrwt>
<pdfrwt beam="2">  1       -1 0.20096656E-01 0.10021383E+04</pdfrwt>
<totfact> 0.71653795E+01</totfact>
</mgrwt>
</event>
<event>
 9    1  0.4488205E-036  0.1000832E+04  0.7818608E-02  0.8680246E-01
          2   -1    0    0  501    0  0.00000000000E+00  0.00000000000E+00  0.25027288960E+03  0.25027288960E+03  0.00000000000E+00 0.  1.
         -2   -1    0    0    0  501 -0.00000000000E+00 -0.00000000000E+00 -0.10005727711E+04  0.10005727711E+04  0.00000000000E+00 0.  1.
         36    2    1    2    0    0  0.00000000000E+00  0.28421709430E-13 -0.75029988150E+03  0.12508456607E+04  0.10008321311E+04 0.  0.
         25    2    3    3    0    0  0.62730308098E+02  0.10868186113E+03 -0.22390416567E+03  0.28531919571E+03  0.12460790323E+03 0.  0.
         35    2    3    3    0    0 -0.62730308098E+02 -0.10868186113E+03 -0.52639571583E+03  0.96552646498E+03  0.79962620420E+03 0.  0.
         22    1    5    5    0    0 -0.34059578334E+02  0.27218596845E+03 -0.51489770061E+03  0.58340800337E+03  0.00000000000E+00 0.  1.
         22    1    5    5    0    0 -0.28670729763E+02 -0.38086782958E+03 -0.11498015216E+02  0.38211846161E+03  0.00000000000E+00 0.  1.
          5    1    4    4  502    0 -0.11976238447E+02 -0.20660665298E+02 -0.15438317540E+02  0.28822300851E+02  0.47000000000E+01 0.  1.
         -5    1    4    4    0  502  0.74706546545E+02  0.12934252642E+03 -0.20846584813E+03  0.25649689486E+03  0.47000000000E+01 0.  1.
<mgrwt>
<rscale>  0 0.10008321E+04</rscale>
<asrwt>0</asrwt>
<pdfrwt beam="1">  1        2 0.38503521E-01 0.10008321E+04</pdfrwt>
<pdfrwt beam="2">  1       -2 0.15393427E+00 0.10008321E+04</pdfrwt>
<totfact> 0.42406552E+01</totfact>
</mgrwt>
</event>
<event>
 9    1  0.4488205E-036  0.9994643E+03  0.7818608E-02  0.8681548E-01
          2   -1    0    0  501    0  0.00000000000E+00  0.00000000000E+00  0.24856474705E+04  0.24856474705E+04  0.00000000000E+00 0. -1.
         -2   -1    0    0    0  501 -0.00000000000E+00 -0.00000000000E+00 -0.10046968058E+03  0.10046968058E+03  0.00000000000E+00 0. -1.
         36    2    1    2    0    0  0.49737991503E-13  0.14210854715E-13  0.23851777899E+04  0.25861171510E+04  0.99946427128E+03 0.  0.
         25    2    3    3    0    0  0.45445217374E+02 -0.21605691579E+02  0.78468444446E+03  0.79628477796E+03  0.12572866236E+03 0.  0.
         35    2    3    3    0    0 -0.45445217374E+02  0.21605691579E+02  0.16004933454E+04  0.17898323731E+04  0.79961797210E+03 0.  0.
         22    1    5    5    0    0  0.33975584486E+03  0.18024914497E+03  0.76717096815E+03  0.85818126450E+03  0.00000000000E+00 0. -1.
         22    1    5    5    0    0 -0.38520106223E+03 -0.15864345339E+03  0.83332237726E+03  0.93165110857E+03  0.00000000000E+00 0. -1.
          5    1    4    4  502    0 -0.53158419841E+01 -0.59409060239E+02  0.54737861626E+03  0.55063884185E+03  0.47000000000E+01 0. -1.
         -5    1    4    4    0  502  0.50761059358E+02  0.37803368660E+02  0.23730582821E+03  0.24564593612E+03  0.47000000000E+01 0. -1.
<mgrwt>
<rscale>  0 0.99946427E+03</rscale>
<asrwt>0</asrwt>
<pdfrwt beam="1">  1        2 0.38240726E+00 0.99946427E+03</pdfrwt>
<pdfrwt beam="2">  1       -2 0.15456876E-01 0.99946427E+03</pdfrwt>
<totfact> 0.13510285E+02</totfact>
</mgrwt>
</event>
<event>
 9    1  0.4488205E-036  0.9990759E+03  0.7818608E-02  0.8681919E-01
          2   -1    0    0  501    0  0.00000000000E+00  0.00000000000E+00  0.54508203617E+03  0.54508203617E+03  0.00000000000E+00 0. -1.
         -2   -1    0    0    0  501 -0.00000000000E+00 -0.00000000000E+00 -0.45779923587E+03  0.45779923587E+03  0.00000000000E+00 0. -1.
         36    2    1    2    0    0 -0.71054273576E-14  0.00000000000E+00  0.87282800298E+02  0.10028812720E+04  0.99907585226E+03 0.  0.
         25    2    3    3    0    0  0.60515406355E+02  0.18875248456E+02  0.14610699364E+03  0.19856853259E+03  0.11859097408E+03 0.  0.
         35    2    3    3    0    0 -0.60515406355E+02 -0.18875248456E+02 -0.58824193346E+02  0.80431273945E+03  0.79965011580E+03 0.  0.
         22    1    5    5    0    0 -0.68202572037E+02 -0.14132030998E+02 -0.42870269312E+03  0.43432396229E+03  0.00000000000E+00 0. -1.
         22    1    5    5    0    0  0.76871656827E+01 -0.47432174581E+01  0.36987849977E+03  0.36998877716E+03  0.00000000000E+00 0. -1.
          5    1    4    4  502    0 -0.32849666899E+02 -0.12097138830E+02  0.30177908573E+02  0.46456835332E+02  0.47000000000E+01 0. -1.
         -5    1    4    4    0  502  0.93365073254E+02  0.30972387286E+02  0.11592908507E+03  0.15211169726E+03  0.47000000000E+01 0. -1.
<mgrwt>
<rscale>  0 0.99907585E+03</rscale>
<asrwt>0</asrwt>
<pdfrwt beam="1">  1        2 0.83858775E-01 0.99907585E+03</pdfrwt>
<pdfrwt beam="2">  1       -2 0.70430651E-01 0.99907585E+03</pdfrwt>
<totfact> 0.12342586E+02</totfact>
</mgrwt>
</event>
<event>
 9    1  0.4488205E-036  0.9957220E+03  0.7818608E-02  0.8685123E-01
         -1   -1    0    0    0  501 -0.00000000000E+00  0.00000000000E+00  0.42659136625E+03  0.42659136625E+03  0.00000000000E+00 0.  1.
          1   -1    0    0  501    0  0.00000000000E+00 -0.00000000000E+00 -0.58103749795E+03  0.58103749795E+03  0.00000000000E+00 0.  1.
         36    2    1    2    0    0  0.00000000000E+00  0.00000000000E+00 -0.15444613170E+03  0.10076288642E+04  0.99572200958E+03 0.  0.
         25    2    3    3    0    0 -0.93423543173E+02 -0.85512917077E+02 -0.78915213182E+02  0.19479346486E+03  0.12520569347E+03 0.  0.
         35    2    3    3    0    0  0.93423543173E+02  0.85512917077E+02 -0.75530918514E+02  0.81283539933E+03  0.79934726455E+03 0.  0.
         22    1    5    5    0    0  0.21304967032E+03  0.36782015458E+03  0.12907019240E+03  0.44423073139E+03  0.00000000000E+00 0. -1.
         22    1    5    5    0    0 -0.11962612715E+03 -0.28230723751E+03 -0.20460111091E+03  0.36860466795E+03  0.00000000000E+00 0. -1.
          5    1    4    4  502    0 -0.17187713531E+02  0.42841550724E+01 -0.74609334042E+02  0.76827171022E+02  0.47000000000E+01 0. -1.
         -5    1    4    4    0  502 -0.76235829642E+02 -0.89797072149E+02 -0.43058791398E+01  0.11796629384E+03  0.47000000000E+01 0. -1.
<mgrwt>
<rscale>  0 0.99572201E+03</rscale>
<asrwt>0</asrwt>
<pdfrwt beam="1">  1        1 0.89390384E-01 0.99572201E+03</pdfrwt>
<pdfrwt beam="2">  1       -1 0.65629441E-01 0.99572201E+03</pdfrwt>
<totfact> 0.98486334E+01</totfact>
</mgrwt>
</event>
<event>
 9    1  0.4488205E-036  0.9983173E+03  0.7818608E-02  0.8682642E-01
         -1   -1    0    0    0  501 -0.00000000000E+00  0.00000000000E+00  0.87368350762E+02  0.87368350762E+02  0.00000000000E+00 0.  1.
          1   -1    0    0  501    0  0.00000000000E+00 -0.00000000000E+00 -0.28518260173E+04  0.28518260173E+04  0.00000000000E+00 0.  1.
         36    2    1    2    0    0  0.00000000000E+00  0.00000000000E+00 -0.27644576665E+04  0.29391943680E+04  0.99831725576E+03 0.  0.
         25    2    3    3    0    0  0.76222302205E+02  0.11236059568E+03 -0.55339074432E+03  0.58343179803E+03  0.12536588147E+03 0.  0.
         35    2    3    3    0    0 -0.76222302205E+02 -0.11236059568E+03 -0.22110669222E+04  0.23557625700E+04  0.80147714192E+03 0.  0.
         22    1    5    5    0    0  0.29691755202E+03 -0.42995699493E+02 -0.16584437830E+04  0.16853618140E+04  0.00000000000E+00 0.  1.
         22    1    5    5    0    0 -0.37313985423E+03 -0.69364896185E+02 -0.55262313925E+03  0.67040075602E+03  0.00000000000E+00 0.  1.
          5    1    4    4  502    0  0.12799360744E+02 -0.26512784693E+02 -0.12871803248E+03  0.13212559659E+03  0.47000000000E+01 0.  1.
         -5    1    4    4    0  502  0.63422941461E+02  0.13887338037E+03 -0.42467271183E+03  0.45130620144E+03  0.47000000000E+01 0.  1.
<mgrwt>
<rscale>  0 0.99831726E+03</rscale>
<asrwt>0</asrwt>
<pdfrwt beam="1">  1        1 0.43874241E+00 0.99831726E+03</pdfrwt>
<pdfrwt beam="2">  1       -1 0.13441286E-01 0.99831726E+03</pdfrwt>
<totfact> 0.30562237E+01</totfact>
</mgrwt>
</event>
<event>
 9    1  0.4488205E-036  0.9917895E+03  0.7818608E-02  0.8688896E-01
          2   -1    0    0  501    0  0.00000000000E+00  0.00000000000E+00  0.17304850244E+03  0.17304850244E+03  0.00000000000E+00 0. -1.
         -2   -1    0    0    0  501 -0.00000000000E+00 -0.00000000000E+00 -0.14210558701E+04  0.14210558701E+04  0.00000000000E+00 0. -1.
         36    2    1    2    0    0  0.00000000000E+00  0.00000000000E+00 -0.12480073677E+04  0.15941043726E+04  0.99178947404E+03 0.  0.
         25    2    3    3    0    0 -0.12354156218E+03  0.13592053210E+02 -0.29214074173E+03  0.34104725420E+03  0.12457830919E+03 0.  0.
         35    2    3    3    0    0  0.12354156218E+03 -0.13592053210E+02 -0.95586662594E+03  0.12530571184E+04  0.80063966537E+03 0.  0.
         22    1    5    5    0    0 -0.22397413955E+03 -0.24021096660E+03 -0.67906122820E+03  0.75431417547E+03  0.00000000000E+00 0.  1.
         22    1    5    5    0    0  0.34751570174E+03  0.22661891339E+03 -0.27680539774E+03  0.49874294288E+03  0.00000000000E+00 0.  1.
          5    1    4    4  502    0 -0.81303595760E+02 -0.44125441052E+02 -0.10166752598E+03  0.13753437778E+03  0.47000000000E+01 0.  1.
         -5    1    4    4    0  502 -0.42237966421E+02  0.57717494262E+02 -0.19047321575E+03  0.20351287643E+03  0.47000000000E+01 0.  1.
<mgrwt>
<rscale>  0 0.99178947E+03</rscale>
<asrwt>0</asrwt>
<pdfrwt beam="1">  1        2 0.26622845E-01 0.99178947E+03</pdfrwt>
<pdfrwt beam="2">  1       -2 0.21862399E+00 0.99178947E+03</pdfrwt>
<totfact> 0.22231908E+01</totfact>
</mgrwt>
</event>
<event>
 9    1  0.4488205E-036  0.1000549E+04  0.7818608E-02  0.8680516E-01
          2   -1    0    0  501    0  0.00000000000E+00  0.00000000000E+00  0.22599435470E+04  0.22599435470E+04  0.00000000000E+00 0. -1.
         -2   -1    0    0    0  501 -0.00000000000E+00 -0.00000000000E+00 -0.11074364922E+03  0.11074364922E+03  0.00000000000E+00 0. -1.
         36    2    1    2    0    0  0.00000000000E+00 -0.28421709430E-13  0.21491998977E+04  0.23706871962E+04  0.10005486403E+04 0.  0.
         25    2    3    3    0    0  0.91035135834E+02 -0.80181382825E+02  0.59220331376E+03  0.61728559364E+03  0.12498115529E+03 0.  0.
         35    2    3    3    0    0 -0.91035135834E+02  0.80181382825E+02  0.15569965840E+04  0.17534016025E+04  0.79715893468E+03 0.  0.
         22    1    5    5    0    0 -0.12231150443E+03  0.37504889829E+03  0.13080223504E+04  0.13662153013E+04  0.00000000000E+00 0.  1.
         22    1    5    5    0    0  0.31276368591E+02 -0.29486751547E+03  0.24897423356E+03  0.38718630126E+03  0.00000000000E+00 0.  1.
          5    1    4    4  502    0  0.19109334925E+02 -0.12032797021E+02  0.75400042116E+01  0.24267190792E+02  0.47000000000E+01 0. -1.
         -5    1    4    4    0  502  0.71925800909E+02 -0.68148585804E+02  0.58466330955E+03  0.59301840285E+03  0.47000000000E+01 0. -1.
<mgrwt>
<rscale>  0 0.10005486E+04</rscale>
<asrwt>0</asrwt>
<pdfrwt beam="1">  1        2 0.34768359E+00 0.10005486E+04</pdfrwt>
<pdfrwt beam="2">  1       -2 0.17037486E-01 0.10005486E+04</pdfrwt>
<totfact> 0.15621610E+02</totfact>
</mgrwt>
</event>
<event>
 9    1  0.4488205E-036  0.1001041E+04  0.7818608E-02  0.8680047E-01
         -2   -1    0    0    0  501 -0.00000000000E+00  0.00000000000E+00  0.37235954116E+03  0.37235954116E+03  0.00000000000E+00 0. -1.
          2   -1    0    0  501    0  0.00000000000E+00 -0.00000000000E+00 -0.67279283731E+03  0.67279283731E+03  0.00000000000E+00 0. -1.
         36    2    1    2    0    0  0.00000000000E+00  0.00000000000E+00 -0.30043329615E+03  0.10451523785E+04  0.10010411224E+04 0.  0.
         25    2    3    3    0    0 -0.37627340372E+02  0.78350071928E+02  0.59654869138E+02  0.16353095599E+03  0.12501647748E+03 0.  0.
         35    2    3    3    0    0  0.37627340372E+02 -0.78350071928E+02 -0.36008816529E+03  0.88162142248E+03  0.80002393419E+03 0.  0.
         22    1    5    5    0    0 -0.31559294707E+03 -0.59439413413E+02 -0.41384724893E+03  0.52383346357E+03  0.00000000000E+00 0. -1.
         22    1    5    5    0    0  0.35322028744E+03 -0.18910658514E+02  0.53759083647E+02  0.35778795891E+03  0.00000000000E+00 0. -1.
          5    1    4    4  502    0  0.20949923781E+02  0.71405729532E+02 -0.64107494986E+01  0.74838928544E+02  0.47000000000E+01 0.  1.
         -5    1    4    4    0  502 -0.58577264153E+02  0.69443423954E+01  0.66065618637E+02  0.88692027448E+02  0.47000000000E+01 0.  1.
<mgrwt>
<rscale>  0 0.10010411E+04</rscale>
<asrwt>0</asrwt>
<pdfrwt beam="1">  1        2 0.10350659E+00 0.10010411E+04</pdfrwt>
<pdfrwt beam="2">  1       -2 0.57286084E-01 0.10010411E+04</pdfrwt>
<totfact> 0.14882359E+02</totfact>
</mgrwt>
</event>
<event>
 9    1  0.4488205E-036  0.1000183E+04  0.7818608E-02  0.8680864E-01
          1   -1    0    0  501    0  0.00000000000E+00  0.00000000000E+00  0.72785422377E+03  0.72785422377E+03  0.00000000000E+00 0.  1.
         -1   -1    0    0    0  501 -0.00000000000E+00 -0.00000000000E+00 -0.34360098813E+03  0.34360098813E+03  0.00000000000E+00 0.  1.
         36    2    1    2    0    0  0.35527136788E-13  0.28421709430E-13  0.38425323564E+03  0.10714552119E+04  0.10001828443E+04 0.  0.
         25    2    3    3    0    0 -0.54880771119E+02 -0.12293838112E+03  0.11017955409E+03  0.21517026168E+03  0.12662133620E+03 0.  0.
         35    2    3    3    0    0  0.54880771119E+02  0.12293838112E+03  0.27407368156E+03  0.85628495023E+03  0.79998861771E+03 0.  0.
         22    1    5    5    0    0  0.41484826196E+03  0.16898879648E+03  0.13818856319E+03  0.46877753016E+03  0.00000000000E+00 0. -1.
         22    1    5    5    0    0 -0.35996749084E+03 -0.46050415354E+02  0.13588511836E+03  0.38750742007E+03  0.00000000000E+00 0. -1.
          5    1    4    4  502    0 -0.22874804020E+02  0.23591113725E+02  0.97171975247E+01  0.34587732413E+02  0.47000000000E+01 0. -1.
         -5    1    4    4    0  502 -0.32005967099E+02 -0.14652949485E+03  0.10046235656E+03  0.18058252927E+03  0.47000000000E+01 0. -1.
<mgrwt>
<rscale>  0 0.10001828E+04</rscale>
<asrwt>0</asrwt>
<pdfrwt beam="1">  1        1 0.11197757E+00 0.10001828E+04</pdfrwt>
<pdfrwt beam="2">  1       -1 0.52861691E-01 0.10001828E+04</pdfrwt>
<totfact> 0.10617772E+02</totfact>
</mgrwt>
</event>
<event>
 9    1  0.4488205E-036  0.9984241E+03  0.7818608E-02  0.8682540E-01
         -2   -1    0    0    0  501 -0.00000000000E+00  0.00000000000E+00  0.47095150095E+03  0.47095150095E+03  0.00000000000E+00 0. -1.
          2   -1    0    0  501    0  0.00000000000E+00 -0.00000000000E+00 -0.52916842972E+03  0.52916842972E+03  0.00000000000E+00 0. -1.
         36    2    1    2    0    0  0.00000000000E+00 -0.14210854715E-13 -0.58216928772E+02  0.10001199307E+04  0.99842409072E+03 0.  0.
         25    2    3    3    0    0  0.70530513993E+02 -0.10613663528E+03  0.25160777541E+02  0.18544726014E+03  0.13235589452E+03 0.  0.
         35    2    3    3    0    0 -0.70530513993E+02  0.10613663528E+03 -0.83377706313E+02  0.81467267053E+03  0.80031255109E+03 0.  0.
         22    1    5    5    0    0 -0.27211164033E+02 -0.17950472561E+03 -0.36722738944E+03  0.40965637981E+03  0.00000000000E+00 0.  1.
         22    1    5    5    0    0 -0.43319349960E+02  0.28564136089E+03  0.28384968313E+03  0.40501629072E+03  0.00000000000E+00 0.  1.
          5    1    4    4  502    0 -0.42424445080E+01  0.25066001313E+02 -0.13954964851E+02  0.29379138878E+02  0.47000000000E+01 0.  1.
         -5    1    4    4    0  502  0.74772958501E+02 -0.13120263660E+03  0.39115742392E+02  0.15606812127E+03  0.47000000000E+01 0.  1.
<mgrwt>
<rscale>  0 0.99842409E+03</rscale>
<asrwt>0</asrwt>
<pdfrwt beam="1">  1        2 0.81410528E-01 0.99842409E+03</pdfrwt>
<pdfrwt beam="2">  1       -2 0.72454077E-01 0.99842409E+03</pdfrwt>
<totfact> 0.12006968E+02</totfact>
</mgrwt>
</event>
<event>
 9    1  0.4488205E-036  0.1000168E+04  0.7818608E-02  0.8680878E-01
          2   -1    0    0  501    0  0.00000000000E+00  0.00000000000E+00  0.12941819656E+04  0.12941819656E+04  0.00000000000E+00 0. -1.
         -2   -1    0    0    0  501 -0.00000000000E+00 -0.00000000000E+00 -0.19323708980E+03  0.19323708980E+03  0.00000000000E+00 0. -1.
         36    2    1    2    0    0  0.00000000000E+00  0.14210854715E-13  0.11009448758E+04  0.14874190554E+04  0.10001678993E+04 0.  0.
         25    2    3    3    0    0 -0.68045903260E+02  0.10581810755E+03  0.11133691474E+03  0.20904811723E+03  0.12440856040E+03 0.  0.
         35    2    3    3    0    0  0.68045903260E+02 -0.10581810755E+03  0.98960796104E+03  0.12783709381E+04  0.79942518229E+03 0.  0.
         22    1    5    5    0    0  0.30021449899E+03 -0.32232028151E+03  0.78668123324E+03  0.90160216948E+03  0.00000000000E+00 0.  1.
         22    1    5    5    0    0 -0.23216859573E+03  0.21650217397E+03  0.20292672780E+03  0.37676876865E+03  0.00000000000E+00 0.  1.
          5    1    4    4  502    0  0.45111949138E+01 -0.15077227413E+02 -0.13041822176E+02  0.20972667729E+02  0.47000000000E+01 0.  1.
         -5    1    4    4    0  502 -0.72557098174E+02  0.12089533496E+03  0.12437873691E+03  0.18807544950E+03  0.47000000000E+01 0.  1.
<mgrwt>
<rscale>  0 0.10001679E+04</rscale>
<asrwt>0</asrwt>
<pdfrwt beam="1">  1        2 0.19910491E+00 0.10001679E+04</pdfrwt>
<pdfrwt beam="2">  1       -2 0.29728784E-01 0.10001679E+04</pdfrwt>
<totfact> 0.20880348E+02</totfact>
</mgrwt>
</event>
<event>
 9    1  0.4488205E-036  0.9993922E+03  0.7818608E-02  0.8681617E-01
         -2   -1    0    0    0  501 -0.00000000000E+00  0.00000000000E+00  0.24230942204E+03  0.24230942204E+03  0.00000000000E+00 0.  1.
          2   -1    0    0  501    0  0.00000000000E+00 -0.00000000000E+00 -0.10304849200E+04  0.10304849200E+04  0.00000000000E+00 0.  1.
         36    2    1    2    0    0  0.00000000000E+00 -0.28421709430E-13 -0.78817549795E+03  0.12727943420E+04  0.99939222607E+03 0.  0.
         25    2    3    3    0    0  0.12500575048E+03  0.51121996139E+02 -0.17657893766E+03  0.25563856470E+03  0.12621829659E+03 0.  0.
         35    2    3    3    0    0 -0.12500575048E+03 -0.51121996139E+02 -0.61159656029E+03  0.10171557773E+04  0.80144595991E+03 0.  0.
         22    1    5    5    0    0 -0.69705823122E+02 -0.30001307704E+03  0.46409279857E+02  0.31148125052E+03  0.00000000000E+00 0.  1.
         22    1    5    5    0    0 -0.55299927357E+02  0.24889108090E+03 -0.65800584015E+03  0.70567452681E+03  0.00000000000E+00 0.  1.
          5    1    4    4  502    0 -0.12357973511E+01  0.42970355905E+02 -0.66705394258E+01  0.43755739943E+02  0.47000000000E+01 0. -1.
         -5    1    4    4    0  502  0.12624154783E+03  0.81516402337E+01 -0.16990839823E+03  0.21188282476E+03  0.47000000000E+01 0. -1.
<mgrwt>
<rscale>  0 0.99939223E+03</rscale>
<asrwt>0</asrwt>
<pdfrwt beam="1">  1        2 0.15853615E+00 0.99939223E+03</pdfrwt>
<pdfrwt beam="2">  1       -2 0.37278372E-01 0.99939223E+03</pdfrwt>
<totfact> 0.19740062E+02</totfact>
</mgrwt>
</event>
<event>
 9    1  0.4488205E-036  0.9989406E+03  0.7818608E-02  0.8682047E-01
          2   -1    0    0  501    0  0.00000000000E+00  0.00000000000E+00  0.19086998189E+04  0.19086998189E+04  0.00000000000E+00 0. -1.
         -2   -1    0    0    0  501 -0.00000000000E+00 -0.00000000000E+00 -0.13070185009E+03  0.13070185009E+03  0.00000000000E+00 0. -1.
         36    2    1    2    0    0  0.14210854715E-13  0.00000000000E+00  0.17779979688E+04  0.20394016689E+04  0.99894063405E+03 0.  0.
         25    2    3    3    0    0 -0.10182548103E+03 -0.78104205276E+02  0.45969018263E+03  0.49337680489E+03  0.12504763944E+03 0.  0.
         35    2    3    3    0    0  0.10182548103E+03  0.78104205276E+02  0.13183077861E+04  0.15460248641E+04  0.79736363462E+03 0.  0.
         22    1    5    5    0    0 -0.66944107640E+02  0.24095282569E+01  0.13556682710E+04  0.13573222832E+04  0.00000000000E+00 0. -1.
         22    1    5    5    0    0  0.16876958867E+03  0.75694677019E+02 -0.37360484899E+02  0.18870258086E+03  0.00000000000E+00 0. -1.
          5    1    4    4  502    0  0.20664814207E+02 -0.46029465037E+02  0.16486775930E+03  0.17247960533E+03  0.47000000000E+01 0.  1.
         -5    1    4    4    0  502 -0.12249029524E+03 -0.32074740239E+02  0.29482242333E+03  0.32089719956E+03  0.47000000000E+01 0.  1.
<mgrwt>
<rscale>  0 0.99894063E+03</rscale>
<asrwt>0</asrwt>
<pdfrwt beam="1">  1        2 0.29364610E+00 0.99894063E+03</pdfrwt>
<pdfrwt beam="2">  1       -2 0.20107978E-01 0.99894063E+03</pdfrwt>
<totfact> 0.18714384E+02</totfact>
</mgrwt>
</event>
<event>
 9    1  0.4488205E-036  0.9998466E+03  0.7818608E-02  0.8681184E-01
          2   -1    0    0  501    0  0.00000000000E+00  0.00000000000E+00  0.32241029756E+04  0.32241029756E+04  0.00000000000E+00 0. -1.
         -2   -1    0    0    0  501 -0.00000000000E+00 -0.00000000000E+00 -0.77517152724E+02  0.77517152724E+02  0.00000000000E+00 0. -1.
         36    2    1    2    0    0 -0.14210854715E-13 -0.21316282073E-13  0.31465858229E+04  0.33016201284E+04  0.99984655374E+03 0.  0.
         25    2    3    3    0    0  0.96743560100E+02  0.53853865857E+02  0.30471635241E+03  0.34711091415E+03  0.12399345145E+03 0.  0.
         35    2    3    3    0    0 -0.96743560100E+02 -0.53853865857E+02  0.28418694705E+04  0.29545092142E+04  0.80040180799E+03 0.  0.
         22    1    5    5    0    0  0.30048232716E+03 -0.19260515452E+03  0.91305465186E+03  0.98033421432E+03  0.00000000000E+00 0. -1.
         22    1    5    5    0    0 -0.39722588726E+03  0.13875128867E+03  0.19288148186E+04  0.19741749999E+04  0.00000000000E+00 0. -1.
          5    1    4    4  502    0  0.86602103259E+02  0.88380814607E+02  0.26928898671E+03  0.29639456986E+03  0.47000000000E+01 0.  1.
         -5    1    4    4    0  502  0.10141456841E+02 -0.34526948750E+02  0.35427365702E+02  0.50716344283E+02  0.47000000000E+01 0.  1.
<mgrwt>
<rscale>  0 0.99984655E+03</rscale>
<asrwt>0</asrwt>
<pdfrwt beam="1">  1        2 0.49601574E+00 0.99984655E+03</pdfrwt>
<pdfrwt beam="2">  1       -2 0.11925718E-01 0.99984655E+03</pdfrwt>
<totfact> 0.68771567E+01</totfact>
</mgrwt>
</event>
<event>
 9    1  0.4488205E-036  0.1000016E+04  0.7818608E-02  0.8681023E-01
          1   -1    0    0  501    0  0.00000000000E+00  0.00000000000E+00  0.11235658402E+04  0.11235658402E+04  0.00000000000E+00 0. -1.
         -1   -1    0    0    0  501 -0.00000000000E+00 -0.00000000000E+00 -0.22251288911E+03  0.22251288911E+03  0.00000000000E+00 0. -1.
         36    2    1    2    0    0  0.14210854715E-13  0.00000000000E+00  0.90105295108E+03  0.13460787293E+04  0.10000157623E+04 0.  0.
         25    2    3    3    0    0 -0.22151044612E+02 -0.13501581581E+03  0.20649569345E+03  0.27763959392E+03  0.12539271671E+03 0.  0.
         35    2    3    3    0    0  0.22151044612E+02  0.13501581581E+03  0.69455725763E+03  0.10684391354E+04  0.80027024347E+03 0.  0.
         22    1    5    5    0    0  0.35465303382E+03 -0.64868599303E+02  0.54328634835E+03  0.65203279510E+03  0.00000000000E+00 0.  1.
         22    1    5    5    0    0 -0.33250198921E+03  0.19988441511E+03  0.15127090927E+03  0.41640634028E+03  0.00000000000E+00 0.  1.
          5    1    4    4  502    0 -0.56847657289E+02 -0.13049186725E+03  0.12764568813E+03  0.19124668692E+03  0.47000000000E+01 0.  1.
         -5    1    4    4    0  502  0.34696612676E+02 -0.45239485578E+01  0.78850005321E+02  0.86392907006E+02  0.47000000000E+01 0.  1.
<mgrwt>
<rscale>  0 0.10000158E+04</rscale>
<asrwt>0</asrwt>
<pdfrwt beam="1">  1        1 0.17285628E+00 0.10000158E+04</pdfrwt>
<pdfrwt beam="2">  1       -1 0.34232753E-01 0.10000158E+04</pdfrwt>
<totfact> 0.10896704E+02</totfact>
</mgrwt>
</event>
<event>
 9    1  0.4488205E-036  0.1000927E+04  0.7818608E-02  0.8680155E-01
          2   -1    0    0  501    0  0.00000000000E+00  0.00000000000E+00  0.11167136765E+04  0.11167136765E+04  0.00000000000E+00 0. -1.
         -2   -1    0    0    0  501 -0.00000000000E+00 -0.00000000000E+00 -0.22428657168E+03  0.22428657168E+03  0.00000000000E+00 0. -1.
         36    2    1    2    0    0  0.00000000000E+00  0.00000000000E+00  0.89242710484E+03  0.13410002482E+04  0.10009273341E+04 0.  0.
         25    2    3    3    0    0  0.43259995360E+02  0.13312125849E+03  0.19404670491E+03  0.26999039383E+03  0.12509193585E+03 0.  0.
         35    2    3    3    0    0 -0.43259995360E+02 -0.13312125849E+03  0.69838039993E+03  0.10710098544E+04  0.79983387554E+03 0.  0.
         22    1    5    5    0    0 -0.31569241279E+02  0.12750599428E+03 -0.14059362393E+03  0.19240832275E+03  0.00000000000E+00 0.  1.
         22    1    5    5    0    0 -0.11690754081E+02 -0.26062725278E+03  0.83897402387E+03  0.87860153161E+03  0.00000000000E+00 0.  1.
          5    1    4    4  502    0  0.23668896642E+02  0.12910508591E+03  0.79310184720E+02  0.15342925170E+03  0.47000000000E+01 0.  1.
         -5    1    4    4    0  502  0.19591098719E+02  0.40161725838E+01  0.11473652019E+03  0.11656114214E+03  0.47000000000E+01 0.  1.
<mgrwt>
<rscale>  0 0.10009273E+04</rscale>
<asrwt>0</asrwt>
<pdfrwt beam="1">  1        2 0.17180210E+00 0.10009273E+04</pdfrwt>
<pdfrwt beam="2">  1       -2 0.34505627E-01 0.10009273E+04</pdfrwt>
<totfact> 0.20206915E+02</totfact>
</mgrwt>
</event>
<event>
 9    1  0.4488205E-036  0.1000040E+04  0.7818608E-02  0.8681000E-01
         -1   -1    0    0    0  501 -0.00000000000E+00  0.00000000000E+00  0.84311954795E+02  0.84311954795E+02  0.00000000000E+00 0.  1.
          1   -1    0    0  501    0  0.00000000000E+00 -0.00000000000E+00 -0.29654150131E+04  0.29654150131E+04  0.00000000000E+00 0.  1.
         36    2    1    2    0    0 -0.14210854715E-13  0.00000000000E+00 -0.28811030583E+04  0.30497269679E+04  0.10000398723E+04 0.  0.
         25    2    3    3    0    0 -0.60286030290E+02 -0.10199658695E+03 -0.31049643401E+03  0.35488836729E+03  0.12449903014E+03 0.  0.
         35    2    3    3    0    0  0.60286030290E+02  0.10199658695E+03 -0.25706066243E+04  0.26948386006E+04  0.80006184588E+03 0.  0.
         22    1    5    5    0    0  0.34604793818E+03  0.19889802420E+03 -0.75191045525E+03  0.85128075995E+03  0.00000000000E+00 0.  1.
         22    1    5    5    0    0 -0.28576190789E+03 -0.96901437242E+02 -0.18186961690E+04  0.18435578406E+04  0.00000000000E+00 0.  1.
          5    1    4    4  502    0 -0.57961142211E+02 -0.11622891222E+03 -0.31354897363E+03  0.33941670982E+03  0.47000000000E+01 0.  1.
         -5    1    4    4    0  502 -0.23248880784E+01  0.14232325261E+02  0.30525396140E+01  0.15471657475E+02  0.47000000000E+01 0.  1.
<mgrwt>
<rscale>  0 0.10000399E+04</rscale>
<asrwt>0</asrwt>
<pdfrwt beam="1">  1        1 0.45621761E+00 0.10000399E+04</pdfrwt>
<pdfrwt beam="2">  1       -1 0.12971072E-01 0.10000399E+04</pdfrwt>
<totfact> 0.26800567E+01</totfact>
</mgrwt>
</event>
<event>
 9    1  0.4488205E-036  0.9999164E+03  0.7818608E-02  0.8681118E-01
         -2   -1    0    0    0  501 -0.00000000000E+00  0.00000000000E+00  0.18179933094E+03  0.18179933094E+03  0.00000000000E+00 0. -1.
          2   -1    0    0  501    0  0.00000000000E+00 -0.00000000000E+00 -0.13749127374E+04  0.13749127374E+04  0.00000000000E+00 0. -1.
         36    2    1    2    0    0  0.00000000000E+00  0.28421709430E-13 -0.11931134065E+04  0.15567120684E+04  0.99991642805E+03 0.  0.
         25    2    3    3    0    0  0.79756042619E+02  0.50164724427E+02 -0.38527449851E+03  0.41584291282E+03  0.12494544022E+03 0.  0.
         35    2    3    3    0    0 -0.79756042619E+02 -0.50164724427E+02 -0.80783890798E+03  0.11408691556E+04  0.80006324933E+03 0.  0.
         22    1    5    5    0    0 -0.14644351656E+03 -0.36885400900E+03 -0.68735954545E+03  0.79370153598E+03  0.00000000000E+00 0. -1.
         22    1    5    5    0    0  0.66687473936E+02  0.31868928457E+03 -0.12047936253E+03  0.34716761957E+03  0.00000000000E+00 0. -1.
          5    1    4    4  502    0  0.84028584943E+02  0.85489852386E+02 -0.31147382175E+03  0.33377739526E+03  0.47000000000E+01 0. -1.
         -5    1    4    4    0  502 -0.42725423244E+01 -0.35325127959E+02 -0.73800676753E+02  0.82065517560E+02  0.47000000000E+01 0. -1.
<mgrwt>
<rscale>  0 0.99991643E+03</rscale>
<asrwt>0</asrwt>
<pdfrwt beam="1">  1        2 0.21152504E+00 0.99991643E+03</pdfrwt>
<pdfrwt beam="2">  1       -2 0.27969128E-01 0.99991643E+03</pdfrwt>
<totfact> 0.20950489E+02</totfact>
</mgrwt>
</event>
<event>
 9    1  0.4488205E-036  0.9971251E+03  0.7818608E-02  0.8683781E-01
          1   -1    0    0  501    0  0.00000000000E+00  0.00000000000E+00  0.12349570886E+04  0.12349570886E+04  0.00000000000E+00 0. -1.
         -1   -1    0    0    0  501 -0.00000000000E+00 -0.00000000000E+00 -0.20127387142E+03  0.20127387142E+03  0.00000000000E+00 0. -1.
         36    2    1    2    0    0  0.14210854715E-13 -0.14210854715E-13  0.10336832172E+04  0.14362309600E+04  0.99712505586E+03 0.  0.
         25    2    3    3    0    0  0.53348249669E+02  0.20235186620E+02  0.23263805334E+01  0.12978019946E+03  0.11654179338E+03 0.  0.
         35    2    3    3    0    0 -0.53348249669E+02 -0.20235186620E+02  0.10313568366E+04  0.13064507605E+04  0.79991322450E+03 0.  0.
         22    1    5    5    0    0 -0.63360927312E+02 -0.39572183867E+03  0.69486527822E+03  0.80215218979E+03  0.00000000000E+00 0. -1.
         22    1    5    5    0    0  0.10012677643E+02  0.37548665205E+03  0.33649155842E+03  0.50429857076E+03  0.00000000000E+00 0. -1.
          5    1    4    4  502    0 -0.10794603974E+02 -0.39160768577E+02 -0.78695131632E+01  0.41642628495E+02  0.47000000000E+01 0. -1.
         -5    1    4    4    0  502  0.64142853643E+02  0.59395955197E+02  0.10195893697E+02  0.88137570965E+02  0.47000000000E+01 0. -1.
<mgrwt>
<rscale>  0 0.99712506E+03</rscale>
<asrwt>0</asrwt>
<pdfrwt beam="1">  1        1 0.18999339E+00 0.99712506E+03</pdfrwt>
<pdfrwt beam="2">  1       -1 0.30965212E-01 0.99712506E+03</pdfrwt>
<totfact> 0.10691936E+02</totfact>
</mgrwt>
</event>
<event>
 9    1  0.4488205E-036  0.1000577E+04  0.7818608E-02  0.8680488E-01
          1   -1    0    0  501    0  0.00000000000E+00  0.00000000000E+00  0.41549770145E+03  0.41549770145E+03  0.00000000000E+00 0.  1.
         -1   -1    0    0    0  501 -0.00000000000E+00 -0.00000000000E+00 -0.60238311324E+03  0.60238311324E+03  0.00000000000E+00 0.  1.
         36    2    1    2    0    0  0.00000000000E+00  0.00000000000E+00 -0.18688541179E+03  0.10178808147E+04  0.10005774312E+04 0.  0.
         25    2    3    3    0    0 -0.16725772085E+02 -0.13700923366E+03 -0.75535615636E+01  0.18639956943E+03  0.12504583812E+03 0.  0.
         35    2    3    3    0    0  0.16725772085E+02  0.13700923366E+03 -0.17933185022E+03  0.83148124526E+03  0.80009366149E+03 0.  0.
         22    1    5    5    0    0 -0.18927715165E+03 -0.18417501179E+03  0.17005936697E+03  0.31411218283E+03  0.00000000000E+00 0.  1.
         22    1    5    5    0    0  0.20600292374E+03  0.32118424545E+03 -0.34939121719E+03  0.51736906244E+03  0.00000000000E+00 0.  1.
          5    1    4    4  502    0 -0.51571184282E+02 -0.13024545509E+03 -0.31066013420E+02  0.14356410697E+03  0.47000000000E+01 0. -1.
         -5    1    4    4    0  502  0.34845412197E+02 -0.67637785720E+01  0.23512451857E+02  0.42835462459E+02  0.47000000000E+01 0. -1.
<mgrwt>
<rscale>  0 0.10005774E+04</rscale>
<asrwt>0</asrwt>
<pdfrwt beam="1">  1        1 0.63922724E-01 0.10005774E+04</pdfrwt>
<pdfrwt beam="2">  1       -1 0.92674325E-01 0.10005774E+04</pdfrwt>
<totfact> 0.76963617E+01</totfact>
</mgrwt>
</event>
<event>
 9    1  0.4488205E-036  0.1000056E+04  0.7818608E-02  0.8680985E-01
         -2   -1    0    0    0  501 -0.00000000000E+00  0.00000000000E+00  0.29996500224E+03  0.29996500224E+03  0.00000000000E+00 0.  1.
          2   -1    0    0  501    0  0.00000000000E+00 -0.00000000000E+00 -0.83352374670E+03  0.83352374670E+03  0.00000000000E+00 0.  1.
         36    2    1    2    0    0  0.00000000000E+00  0.00000000000E+00 -0.53355874446E+03  0.11334887489E+04  0.10000559035E+04 0.  0.
         25    2    3    3    0    0  0.58938555789E+02 -0.61115218397E+02 -0.23043336935E+03  0.27574935249E+03  0.12541668314E+03 0.  0.
         35    2    3    3    0    0 -0.58938555789E+02  0.61115218397E+02 -0.30312537511E+03  0.85773939645E+03  0.79788661845E+03 0.  0.
         22    1    5    5    0    0 -0.54109070360E+02  0.15537335803E+03  0.24853826547E+03  0.29806029807E+03  0.00000000000E+00 0.  1.
         22    1    5    5    0    0 -0.48294854281E+01 -0.94258139636E+02 -0.55166364058E+03  0.55967909838E+03  0.00000000000E+00 0.  1.
          5    1    4    4  502    0  0.32614979429E+01  0.16896158343E+02 -0.14851114167E+03  0.14957863062E+03  0.47000000000E+01 0. -1.
         -5    1    4    4    0  502  0.55677057846E+02 -0.78011376740E+02 -0.81922227680E+02  0.12617072188E+03  0.47000000000E+01 0. -1.
<mgrwt>
<rscale>  0 0.10000559E+04</rscale>
<asrwt>0</asrwt>
<pdfrwt beam="1">  1        2 0.12823442E+00 0.10000559E+04</pdfrwt>
<pdfrwt beam="2">  1       -2 0.46148462E-01 0.10000559E+04</pdfrwt>
<totfact> 0.17562743E+02</totfact>
</mgrwt>
</event>
<event>
 9    1  0.4488205E-036  0.9976392E+03  0.7818608E-02  0.8683289E-01
         -2   -1    0    0    0  501 -0.00000000000E+00  0.00000000000E+00  0.23019810999E+03  0.23019810999E+03  0.00000000000E+00 0. -1.
          2   -1    0    0  501    0  0.00000000000E+00 -0.00000000000E+00 -0.10808992949E+04  0.10808992949E+04  0.00000000000E+00 0. -1.
         36    2    1    2    0    0  0.28421709430E-13 -0.35527136788E-14 -0.85070118487E+03  0.13110974048E+04  0.99763916275E+03 0.  0.
         25    2    3    3    0    0 -0.11474299016E+03  0.23658327170E+02 -0.68203552626E+02  0.18507657274E+03  0.12599977361E+03 0.  0.
         35    2    3    3    0    0  0.11474299016E+03 -0.23658327170E+02 -0.78249763224E+03  0.11260208321E+04  0.80118331213E+03 0.  0.
         22    1    5    5    0    0  0.31523061521E+03 -0.13531427360E+03 -0.82423539945E+03  0.89277336828E+03  0.00000000000E+00 0.  1.
         22    1    5    5    0    0 -0.20048762505E+03  0.11165594643E+03  0.41737767208E+02  0.23324746383E+03  0.00000000000E+00 0.  1.
          5    1    4    4  502    0 -0.54396548183E+02  0.27062430385E+02  0.31340101478E+02  0.68524824357E+02  0.47000000000E+01 0.  1.
         -5    1    4    4    0  502 -0.60346441978E+02 -0.34041032152E+01 -0.99543654104E+02  0.11655174838E+03  0.47000000000E+01 0.  1.
<mgrwt>
<rscale>  0 0.99763916E+03</rscale>
<asrwt>0</asrwt>
<pdfrwt beam="1">  1        2 0.16629220E+00 0.99763916E+03</pdfrwt>
<pdfrwt beam="2">  1       -2 0.35415094E-01 0.99763916E+03</pdfrwt>
<totfact> 0.20237586E+02</totfact>
</mgrwt>
</event>
<event>
 9    1  0.4488205E-036  0.1000349E+04  0.7818608E-02  0.8680705E-01
         -2   -1    0    0    0  501 -0.00000000000E+00  0.00000000000E+00  0.30860455161E+03  0.30860455161E+03  0.00000000000E+00 0. -1.
          2   -1    0    0  501    0  0.00000000000E+00 -0.00000000000E+00 -0.81066453134E+03  0.81066453134E+03  0.00000000000E+00 0. -1.
         36    2    1    2    0    0  0.00000000000E+00  0.14210854715E-13 -0.50205997973E+03  0.11192690830E+04  0.10003494673E+04 0.  0.
         25    2    3    3    0    0  0.11324257746E+03  0.59419506878E+02 -0.15963236259E+03  0.23976717454E+03  0.12510494656E+03 0.  0.
         35    2    3    3    0    0 -0.11324257746E+03 -0.59419506878E+02 -0.34242761714E+03  0.87950190842E+03  0.79994523236E+03 0.  0.
         22    1    5    5    0    0  0.34931782090E+02  0.36170460895E+03 -0.14208723232E+03  0.39017846574E+03  0.00000000000E+00 0. -1.
         22    1    5    5    0    0 -0.14817435955E+03 -0.42112411583E+03 -0.20034038482E+03  0.48932344268E+03  0.00000000000E+00 0. -1.
          5    1    4    4  502    0  0.49271815099E+02  0.84108344323E+02 -0.13536913044E+03  0.16687964772E+03  0.47000000000E+01 0.  1.
         -5    1    4    4    0  502  0.63970762358E+02 -0.24688837445E+02 -0.24263232153E+02  0.72887526818E+02  0.47000000000E+01 0.  1.
<mgrwt>
<rscale>  0 0.10003495E+04</rscale>
<asrwt>0</asrwt>
<pdfrwt beam="1">  1        2 0.12471762E+00 0.10003495E+04</pdfrwt>
<pdfrwt beam="2">  1       -2 0.47477623E-01 0.10003495E+04</pdfrwt>
<totfact> 0.17220043E+02</totfact>
</mgrwt>
</event>
<event>
 9    1  0.4488205E-036  0.1000639E+04  0.7818608E-02  0.8680429E-01
         -2   -1    0    0    0  501 -0.00000000000E+00  0.00000000000E+00  0.54635943261E+03  0.54635943261E+03  0.00000000000E+00 0.  1.
          2   -1    0    0  501    0  0.00000000000E+00 -0.00000000000E+00 -0.45815963837E+03  0.45815963837E+03  0.00000000000E+00 0.  1.
         36    2    1    2    0    0 -0.14210854715E-13  0.00000000000E+00  0.88199794239E+02  0.10045190710E+04  0.10006394757E+04 0.  0.
         25    2    3    3    0    0  0.43927650423E+02 -0.12853532765E+03 -0.21571890544E+02  0.18628255974E+03  0.12563787914E+03 0.  0.
         35    2    3    3    0    0 -0.43927650423E+02  0.12853532765E+03  0.10977168478E+03  0.81823651125E+03  0.79938113353E+03 0.  0.
         22    1    5    5    0    0  0.11703449239E+03 -0.25404131571E+03 -0.16093731375E+03  0.32269936698E+03  0.00000000000E+00 0. -1.
         22    1    5    5    0    0 -0.16096214281E+03  0.38257664335E+03  0.27070899854E+03  0.49553714427E+03  0.00000000000E+00 0. -1.
          5    1    4    4  502    0  0.24421739302E+02  0.40191053638E+01  0.33016847205E+02  0.41530431708E+02  0.47000000000E+01 0. -1.
         -5    1    4    4    0  502  0.19505911121E+02 -0.13255443301E+03 -0.54588737749E+02  0.14475212803E+03  0.47000000000E+01 0. -1.
<mgrwt>
<rscale>  0 0.10006395E+04</rscale>
<asrwt>0</asrwt>
<pdfrwt beam="1">  1        2 0.70486098E-01 0.10006395E+04</pdfrwt>
<pdfrwt beam="2">  1       -2 0.84055298E-01 0.10006395E+04</pdfrwt>
<totfact> 0.10107403E+02</totfact>
</mgrwt>
</event>
<event>
 9    1  0.4488205E-036  0.9995619E+03  0.7818608E-02  0.8681455E-01
         -2   -1    0    0    0  501 -0.00000000000E+00  0.00000000000E+00  0.27054976794E+03  0.27054976794E+03  0.00000000000E+00 0. -1.
          2   -1    0    0  501    0  0.00000000000E+00 -0.00000000000E+00 -0.92323491140E+03  0.92323491140E+03  0.00000000000E+00 0. -1.
         36    2    1    2    0    0  0.00000000000E+00 -0.28421709430E-13 -0.65268514346E+03  0.11937846793E+04  0.99956188609E+03 0.  0.
         25    2    3    3    0    0  0.10925308505E+03  0.88970703937E+02 -0.11758844786E+03  0.22232327957E+03  0.12549332578E+03 0.  0.
         35    2    3    3    0    0 -0.10925308505E+03 -0.88970703937E+02 -0.53509669560E+03  0.97146139977E+03  0.79847151161E+03 0.  0.
         22    1    5    5    0    0  0.12728256292E+03  0.19148780929E+03  0.89781374622E+02  0.24683826113E+03  0.00000000000E+00 0.  1.
         22    1    5    5    0    0 -0.23653564797E+03 -0.28045851323E+03 -0.62487807022E+03  0.72462313864E+03  0.00000000000E+00 0.  1.
          5    1    4    4  502    0  0.13689457548E+03  0.71950268871E+02 -0.10594041094E+03  0.18751647036E+03  0.47000000000E+01 0.  1.
         -5    1    4    4    0  502 -0.27641490430E+02  0.17020435067E+02 -0.11648036921E+02  0.34806809207E+02  0.47000000000E+01 0.  1.
<mgrwt>
<rscale>  0 0.99956189E+03</rscale>
<asrwt>0</asrwt>
<pdfrwt beam="1">  1        2 0.14203614E+00 0.99956189E+03</pdfrwt>
<pdfrwt beam="2">  1       -2 0.41623042E-01 0.99956189E+03</pdfrwt>
<totfact> 0.18709794E+02</totfact>
</mgrwt>
</event>
<event>
 9    1  0.4488205E-036  0.9987425E+03  0.7818608E-02  0.8682236E-01
         -2   -1    0    0    0  501 -0.00000000000E+00  0.00000000000E+00  0.10364489577E+03  0.10364489577E+03  0.00000000000E+00 0. -1.
          2   -1    0    0  501    0  0.00000000000E+00 -0.00000000000E+00 -0.24060197699E+04  0.24060197699E+04  0.00000000000E+00 0. -1.
         36    2    1    2    0    0  0.14210854715E-13  0.00000000000E+00 -0.23023748741E+04  0.25096646656E+04  0.99874254592E+03 0.  0.
         25    2    3    3    0    0  0.35716465144E+02  0.13470915173E+03 -0.46633834752E+03  0.50252806040E+03  0.12506308680E+03 0.  0.
         35    2    3    3    0    0 -0.35716465144E+02 -0.13470915173E+03 -0.18360365266E+04  0.20071366052E+04  0.79883978598E+03 0.  0.
         22    1    5    5    0    0  0.24751834233E+03  0.49897986142E+02 -0.16358985054E+03  0.30086006383E+03  0.00000000000E+00 0.  1.
         22    1    5    5    0    0 -0.28323480747E+03 -0.18460713788E+03 -0.16724466760E+04  0.17062765414E+04  0.00000000000E+00 0.  1.
          5    1    4    4  502    0  0.27571100461E+02 -0.95270363986E+01 -0.17307155558E+03  0.17557557733E+03  0.47000000000E+01 0.  1.
         -5    1    4    4    0  502  0.81453646836E+01  0.14423618813E+03 -0.29326679194E+03  0.32695248307E+03  0.47000000000E+01 0.  1.
<mgrwt>
<rscale>  0 0.99874255E+03</rscale>
<asrwt>0</asrwt>
<pdfrwt beam="1">  1        2 0.37015687E+00 0.99874255E+03</pdfrwt>
<pdfrwt beam="2">  1       -2 0.15945369E-01 0.99874255E+03</pdfrwt>
<totfact> 0.14318824E+02</totfact>
</mgrwt>
</event>
<event>
 9    1  0.4488205E-036  0.9953714E+03  0.7818608E-02  0.8685458E-01
          2   -1    0    0  501    0  0.00000000000E+00  0.00000000000E+00  0.15970926133E+04  0.15970926133E+04  0.00000000000E+00 0.  1.
         -2   -1    0    0    0  501 -0.00000000000E+00 -0.00000000000E+00 -0.15508872013E+03  0.15508872013E+03  0.00000000000E+00 0.  1.
         36    2    1    2    0    0 -0.14210854715E-13  0.14210854715E-13  0.14420038932E+04  0.17521813334E+04  0.99537138663E+03 0.  0.
         25    2    3    3    0    0 -0.33372799988E+02 -0.36757795739E+02  0.47986224354E+03  0.49848245054E+03  0.12550737586E+03 0.  0.
         35    2    3    3    0    0  0.33372799988E+02  0.36757795739E+02  0.96214164963E+03  0.12536988829E+04  0.80223404048E+03 0.  0.
         22    1    5    5    0    0  0.14893603516E+03  0.32342918845E+03  0.15303959110E+03  0.38756870224E+03  0.00000000000E+00 0. -1.
         22    1    5    5    0    0 -0.11556323518E+03 -0.28667139271E+03  0.80910205853E+03  0.86613018066E+03  0.00000000000E+00 0. -1.
          5    1    4    4  502    0 -0.38750953012E+02 -0.63624492437E+02  0.15094996371E+03  0.16839742855E+03  0.47000000000E+01 0. -1.
         -5    1    4    4    0  502  0.53781530236E+01  0.26866696698E+02  0.32891227983E+03  0.33008502199E+03  0.47000000000E+01 0. -1.
<mgrwt>
<rscale>  0 0.99537139E+03</rscale>
<asrwt>0</asrwt>
<pdfrwt beam="1">  1        2 0.24570655E+00 0.99537139E+03</pdfrwt>
<pdfrwt beam="2">  1       -2 0.23859804E-01 0.99537139E+03</pdfrwt>
<totfact> 0.20803955E+02</totfact>
</mgrwt>
</event>
<event>
 9    1  0.4488205E-036  0.1004095E+04  0.7818608E-02  0.8677148E-01
         -2   -1    0    0    0  501 -0.00000000000E+00  0.00000000000E+00  0.31468082174E+03  0.31468082174E+03  0.00000000000E+00 0.  1.
          2   -1    0    0  501    0  0.00000000000E+00 -0.00000000000E+00 -0.80097525422E+03  0.80097525422E+03  0.00000000000E+00 0.  1.
         36    2    1    2    0    0  0.00000000000E+00 -0.17763568394E-13 -0.48629443248E+03  0.11156560760E+04  0.10040947190E+04 0.  0.
         25    2    3    3    0    0  0.44803324261E+01 -0.76844145416E+01  0.67535699039E+02  0.14212435547E+03  0.12473627447E+03 0.  0.
         35    2    3    3    0    0 -0.44803324261E+01  0.76844145416E+01 -0.55383013152E+03  0.97353172048E+03  0.80059794691E+03 0.  0.
         22    1    5    5    0    0 -0.46225809402E+02  0.28921774415E+03 -0.61611138962E+03  0.68218543916E+03  0.00000000000E+00 0. -1.
         22    1    5    5    0    0  0.41745476975E+02 -0.28153332961E+03  0.62281258096E+02  0.29134628132E+03  0.00000000000E+00 0. -1.
          5    1    4    4  502    0  0.29714997158E+02  0.35948748422E+01  0.96898777240E+02  0.10152520481E+03  0.47000000000E+01 0.  1.
         -5    1    4    4    0  502 -0.25234664732E+02 -0.11279289384E+02 -0.29363078201E+02  0.40599150663E+02  0.47000000000E+01 0.  1.
<mgrwt>
<rscale>  0 0.10040947E+04</rscale>
<asrwt>0</asrwt>
<pdfrwt beam="1">  1        2 0.12322696E+00 0.10040947E+04</pdfrwt>
<pdfrwt beam="2">  1       -2 0.48412434E-01 0.10040947E+04</pdfrwt>
<totfact> 0.16825564E+02</totfact>
</mgrwt>
</event>
<event>
 9    1  0.4488205E-036  0.9998755E+03  0.7818608E-02  0.8681156E-01
          2   -1    0    0  501    0  0.00000000000E+00  0.00000000000E+00  0.11781315224E+04  0.11781315224E+04  0.00000000000E+00 0. -1.
         -2   -1    0    0    0  501 -0.00000000000E+00 -0.00000000000E+00 -0.21214760311E+03  0.21214760311E+03  0.00000000000E+00 0. -1.
         36    2    1    2    0    0 -0.28421709430E-13  0.71054273576E-14  0.96598391925E+03  0.13902791255E+04  0.99987554949E+03 0.  0.
         25    2    3    3    0    0  0.11629104508E+03 -0.30814235703E+02  0.28445381037E+03  0.33282585933E+03  0.12404014719E+03 0.  0.
         35    2    3    3    0    0 -0.11629104508E+03  0.30814235703E+02  0.68153010888E+03  0.10574532661E+04  0.79953173575E+03 0.  0.
         22    1    5    5    0    0  0.25093502351E+03  0.78715996361E+02  0.63109219453E+03  0.68369726642E+03  0.00000000000E+00 0. -1.
         22    1    5    5    0    0 -0.36722606859E+03 -0.47901760658E+02  0.50437914347E+02  0.37375599973E+03  0.00000000000E+00 0. -1.
          5    1    4    4  502    0 -0.19886796866E+02  0.97693808997E+01  0.84474274099E+02  0.87458095550E+02  0.47000000000E+01 0.  1.
         -5    1    4    4    0  502  0.13617784195E+03 -0.40583616603E+02  0.19997953627E+03  0.24536776378E+03  0.47000000000E+01 0.  1.
<mgrwt>
<rscale>  0 0.99987555E+03</rscale>
<asrwt>0</asrwt>
<pdfrwt beam="1">  1        2 0.18125100E+00 0.99987555E+03</pdfrwt>
<pdfrwt beam="2">  1       -2 0.32638094E-01 0.99987555E+03</pdfrwt>
<totfact> 0.20584010E+02</totfact>
</mgrwt>
</event>
<event>
 9    1  0.4488205E-036  0.1000020E+04  0.7818608E-02  0.8681019E-01
          3   -1    0    0  501    0  0.00000000000E+00  0.00000000000E+00  0.33355510907E+03  0.33355510907E+03  0.00000000000E+00 0.  1.
         -3   -1    0    0    0  501 -0.00000000000E+00 -0.00000000000E+00 -0.74953181945E+03  0.74953181945E+03  0.00000000000E+00 0.  1.
         36    2    1    2    0    0  0.28421709430E-13  0.10658141036E-13 -0.41597671039E+03  0.10830869285E+04  0.10000203354E+04 0.  0.
         25    2    3    3    0    0  0.10162642806E+03 -0.23463248830E+02 -0.19197589669E+03  0.25187184805E+03  0.12532449084E+03 0.  0.
         35    2    3    3    0    0 -0.10162642806E+03  0.23463248830E+02 -0.22400081369E+03  0.83121508047E+03  0.79363952179E+03 0.  0.
         22    1    5    5    0    0 -0.39780074190E+03 -0.15459202182E+03 -0.14366469485E+02  0.42702519705E+03  0.00000000000E+00 0.  1.
         22    1    5    5    0    0  0.29617431385E+03  0.17805527065E+03 -0.20963434421E+03  0.40418988342E+03  0.00000000000E+00 0.  1.
          5    1    4    4  502    0 -0.23778460183E+02 -0.22729144398E+01 -0.75576026864E+02  0.79400296884E+02  0.47000000000E+01 0.  1.
         -5    1    4    4    0  502  0.12540488824E+03 -0.21190334390E+02 -0.11639986983E+03  0.17247155117E+03  0.47000000000E+01 0.  1.
<mgrwt>
<rscale>  0 0.10000203E+04</rscale>
<asrwt>0</asrwt>
<pdfrwt beam="1">  1        3 0.51316172E-01 0.10000203E+04</pdfrwt>
<pdfrwt beam="2">  1       -3 0.11531259E+00 0.10000203E+04</pdfrwt>
<totfact> 0.83272642E+00</totfact>
</mgrwt>
</event>
<event>
 9    1  0.4488205E-036  0.9981618E+03  0.7818608E-02  0.8682790E-01
          2   -1    0    0  501    0  0.00000000000E+00  0.00000000000E+00  0.21200823066E+04  0.21200823066E+04  0.00000000000E+00 0. -1.
         -2   -1    0    0    0  501 -0.00000000000E+00 -0.00000000000E+00 -0.11748682313E+03  0.11748682313E+03  0.00000000000E+00 0. -1.
         36    2    1    2    0    0  0.00000000000E+00 -0.35527136788E-14  0.20025954835E+04  0.22375691298E+04  0.99816178044E+03 0.  0.
         25    2    3    3    0    0 -0.13088047948E+03 -0.10608732428E+02  0.46449171653E+03  0.49900866878E+03  0.12654979917E+03 0.  0.
         35    2    3    3    0    0  0.13088047948E+03  0.10608732428E+02  0.15381037670E+04  0.17385604610E+04  0.79974185425E+03 0.  0.
         22    1    5    5    0    0 -0.28095892457E+03  0.13458495384E+03  0.31930931663E+03  0.44610477108E+03  0.00000000000E+00 0. -1.
         22    1    5    5    0    0  0.41183940405E+03 -0.12397622142E+03  0.12187944503E+04  0.12924556899E+04  0.00000000000E+00 0. -1.
          5    1    4    4  502    0 -0.82139217812E+02  0.27338688269E+02  0.11473026951E+03  0.14380326742E+03  0.47000000000E+01 0. -1.
         -5    1    4    4    0  502 -0.48741261671E+02 -0.37947420697E+02  0.34976144702E+03  0.35520540135E+03  0.47000000000E+01 0. -1.
<mgrwt>
<rscale>  0 0.99816178E+03</rscale>
<asrwt>0</asrwt>
<pdfrwt beam="1">  1        2 0.32616648E+00 0.99816178E+03</pdfrwt>
<pdfrwt beam="2">  1       -2 0.18074897E-01 0.99816178E+03</pdfrwt>
<totfact> 0.17030377E+02</totfact>
</mgrwt>
</event>
<event>
 9    1  0.4488205E-036  0.9994780E+03  0.7818608E-02  0.8681535E-01
          2   -1    0    0  501    0  0.00000000000E+00  0.00000000000E+00  0.88291403184E+03  0.88291403184E+03  0.00000000000E+00 0.  1.
         -2   -1    0    0    0  501 -0.00000000000E+00 -0.00000000000E+00 -0.28285776552E+03  0.28285776552E+03  0.00000000000E+00 0.  1.
         36    2    1    2    0    0  0.00000000000E+00 -0.14210854715E-13  0.60005626631E+03  0.11657717974E+04  0.99947804417E+03 0.  0.
         25    2    3    3    0    0 -0.12780736251E+03 -0.14495569619E+02  0.17599889922E+03  0.25117816210E+03  0.12477985870E+03 0.  0.
         35    2    3    3    0    0  0.12780736251E+03  0.14495569619E+02  0.42405736709E+03  0.91459363526E+03  0.80007001170E+03 0.  0.
         22    1    5    5    0    0  0.85217833941E+02  0.37408570175E+03  0.38402576397E+02  0.38558650048E+03  0.00000000000E+00 0. -1.
         22    1    5    5    0    0  0.42589528573E+02 -0.35959013213E+03  0.38565479069E+03  0.52900713479E+03  0.00000000000E+00 0. -1.
          5    1    4    4  502    0 -0.35503972661E+02 -0.53577131209E+02  0.12013742723E+03  0.13633096671E+03  0.47000000000E+01 0. -1.
         -5    1    4    4    0  502 -0.92303389854E+02  0.39081561590E+02  0.55861471989E+02  0.11484719538E+03  0.47000000000E+01 0. -1.
<mgrwt>
<rscale>  0 0.99947804E+03</rscale>
<asrwt>0</asrwt>
<pdfrwt beam="1">  1        2 0.13583293E+00 0.99947804E+03</pdfrwt>
<pdfrwt beam="2">  1       -2 0.43516580E-01 0.99947804E+03</pdfrwt>
<totfact> 0.18245966E+02</totfact>
</mgrwt>
</event>
<event>
 9    1  0.4488205E-036  0.9999973E+03  0.7818608E-02  0.8681041E-01
          2   -1    0    0  501    0  0.00000000000E+00  0.00000000000E+00  0.13811658032E+04  0.13811658032E+04  0.00000000000E+00 0. -1.
         -2   -1    0    0    0  501 -0.00000000000E+00 -0.00000000000E+00 -0.18100551817E+03  0.18100551817E+03  0.00000000000E+00 0. -1.
         36    2    1    2    0    0  0.35527136788E-14 -0.14210854715E-13  0.12001602850E+04  0.15621713213E+04  0.99999726376E+03 0.  0.
         25    2    3    3    0    0 -0.97098343739E+01 -0.39476422425E+02  0.43699997350E+03  0.45649269462E+03  0.12555450845E+03 0.  0.
         35    2    3    3    0    0  0.97098343739E+01  0.39476422425E+02  0.76316031150E+03  0.11056786267E+04  0.79903622929E+03 0.  0.
         22    1    5    5    0    0 -0.25291546247E+02 -0.30710246385E+03  0.68145141241E+03  0.74788208502E+03  0.00000000000E+00 0. -1.
         22    1    5    5    0    0  0.35001380620E+02  0.34657888628E+03  0.81708899092E+02  0.35779654170E+03  0.00000000000E+00 0. -1.
          5    1    4    4  502    0 -0.11039091866E+02  0.41807690757E+02  0.88568282008E+02  0.98672058524E+02  0.47000000000E+01 0. -1.
         -5    1    4    4    0  502  0.13292574921E+01 -0.81284113182E+02  0.34843169149E+03  0.35782063610E+03  0.47000000000E+01 0. -1.
<mgrwt>
<rscale>  0 0.99999726E+03</rscale>
<asrwt>0</asrwt>
<pdfrwt beam="1">  1        2 0.21248704E+00 0.99999726E+03</pdfrwt>
<pdfrwt beam="2">  1       -2 0.27847004E-01 0.99999726E+03</pdfrwt>
<totfact> 0.20943015E+02</totfact>
</mgrwt>
</event>
<event>
 9    1  0.4488205E-036  0.1001713E+04  0.7818608E-02  0.8679408E-01
          2   -1    0    0  501    0  0.00000000000E+00  0.00000000000E+00  0.10563530708E+04  0.10563530708E+04  0.00000000000E+00 0. -1.
         -2   -1    0    0    0  501 -0.00000000000E+00 -0.00000000000E+00 -0.23747494002E+03  0.23747494002E+03  0.00000000000E+00 0. -1.
         36    2    1    2    0    0  0.00000000000E+00  0.00000000000E+00  0.81887813080E+03  0.12938280108E+04  0.10017132966E+04 0.  0.
         25    2    3    3    0    0  0.10305350045E+03  0.49425434905E+02  0.25821139394E+03  0.30892110704E+03  0.12528459143E+03 0.  0.
         35    2    3    3    0    0 -0.10305350045E+03 -0.49425434905E+02  0.56066673687E+03  0.98490690380E+03  0.80164301391E+03 0.  0.
         22    1    5    5    0    0  0.30890303453E+03 -0.18837734846E+03  0.16736338313E+03  0.39864471923E+03  0.00000000000E+00 0.  1.
         22    1    5    5    0    0 -0.41195653498E+03  0.13895191356E+03  0.39330335374E+03  0.58626218457E+03  0.00000000000E+00 0.  1.
          5    1    4    4  502    0  0.40670296606E+02 -0.42080131301E+02  0.86749461191E+02  0.10474907872E+03  0.47000000000E+01 0.  1.
         -5    1    4    4    0  502  0.62383203844E+02  0.91505566206E+02  0.17146193274E+03  0.20417202832E+03  0.47000000000E+01 0.  1.
<mgrwt>
<rscale>  0 0.10017133E+04</rscale>
<asrwt>0</asrwt>
<pdfrwt beam="1">  1        2 0.16251585E+00 0.10017133E+04</pdfrwt>
<pdfrwt beam="2">  1       -2 0.36534607E-01 0.10017133E+04</pdfrwt>
<totfact> 0.19762434E+02</totfact>
</mgrwt>
</event>
<event>
 9    1  0.4488205E-036  0.9997861E+03  0.7818608E-02  0.8681242E-01
          2   -1    0    0  501    0  0.00000000000E+00  0.00000000000E+00  0.13177952890E+04  0.13177952890E+04  0.00000000000E+00 0.  1.
         -2   -1    0    0    0  501 -0.00000000000E+00 -0.00000000000E+00 -0.18962963376E+03  0.18962963376E+03  0.00000000000E+00 0.  1.
         36    2    1    2    0    0  0.14210854715E-13  0.00000000000E+00  0.11281656553E+04  0.15074249228E+04  0.99978605316E+03 0.  0.
         25    2    3    3    0    0  0.30078783173E+02  0.95995341901E+02  0.63386967377E+02  0.17214077624E+03  0.12447771024E+03 0.  0.
         35    2    3    3    0    0 -0.30078783173E+02 -0.95995341901E+02  0.10647786879E+04  0.13352841465E+04  0.79944371844E+03 0.  0.
         22    1    5    5    0    0 -0.26485171182E+03 -0.21135526903E+03  0.12726086937E+03  0.36195691439E+03  0.00000000000E+00 0.  1.
         22    1    5    5    0    0  0.23477292865E+03  0.11535992713E+03  0.93751781852E+03  0.97332723215E+03  0.00000000000E+00 0.  1.
          5    1    4    4  502    0 -0.17844535549E+02 -0.21957393038E+02 -0.23499069637E+01  0.28777884229E+02  0.47000000000E+01 0.  1.
         -5    1    4    4    0  502  0.47923318722E+02  0.11795273494E+03  0.65736874340E+02  0.14336289201E+03  0.47000000000E+01 0.  1.
<mgrwt>
<rscale>  0 0.99978605E+03</rscale>
<asrwt>0</asrwt>
<pdfrwt beam="1">  1        2 0.20273773E+00 0.99978605E+03</pdfrwt>
<pdfrwt beam="2">  1       -2 0.29173791E-01 0.99978605E+03</pdfrwt>
<totfact> 0.20937643E+02</totfact>
</mgrwt>
</event>
<event>
 9    1  0.4488205E-036  0.1000782E+04  0.7818608E-02  0.8680294E-01
         -1   -1    0    0    0  501 -0.00000000000E+00  0.00000000000E+00  0.13439254188E+03  0.13439254188E+03  0.00000000000E+00 0.  1.
          1   -1    0    0  501    0  0.00000000000E+00 -0.00000000000E+00 -0.18631317815E+04  0.18631317815E+04  0.00000000000E+00 0.  1.
         36    2    1    2    0    0 -0.14210854715E-13  0.28421709430E-13 -0.17287392397E+04  0.19975243234E+04  0.10007817264E+04 0.  0.
         25    2    3    3    0    0  0.25564474507E+02  0.91912255788E+02 -0.54922731072E+03  0.57124116433E+03  0.12475746018E+03 0.  0.
         35    2    3    3    0    0 -0.25564474507E+02 -0.91912255788E+02 -0.11795119289E+04  0.14262831591E+04  0.79619963215E+03 0.  0.
         22    1    5    5    0    0  0.40032545169E+02  0.31286712782E+03 -0.22508134818E+03  0.38749200978E+03  0.00000000000E+00 0.  1.
         22    1    5    5    0    0 -0.65597019676E+02 -0.40477938361E+03 -0.95443058076E+03  0.10387911493E+04  0.00000000000E+00 0.  1.
          5    1    4    4  502    0 -0.47825230655E+02  0.56276156729E+02 -0.29830658886E+03  0.30734861226E+03  0.47000000000E+01 0. -1.
         -5    1    4    4    0  502  0.73389705163E+02  0.35636099059E+02 -0.25092072186E+03  0.26389255207E+03  0.47000000000E+01 0. -1.
<mgrwt>
<rscale>  0 0.10007817E+04</rscale>
<asrwt>0</asrwt>
<pdfrwt beam="1">  1        1 0.28663566E+00 0.10007817E+04</pdfrwt>
<pdfrwt beam="2">  1       -1 0.20675776E-01 0.10007817E+04</pdfrwt>
<totfact> 0.75190632E+01</totfact>
</mgrwt>
</event>
<event>
 9    1  0.4488205E-036  0.1000260E+04  0.7818608E-02  0.8680790E-01
         -2   -1    0    0    0  501 -0.00000000000E+00  0.00000000000E+00  0.13618734764E+03  0.13618734764E+03  0.00000000000E+00 0.  1.
          2   -1    0    0  501    0  0.00000000000E+00 -0.00000000000E+00 -0.18366623954E+04  0.18366623954E+04  0.00000000000E+00 0.  1.
         36    2    1    2    0    0  0.28421709430E-13  0.23092638912E-13 -0.17004750478E+04  0.19728497431E+04  0.10002603264E+04 0.  0.
         25    2    3    3    0    0 -0.12995172699E+03 -0.11813451296E+02 -0.42093505326E+03  0.45820528132E+03  0.12545418204E+03 0.  0.
         35    2    3    3    0    0  0.12995172699E+03  0.11813451296E+02 -0.12795399945E+04  0.15146444617E+04  0.79993639679E+03 0.  0.
         22    1    5    5    0    0 -0.25707876567E+03  0.17775309378E+03 -0.88120150032E+03  0.93498756049E+03  0.00000000000E+00 0.  1.
         22    1    5    5    0    0  0.38703049266E+03 -0.16593964249E+03 -0.39833849420E+03  0.57965690124E+03  0.00000000000E+00 0.  1.
          5    1    4    4  502    0  0.21056724625E+02 -0.19209793796E+02 -0.85323628789E+02  0.90081149301E+02  0.47000000000E+01 0. -1.
         -5    1    4    4    0  502 -0.15100845162E+03  0.73963425002E+01 -0.33561142447E+03  0.36812413202E+03  0.47000000000E+01 0. -1.
<mgrwt>
<rscale>  0 0.10002603E+04</rscale>
<asrwt>0</asrwt>
<pdfrwt beam="1">  1        2 0.28256343E+00 0.10002603E+04</pdfrwt>
<pdfrwt beam="2">  1       -2 0.20951901E-01 0.10002603E+04</pdfrwt>
<totfact> 0.19140197E+02</totfact>
</mgrwt>
</event>
<event>
 9    1  0.4488205E-036  0.9985682E+03  0.7818608E-02  0.8682403E-01
         -2   -1    0    0    0  501 -0.00000000000E+00  0.00000000000E+00  0.52733763833E+03  0.52733763833E+03  0.00000000000E+00 0. -1.
          2   -1    0    0  501    0  0.00000000000E+00 -0.00000000000E+00 -0.47272293786E+03  0.47272293786E+03  0.00000000000E+00 0. -1.
         36    2    1    2    0    0  0.31974423109E-13  0.71054273576E-14  0.54614700468E+02  0.10000605762E+04  0.99856817020E+03 0.  0.
         25    2    3    3    0    0 -0.24066703554E+02 -0.31623455134E+02 -0.12304292945E+03  0.18001989009E+03  0.12525314050E+03 0.  0.
         35    2    3    3    0    0  0.24066703554E+02  0.31623455134E+02  0.17765762991E+03  0.82004068610E+03  0.79957816645E+03 0.  0.
         22    1    5    5    0    0 -0.38236117729E+03  0.49786429746E+02  0.28184973101E+02  0.38661757745E+03  0.00000000000E+00 0.  1.
         22    1    5    5    0    0  0.40642788085E+03 -0.18162974612E+02  0.14947265681E+03  0.43342310865E+03  0.00000000000E+00 0.  1.
          5    1    4    4  502    0  0.15122589561E+02 -0.43280399891E+02 -0.13031722693E+03  0.13822646405E+03  0.47000000000E+01 0. -1.
         -5    1    4    4    0  502 -0.39189293115E+02  0.11656944757E+02  0.72742974812E+01  0.41793426035E+02  0.47000000000E+01 0. -1.
<mgrwt>
<rscale>  0 0.99856817E+03</rscale>
<asrwt>0</asrwt>
<pdfrwt beam="1">  1        2 0.72726605E-01 0.99856817E+03</pdfrwt>
<pdfrwt beam="2">  1       -2 0.81128868E-01 0.99856817E+03</pdfrwt>
<totfact> 0.10594582E+02</totfact>
</mgrwt>
</event>
<event>
 9    1  0.4488205E-036  0.1001122E+04  0.7818608E-02  0.8679970E-01
          1   -1    0    0  501    0  0.00000000000E+00  0.00000000000E+00  0.19230836209E+04  0.19230836209E+04  0.00000000000E+00 0.  1.
         -1   -1    0    0    0  501 -0.00000000000E+00 -0.00000000000E+00 -0.13029144677E+03  0.13029144677E+03  0.00000000000E+00 0.  1.
         36    2    1    2    0    0  0.42632564146E-13  0.56843418861E-13  0.17927921741E+04  0.20533750676E+04  0.10011220649E+04 0.  0.
         25    2    3    3    0    0 -0.93035926945E+02 -0.91508748533E+02  0.22637813963E+03  0.28954432072E+03  0.12473699049E+03 0.  0.
         35    2    3    3    0    0  0.93035926945E+02  0.91508748533E+02  0.15664140345E+04  0.17638307469E+04  0.80026023370E+03 0.  0.
         22    1    5    5    0    0  0.27665972340E+03 -0.27707044363E+03  0.88345200033E+03  0.96633124247E+03  0.00000000000E+00 0. -1.
         22    1    5    5    0    0 -0.18362379646E+03  0.36857919216E+03  0.68296203415E+03  0.79749950446E+03  0.00000000000E+00 0. -1.
          5    1    4    4  502    0 -0.96630231712E+02 -0.51496417851E+02  0.22358415090E+03  0.24900049250E+03  0.47000000000E+01 0. -1.
         -5    1    4    4    0  502  0.35943047675E+01 -0.40012330682E+02  0.27939887292E+01  0.40543828216E+02  0.47000000000E+01 0. -1.
<mgrwt>
<rscale>  0 0.10011221E+04</rscale>
<asrwt>0</asrwt>
<pdfrwt beam="1">  1        1 0.29585900E+00 0.10011221E+04</pdfrwt>
<pdfrwt beam="2">  1       -1 0.20044839E-01 0.10011221E+04</pdfrwt>
<totfact> 0.71841486E+01</totfact>
</mgrwt>
</event>
<event>
 9    1  0.4488205E-036  0.1014569E+04  0.7818608E-02  0.8667286E-01
         -2   -1    0    0    0  501 -0.00000000000E+00  0.00000000000E+00  0.61844073354E+03  0.61844073354E+03  0.00000000000E+00 0.  1.
          2   -1    0    0  501    0  0.00000000000E+00 -0.00000000000E+00 -0.41610745467E+03  0.41610745467E+03  0.00000000000E+00 0.  1.
         36    2    1    2    0    0  0.56843418861E-13  0.00000000000E+00  0.20233327888E+03  0.10345481882E+04  0.10145694643E+04 0.  0.
         25    2    3    3    0    0  0.13428671619E+03 -0.22321603882E+02 -0.38589322663E+02  0.18808580306E+03  0.12391915648E+03 0.  0.
         35    2    3    3    0    0 -0.13428671619E+03  0.22321603882E+02  0.24092260154E+03  0.84646238515E+03  0.79995230695E+03 0.  0.
         22    1    5    5    0    0 -0.43354910224E+03  0.26065306701E+02 -0.39764994018E+02  0.43614845983E+03  0.00000000000E+00 0. -1.
         22    1    5    5    0    0  0.29926238604E+03 -0.37437028193E+01  0.28068759556E+03  0.41031392532E+03  0.00000000000E+00 0. -1.
          5    1    4    4  502    0  0.19687700729E+02 -0.27299498243E+02 -0.62200884950E+02  0.70879533385E+02  0.47000000000E+01 0. -1.
         -5    1    4    4    0  502  0.11459901546E+03  0.49778943614E+01  0.23611562287E+02  0.11720626968E+03  0.47000000000E+01 0. -1.
<mgrwt>
<rscale>  0 0.10145695E+04</rscale>
<asrwt>0</asrwt>
<pdfrwt beam="1">  1        2 0.64016531E-01 0.10145695E+04</pdfrwt>
<pdfrwt beam="2">  1       -2 0.95144729E-01 0.10145695E+04</pdfrwt>
<totfact> 0.84110623E+01</totfact>
</mgrwt>
</event>
<event>
 9    1  0.4488205E-036  0.1000649E+04  0.7818608E-02  0.8680421E-01
         -1   -1    0    0    0  501 -0.00000000000E+00  0.00000000000E+00  0.20500364209E+03  0.20500364209E+03  0.00000000000E+00 0. -1.
          1   -1    0    0  501    0  0.00000000000E+00 -0.00000000000E+00 -0.12210728731E+04  0.12210728731E+04  0.00000000000E+00 0. -1.
         36    2    1    2    0    0  0.00000000000E+00  0.71054273576E-14 -0.10160692310E+04  0.14260765152E+04  0.10006485622E+04 0.  0.
         25    2    3    3    0    0 -0.59162065941E+01 -0.35738783999E+02 -0.38274664943E+03  0.40448827308E+03  0.12571198522E+03 0.  0.
         35    2    3    3    0    0  0.59162065941E+01  0.35738783999E+02 -0.63332258162E+03  0.10215882422E+04  0.80077011803E+03 0.  0.
         22    1    5    5    0    0 -0.16103301935E+03  0.82244877271E+02  0.14025266587E+03  0.22883763554E+03  0.00000000000E+00 0. -1.
         22    1    5    5    0    0  0.16694922594E+03 -0.46506093272E+02 -0.77357524749E+03  0.79275060661E+03  0.00000000000E+00 0. -1.
          5    1    4    4  502    0 -0.38633146064E+02 -0.55169799620E+02 -0.11005219217E+03  0.12911158649E+03  0.47000000000E+01 0.  1.
         -5    1    4    4    0  502  0.32716939470E+02  0.19431015621E+02 -0.27269445726E+03  0.27537668659E+03  0.47000000000E+01 0.  1.
<mgrwt>
<rscale>  0 0.10006486E+04</rscale>
<asrwt>0</asrwt>
<pdfrwt beam="1">  1        1 0.18785737E+00 0.10006486E+04</pdfrwt>
<pdfrwt beam="2">  1       -1 0.31539021E-01 0.10006486E+04</pdfrwt>
<totfact> 0.10604961E+02</totfact>
</mgrwt>
</event>
<event>
 9    1  0.4488205E-036  0.1001381E+04  0.7818608E-02  0.8679724E-01
          3   -1    0    0  501    0  0.00000000000E+00  0.00000000000E+00  0.93477905635E+03  0.93477905635E+03  0.00000000000E+00 0.  1.
         -3   -1    0    0    0  501 -0.00000000000E+00 -0.00000000000E+00 -0.26818228980E+03  0.26818228980E+03  0.00000000000E+00 0.  1.
         36    2    1    2    0    0 -0.71054273576E-14 -0.28421709430E-13  0.66659676655E+03  0.12029613462E+04  0.10013814214E+04 0.  0.
         25    2    3    3    0    0  0.44767414308E+02  0.83323951180E+02  0.12310807714E+01  0.15807680871E+03  0.12664817277E+03 0.  0.
         35    2    3    3    0    0 -0.44767414308E+02 -0.83323951180E+02  0.66536568578E+03  0.10448845374E+04  0.80007824528E+03 0.  0.
         22    1    5    5    0    0 -0.12001376333E+03 -0.43200742570E+03  0.35094715683E+03  0.56938354923E+03  0.00000000000E+00 0.  1.
         22    1    5    5    0    0  0.75246349018E+02  0.34868347452E+03  0.31441852895E+03  0.47550098822E+03  0.00000000000E+00 0.  1.
          5    1    4    4  502    0  0.67540771242E+02 -0.21022300027E+01 -0.11257682771E+02  0.68665861767E+02  0.47000000000E+01 0. -1.
         -5    1    4    4    0  502 -0.22773356934E+02  0.85426181183E+02  0.12488763543E+02  0.89410946938E+02  0.47000000000E+01 0. -1.
<mgrwt>
<rscale>  0 0.10013814E+04</rscale>
<asrwt>0</asrwt>
<pdfrwt beam="1">  1        3 0.14381216E+00 0.10013814E+04</pdfrwt>
<pdfrwt beam="2">  1       -3 0.41258814E-01 0.10013814E+04</pdfrwt>
<totfact> 0.87953707E+00</totfact>
</mgrwt>
</event>
<event>
 9    1  0.4488205E-036  0.9974978E+03  0.7818608E-02  0.8683424E-01
         -2   -1    0    0    0  501 -0.00000000000E+00  0.00000000000E+00  0.43012792371E+03  0.43012792371E+03  0.00000000000E+00 0. -1.
          2   -1    0    0  501    0  0.00000000000E+00 -0.00000000000E+00 -0.57831745366E+03  0.57831745366E+03  0.00000000000E+00 0. -1.
         36    2    1    2    0    0  0.00000000000E+00 -0.53290705182E-14 -0.14818952996E+03  0.10084453774E+04  0.99749784077E+03 0.  0.
         25    2    3    3    0    0  0.11721736398E+03 -0.99841281886E+01  0.21515482157E+02  0.17184507387E+03  0.12340267503E+03 0.  0.
         35    2    3    3    0    0 -0.11721736398E+03  0.99841281886E+01 -0.16970501211E+03  0.83660030350E+03  0.81071615467E+03 0.  0.
         22    1    5    5    0    0 -0.45712074865E+03  0.96832734015E+02 -0.11853553174E+03  0.48206496399E+03  0.00000000000E+00 0.  1.
         22    1    5    5    0    0  0.33990338467E+03 -0.86848605826E+02 -0.51169480371E+02  0.35453533951E+03  0.00000000000E+00 0.  1.
          5    1    4    4  502    0  0.11057404388E+03  0.50587539622E+01  0.62664203268E+02  0.12728355174E+03  0.47000000000E+01 0. -1.
         -5    1    4    4    0  502  0.66433200982E+01 -0.15042882151E+02 -0.41148721110E+02  0.44561522128E+02  0.47000000000E+01 0. -1.
<mgrwt>
<rscale>  0 0.99749784E+03</rscale>
<asrwt>0</asrwt>
<pdfrwt beam="1">  1        2 0.88971916E-01 0.99749784E+03</pdfrwt>
<pdfrwt beam="2">  1       -2 0.66173527E-01 0.99749784E+03</pdfrwt>
<totfact> 0.13175705E+02</totfact>
</mgrwt>
</event>
<event>
 9    1  0.4488205E-036  0.9999944E+03  0.7818608E-02  0.8681043E-01
          2   -1    0    0  501    0  0.00000000000E+00  0.00000000000E+00  0.89174937003E+03  0.89174937003E+03  0.00000000000E+00 0. -1.
         -2   -1    0    0    0  501 -0.00000000000E+00 -0.00000000000E+00 -0.28034469253E+03  0.28034469253E+03  0.00000000000E+00 0. -1.
         36    2    1    2    0    0  0.00000000000E+00  0.71054273576E-14  0.61140467750E+03  0.11720940626E+04  0.99999440590E+03 0.  0.
         25    2    3    3    0    0  0.73798039906E+02  0.28986461581E+02 -0.20703071953E+02  0.14966614752E+03  0.12523966176E+03 0.  0.
         35    2    3    3    0    0 -0.73798039906E+02 -0.28986461581E+02  0.63210774945E+03  0.10224279150E+04  0.79969510996E+03 0.  0.
         22    1    5    5    0    0 -0.49010617470E+02  0.31510978153E+03  0.59548863821E+03  0.67550198614E+03  0.00000000000E+00 0.  1.
         22    1    5    5    0    0 -0.24787422436E+02 -0.34409624311E+03  0.36619111239E+02  0.34692592890E+03  0.00000000000E+00 0.  1.
          5    1    4    4  502    0  0.72886708854E+02  0.55917976620E+02  0.25958154376E+02  0.95578283179E+02  0.47000000000E+01 0.  1.
         -5    1    4    4    0  502  0.91133105278E+00 -0.26931515039E+02 -0.46661226329E+02  0.54087864342E+02  0.47000000000E+01 0.  1.
<mgrwt>
<rscale>  0 0.99999441E+03</rscale>
<asrwt>0</asrwt>
<pdfrwt beam="1">  1        2 0.13719221E+00 0.99999441E+03</pdfrwt>
<pdfrwt beam="2">  1       -2 0.43129953E-01 0.99999441E+03</pdfrwt>
<totfact> 0.18316217E+02</totfact>
</mgrwt>
</event>
<event>
 9    1  0.4488205E-036  0.9989495E+03  0.7818608E-02  0.8682039E-01
          2   -1    0    0  501    0  0.00000000000E+00  0.00000000000E+00  0.95364394693E+03  0.95364394693E+03  0.00000000000E+00 0.  1.
         -2   -1    0    0    0  501 -0.00000000000E+00 -0.00000000000E+00 -0.26160187576E+03  0.26160187576E+03  0.00000000000E+00 0.  1.
         36    2    1    2    0    0  0.28421709430E-13  0.00000000000E+00  0.69204207117E+03  0.12152458227E+04  0.99894953891E+03 0.  0.
         25    2    3    3    0    0 -0.85272022929E+02 -0.97653927250E+02  0.69269664499E+02  0.19322502603E+03  0.12541936398E+03 0.  0.
         35    2    3    3    0    0  0.85272022929E+02  0.97653927250E+02  0.62277240667E+03  0.10220207967E+04  0.79992089040E+03 0.  0.
         22    1    5    5    0    0  0.29880161636E+03 -0.18370364870E+03  0.57452275323E+02  0.35542959981E+03  0.00000000000E+00 0.  1.
         22    1    5    5    0    0 -0.21352959343E+03  0.28135757595E+03  0.56532013134E+03  0.66659119685E+03  0.00000000000E+00 0.  1.
          5    1    4    4  502    0 -0.45177860415E+02 -0.45304627307E+02  0.10119212025E+03  0.11981437112E+03  0.47000000000E+01 0.  1.
         -5    1    4    4    0  502 -0.40094162514E+02 -0.52349299943E+02 -0.31922455749E+02  0.73410654903E+02  0.47000000000E+01 0.  1.
<mgrwt>
<rscale>  0 0.99894954E+03</rscale>
<asrwt>0</asrwt>
<pdfrwt beam="1">  1        2 0.14671445E+00 0.99894954E+03</pdfrwt>
<pdfrwt beam="2">  1       -2 0.40246443E-01 0.99894954E+03</pdfrwt>
<totfact> 0.19077057E+02</totfact>
</mgrwt>
</event>
<event>
 9    1  0.4488205E-036  0.1000254E+04  0.7818608E-02  0.8680796E-01
         -1   -1    0    0    0  501 -0.00000000000E+00  0.00000000000E+00  0.60269517028E+03  0.60269517028E+03  0.00000000000E+00 0.  1.
          1   -1    0    0  501    0  0.00000000000E+00 -0.00000000000E+00 -0.41501423102E+03  0.41501423102E+03  0.00000000000E+00 0.  1.
         36    2    1    2    0    0  0.00000000000E+00  0.28421709430E-13  0.18768093926E+03  0.10177094013E+04  0.10002541130E+04 0.  0.
         25    2    3    3    0    0  0.60168269646E+02  0.12885735578E+03  0.39045358137E+02  0.19306397232E+03  0.12459822874E+03 0.  0.
         35    2    3    3    0    0 -0.60168269646E+02 -0.12885735578E+03  0.14863558112E+03  0.82464542898E+03  0.79857567503E+03 0.  0.
         22    1    5    5    0    0  0.95471895980E+02 -0.58549375413E+02 -0.31299906881E+03  0.33243244330E+03  0.00000000000E+00 0. -1.
         22    1    5    5    0    0 -0.15564016563E+03 -0.70307980363E+02  0.46163464993E+03  0.49221298568E+03  0.00000000000E+00 0. -1.
          5    1    4    4  502    0  0.72065303516E+02  0.20005169978E+02 -0.46303968379E+01  0.75080925484E+02  0.47000000000E+01 0. -1.
         -5    1    4    4    0  502 -0.11897033869E+02  0.10885218580E+03  0.43675754975E+02  0.11798304684E+03  0.47000000000E+01 0. -1.
<mgrwt>
<rscale>  0 0.10002541E+04</rscale>
<asrwt>0</asrwt>
<pdfrwt beam="1">  1        1 0.63848343E-01 0.10002541E+04</pdfrwt>
<pdfrwt beam="2">  1       -1 0.92722334E-01 0.10002541E+04</pdfrwt>
<totfact> 0.77000491E+01</totfact>
</mgrwt>
</event>
<event>
 9    1  0.4488205E-036  0.1000584E+04  0.7818608E-02  0.8680482E-01
         -1   -1    0    0    0  501 -0.00000000000E+00  0.00000000000E+00  0.62163469102E+02  0.62163469102E+02  0.00000000000E+00 0.  1.
          1   -1    0    0  501    0  0.00000000000E+00 -0.00000000000E+00 -0.40263555768E+04  0.40263555768E+04  0.00000000000E+00 0.  1.
         36    2    1    2    0    0  0.21316282073E-13 -0.42632564146E-13 -0.39641921077E+04  0.40885190459E+04  0.10005842903E+04 0.  0.
         25    2    3    3    0    0  0.53964455992E+02  0.12204763376E+03 -0.55371802349E+03  0.58305108348E+03  0.12464802040E+03 0.  0.
         35    2    3    3    0    0 -0.53964455992E+02 -0.12204763376E+03 -0.34104740842E+04  0.35054679624E+04  0.79947756010E+03 0.  0.
         22    1    5    5    0    0 -0.19745475209E+03  0.27473689433E+03 -0.21446970106E+04  0.21712194747E+04  0.00000000000E+00 0.  1.
         22    1    5    5    0    0  0.14349029610E+03 -0.39678452809E+03 -0.12657770736E+04  0.13342484876E+04  0.00000000000E+00 0.  1.
          5    1    4    4  502    0  0.94464039143E+02  0.90037414252E+02 -0.38427600876E+03  0.40585752619E+03  0.47000000000E+01 0. -1.
         -5    1    4    4    0  502 -0.40499583151E+02  0.32010219506E+02 -0.16944201474E+03  0.17719355729E+03  0.47000000000E+01 0. -1.
<mgrwt>
<rscale>  0 0.10005843E+04</rscale>
<asrwt>0</asrwt>
<pdfrwt beam="1">  1        1 0.61943944E+00 0.10005843E+04</pdfrwt>
<pdfrwt beam="2">  1       -1 0.95636088E-02 0.10005843E+04</pdfrwt>
<totfact> 0.71314973E+00</totfact>
</mgrwt>
</event>
<event>
 9    1  0.4488205E-036  0.1000098E+04  0.7818608E-02  0.8680945E-01
          2   -1    0    0  501    0  0.00000000000E+00  0.00000000000E+00  0.10894462846E+04  0.10894462846E+04  0.00000000000E+00 0.  1.
         -2   -1    0    0    0  501 -0.00000000000E+00 -0.00000000000E+00 -0.22951937065E+03  0.22951937065E+03  0.00000000000E+00 0.  1.
         36    2    1    2    0    0  0.14210854715E-13 -0.28421709430E-13  0.85992691392E+03  0.13189656552E+04  0.10000980464E+04 0.  0.
         25    2    3    3    0    0 -0.44480607799E+02 -0.12866723625E+03  0.20566965624E+03  0.27655592596E+03  0.12509752407E+03 0.  0.
         35    2    3    3    0    0  0.44480607799E+02  0.12866723625E+03  0.65425725767E+03  0.10424097293E+04  0.80001981369E+03 0.  0.
         22    1    5    5    0    0  0.13094275476E+03 -0.11728085763E+03  0.74569646860E+03  0.76613577639E+03  0.00000000000E+00 0. -1.
         22    1    5    5    0    0 -0.86462146965E+02  0.24594809388E+03 -0.91439210925E+02  0.27627395287E+03  0.00000000000E+00 0. -1.
          5    1    4    4  502    0 -0.21682289291E+02 -0.80920231735E+02  0.20706419079E+03  0.22341860862E+03  0.47000000000E+01 0.  1.
         -5    1    4    4    0  502 -0.22798318508E+02 -0.47747004513E+02 -0.13945345414E+01  0.53137317333E+02  0.47000000000E+01 0.  1.
<mgrwt>
<rscale>  0 0.10000980E+04</rscale>
<asrwt>0</asrwt>
<pdfrwt beam="1">  1        2 0.16760712E+00 0.10000980E+04</pdfrwt>
<pdfrwt beam="2">  1       -2 0.35310673E-01 0.10000980E+04</pdfrwt>
<totfact> 0.20106626E+02</totfact>
</mgrwt>
</event>
<event>
 9    1  0.4488205E-036  0.9994446E+03  0.7818608E-02  0.8681567E-01
          1   -1    0    0  501    0  0.00000000000E+00  0.00000000000E+00  0.20185391311E+04  0.20185391311E+04  0.00000000000E+00 0. -1.
         -1   -1    0    0    0  501 -0.00000000000E+00 -0.00000000000E+00 -0.12371441135E+03  0.12371441135E+03  0.00000000000E+00 0. -1.
         36    2    1    2    0    0 -0.14210854715E-13  0.14210854715E-13  0.18948247198E+04  0.21422535425E+04  0.99944460656E+03 0.  0.
         25    2    3    3    0    0 -0.44067890984E+02  0.81746815508E+02  0.13289924566E+03  0.20480249707E+03  0.12512926295E+03 0.  0.
         35    2    3    3    0    0  0.44067890984E+02 -0.81746815508E+02  0.17619254741E+04  0.19374510454E+04  0.80044403686E+03 0.  0.
         22    1    5    5    0    0  0.17556270574E+03  0.14847429267E+02  0.17654820445E+04  0.17742518309E+04  0.00000000000E+00 0.  1.
         22    1    5    5    0    0 -0.13149481476E+03 -0.96594244775E+02 -0.35565704145E+01  0.16319921453E+03  0.00000000000E+00 0.  1.
          5    1    4    4  502    0 -0.88000909856E+02  0.55201255987E+02  0.82851102168E+02  0.13295763960E+03  0.47000000000E+01 0.  1.
         -5    1    4    4    0  502  0.43933018872E+02  0.26545559521E+02  0.50048143489E+02  0.71844857465E+02  0.47000000000E+01 0.  1.
<mgrwt>
<rscale>  0 0.99944461E+03</rscale>
<asrwt>0</asrwt>
<pdfrwt beam="1">  1        1 0.31054446E+00 0.99944461E+03</pdfrwt>
<pdfrwt beam="2">  1       -1 0.19032988E-01 0.99944461E+03</pdfrwt>
<totfact> 0.67084805E+01</totfact>
</mgrwt>
</event>
<event>
 9    1  0.4488205E-036  0.9999234E+03  0.7818608E-02  0.8681111E-01
          1   -1    0    0  501    0  0.00000000000E+00  0.00000000000E+00  0.45548620719E+03  0.45548620719E+03  0.00000000000E+00 0. -1.
         -1   -1    0    0    0  501 -0.00000000000E+00 -0.00000000000E+00 -0.54877999601E+03  0.54877999601E+03  0.00000000000E+00 0. -1.
         36    2    1    2    0    0  0.14210854715E-13 -0.14210854715E-13 -0.93293788825E+02  0.10042662032E+04  0.99992343500E+03 0.  0.
         25    2    3    3    0    0 -0.43627158877E+02  0.17823967444E+02  0.11398547097E+03  0.17428320845E+03  0.12312971350E+03 0.  0.
         35    2    3    3    0    0  0.43627158877E+02 -0.17823967444E+02 -0.20727925980E+03  0.82998299475E+03  0.80230047814E+03 0.  0.
         22    1    5    5    0    0  0.24519419828E+03  0.14359123590E+03 -0.41197470150E+03  0.50046157952E+03  0.00000000000E+00 0. -1.
         22    1    5    5    0    0 -0.20156703940E+03 -0.16141520334E+03  0.20469544170E+03  0.32952141524E+03  0.00000000000E+00 0. -1.
          5    1    4    4  502    0 -0.81000168281E+02  0.37201758513E+02  0.72502353833E+02  0.11499425816E+03  0.47000000000E+01 0.  1.
         -5    1    4    4    0  502  0.37373009404E+02 -0.19377791069E+02  0.41483117139E+02  0.59288950287E+02  0.47000000000E+01 0.  1.
<mgrwt>
<rscale>  0 0.99992343E+03</rscale>
<asrwt>0</asrwt>
<pdfrwt beam="1">  1        1 0.70074801E-01 0.99992343E+03</pdfrwt>
<pdfrwt beam="2">  1       -1 0.84427692E-01 0.99992343E+03</pdfrwt>
<totfact> 0.82977479E+01</totfact>
</mgrwt>
</event>
<event>
 9    1  0.4488205E-036  0.1000136E+04  0.7818608E-02  0.8680908E-01
         -4   -1    0    0    0  501 -0.00000000000E+00  0.00000000000E+00  0.11263004536E+04  0.11263004536E+04  0.00000000000E+00 0.  1.
          4   -1    0    0  501    0  0.00000000000E+00 -0.00000000000E+00 -0.22202616141E+03  0.22202616141E+03  0.00000000000E+00 0.  1.
         36    2    1    2    0    0  0.28421709430E-13  0.00000000000E+00  0.90427429215E+03  0.13483266150E+04  0.10001363233E+04 0.  0.
         25    2    3    3    0    0 -0.64069483699E+02  0.12456713024E+03  0.18618840742E+03  0.26425389658E+03  0.12466807981E+03 0.  0.
         35    2    3    3    0    0  0.64069483699E+02 -0.12456713024E+03  0.71808588473E+03  0.10840727184E+04  0.79996528190E+03 0.  0.
         22    1    5    5    0    0 -0.24015804574E+03  0.23685660871E+03  0.34061211948E+03  0.47936787122E+03  0.00000000000E+00 0.  1.
         22    1    5    5    0    0  0.30422752944E+03 -0.36142373895E+03  0.37747376525E+03  0.60470484718E+03  0.00000000000E+00 0.  1.
          5    1    4    4  502    0  0.28116834087E+02  0.78391200433E+02  0.70487181699E+02  0.10920746059E+03  0.47000000000E+01 0.  1.
         -5    1    4    4    0  502 -0.92186317786E+02  0.46175929804E+02  0.11570122572E+03  0.15504643599E+03  0.47000000000E+01 0.  1.
<mgrwt>
<rscale>  0 0.10001363E+04</rscale>
<asrwt>0</asrwt>
<pdfrwt beam="1">  1        4 0.34157872E-01 0.10001363E+04</pdfrwt>
<pdfrwt beam="2">  1       -4 0.17327699E+00 0.10001363E+04</pdfrwt>
<totfact> 0.31682974E+00</totfact>
</mgrwt>
</event>
<event>
 9    1  0.4488205E-036  0.1004617E+04  0.7818608E-02  0.8676654E-01
          1   -1    0    0  501    0  0.00000000000E+00  0.00000000000E+00  0.74509353079E+03  0.74509353079E+03  0.00000000000E+00 0.  1.
         -1   -1    0    0    0  501 -0.00000000000E+00 -0.00000000000E+00 -0.33863343778E+03  0.33863343778E+03  0.00000000000E+00 0.  1.
         36    2    1    2    0    0  0.00000000000E+00  0.00000000000E+00  0.40646009301E+03  0.10837269686E+04  0.10046165115E+04 0.  0.
         25    2    3    3    0    0 -0.30452223205E+02 -0.11397354873E+03  0.17057975343E+03  0.24221983864E+03  0.12512270075E+03 0.  0.
         35    2    3    3    0    0  0.30452223205E+02  0.11397354873E+03  0.23588033958E+03  0.84150712993E+03  0.79911038500E+03 0.  0.
         22    1    5    5    0    0 -0.33575574289E+03  0.59291437845E+02 -0.85177124490E+02  0.35142927599E+03  0.00000000000E+00 0.  1.
         22    1    5    5    0    0  0.36620796610E+03  0.54682110884E+02  0.32105746407E+03  0.49007785394E+03  0.00000000000E+00 0.  1.
          5    1    4    4  502    0 -0.62286826225E+02 -0.12347266449E+03  0.13514162540E+03  0.19341793224E+03  0.47000000000E+01 0. -1.
         -5    1    4    4    0  502  0.31834603020E+02  0.94991157633E+01  0.35438128026E+02  0.48801906394E+02  0.47000000000E+01 0. -1.
<mgrwt>
<rscale>  0 0.10046165E+04</rscale>
<asrwt>0</asrwt>
<pdfrwt beam="1">  1        1 0.11462977E+00 0.10046165E+04</pdfrwt>
<pdfrwt beam="2">  1       -1 0.52097452E-01 0.10046165E+04</pdfrwt>
<totfact> 0.10512808E+02</totfact>
</mgrwt>
</event>
<event>
 9    1  0.4488205E-036  0.1000048E+04  0.7818608E-02  0.8680993E-01
          2   -1    0    0  501    0  0.00000000000E+00  0.00000000000E+00  0.12482398406E+04  0.12482398406E+04  0.00000000000E+00 0.  1.
         -2   -1    0    0    0  501 -0.00000000000E+00 -0.00000000000E+00 -0.20030108240E+03  0.20030108240E+03  0.00000000000E+00 0.  1.
         36    2    1    2    0    0  0.14210854715E-13  0.00000000000E+00  0.10479387582E+04  0.14485409230E+04  0.10000475812E+04 0.  0.
         25    2    3    3    0    0 -0.70871865332E+01 -0.10881291541E+03  0.32397825079E+03  0.36410986837E+03  0.12539382156E+03 0.  0.
         35    2    3    3    0    0  0.70871865332E+01  0.10881291541E+03  0.72396050737E+03  0.10844310546E+04  0.79998838565E+03 0.  0.
         22    1    5    5    0    0  0.18871629627E+03 -0.16751043852E+03  0.70995259126E+03  0.75346285199E+03  0.00000000000E+00 0.  1.
         22    1    5    5    0    0 -0.18162910974E+03  0.27632335393E+03  0.14007916114E+02  0.33096820262E+03  0.00000000000E+00 0.  1.
          5    1    4    4  502    0 -0.31956763230E+02 -0.81665760770E+02  0.31346408136E+03  0.32553394830E+03  0.47000000000E+01 0.  1.
         -5    1    4    4    0  502  0.24869576697E+02 -0.27147154638E+02  0.10514169436E+02  0.38575920066E+02  0.47000000000E+01 0.  1.
<mgrwt>
<rscale>  0 0.10000476E+04</rscale>
<asrwt>0</asrwt>
<pdfrwt beam="1">  1        2 0.19203689E+00 0.10000476E+04</pdfrwt>
<pdfrwt beam="2">  1       -2 0.30815552E-01 0.10000476E+04</pdfrwt>
<totfact> 0.20799615E+02</totfact>
</mgrwt>
</event>
<event>
 9    1  0.4488205E-036  0.1000813E+04  0.7818608E-02  0.8680264E-01
         -1   -1    0    0    0  501 -0.00000000000E+00  0.00000000000E+00  0.76159725740E+03  0.76159725740E+03  0.00000000000E+00 0.  1.
          1   -1    0    0  501    0  0.00000000000E+00 -0.00000000000E+00 -0.32879122354E+03  0.32879122354E+03  0.00000000000E+00 0.  1.
         36    2    1    2    0    0  0.00000000000E+00  0.28421709430E-13  0.43280603386E+03  0.10903884809E+04  0.10008126580E+04 0.  0.
         25    2    3    3    0    0  0.69729422038E+02  0.70658927672E+02 -0.27490117367E+02  0.16224471532E+03  0.12535056737E+03 0.  0.
         35    2    3    3    0    0 -0.69729422038E+02 -0.70658927672E+02  0.46029615123E+03  0.92814376562E+03  0.79982712286E+03 0.  0.
         22    1    5    5    0    0  0.27423648521E+03  0.12264797929E+03 -0.26436963220E+02  0.30157435181E+03  0.00000000000E+00 0.  1.
         22    1    5    5    0    0 -0.34396590725E+03 -0.19330690696E+03  0.48673311445E+03  0.62656941381E+03  0.00000000000E+00 0.  1.
          5    1    4    4  502    0  0.42720054965E+02  0.57136765925E+02  0.44375425532E+02  0.84147973877E+02  0.47000000000E+01 0.  1.
         -5    1    4    4    0  502  0.27009367073E+02  0.13522161748E+02 -0.71865542899E+02  0.78096741444E+02  0.47000000000E+01 0.  1.
<mgrwt>
<rscale>  0 0.10008127E+04</rscale>
<asrwt>0</asrwt>
<pdfrwt beam="1">  1        1 0.50583265E-01 0.10008127E+04</pdfrwt>
<pdfrwt beam="2">  1       -1 0.11716881E+00 0.10008127E+04</pdfrwt>
<totfact> 0.61356295E+01</totfact>
</mgrwt>
</event>
<event>
 9    1  0.4488205E-036  0.1000185E+04  0.7818608E-02  0.8680862E-01
         -1   -1    0    0    0  501 -0.00000000000E+00  0.00000000000E+00  0.58206640371E+03  0.58206640371E+03  0.00000000000E+00 0.  1.
          1   -1    0    0  501    0  0.00000000000E+00 -0.00000000000E+00 -0.42966310915E+03  0.42966310915E+03  0.00000000000E+00 0.  1.
         36    2    1    2    0    0 -0.21316282073E-13  0.00000000000E+00  0.15240329457E+03  0.10117295129E+04  0.10001849044E+04 0.  0.
         25    2    3    3    0    0 -0.16659837546E+02 -0.68126171111E+02  0.14042125937E+03  0.20029732680E+03  0.12442734290E+03 0.  0.
         35    2    3    3    0    0  0.16659837546E+02  0.68126171111E+02  0.11982035194E+02  0.81143218606E+03  0.80830680934E+03 0.  0.
         22    1    5    5    0    0 -0.24987006471E+03  0.10831767396E+03  0.30796464972E+03  0.41110824998E+03  0.00000000000E+00 0. -1.
         22    1    5    5    0    0  0.26652990226E+03 -0.40191502848E+02 -0.29598261452E+03  0.40032393608E+03  0.00000000000E+00 0. -1.
          5    1    4    4  502    0 -0.34632958500E+02 -0.89509016512E+02  0.55925962254E+02  0.11118052485E+03  0.47000000000E+01 0.  1.
         -5    1    4    4    0  502  0.17973120954E+02  0.21382845401E+02  0.84495297118E+02  0.89116801947E+02  0.47000000000E+01 0.  1.
<mgrwt>
<rscale>  0 0.10001849E+04</rscale>
<asrwt>0</asrwt>
<pdfrwt beam="1">  1        1 0.66102017E-01 0.10001849E+04</pdfrwt>
<pdfrwt beam="2">  1       -1 0.89548677E-01 0.10001849E+04</pdfrwt>
<totfact> 0.79211576E+01</totfact>
</mgrwt>
</event>
<event>
 9    1  0.4488205E-036  0.9995353E+03  0.7818608E-02  0.8681481E-01
         -1   -1    0    0    0  501 -0.00000000000E+00  0.00000000000E+00  0.30194944827E+03  0.30194944827E+03  0.00000000000E+00 0. -1.
          1   -1    0    0  501    0  0.00000000000E+00 -0.00000000000E+00 -0.82718390824E+03  0.82718390824E+03  0.00000000000E+00 0. -1.
         36    2    1    2    0    0  0.00000000000E+00 -0.49737991503E-13 -0.52523445997E+03  0.11291333565E+04  0.99953534147E+03 0.  0.
         25    2    3    3    0    0  0.31732761125E+02  0.23288947376E+02  0.52088125905E+02  0.14196569977E+03  0.12606246012E+03 0.  0.
         35    2    3    3    0    0 -0.31732761125E+02 -0.23288947376E+02 -0.57732258588E+03  0.98716765675E+03  0.79978076444E+03 0.  0.
         22    1    5    5    0    0 -0.11114905536E+03  0.37573785854E+03 -0.24786029622E+03  0.46364617683E+03  0.00000000000E+00 0.  1.
         22    1    5    5    0    0  0.79416294235E+02 -0.39902680592E+03 -0.32946228966E+03  0.52352147992E+03  0.00000000000E+00 0.  1.
          5    1    4    4  502    0  0.31888474815E+02 -0.24157867343E+02  0.77936423381E+02  0.87730573177E+02  0.47000000000E+01 0. -1.
         -5    1    4    4    0  502 -0.15571368997E+00  0.47446814719E+02 -0.25848297476E+02  0.54235126589E+02  0.47000000000E+01 0. -1.
<mgrwt>
<rscale>  0 0.99953534E+03</rscale>
<asrwt>0</asrwt>
<pdfrwt beam="1">  1        1 0.12725906E+00 0.99953534E+03</pdfrwt>
<pdfrwt beam="2">  1       -1 0.46453761E-01 0.99953534E+03</pdfrwt>
<totfact> 0.10976603E+02</totfact>
</mgrwt>
</event>
<event>
 9    1  0.4488205E-036  0.1000623E+04  0.7818608E-02  0.8680444E-01
         -1   -1    0    0    0  501 -0.00000000000E+00  0.00000000000E+00  0.13990060388E+03  0.13990060388E+03  0.00000000000E+00 0. -1.
          1   -1    0    0  501    0  0.00000000000E+00 -0.00000000000E+00 -0.17892120507E+04  0.17892120507E+04  0.00000000000E+00 0. -1.
         36    2    1    2    0    0 -0.21316282073E-13 -0.17763568394E-14 -0.16493114468E+04  0.19291126545E+04  0.10006234983E+04 0.  0.
         25    2    3    3    0    0 -0.57942874545E+02  0.95410867048E+01 -0.65004833274E+02  0.15323748880E+03  0.12572863866E+03 0.  0.
         35    2    3    3    0    0  0.57942874545E+02 -0.95410867048E+01 -0.15843066135E+04  0.17758751657E+04  0.80016045243E+03 0.  0.
         22    1    5    5    0    0  0.34943765316E+03  0.50007390380E+01 -0.30547544357E+03  0.46416260886E+03  0.00000000000E+00 0. -1.
         22    1    5    5    0    0 -0.29149477862E+03 -0.14541825743E+02 -0.12788311699E+04  0.13117125569E+04  0.00000000000E+00 0. -1.
          5    1    4    4  502    0 -0.58249152887E+02 -0.23630313634E+02  0.16462687741E+02  0.65149563484E+02  0.47000000000E+01 0. -1.
         -5    1    4    4    0  502  0.30627834205E+00  0.33171400338E+02 -0.81467521015E+02  0.88087925320E+02  0.47000000000E+01 0. -1.
<mgrwt>
<rscale>  0 0.10006235E+04</rscale>
<asrwt>0</asrwt>
<pdfrwt beam="1">  1        1 0.27526338E+00 0.10006235E+04</pdfrwt>
<pdfrwt beam="2">  1       -1 0.21523171E-01 0.10006235E+04</pdfrwt>
<totfact> 0.79270316E+01</totfact>
</mgrwt>
</event>
<event>
 9    1  0.4488205E-036  0.1000356E+04  0.7818608E-02  0.8680699E-01
          3   -1    0    0  501    0  0.00000000000E+00  0.00000000000E+00  0.46765149513E+03  0.46765149513E+03  0.00000000000E+00 0.  1.
         -3   -1    0    0    0  501 -0.00000000000E+00 -0.00000000000E+00 -0.53496672695E+03  0.53496672695E+03  0.00000000000E+00 0.  1.
         36    2    1    2    0    0 -0.14210854715E-13  0.00000000000E+00 -0.67315231817E+02  0.10026182221E+04  0.10003559161E+04 0.  0.
         25    2    3    3    0    0 -0.25763260119E+02  0.13074285491E+03  0.30306097035E+02  0.18548001802E+03  0.12540708866E+03 0.  0.
         35    2    3    3    0    0  0.25763260119E+02 -0.13074285491E+03 -0.97621328852E+02  0.81713820406E+03  0.80026713102E+03 0.  0.
         22    1    5    5    0    0 -0.20845210428E+03  0.24702795232E+03 -0.17252119570E+03  0.36638593310E+03  0.00000000000E+00 0.  1.
         22    1    5    5    0    0  0.23421536440E+03 -0.37777080723E+03  0.74899866852E+02  0.45075227096E+03  0.00000000000E+00 0.  1.
          5    1    4    4  502    0  0.41859583358E+02  0.50933851348E+02 -0.20353427890E+02  0.69158036112E+02  0.47000000000E+01 0. -1.
         -5    1    4    4    0  502 -0.67622843477E+02  0.79809003564E+02  0.50659524925E+02  0.11632198191E+03  0.47000000000E+01 0. -1.
<mgrwt>
<rscale>  0 0.10003559E+04</rscale>
<asrwt>0</asrwt>
<pdfrwt beam="1">  1        3 0.71946384E-01 0.10003559E+04</pdfrwt>
<pdfrwt beam="2">  1       -3 0.82302573E-01 0.10003559E+04</pdfrwt>
<totfact> 0.98066807E+00</totfact>
</mgrwt>
</event>
<event>
 9    1  0.4488205E-036  0.9971490E+03  0.7818608E-02  0.8683758E-01
          1   -1    0    0  501    0  0.00000000000E+00  0.00000000000E+00  0.70128371497E+03  0.70128371497E+03  0.00000000000E+00 0.  1.
         -1   -1    0    0    0  501 -0.00000000000E+00 -0.00000000000E+00 -0.35445929273E+03  0.35445929273E+03  0.00000000000E+00 0.  1.
         36    2    1    2    0    0  0.35527136788E-14  0.00000000000E+00  0.34682442224E+03  0.10557430077E+04  0.99714899511E+03 0.  0.
         25    2    3    3    0    0  0.13720951651E+02  0.10374692045E+03 -0.29549282861E+02  0.16586920706E+03  0.12525073140E+03 0.  0.
         35    2    3    3    0    0 -0.13720951651E+02 -0.10374692045E+03  0.37637370510E+03  0.88987380064E+03  0.79954144806E+03 0.  0.
         22    1    5    5    0    0 -0.40410184053E+03 -0.94705764279E+02  0.21401846084E+03  0.46698113548E+03  0.00000000000E+00 0. -1.
         22    1    5    5    0    0  0.39038088888E+03 -0.90411561760E+01  0.16235524427E+03  0.42289266517E+03  0.00000000000E+00 0. -1.
          5    1    4    4  502    0  0.34172197021E+02  0.12067486383E+03  0.48494290092E+00  0.12550891195E+03  0.47000000000E+01 0.  1.
         -5    1    4    4    0  502 -0.20451245370E+02 -0.16927943377E+02 -0.30034225761E+02  0.40360295109E+02  0.47000000000E+01 0.  1.
<mgrwt>
<rscale>  0 0.99714900E+03</rscale>
<asrwt>0</asrwt>
<pdfrwt beam="1">  1        1 0.10788980E+00 0.99714900E+03</pdfrwt>
<pdfrwt beam="2">  1       -1 0.54532199E-01 0.99714900E+03</pdfrwt>
<totfact> 0.10613075E+02</totfact>
</mgrwt>
</event>
<event>
 9    1  0.4488205E-036  0.1000171E+04  0.7818608E-02  0.8680875E-01
         -2   -1    0    0    0  501 -0.00000000000E+00  0.00000000000E+00  0.30953519046E+03  0.30953519046E+03  0.00000000000E+00 0.  1.
          2   -1    0    0  501    0  0.00000000000E+00 -0.00000000000E+00 -0.80793827238E+03  0.80793827238E+03  0.00000000000E+00 0.  1.
         36    2    1    2    0    0  0.00000000000E+00  0.00000000000E+00 -0.49840308192E+03  0.11174734628E+04  0.10001706395E+04 0.  0.
         25    2    3    3    0    0  0.11940032299E+03  0.69380687378E+02 -0.12683260078E+03  0.22520683162E+03  0.12474570724E+03 0.  0.
         35    2    3    3    0    0 -0.11940032299E+03 -0.69380687378E+02 -0.37157048114E+03  0.89226663122E+03  0.79937788424E+03 0.  0.
         22    1    5    5    0    0 -0.14800720629E+03 -0.51964012072E+02  0.23621676452E+03  0.28355731608E+03  0.00000000000E+00 0. -1.
         22    1    5    5    0    0  0.28606883299E+02 -0.17416675305E+02 -0.60778724566E+03  0.60870931514E+03  0.00000000000E+00 0. -1.
          5    1    4    4  502    0  0.13909991595E+03  0.61853359391E+02 -0.76510160021E+02  0.17044212881E+03  0.47000000000E+01 0. -1.
         -5    1    4    4    0  502 -0.19699592966E+02  0.75273279871E+01 -0.50322440759E+02  0.54764702808E+02  0.47000000000E+01 0. -1.
<mgrwt>
<rscale>  0 0.10001706E+04</rscale>
<asrwt>0</asrwt>
<pdfrwt beam="1">  1        2 0.12429819E+00 0.10001706E+04</pdfrwt>
<pdfrwt beam="2">  1       -2 0.47620799E-01 0.10001706E+04</pdfrwt>
<totfact> 0.17192759E+02</totfact>
</mgrwt>
</event>
<event>
 9    1  0.4488205E-036  0.9998027E+03  0.7818608E-02  0.8681226E-01
          2   -1    0    0  501    0  0.00000000000E+00  0.00000000000E+00  0.69556420660E+03  0.69556420660E+03  0.00000000000E+00 0.  1.
         -2   -1    0    0    0  501 -0.00000000000E+00 -0.00000000000E+00 -0.35927860739E+03  0.35927860739E+03  0.00000000000E+00 0.  1.
         36    2    1    2    0    0  0.14210854715E-13  0.28421709430E-13  0.33628559921E+03  0.10548428140E+04  0.99980265952E+03 0.  0.
         25    2    3    3    0    0 -0.92174374435E+02 -0.78614570867E+02 -0.12009352300E+02  0.17447977401E+03  0.12499040339E+03 0.  0.
         35    2    3    3    0    0  0.92174374435E+02  0.78614570867E+02  0.34829495151E+03  0.88036303998E+03  0.79940812034E+03 0.  0.
         22    1    5    5    0    0  0.11164568246E+03 -0.31785575917E+03  0.34668390190E+03  0.48341159469E+03  0.00000000000E+00 0. -1.
         22    1    5    5    0    0 -0.19471308021E+02  0.39647033004E+03  0.16110496175E+01  0.39695144529E+03  0.00000000000E+00 0. -1.
          5    1    4    4  502    0  0.25731021861E+02 -0.72681766161E+01 -0.23775593062E+02  0.36087126552E+02  0.47000000000E+01 0.  1.
         -5    1    4    4    0  502 -0.11790539630E+03 -0.71346394251E+02  0.11766240762E+02  0.13839264746E+03  0.47000000000E+01 0.  1.
<mgrwt>
<rscale>  0 0.99980266E+03</rscale>
<asrwt>0</asrwt>
<pdfrwt beam="1">  1        2 0.10700988E+00 0.99980266E+03</pdfrwt>
<pdfrwt beam="2">  1       -2 0.55273632E-01 0.99980266E+03</pdfrwt>
<totfact> 0.15380909E+02</totfact>
</mgrwt>
</event>
<event>
 9    1  0.4488205E-036  0.1000011E+04  0.7818608E-02  0.8681027E-01
         -2   -1    0    0    0  501 -0.00000000000E+00  0.00000000000E+00  0.20165941915E+03  0.20165941915E+03  0.00000000000E+00 0. -1.
          2   -1    0    0  501    0  0.00000000000E+00 -0.00000000000E+00 -0.12397424452E+04  0.12397424452E+04  0.00000000000E+00 0. -1.
         36    2    1    2    0    0 -0.14210854715E-13  0.00000000000E+00 -0.10380830260E+04  0.14414018643E+04  0.10000114827E+04 0.  0.
         25    2    3    3    0    0  0.66911619980E+02  0.31856799772E+02 -0.36951908182E+03  0.39690230312E+03  0.12447917824E+03 0.  0.
         35    2    3    3    0    0 -0.66911619980E+02 -0.31856799772E+02 -0.66856394419E+03  0.10444995612E+04  0.79906793534E+03 0.  0.
         22    1    5    5    0    0  0.62142495579E+02  0.90421363393E+02 -0.80995162285E+03  0.81734897325E+03  0.00000000000E+00 0.  1.
         22    1    5    5    0    0 -0.12905411556E+03 -0.12227816317E+03  0.14138767866E+03  0.22715058795E+03  0.00000000000E+00 0.  1.
          5    1    4    4  502    0  0.24871233752E+02 -0.46240411062E+02 -0.18078420395E+03  0.18831296366E+03  0.47000000000E+01 0. -1.
         -5    1    4    4    0  502  0.42040386228E+02  0.78097210835E+02 -0.18873487787E+03  0.20858933946E+03  0.47000000000E+01 0. -1.
<mgrwt>
<rscale>  0 0.10000115E+04</rscale>
<asrwt>0</asrwt>
<pdfrwt beam="1">  1        2 0.19072961E+00 0.10000115E+04</pdfrwt>
<pdfrwt beam="2">  1       -2 0.31024525E-01 0.10000115E+04</pdfrwt>
<totfact> 0.20780439E+02</totfact>
</mgrwt>
</event>
<event>
 9    1  0.4488205E-036  0.1000350E+04  0.7818608E-02  0.8680705E-01
         -2   -1    0    0    0  501 -0.00000000000E+00  0.00000000000E+00  0.26931916789E+03  0.26931916789E+03  0.00000000000E+00 0. -1.
          2   -1    0    0  501    0  0.00000000000E+00 -0.00000000000E+00 -0.92891654597E+03  0.92891654597E+03  0.00000000000E+00 0. -1.
         36    2    1    2    0    0  0.00000000000E+00  0.28421709430E-13 -0.65959737808E+03  0.11982357139E+04  0.10003500012E+04 0.  0.
         25    2    3    3    0    0 -0.11097695918E+03 -0.73073174688E+02 -0.70062768632E+02  0.19553583621E+03  0.12517946064E+03 0.  0.
         35    2    3    3    0    0  0.11097695918E+03  0.73073174688E+02 -0.58953460945E+03  0.10026998777E+04  0.80012524931E+03 0.  0.
         22    1    5    5    0    0 -0.18248907660E+02 -0.33049482205E+03 -0.81023130867E+02  0.34077059405E+03  0.00000000000E+00 0.  1.
         22    1    5    5    0    0  0.12922586684E+03  0.40356799674E+03 -0.50851147858E+03  0.66192928361E+03  0.00000000000E+00 0.  1.
          5    1    4    4  502    0 -0.12384057585E+03 -0.95053465668E+02 -0.64879271597E+02  0.16912439045E+03  0.47000000000E+01 0. -1.
         -5    1    4    4    0  502  0.12863616671E+02  0.21980290980E+02 -0.51834970349E+01  0.26411445756E+02  0.47000000000E+01 0. -1.
<mgrwt>
<rscale>  0 0.10003500E+04</rscale>
<asrwt>0</asrwt>
<pdfrwt beam="1">  1        2 0.14291024E+00 0.10003500E+04</pdfrwt>
<pdfrwt beam="2">  1       -2 0.41433718E-01 0.10003500E+04</pdfrwt>
<totfact> 0.18714992E+02</totfact>
</mgrwt>
</event>
<event>
 9    1  0.4488205E-036  0.9986017E+03  0.7818608E-02  0.8682371E-01
          2   -1    0    0  501    0  0.00000000000E+00  0.00000000000E+00  0.69940762198E+03  0.69940762198E+03  0.00000000000E+00 0.  1.
         -2   -1    0    0    0  501 -0.00000000000E+00 -0.00000000000E+00 -0.35644638286E+03  0.35644638286E+03  0.00000000000E+00 0.  1.
         36    2    1    2    0    0  0.00000000000E+00  0.00000000000E+00  0.34296123912E+03  0.10558540048E+04  0.99860165632E+03 0.  0.
         25    2    3    3    0    0  0.15510038315E+02 -0.67110058459E+02  0.19076222848E+03  0.23850728567E+03  0.12550369027E+03 0.  0.
         35    2    3    3    0    0 -0.15510038315E+02  0.67110058459E+02  0.15219901065E+03  0.81734671917E+03  0.80009174428E+03 0.  0.
         22    1    5    5    0    0  0.11183395880E+03 -0.27608894518E+03 -0.15830500211E+03  0.33733131145E+03  0.00000000000E+00 0. -1.
         22    1    5    5    0    0 -0.12734399712E+03  0.34319900364E+03  0.31050401276E+03  0.48001540771E+03  0.00000000000E+00 0. -1.
          5    1    4    4  502    0  0.48531124138E+02 -0.56734102772E+02  0.18930118555E+03  0.20354620429E+03  0.47000000000E+01 0. -1.
         -5    1    4    4    0  502 -0.33021085823E+02 -0.10375955687E+02  0.14610429224E+01  0.34961081387E+02  0.47000000000E+01 0. -1.
<mgrwt>
<rscale>  0 0.99860166E+03</rscale>
<asrwt>0</asrwt>
<pdfrwt beam="1">  1        2 0.10760117E+00 0.99860166E+03</pdfrwt>
<pdfrwt beam="2">  1       -2 0.54837905E-01 0.99860166E+03</pdfrwt>
<totfact> 0.15527122E+02</totfact>
</mgrwt>
</event>
<event>
 9    1  0.4488205E-036  0.9999091E+03  0.7818608E-02  0.8681125E-01
         -1   -1    0    0    0  501 -0.00000000000E+00  0.00000000000E+00  0.50159994501E+03  0.50159994501E+03  0.00000000000E+00 0. -1.
          1   -1    0    0  501    0  0.00000000000E+00 -0.00000000000E+00 -0.49831454787E+03  0.49831454787E+03  0.00000000000E+00 0. -1.
         36    2    1    2    0    0  0.00000000000E+00  0.00000000000E+00  0.32853971384E+01  0.99991449287E+03  0.99990909548E+03 0.  0.
         25    2    3    3    0    0 -0.12691759601E+03 -0.81305353251E+02  0.27905552146E+02  0.19783714405E+03  0.12506869744E+03 0.  0.
         35    2    3    3    0    0  0.12691759601E+03  0.81305353251E+02 -0.24620155008E+02  0.80207734882E+03  0.78740287326E+03 0.  0.
         22    1    5    5    0    0  0.34694043245E+03  0.32117645359E+03  0.21819551105E+02  0.47328434458E+03  0.00000000000E+00 0.  1.
         22    1    5    5    0    0 -0.22002283644E+03 -0.23987110034E+03 -0.46439706113E+02  0.32879300424E+03  0.00000000000E+00 0.  1.
          5    1    4    4  502    0  0.15923600405E+02 -0.31411984025E+02 -0.17761000865E+02  0.39721743944E+02  0.47000000000E+01 0. -1.
         -5    1    4    4    0  502 -0.14284119642E+03 -0.49893369227E+02  0.45666553011E+02  0.15811540010E+03  0.47000000000E+01 0. -1.
<mgrwt>
<rscale>  0 0.99990910E+03</rscale>
<asrwt>0</asrwt>
<pdfrwt beam="1">  1        1 0.76663777E-01 0.99990910E+03</pdfrwt>
<pdfrwt beam="2">  1       -1 0.77169222E-01 0.99990910E+03</pdfrwt>
<totfact> 0.88517975E+01</totfact>
</mgrwt>
</event>
<event>
 9    1  0.4488205E-036  0.1000100E+04  0.7818608E-02  0.8680943E-01
          3   -1    0    0  501    0  0.00000000000E+00  0.00000000000E+00  0.10042982591E+04  0.10042982591E+04  0.00000000000E+00 0.  1.
         -3   -1    0    0    0  501 -0.00000000000E+00 -0.00000000000E+00 -0.24897963610E+03  0.24897963610E+03  0.00000000000E+00 0.  1.
         36    2    1    2    0    0  0.00000000000E+00  0.39079850467E-13  0.75531862305E+03  0.12532778952E+04  0.10000996252E+04 0.  0.
         25    2    3    3    0    0 -0.12263724505E+03  0.30151806075E+02  0.66565022519E+02  0.19003446839E+03  0.12543194039E+03 0.  0.
         35    2    3    3    0    0  0.12263724505E+03 -0.30151806075E+02  0.68875360053E+03  0.10632434269E+04  0.80009751732E+03 0.  0.
         22    1    5    5    0    0  0.24519987757E+03  0.23566069655E+03  0.69140983398E+03  0.77052352487E+03  0.00000000000E+00 0. -1.
         22    1    5    5    0    0 -0.12256263252E+03 -0.26581250262E+03 -0.26562334481E+01  0.29271990198E+03  0.00000000000E+00 0. -1.
          5    1    4    4  502    0 -0.12600413258E+03 -0.14075923731E+02  0.25513613491E+02  0.12941486596E+03  0.47000000000E+01 0. -1.
         -5    1    4    4    0  502  0.33668875369E+01  0.44227729806E+02  0.41051409027E+02  0.60619602429E+02  0.47000000000E+01 0. -1.
<mgrwt>
<rscale>  0 0.10000996E+04</rscale>
<asrwt>0</asrwt>
<pdfrwt beam="1">  1        3 0.15450742E+00 0.10000996E+04</pdfrwt>
<pdfrwt beam="2">  1       -3 0.38304560E-01 0.10000996E+04</pdfrwt>
<totfact> 0.84135511E+00</totfact>
</mgrwt>
</event>
<event>
 9    1  0.4488205E-036  0.9989170E+03  0.7818608E-02  0.8682070E-01
          2   -1    0    0  501    0  0.00000000000E+00  0.00000000000E+00  0.30134283020E+04  0.30134283020E+04  0.00000000000E+00 0. -1.
         -2   -1    0    0    0  501 -0.00000000000E+00 -0.00000000000E+00 -0.82782386413E+02  0.82782386413E+02  0.00000000000E+00 0. -1.
         36    2    1    2    0    0  0.00000000000E+00  0.00000000000E+00  0.29306459156E+04  0.30962106884E+04  0.99891698579E+03 0.  0.
         25    2    3    3    0    0  0.13278530099E+03 -0.29232547522E+01  0.41823995463E+03  0.45621871174E+03  0.12478129554E+03 0.  0.
         35    2    3    3    0    0 -0.13278530099E+03  0.29232547522E+01  0.25124059610E+04  0.26399919767E+04  0.79983338432E+03 0.  0.
         22    1    5    5    0    0  0.29802007689E+03  0.16638315967E+03  0.88244541235E+03  0.94615497031E+03  0.00000000000E+00 0. -1.
         22    1    5    5    0    0 -0.43080537788E+03 -0.16345990492E+03  0.16299605486E+04  0.16938370064E+04  0.00000000000E+00 0. -1.
          5    1    4    4  502    0  0.41711182241E+02 -0.56274514050E+02  0.11118435777E+03  0.13149408758E+03  0.47000000000E+01 0.  1.
         -5    1    4    4    0  502  0.91074118750E+02  0.53351259297E+02  0.30705559686E+03  0.32472462416E+03  0.47000000000E+01 0.  1.
<mgrwt>
<rscale>  0 0.99891699E+03</rscale>
<asrwt>0</asrwt>
<pdfrwt beam="1">  1        2 0.46360427E+00 0.99891699E+03</pdfrwt>
<pdfrwt beam="2">  1       -2 0.12735754E-01 0.99891699E+03</pdfrwt>
<totfact> 0.86079252E+01</totfact>
</mgrwt>
</event>
<event>
 9    1  0.4488205E-036  0.9997953E+03  0.7818608E-02  0.8681233E-01
          2   -1    0    0  501    0  0.00000000000E+00  0.00000000000E+00  0.18626792303E+03  0.18626792303E+03  0.00000000000E+00 0. -1.
         -2   -1    0    0    0  501 -0.00000000000E+00 -0.00000000000E+00 -0.13416033367E+04  0.13416033367E+04  0.00000000000E+00 0. -1.
         36    2    1    2    0    0 -0.14210854715E-13  0.14210854715E-13 -0.11553354137E+04  0.15278712598E+04  0.99979531317E+03 0.  0.
         25    2    3    3    0    0 -0.11562792120E+03 -0.63755787726E+02 -0.30275058061E+03  0.35098327765E+03  0.11872965299E+03 0.  0.
         35    2    3    3    0    0  0.11562792120E+03  0.63755787726E+02 -0.85258483310E+03  0.11768879821E+04  0.80045600016E+03 0.  0.
         22    1    5    5    0    0  0.11934969606E+03  0.29424605849E+03 -0.88854759097E+03  0.94357931002E+03  0.00000000000E+00 0.  1.
         22    1    5    5    0    0 -0.37217748610E+01 -0.23049027076E+03  0.35962757862E+02  0.23330867210E+03  0.00000000000E+00 0.  1.
          5    1    4    4  502    0 -0.10168221631E+03 -0.83384931190E+02 -0.29832310569E+03  0.32605380730E+03  0.47000000000E+01 0.  1.
         -5    1    4    4    0  502 -0.13945704885E+02  0.19629143464E+02 -0.44274749235E+01  0.24929470353E+02  0.47000000000E+01 0.  1.
<mgrwt>
<rscale>  0 0.99979531E+03</rscale>
<asrwt>0</asrwt>
<pdfrwt beam="1">  1        2 0.28656604E-01 0.99979531E+03</pdfrwt>
<pdfrwt beam="2">  1       -2 0.20640051E+00 0.99979531E+03</pdfrwt>
<totfact> 0.24598687E+01</totfact>
</mgrwt>
</event>
<event>
 9    1  0.4488205E-036  0.9998980E+03  0.7818608E-02  0.8681135E-01
         -1   -1    0    0    0  501 -0.00000000000E+00  0.00000000000E+00  0.12078573687E+03  0.12078573687E+03  0.00000000000E+00 0.  1.
          1   -1    0    0  501    0  0.00000000000E+00 -0.00000000000E+00 -0.20693587524E+04  0.20693587524E+04  0.00000000000E+00 0.  1.
         36    2    1    2    0    0 -0.71054273576E-14  0.00000000000E+00 -0.19485730155E+04  0.21901444893E+04  0.99989803831E+03 0.  0.
         25    2    3    3    0    0  0.51965171902E+01  0.14061214485E+03 -0.39266020485E+03  0.43511715097E+03  0.12387945564E+03 0.  0.
         35    2    3    3    0    0 -0.51965171902E+01 -0.14061214485E+03 -0.15559128107E+04  0.17550273383E+04  0.79966086852E+03 0.  0.
         22    1    5    5    0    0 -0.83615343380E+02  0.32374689030E+03 -0.53776709598E+03  0.63324325827E+03  0.00000000000E+00 0.  1.
         22    1    5    5    0    0  0.78418826189E+02 -0.46435903515E+03 -0.10181457147E+04  0.11217840800E+04  0.00000000000E+00 0.  1.
          5    1    4    4  502    0 -0.31379512126E+02  0.68763594721E+02 -0.72183704394E+02  0.10462161784E+03  0.47000000000E+01 0. -1.
         -5    1    4    4    0  502  0.36576029316E+02  0.71848550129E+02 -0.32047650045E+03  0.33049553313E+03  0.47000000000E+01 0. -1.
<mgrwt>
<rscale>  0 0.99989804E+03</rscale>
<asrwt>0</asrwt>
<pdfrwt beam="1">  1        1 0.31836288E+00 0.99989804E+03</pdfrwt>
<pdfrwt beam="2">  1       -1 0.18582422E-01 0.99989804E+03</pdfrwt>
<totfact> 0.64282507E+01</totfact>
</mgrwt>
</event>
<event>
 9    1  0.4488205E-036  0.1001946E+04  0.7818608E-02  0.8679187E-01
          1   -1    0    0  501    0  0.00000000000E+00  0.00000000000E+00  0.16683673175E+04  0.16683673175E+04  0.00000000000E+00 0. -1.
         -1   -1    0    0    0  501 -0.00000000000E+00 -0.00000000000E+00 -0.15043095803E+03  0.15043095803E+03  0.00000000000E+00 0. -1.
         36    2    1    2    0    0 -0.28421709430E-13 -0.14210854715E-13  0.15179363594E+04  0.18187982755E+04  0.10019462938E+04 0.  0.
         25    2    3    3    0    0  0.98128332438E+02  0.99456803739E+02  0.24428668733E+03  0.30800774746E+03  0.12518770487E+03 0.  0.
         35    2    3    3    0    0 -0.98128332438E+02 -0.99456803739E+02  0.12736496721E+04  0.15107905280E+04  0.80048966695E+03 0.  0.
         22    1    5    5    0    0 -0.31869988298E+03 -0.34228249272E+03  0.59318298378E+03  0.75537604706E+03  0.00000000000E+00 0.  1.
         22    1    5    5    0    0  0.22057155054E+03  0.24282568898E+03  0.68046668834E+03  0.75541448098E+03  0.00000000000E+00 0.  1.
          5    1    4    4  502    0  0.29985080017E+02  0.75527609596E+02  0.21506927123E+03  0.22995740097E+03  0.47000000000E+01 0.  1.
         -5    1    4    4    0  502  0.68143252422E+02  0.23929194143E+02  0.29217416102E+02  0.78050346486E+02  0.47000000000E+01 0.  1.
<mgrwt>
<rscale>  0 0.10019463E+04</rscale>
<asrwt>0</asrwt>
<pdfrwt beam="1">  1        1 0.25667188E+00 0.10019463E+04</pdfrwt>
<pdfrwt beam="2">  1       -1 0.23143226E-01 0.10019463E+04</pdfrwt>
<totfact> 0.85437340E+01</totfact>
</mgrwt>
</event>
<event>
 9    1  0.4488205E-036  0.1000581E+04  0.7818608E-02  0.8680485E-01
          2   -1    0    0  501    0  0.00000000000E+00  0.00000000000E+00  0.14318706552E+04  0.14318706552E+04  0.00000000000E+00 0. -1.
         -2   -1    0    0    0  501 -0.00000000000E+00 -0.00000000000E+00 -0.17479970857E+03  0.17479970857E+03  0.00000000000E+00 0. -1.
         36    2    1    2    0    0 -0.14210854715E-13  0.14210854715E-13  0.12570709467E+04  0.16066703638E+04  0.10005809777E+04 0.  0.
         25    2    3    3    0    0  0.82299273469E+02  0.77561325498E+02  0.35841230862E+03  0.39703434374E+03  0.12801545809E+03 0.  0.
         35    2    3    3    0    0 -0.82299273469E+02 -0.77561325498E+02  0.89865863806E+03  0.12096360201E+04  0.80177492085E+03 0.  0.
         22    1    5    5    0    0  0.46382750094E+02  0.29772074253E+03  0.99321671933E+02  0.31725982184E+03  0.00000000000E+00 0. -1.
         22    1    5    5    0    0 -0.12868202356E+03 -0.37528206803E+03  0.79933696613E+03  0.89237619824E+03  0.00000000000E+00 0. -1.
          5    1    4    4  502    0 -0.10748308718E+02 -0.27517459577E+02  0.74739264480E+02  0.80503319043E+02  0.47000000000E+01 0. -1.
         -5    1    4    4    0  502  0.93047582187E+02  0.10507878508E+03  0.28367304414E+03  0.31653102469E+03  0.47000000000E+01 0. -1.
<mgrwt>
<rscale>  0 0.10005810E+04</rscale>
<asrwt>0</asrwt>
<pdfrwt beam="1">  1        2 0.22028779E+00 0.10005810E+04</pdfrwt>
<pdfrwt beam="2">  1       -2 0.26892264E-01 0.10005810E+04</pdfrwt>
<totfact> 0.20859898E+02</totfact>
</mgrwt>
</event>
<event>
 9    1  0.4488205E-036  0.1000041E+04  0.7818608E-02  0.8680999E-01
          2   -1    0    0  501    0  0.00000000000E+00  0.00000000000E+00  0.93009843325E+03  0.93009843325E+03  0.00000000000E+00 0.  1.
         -2   -1    0    0    0  501 -0.00000000000E+00 -0.00000000000E+00 -0.26881062830E+03  0.26881062830E+03  0.00000000000E+00 0.  1.
         36    2    1    2    0    0 -0.28421709430E-13  0.00000000000E+00  0.66128780495E+03  0.11989090615E+04  0.10000406876E+04 0.  0.
         25    2    3    3    0    0  0.11834117671E+03 -0.15050243416E+02  0.21361676340E+03  0.27477615114E+03  0.12505465885E+03 0.  0.
         35    2    3    3    0    0 -0.11834117671E+03  0.15050243416E+02  0.44767104156E+03  0.92413291041E+03  0.79961311315E+03 0.  0.
         22    1    5    5    0    0  0.27823959502E+03 -0.63380921247E+02 -0.42769806219E+02  0.28855444848E+03  0.00000000000E+00 0.  1.
         22    1    5    5    0    0 -0.39658077173E+03  0.78431164663E+02  0.49044084778E+03  0.63557846193E+03  0.00000000000E+00 0.  1.
          5    1    4    4  502    0  0.62697062985E+02  0.36748870431E+02  0.35416676979E+02  0.80980443276E+02  0.47000000000E+01 0.  1.
         -5    1    4    4    0  502  0.55644113726E+02 -0.51799113847E+02  0.17820008642E+03  0.19379570786E+03  0.47000000000E+01 0.  1.
<mgrwt>
<rscale>  0 0.10000407E+04</rscale>
<asrwt>0</asrwt>
<pdfrwt beam="1">  1        2 0.14309207E+00 0.10000407E+04</pdfrwt>
<pdfrwt beam="2">  1       -2 0.41355482E-01 0.10000407E+04</pdfrwt>
<totfact> 0.18750203E+02</totfact>
</mgrwt>
</event>
<event>
 9    1  0.4488205E-036  0.9997276E+03  0.7818608E-02  0.8681297E-01
          2   -1    0    0  501    0  0.00000000000E+00  0.00000000000E+00  0.72791260075E+03  0.72791260075E+03  0.00000000000E+00 0. -1.
         -2   -1    0    0    0  501 -0.00000000000E+00 -0.00000000000E+00 -0.34326074917E+03  0.34326074917E+03  0.00000000000E+00 0. -1.
         36    2    1    2    0    0  0.00000000000E+00 -0.14210854715E-13  0.38465185158E+03  0.10711733499E+04  0.99972761224E+03 0.  0.
         25    2    3    3    0    0 -0.81813949706E+02  0.11406994401E+03  0.77783423487E+02  0.20316896262E+03  0.12458688498E+03 0.  0.
         35    2    3    3    0    0  0.81813949706E+02 -0.11406994401E+03  0.30686842809E+03  0.86800438730E+03  0.79972364584E+03 0.  0.
         22    1    5    5    0    0 -0.20494982369E+03  0.18643463385E+03 -0.92191971142E+02  0.29199599736E+03  0.00000000000E+00 0. -1.
         22    1    5    5    0    0  0.28676377340E+03 -0.30050457786E+03  0.39906039923E+03  0.57600838994E+03  0.00000000000E+00 0. -1.
          5    1    4    4  502    0  0.25165868810E+02  0.65035811632E+02  0.30425415722E+02  0.76228430847E+02  0.47000000000E+01 0.  1.
         -5    1    4    4    0  502 -0.10697981852E+03  0.49034132382E+02  0.47358007765E+02  0.12694053178E+03  0.47000000000E+01 0.  1.
<mgrwt>
<rscale>  0 0.99972761E+03</rscale>
<asrwt>0</asrwt>
<pdfrwt beam="1">  1        2 0.11198655E+00 0.99972761E+03</pdfrwt>
<pdfrwt beam="2">  1       -2 0.52809346E-01 0.99972761E+03</pdfrwt>
<totfact> 0.15956515E+02</totfact>
</mgrwt>
</event>
<event>
 9    1  0.4488205E-036  0.9989915E+03  0.7818608E-02  0.8681999E-01
         -2   -1    0    0    0  501 -0.00000000000E+00  0.00000000000E+00  0.27797292463E+03  0.27797292463E+03  0.00000000000E+00 0.  1.
          2   -1    0    0  501    0  0.00000000000E+00 -0.00000000000E+00 -0.89755499266E+03  0.89755499266E+03  0.00000000000E+00 0.  1.
         36    2    1    2    0    0 -0.28421709430E-13  0.00000000000E+00 -0.61958206803E+03  0.11755279173E+04  0.99899146407E+03 0.  0.
         25    2    3    3    0    0  0.82669150651E+02 -0.10261436955E+03 -0.53814998490E+02  0.18944142067E+03  0.12501240136E+03 0.  0.
         35    2    3    3    0    0 -0.82669150651E+02  0.10261436955E+03 -0.56576706954E+03  0.98608649662E+03  0.79681259059E+03 0.  0.
         22    1    5    5    0    0 -0.41381475565E+03  0.19581942788E+03 -0.38092293275E+03  0.59555871333E+03  0.00000000000E+00 0.  1.
         22    1    5    5    0    0  0.33114560500E+03 -0.93205058333E+02 -0.18484413679E+03  0.39052778329E+03  0.00000000000E+00 0.  1.
          5    1    4    4  502    0  0.51662048169E+02 -0.49177995402E+02 -0.92117815257E+02  0.11659856063E+03  0.47000000000E+01 0.  1.
         -5    1    4    4    0  502  0.31007102482E+02 -0.53436374146E+02  0.38302816767E+02  0.72842860038E+02  0.47000000000E+01 0.  1.
<mgrwt>
<rscale>  0 0.99899146E+03</rscale>
<asrwt>0</asrwt>
<pdfrwt beam="1">  1        2 0.13808539E+00 0.99899146E+03</pdfrwt>
<pdfrwt beam="2">  1       -2 0.42765065E-01 0.99899146E+03</pdfrwt>
<totfact> 0.18457189E+02</totfact>
</mgrwt>
</event>
<event>
 9    1  0.4488205E-036  0.1009697E+04  0.7818608E-02  0.8671858E-01
         -1   -1    0    0    0  501 -0.00000000000E+00  0.00000000000E+00  0.37448383286E+03  0.37448383286E+03  0.00000000000E+00 0.  1.
          1   -1    0    0  501    0  0.00000000000E+00 -0.00000000000E+00 -0.68059598882E+03  0.68059598882E+03  0.00000000000E+00 0.  1.
         36    2    1    2    0    0  0.28421709430E-13  0.00000000000E+00 -0.30611215596E+03  0.10550798217E+04  0.10096973696E+04 0.  0.
         25    2    3    3    0    0  0.88006374860E+02 -0.84684944582E+02 -0.13602354691E+03  0.22782085441E+03  0.13595320716E+03 0.  0.
         35    2    3    3    0    0 -0.88006374860E+02  0.84684944582E+02 -0.17008860905E+03  0.82725896727E+03  0.80031906271E+03 0.  0.
         22    1    5    5    0    0  0.21780474995E+03  0.30210172898E+03 -0.24344084640E+03  0.44493573632E+03  0.00000000000E+00 0. -1.
         22    1    5    5    0    0 -0.30581112481E+03 -0.21741678440E+03  0.73352237350E+02  0.38232323095E+03  0.00000000000E+00 0. -1.
          5    1    4    4  502    0  0.48098420693E+02 -0.10949275569E+03 -0.13523467724E+03  0.18058967178E+03  0.47000000000E+01 0.  1.
         -5    1    4    4    0  502  0.39907954167E+02  0.24807811112E+02 -0.78886966516E+00  0.47231182637E+02  0.47000000000E+01 0.  1.
<mgrwt>
<rscale>  0 0.10096974E+04</rscale>
<asrwt>0</asrwt>
<pdfrwt beam="1">  1        1 0.10470707E+00 0.10096974E+04</pdfrwt>
<pdfrwt beam="2">  1       -1 0.57612898E-01 0.10096974E+04</pdfrwt>
<totfact> 0.10001195E+02</totfact>
</mgrwt>
</event>
<event>
 9    1  0.4488205E-036  0.9991691E+03  0.7818608E-02  0.8681830E-01
         -2   -1    0    0    0  501 -0.00000000000E+00  0.00000000000E+00  0.22373800963E+03  0.22373800963E+03  0.00000000000E+00 0.  1.
          2   -1    0    0  501    0  0.00000000000E+00 -0.00000000000E+00 -0.11155221863E+04  0.11155221863E+04  0.00000000000E+00 0.  1.
         36    2    1    2    0    0  0.14210854715E-13  0.14210854715E-13 -0.89178417671E+03  0.13392601960E+04  0.99916908213E+03 0.  0.
         25    2    3    3    0    0  0.10463790411E+02  0.56374732782E+02 -0.33115312608E+03  0.35877947849E+03  0.12558948950E+03 0.  0.
         35    2    3    3    0    0 -0.10463790411E+02 -0.56374732782E+02 -0.56063105064E+03  0.98048071748E+03  0.80233886918E+03 0.  0.
         22    1    5    5    0    0  0.20655624184E+03  0.11077495767E+03 -0.65109751778E+03  0.69200039736E+03  0.00000000000E+00 0. -1.
         22    1    5    5    0    0 -0.21702003225E+03 -0.16714969045E+03  0.90466467143E+02  0.28848032012E+03  0.00000000000E+00 0. -1.
          5    1    4    4  502    0  0.50567762440E+02 -0.11127548622E+02 -0.19220491758E+03  0.19911238354E+03  0.47000000000E+01 0.  1.
         -5    1    4    4    0  502 -0.40103972030E+02  0.67502281404E+02 -0.13894820849E+03  0.15966709495E+03  0.47000000000E+01 0.  1.
<mgrwt>
<rscale>  0 0.99916908E+03</rscale>
<asrwt>0</asrwt>
<pdfrwt beam="1">  1        2 0.17161879E+00 0.99916908E+03</pdfrwt>
<pdfrwt beam="2">  1       -2 0.34421233E-01 0.99916908E+03</pdfrwt>
<totfact> 0.20333110E+02</totfact>
</mgrwt>
</event>
<event>
 9    1  0.4488205E-036  0.1000489E+04  0.7818608E-02  0.8680573E-01
          2   -1    0    0  501    0  0.00000000000E+00  0.00000000000E+00  0.30827975515E+04  0.30827975515E+04  0.00000000000E+00 0.  1.
         -2   -1    0    0    0  501 -0.00000000000E+00 -0.00000000000E+00 -0.81174474865E+02  0.81174474865E+02  0.00000000000E+00 0.  1.
         36    2    1    2    0    0 -0.14210854715E-13  0.00000000000E+00  0.30016230766E+04  0.31639720264E+04  0.10004888252E+04 0.  0.
         25    2    3    3    0    0  0.40157865584E+02  0.12913159806E+03  0.44734083296E+03  0.48377786235E+03  0.12505828834E+03 0.  0.
         35    2    3    3    0    0 -0.40157865584E+02 -0.12913159806E+03  0.25542822437E+04  0.26801941640E+04  0.80049694107E+03 0.  0.
         22    1    5    5    0    0 -0.37191370823E+03 -0.20515278505E+03  0.95653452993E+03  0.10465972380E+04  0.00000000000E+00 0.  1.
         22    1    5    5    0    0  0.33175584264E+03  0.76021186986E+02  0.15977477138E+04  0.16335969261E+04  0.00000000000E+00 0.  1.
          5    1    4    4  502    0 -0.25422014001E+02  0.10457310584E+03  0.32903925955E+03  0.34622353702E+03  0.47000000000E+01 0. -1.
         -5    1    4    4    0  502  0.65579879585E+02  0.24558492218E+02  0.11830157341E+03  0.13755432534E+03  0.47000000000E+01 0. -1.
<mgrwt>
<rscale>  0 0.10004888E+04</rscale>
<asrwt>0</asrwt>
<pdfrwt beam="1">  1        2 0.47427646E+00 0.10004888E+04</pdfrwt>
<pdfrwt beam="2">  1       -2 0.12488383E-01 0.10004888E+04</pdfrwt>
<totfact> 0.79823342E+01</totfact>
</mgrwt>
</event>
<event>
 9    1  0.4488205E-036  0.9988766E+03  0.7818608E-02  0.8682108E-01
          2   -1    0    0  501    0  0.00000000000E+00  0.00000000000E+00  0.74383978095E+03  0.74383978095E+03  0.00000000000E+00 0.  1.
         -2   -1    0    0    0  501 -0.00000000000E+00 -0.00000000000E+00 -0.33533916920E+03  0.33533916920E+03  0.00000000000E+00 0.  1.
         36    2    1    2    0    0 -0.14210854715E-13 -0.71054273576E-14  0.40850061175E+03  0.10791789501E+04  0.99887659730E+03 0.  0.
         25    2    3    3    0    0 -0.22752232990E+02 -0.44272401905E+02 -0.62302508326E+02  0.14956168347E+03  0.12652819821E+03 0.  0.
         35    2    3    3    0    0  0.22752232990E+02  0.44272401905E+02  0.47080312008E+03  0.92961726668E+03  0.80003435861E+03 0.  0.
         22    1    5    5    0    0 -0.31672798373E+03 -0.21267476968E+02  0.48943614334E+03  0.58336665971E+03  0.00000000000E+00 0. -1.
         22    1    5    5    0    0  0.33948021672E+03  0.65539878873E+02 -0.18633023265E+02  0.34625060696E+03  0.00000000000E+00 0. -1.
          5    1    4    4  502    0 -0.71259818412E+02 -0.38618308857E+02 -0.17351276342E+02  0.83021035225E+02  0.47000000000E+01 0.  1.
         -5    1    4    4    0  502  0.48507585423E+02 -0.56540930480E+01 -0.44951231985E+02  0.66540648244E+02  0.47000000000E+01 0.  1.
<mgrwt>
<rscale>  0 0.99887660E+03</rscale>
<asrwt>0</asrwt>
<pdfrwt beam="1">  1        2 0.11443689E+00 0.99887660E+03</pdfrwt>
<pdfrwt beam="2">  1       -2 0.51590642E-01 0.99887660E+03</pdfrwt>
<totfact> 0.16281286E+02</totfact>
</mgrwt>
</event>
<event>
 9    1  0.4488205E-036  0.9998036E+03  0.7818608E-02  0.8681225E-01
          2   -1    0    0  501    0  0.00000000000E+00  0.00000000000E+00  0.16545985797E+04  0.16545985797E+04  0.00000000000E+00 0.  1.
         -2   -1    0    0    0  501 -0.00000000000E+00 -0.00000000000E+00 -0.15103471096E+03  0.15103471096E+03  0.00000000000E+00 0.  1.
         36    2    1    2    0    0 -0.14210854715E-13  0.14210854715E-13  0.15035638688E+04  0.18056332907E+04  0.99980361721E+03 0.  0.
         25    2    3    3    0    0  0.99197458283E+02  0.80454883192E+02  0.38121622006E+03  0.42094218987E+03  0.12471325838E+03 0.  0.
         35    2    3    3    0    0 -0.99197458283E+02 -0.80454883192E+02  0.11223476487E+04  0.13846911008E+04  0.80086957501E+03 0.  0.
         22    1    5    5    0    0 -0.31088162696E+03 -0.34956317255E+03  0.61755325773E+03  0.77473467957E+03  0.00000000000E+00 0.  1.
         22    1    5    5    0    0  0.21168416868E+03  0.26910828935E+03  0.50479439098E+03  0.60995642126E+03  0.00000000000E+00 0.  1.
          5    1    4    4  502    0  0.75218122540E+02  0.72191112823E+02  0.12243289149E+03  0.16087642974E+03  0.47000000000E+01 0.  1.
         -5    1    4    4    0  502  0.23979335743E+02  0.82637703693E+01  0.25878332857E+03  0.26006576013E+03  0.47000000000E+01 0.  1.
<mgrwt>
<rscale>  0 0.99980362E+03</rscale>
<asrwt>0</asrwt>
<pdfrwt beam="1">  1        2 0.25455362E+00 0.99980362E+03</pdfrwt>
<pdfrwt beam="2">  1       -2 0.23236111E-01 0.99980362E+03</pdfrwt>
<totfact> 0.20230279E+02</totfact>
</mgrwt>
</event>
<event>
 9    1  0.4488205E-036  0.9919387E+03  0.7818608E-02  0.8688753E-01
         -2   -1    0    0    0  501 -0.00000000000E+00  0.00000000000E+00  0.18167273347E+03  0.18167273347E+03  0.00000000000E+00 0.  1.
          2   -1    0    0  501    0  0.00000000000E+00 -0.00000000000E+00 -0.13540039392E+04  0.13540039392E+04  0.00000000000E+00 0.  1.
         36    2    1    2    0    0 -0.35527136788E-14  0.42632564146E-13 -0.11723312057E+04  0.15356766726E+04  0.99193870125E+03 0.  0.
         25    2    3    3    0    0 -0.83119379005E+01  0.11254692985E+03 -0.31706087489E+03  0.35890808101E+03  0.12470570355E+03 0.  0.
         35    2    3    3    0    0  0.83119379005E+01 -0.11254692985E+03 -0.85527033081E+03  0.11767685916E+04  0.80035059803E+03 0.  0.
         22    1    5    5    0    0 -0.21096787764E+03 -0.35047853116E+03 -0.22153502341E+03  0.46521007383E+03  0.00000000000E+00 0.  1.
         22    1    5    5    0    0  0.21927981554E+03  0.23793160131E+03 -0.63373530741E+03  0.71155851780E+03  0.00000000000E+00 0.  1.
          5    1    4    4  502    0 -0.22026569502E+02  0.75477024812E+02 -0.30823186108E+03  0.31813663923E+03  0.47000000000E+01 0.  1.
         -5    1    4    4    0  502  0.13714631602E+02  0.37069905037E+02 -0.88290138055E+01  0.40771441772E+02  0.47000000000E+01 0.  1.
<mgrwt>
<rscale>  0 0.99193870E+03</rscale>
<asrwt>0</asrwt>
<pdfrwt beam="1">  1        2 0.20830829E+00 0.99193870E+03</pdfrwt>
<pdfrwt beam="2">  1       -2 0.27949653E-01 0.99193870E+03</pdfrwt>
<totfact> 0.21564751E+02</totfact>
</mgrwt>
</event>
<event>
 9    1  0.4488205E-036  0.1001195E+04  0.7818608E-02  0.8679900E-01
          1   -1    0    0  501    0  0.00000000000E+00  0.00000000000E+00  0.60524549874E+03  0.60524549874E+03  0.00000000000E+00 0. -1.
         -1   -1    0    0    0  501 -0.00000000000E+00 -0.00000000000E+00 -0.41404357603E+03  0.41404357603E+03  0.00000000000E+00 0. -1.
         36    2    1    2    0    0  0.00000000000E+00  0.71054273576E-14  0.19120192271E+03  0.10192890748E+04  0.10011953070E+04 0.  0.
         25    2    3    3    0    0 -0.12885315497E+03 -0.62944365401E+01  0.11506322229E+03  0.21337129610E+03  0.12508001199E+03 0.  0.
         35    2    3    3    0    0  0.12885315497E+03  0.62944365401E+01  0.76138700419E+02  0.80591777866E+03  0.79187348029E+03 0.  0.
         22    1    5    5    0    0 -0.19521748903E+03  0.25441032057E+03  0.20176967956E+03  0.37887396694E+03  0.00000000000E+00 0.  1.
         22    1    5    5    0    0  0.32407064400E+03 -0.24811588403E+03 -0.12563097914E+03  0.42704381172E+03  0.00000000000E+00 0.  1.
          5    1    4    4  502    0 -0.13938435469E+03  0.27265844735E+02  0.78185955240E+02  0.16219296600E+03  0.47000000000E+01 0. -1.
         -5    1    4    4    0  502  0.10531199725E+02 -0.33560281276E+02  0.36877267055E+02  0.51178330106E+02  0.47000000000E+01 0. -1.
<mgrwt>
<rscale>  0 0.10011953E+04</rscale>
<asrwt>0</asrwt>
<pdfrwt beam="1">  1        1 0.93114692E-01 0.10011953E+04</pdfrwt>
<pdfrwt beam="2">  1       -1 0.63699012E-01 0.10011953E+04</pdfrwt>
<totfact> 0.98313371E+01</totfact>
</mgrwt>
</event>
<event>
 9    1  0.4488205E-036  0.1000253E+04  0.7818608E-02  0.8680797E-01
          1   -1    0    0  501    0  0.00000000000E+00  0.00000000000E+00  0.10214899415E+04  0.10214899415E+04  0.00000000000E+00 0.  1.
         -1   -1    0    0    0  501 -0.00000000000E+00 -0.00000000000E+00 -0.24486422177E+03  0.24486422177E+03  0.00000000000E+00 0.  1.
         36    2    1    2    0    0  0.14210854715E-13  0.00000000000E+00  0.77662571970E+03  0.12663541632E+04  0.10002526472E+04 0.  0.
         25    2    3    3    0    0  0.52013004782E+02 -0.12744699965E+03  0.12053447905E+03  0.22208256160E+03  0.12587300402E+03 0.  0.
         35    2    3    3    0    0 -0.52013004782E+02  0.12744699965E+03  0.65609124065E+03  0.10442716016E+04  0.80068681240E+03 0.  0.
         22    1    5    5    0    0 -0.42596520044E+03  0.48662999712E+02  0.31477684129E+03  0.53188241119E+03  0.00000000000E+00 0. -1.
         22    1    5    5    0    0  0.37395219566E+03  0.78783999940E+02  0.34131439936E+03  0.51238919045E+03  0.00000000000E+00 0. -1.
          5    1    4    4  502    0  0.68962600508E+02 -0.14551312787E+03  0.10046206141E+03  0.18985422417E+03  0.47000000000E+01 0. -1.
         -5    1    4    4    0  502 -0.16949595726E+02  0.18066128217E+02  0.20072417640E+02  0.32228337437E+02  0.47000000000E+01 0. -1.
<mgrwt>
<rscale>  0 0.10002526E+04</rscale>
<asrwt>0</asrwt>
<pdfrwt beam="1">  1        1 0.15715230E+00 0.10002526E+04</pdfrwt>
<pdfrwt beam="2">  1       -1 0.37671419E-01 0.10002526E+04</pdfrwt>
<totfact> 0.11054662E+02</totfact>
</mgrwt>
</event>
<event>
 9    1  0.4488205E-036  0.9992073E+03  0.7818608E-02  0.8681793E-01
          1   -1    0    0  501    0  0.00000000000E+00  0.00000000000E+00  0.39654959498E+03  0.39654959498E+03  0.00000000000E+00 0.  1.
         -1   -1    0    0    0  501 -0.00000000000E+00 -0.00000000000E+00 -0.62943903237E+03  0.62943903237E+03  0.00000000000E+00 0.  1.
         36    2    1    2    0    0  0.14210854715E-13  0.14210854715E-13 -0.23288943739E+03  0.10259886274E+04  0.99920727250E+03 0.  0.
         25    2    3    3    0    0  0.61723330320E+02  0.84764699544E+02 -0.13528252494E+03  0.21201788365E+03  0.12512153148E+03 0.  0.
         35    2    3    3    0    0 -0.61723330320E+02 -0.84764699544E+02 -0.97606912450E+02  0.81397074370E+03  0.80126552306E+03 0.  0.
         22    1    5    5    0    0 -0.15183186027E+01  0.71469000033E+02  0.33895061093E+03  0.34640675499E+03  0.00000000000E+00 0.  1.
         22    1    5    5    0    0 -0.60205011717E+02 -0.15623369958E+03 -0.43655752338E+03  0.46756398871E+03  0.00000000000E+00 0.  1.
          5    1    4    4  502    0 -0.34411696830E+02  0.48832369428E+02 -0.58631473198E+02  0.83836178539E+02  0.47000000000E+01 0. -1.
         -5    1    4    4    0  502  0.96135027150E+02  0.35932330116E+02 -0.76651051744E+02  0.12818170511E+03  0.47000000000E+01 0. -1.
<mgrwt>
<rscale>  0 0.99920727E+03</rscale>
<asrwt>0</asrwt>
<pdfrwt beam="1">  1        1 0.61007630E-01 0.99920727E+03</pdfrwt>
<pdfrwt beam="2">  1       -1 0.96836774E-01 0.99920727E+03</pdfrwt>
<totfact> 0.74445124E+01</totfact>
</mgrwt>
</event>
<event>
 9    1  0.4488205E-036  0.1001090E+04  0.7818608E-02  0.8680001E-01
         -2   -1    0    0    0  501 -0.00000000000E+00  0.00000000000E+00  0.12664953950E+03  0.12664953950E+03  0.00000000000E+00 0.  1.
          2   -1    0    0  501    0  0.00000000000E+00 -0.00000000000E+00 -0.19782561045E+04  0.19782561045E+04  0.00000000000E+00 0.  1.
         36    2    1    2    0    0  0.35527136788E-14  0.71054273576E-14 -0.18516065650E+04  0.21049056440E+04  0.10010898554E+04 0.  0.
         25    2    3    3    0    0 -0.27339676000E+02 -0.54670429127E+02 -0.80988197425E+02  0.16087376982E+03  0.12483976927E+03 0.  0.
         35    2    3    3    0    0  0.27339676000E+02  0.54670429127E+02 -0.17706183676E+04  0.19440318742E+04  0.80027133554E+03 0.  0.
         22    1    5    5    0    0 -0.95568694102E+02 -0.35235301040E+03 -0.65070781386E+03  0.74612778949E+03  0.00000000000E+00 0.  1.
         22    1    5    5    0    0  0.12290837010E+03  0.40702343953E+03 -0.11199105537E+04  0.11979040847E+04  0.00000000000E+00 0.  1.
          5    1    4    4  502    0 -0.37517771956E+02  0.16694078715E+02  0.12077888463E+02  0.43060897185E+02  0.47000000000E+01 0.  1.
         -5    1    4    4    0  502  0.10178095956E+02 -0.71364507842E+02 -0.93066085888E+02  0.11781287264E+03  0.47000000000E+01 0.  1.
<mgrwt>
<rscale>  0 0.10010899E+04</rscale>
<asrwt>0</asrwt>
<pdfrwt beam="1">  1        2 0.30434709E+00 0.10010899E+04</pdfrwt>
<pdfrwt beam="2">  1       -2 0.19484544E-01 0.10010899E+04</pdfrwt>
<totfact> 0.18043711E+02</totfact>
</mgrwt>
</event>
<event>
 9    1  0.4488205E-036  0.9990074E+03  0.7818608E-02  0.8681984E-01
         -3   -1    0    0    0  501 -0.00000000000E+00  0.00000000000E+00  0.94119700227E+02  0.94119700227E+02  0.00000000000E+00 0. -1.
          3   -1    0    0  501    0  0.00000000000E+00 -0.00000000000E+00 -0.26509217560E+04  0.26509217560E+04  0.00000000000E+00 0. -1.
         36    2    1    2    0    0  0.28421709430E-13  0.00000000000E+00 -0.25568020558E+04  0.27450414562E+04  0.99900742940E+03 0.  0.
         25    2    3    3    0    0 -0.70736847346E+02 -0.10903992194E+03 -0.34262971229E+03  0.38735347536E+03  0.12551569217E+03 0.  0.
         35    2    3    3    0    0  0.70736847346E+02  0.10903992194E+03 -0.22141723435E+04  0.23576879809E+04  0.79952488537E+03 0.  0.
         22    1    5    5    0    0 -0.30261826758E+03 -0.16680394761E+03 -0.91468336135E+03  0.97777657179E+03  0.00000000000E+00 0. -1.
         22    1    5    5    0    0  0.37335511493E+03  0.27584386955E+03 -0.12994889821E+04  0.13799114091E+04  0.00000000000E+00 0. -1.
          5    1    4    4  502    0  0.16197028268E+02 -0.88303334615E+02 -0.14858661513E+03  0.17366604396E+03  0.47000000000E+01 0.  1.
         -5    1    4    4    0  502 -0.86933875615E+02 -0.20736587325E+02 -0.19404309716E+03  0.21368743140E+03  0.47000000000E+01 0.  1.
<mgrwt>
<rscale>  0 0.99900743E+03</rscale>
<asrwt>0</asrwt>
<pdfrwt beam="1">  1        3 0.40783408E+00 0.99900743E+03</pdfrwt>
<pdfrwt beam="2">  1       -3 0.14479955E-01 0.99900743E+03</pdfrwt>
<totfact> 0.34033267E+00</totfact>
</mgrwt>
</event>
<event>
 9    1  0.4488205E-036  0.1000842E+04  0.7818608E-02  0.8680236E-01
          1   -1    0    0  501    0  0.00000000000E+00  0.00000000000E+00  0.72061068770E+03  0.72061068770E+03  0.00000000000E+00 0. -1.
         -1   -1    0    0    0  501 -0.00000000000E+00 -0.00000000000E+00 -0.34751255262E+03  0.34751255262E+03  0.00000000000E+00 0. -1.
         36    2    1    2    0    0 -0.28421709430E-13  0.00000000000E+00  0.37309813508E+03  0.10681232403E+04  0.10008421644E+04 0.  0.
         25    2    3    3    0    0 -0.14032503125E+03  0.29226267617E+02  0.51236686671E+02  0.19335806728E+03  0.11923445393E+03 0.  0.
         35    2    3    3    0    0  0.14032503125E+03 -0.29226267617E+02  0.32186144841E+03  0.87476517304E+03  0.80067098541E+03 0.  0.
         22    1    5    5    0    0 -0.24785888988E+03 -0.59473726208E+02  0.40318703489E+03  0.47700203197E+03  0.00000000000E+00 0. -1.
         22    1    5    5    0    0  0.38818392113E+03  0.30247458591E+02 -0.81325586479E+02  0.39776314107E+03  0.00000000000E+00 0. -1.
          5    1    4    4  502    0 -0.89107645344E+02  0.49790115260E+02  0.81076694446E+02  0.13044059345E+03  0.47000000000E+01 0.  1.
         -5    1    4    4    0  502 -0.51217385908E+02 -0.20563847643E+02 -0.29840007775E+02  0.62917473830E+02  0.47000000000E+01 0.  1.
<mgrwt>
<rscale>  0 0.10008422E+04</rscale>
<asrwt>0</asrwt>
<pdfrwt beam="1">  1        1 0.11086318E+00 0.10008422E+04</pdfrwt>
<pdfrwt beam="2">  1       -1 0.53463470E-01 0.10008422E+04</pdfrwt>
<totfact> 0.10557833E+02</totfact>
</mgrwt>
</event>
<event>
 9    1  0.4488205E-036  0.1002297E+04  0.7818608E-02  0.8678854E-01
         -2   -1    0    0    0  501 -0.00000000000E+00  0.00000000000E+00  0.19575679777E+03  0.19575679777E+03  0.00000000000E+00 0.  1.
          2   -1    0    0  501    0  0.00000000000E+00 -0.00000000000E+00 -0.12829678295E+04  0.12829678295E+04  0.00000000000E+00 0.  1.
         36    2    1    2    0    0  0.00000000000E+00  0.71054273576E-14 -0.10872110318E+04  0.14787246273E+04  0.10022967105E+04 0.  0.
         25    2    3    3    0    0 -0.41757268831E+02 -0.27264761351E+02 -0.40168919095E+03  0.42396034092E+03  0.12609967421E+03 0.  0.
         35    2    3    3    0    0  0.41757268831E+02  0.27264761351E+02 -0.68552184081E+03  0.10547642864E+04  0.80006279058E+03 0.  0.
         22    1    5    5    0    0  0.18269543948E+02 -0.35566272622E+03 -0.12890904867E+03  0.37874436482E+03  0.00000000000E+00 0.  1.
         22    1    5    5    0    0  0.23487724884E+02  0.38292748757E+03 -0.55661279213E+03  0.67601992154E+03  0.00000000000E+00 0.  1.
          5    1    4    4  502    0 -0.81571760112E+02 -0.39604377223E+02 -0.31205120466E+03  0.32499308157E+03  0.47000000000E+01 0.  1.
         -5    1    4    4    0  502  0.39814491281E+02  0.12339615873E+02 -0.89637986294E+02  0.98967259347E+02  0.47000000000E+01 0.  1.
<mgrwt>
<rscale>  0 0.10022967E+04</rscale>
<asrwt>0</asrwt>
<pdfrwt beam="1">  1        2 0.19737968E+00 0.10022967E+04</pdfrwt>
<pdfrwt beam="2">  1       -2 0.30116429E-01 0.10022967E+04</pdfrwt>
<totfact> 0.20701558E+02</totfact>
</mgrwt>
</event>
<event>
 9    1  0.4488205E-036  0.9994237E+03  0.7818608E-02  0.8681587E-01
         -1   -1    0    0    0  501 -0.00000000000E+00  0.00000000000E+00  0.10092606821E+04  0.10092606821E+04  0.00000000000E+00 0. -1.
          1   -1    0    0  501    0  0.00000000000E+00 -0.00000000000E+00 -0.24742063189E+03  0.24742063189E+03  0.00000000000E+00 0. -1.
         36    2    1    2    0    0  0.14210854715E-13  0.00000000000E+00  0.76184005023E+03  0.12566813140E+04  0.99942366534E+03 0.  0.
         25    2    3    3    0    0  0.12738887226E+03 -0.47429534690E+02  0.12207994995E+03  0.22133989335E+03  0.12494138095E+03 0.  0.
         35    2    3    3    0    0 -0.12738887226E+03  0.47429534690E+02  0.63976010028E+03  0.10353414207E+04  0.80259665205E+03 0.  0.
         22    1    5    5    0    0  0.24144899617E+03 -0.15628935373E+03  0.52501997428E+03  0.59864008656E+03  0.00000000000E+00 0.  1.
         22    1    5    5    0    0 -0.36883786843E+03  0.20371888842E+03  0.11474012600E+03  0.43670133410E+03  0.00000000000E+00 0.  1.
          5    1    4    4  502    0  0.49684651704E+01 -0.25705569986E+02 -0.19407209603E+02  0.32927067271E+02  0.47000000000E+01 0.  1.
         -5    1    4    4    0  502  0.12242040709E+03 -0.21723964704E+02  0.14148715955E+03  0.18841282608E+03  0.47000000000E+01 0.  1.
<mgrwt>
<rscale>  0 0.99942367E+03</rscale>
<asrwt>0</asrwt>
<pdfrwt beam="1">  1        1 0.38064713E-01 0.99942367E+03</pdfrwt>
<pdfrwt beam="2">  1       -1 0.15527087E+00 0.99942367E+03</pdfrwt>
<totfact> 0.41725395E+01</totfact>
</mgrwt>
</event>
<event>
 9    1  0.4488205E-036  0.9997657E+03  0.7818608E-02  0.8681261E-01
         -2   -1    0    0    0  501 -0.00000000000E+00  0.00000000000E+00  0.31743061684E+03  0.31743061684E+03  0.00000000000E+00 0. -1.
          2   -1    0    0  501    0  0.00000000000E+00 -0.00000000000E+00 -0.78720472421E+03  0.78720472421E+03  0.00000000000E+00 0. -1.
         36    2    1    2    0    0  0.28421709430E-13  0.14210854715E-13 -0.46977410737E+03  0.11046353410E+04  0.99976573492E+03 0.  0.
         25    2    3    3    0    0  0.13319211573E+03 -0.47333314381E+02 -0.10167680323E+03  0.21422224298E+03  0.12478948164E+03 0.  0.
         35    2    3    3    0    0 -0.13319211573E+03  0.47333314381E+02 -0.36809730414E+03  0.89041309807E+03  0.79834784245E+03 0.  0.
         22    1    5    5    0    0  0.16764395224E+03  0.21992753513E+03 -0.45537926450E+03  0.53276907753E+03  0.00000000000E+00 0.  1.
         22    1    5    5    0    0 -0.30083606797E+03 -0.17259422074E+03  0.87281960357E+02  0.35764402054E+03  0.00000000000E+00 0.  1.
          5    1    4    4  502    0  0.31492811308E+02  0.38595137754E+02 -0.51662133678E+02  0.71919732192E+02  0.47000000000E+01 0.  1.
         -5    1    4    4    0  502  0.10169930442E+03 -0.85928452134E+02 -0.50014669550E+02  0.14230251079E+03  0.47000000000E+01 0.  1.
<mgrwt>
<rscale>  0 0.99976573E+03</rscale>
<asrwt>0</asrwt>
<pdfrwt beam="1">  1        2 0.12110842E+00 0.99976573E+03</pdfrwt>
<pdfrwt beam="2">  1       -2 0.48835480E-01 0.99976573E+03</pdfrwt>
<totfact> 0.16911925E+02</totfact>
</mgrwt>
</event>
<event>
 9    1  0.4488205E-036  0.1000845E+04  0.7818608E-02  0.8680234E-01
         -2   -1    0    0    0  501 -0.00000000000E+00  0.00000000000E+00  0.10165022016E+03  0.10165022016E+03  0.00000000000E+00 0. -1.
          2   -1    0    0  501    0  0.00000000000E+00 -0.00000000000E+00 -0.24635719993E+04  0.24635719993E+04  0.00000000000E+00 0. -1.
         36    2    1    2    0    0  0.00000000000E+00 -0.17763568394E-14 -0.23619217792E+04  0.25652222195E+04  0.10008449153E+04 0.  0.
         25    2    3    3    0    0 -0.85910960187E+02 -0.21033834417E+01 -0.15828651437E+03  0.21929400466E+03  0.12510044983E+03 0.  0.
         35    2    3    3    0    0  0.85910960187E+02  0.21033834417E+01 -0.22036352648E+04  0.23459282148E+04  0.79999105715E+03 0.  0.
         22    1    5    5    0    0 -0.26567717124E+03  0.13423060530E+02 -0.17588416375E+04  0.17788446935E+04  0.00000000000E+00 0. -1.
         22    1    5    5    0    0  0.35158813142E+03 -0.11319677089E+02 -0.44479362732E+03  0.56708352132E+03  0.00000000000E+00 0. -1.
          5    1    4    4  502    0  0.30012148319E+01  0.35581923061E+02 -0.10026379465E+03  0.10653637434E+03  0.47000000000E+01 0. -1.
         -5    1    4    4    0  502 -0.88912175019E+02 -0.37685306503E+02 -0.58022719717E+02  0.11275763032E+03  0.47000000000E+01 0. -1.
<mgrwt>
<rscale>  0 0.10008449E+04</rscale>
<asrwt>0</asrwt>
<pdfrwt beam="1">  1        2 0.37901107E+00 0.10008449E+04</pdfrwt>
<pdfrwt beam="2">  1       -2 0.15638496E-01 0.10008449E+04</pdfrwt>
<totfact> 0.13661327E+02</totfact>
</mgrwt>
</event>
<event>
 9    1  0.4488205E-036  0.1000092E+04  0.7818608E-02  0.8680950E-01
          1   -1    0    0  501    0  0.00000000000E+00  0.00000000000E+00  0.99255762918E+03  0.99255762918E+03  0.00000000000E+00 0.  1.
         -1   -1    0    0    0  501 -0.00000000000E+00 -0.00000000000E+00 -0.25192105558E+03  0.25192105558E+03  0.00000000000E+00 0.  1.
         36    2    1    2    0    0  0.00000000000E+00  0.00000000000E+00  0.74063657360E+03  0.12444786848E+04  0.10000923271E+04 0.  0.
         25    2    3    3    0    0  0.11964980651E+03 -0.24437820862E+02  0.57382678776E+02  0.18500707597E+03  0.12657631315E+03 0.  0.
         35    2    3    3    0    0 -0.11964980651E+03  0.24437820862E+02  0.68325389483E+03  0.10594716088E+04  0.80045669573E+03 0.  0.
         22    1    5    5    0    0  0.46966001695E+02  0.23074391415E+03  0.74993219574E+03  0.78603235139E+03  0.00000000000E+00 0. -1.
         22    1    5    5    0    0 -0.16661580821E+03 -0.20630609329E+03 -0.66678300911E+02  0.27343925739E+03  0.00000000000E+00 0. -1.
          5    1    4    4  502    0  0.11702778043E+03  0.30213550448E+02  0.38508349573E+02  0.12693834334E+03  0.47000000000E+01 0. -1.
         -5    1    4    4    0  502  0.26220260816E+01 -0.54651371310E+02  0.18874329203E+02  0.58068732634E+02  0.47000000000E+01 0. -1.
<mgrwt>
<rscale>  0 0.10000923E+04</rscale>
<asrwt>0</asrwt>
<pdfrwt beam="1">  1        1 0.15270117E+00 0.10000923E+04</pdfrwt>
<pdfrwt beam="2">  1       -1 0.38757086E-01 0.10000923E+04</pdfrwt>
<totfact> 0.11082853E+02</totfact>
</mgrwt>
</event>
<event>
 9    1  0.4488205E-036  0.9987943E+03  0.7818608E-02  0.8682187E-01
         -1   -1    0    0    0  501 -0.00000000000E+00  0.00000000000E+00  0.18354401160E+03  0.18354401160E+03  0.00000000000E+00 0. -1.
          1   -1    0    0  501    0  0.00000000000E+00 -0.00000000000E+00 -0.13587885937E+04  0.13587885937E+04  0.00000000000E+00 0. -1.
         36    2    1    2    0    0  0.42632564146E-13 -0.14210854715E-13 -0.11752445821E+04  0.15423326053E+04  0.99879429194E+03 0.  0.
         25    2    3    3    0    0  0.59692135227E+02 -0.81106016832E+02 -0.73606013101E+02  0.17720863249E+03  0.12587182881E+03 0.  0.
         35    2    3    3    0    0 -0.59692135227E+02  0.81106016832E+02 -0.11016385690E+04  0.13651239728E+04  0.79988410877E+03 0.  0.
         22    1    5    5    0    0  0.23053452300E+03  0.19884914994E+02 -0.10357479623E+04  0.10612800844E+04  0.00000000000E+00 0.  1.
         22    1    5    5    0    0 -0.29022665823E+03  0.61221101838E+02 -0.65890606658E+02  0.30384388838E+03  0.00000000000E+00 0.  1.
          5    1    4    4  502    0  0.16211862457E+02 -0.49422170844E+02  0.30103921655E+02  0.60280275002E+02  0.47000000000E+01 0. -1.
         -5    1    4    4    0  502  0.43480272770E+02 -0.31683845987E+02 -0.10370993476E+03  0.11692835748E+03  0.47000000000E+01 0. -1.
<mgrwt>
<rscale>  0 0.99879429E+03</rscale>
<asrwt>0</asrwt>
<pdfrwt beam="1">  1        1 0.20904440E+00 0.99879429E+03</pdfrwt>
<pdfrwt beam="2">  1       -1 0.28237541E-01 0.99879429E+03</pdfrwt>
<totfact> 0.10158962E+02</totfact>
</mgrwt>
</event>
<event>
 9    1  0.4488205E-036  0.1000245E+04  0.7818608E-02  0.8680805E-01
          2   -1    0    0  501    0  0.00000000000E+00  0.00000000000E+00  0.95258485298E+03  0.95258485298E+03  0.00000000000E+00 0.  1.
         -2   -1    0    0    0  501 -0.00000000000E+00 -0.00000000000E+00 -0.26257224169E+03  0.26257224169E+03  0.00000000000E+00 0.  1.
         36    2    1    2    0    0  0.35527136788E-14 -0.28421709430E-13  0.69001261129E+03  0.12151570947E+04  0.10002446506E+04 0.  0.
         25    2    3    3    0    0  0.27887283124E+02 -0.13609421327E+03  0.10828589217E+03  0.21615603206E+03  0.12529269854E+03 0.  0.
         35    2    3    3    0    0 -0.27887283124E+02  0.13609421327E+03  0.58172671911E+03  0.99900106261E+03  0.80018611080E+03 0.  0.
         22    1    5    5    0    0 -0.36267562241E+03 -0.10484325889E+03  0.16291748147E+03  0.41117857652E+03  0.00000000000E+00 0.  1.
         22    1    5    5    0    0  0.33478833929E+03  0.24093747216E+03  0.41880923764E+03  0.58782248608E+03  0.00000000000E+00 0.  1.
          5    1    4    4  502    0  0.85554541710E+01 -0.15663630426E+03  0.80915474235E+02  0.17657160468E+03  0.47000000000E+01 0. -1.
         -5    1    4    4    0  502  0.19331828953E+02  0.20542090991E+02  0.27370417938E+02  0.39584427380E+02  0.47000000000E+01 0. -1.
<mgrwt>
<rscale>  0 0.10002447E+04</rscale>
<asrwt>0</asrwt>
<pdfrwt beam="1">  1        2 0.14655151E+00 0.10002447E+04</pdfrwt>
<pdfrwt beam="2">  1       -2 0.40395730E-01 0.10002447E+04</pdfrwt>
<totfact> 0.18971515E+02</totfact>
</mgrwt>
</event>
<event>
 9    1  0.4488205E-036  0.9999525E+03  0.7818608E-02  0.8681083E-01
          1   -1    0    0  501    0  0.00000000000E+00  0.00000000000E+00  0.95767688409E+03  0.95767688409E+03  0.00000000000E+00 0.  1.
         -1   -1    0    0    0  501 -0.00000000000E+00 -0.00000000000E+00 -0.26102358204E+03  0.26102358204E+03  0.00000000000E+00 0.  1.
         36    2    1    2    0    0  0.00000000000E+00  0.00000000000E+00  0.69665330205E+03  0.12187004661E+04  0.99995250032E+03 0.  0.
         25    2    3    3    0    0  0.13893796451E+03  0.92580482003E+01  0.13679942087E+03  0.23224707333E+03  0.12583780069E+03 0.  0.
         35    2    3    3    0    0 -0.13893796451E+03 -0.92580482003E+01  0.55985388118E+03  0.98645339280E+03  0.80016526946E+03 0.  0.
         22    1    5    5    0    0  0.26744549247E+03 -0.83498094530E+02 -0.12653120277E+02  0.28046234094E+03  0.00000000000E+00 0. -1.
         22    1    5    5    0    0 -0.40638345698E+03  0.74240046329E+02  0.57250700146E+03  0.70599105186E+03  0.00000000000E+00 0. -1.
          5    1    4    4  502    0  0.32715446059E+01  0.20985160179E+02  0.82922999485E+02  0.85728605467E+02  0.47000000000E+01 0.  1.
         -5    1    4    4    0  502  0.13566641990E+03 -0.11727111978E+02  0.53876421382E+02  0.14651846786E+03  0.47000000000E+01 0.  1.
<mgrwt>
<rscale>  0 0.99995250E+03</rscale>
<asrwt>0</asrwt>
<pdfrwt beam="1">  1        1 0.14733490E+00 0.99995250E+03</pdfrwt>
<pdfrwt beam="2">  1       -1 0.40157475E-01 0.99995250E+03</pdfrwt>
<totfact> 0.11098896E+02</totfact>
</mgrwt>
</event>
<event>
 9    1  0.4488205E-036  0.9969884E+03  0.7818608E-02  0.8683911E-01
          1   -1    0    0  501    0  0.00000000000E+00  0.00000000000E+00  0.65049066428E+03  0.65049066428E+03  0.00000000000E+00 0.  1.
         -1   -1    0    0    0  501 -0.00000000000E+00 -0.00000000000E+00 -0.38201386855E+03  0.38201386855E+03  0.00000000000E+00 0.  1.
         36    2    1    2    0    0  0.24868995752E-13 -0.28421709430E-13  0.26847679573E+03  0.10325045328E+04  0.99698837529E+03 0.  0.
         25    2    3    3    0    0 -0.34410455959E+01 -0.10419315054E+03  0.14232530755E+03  0.21630155889E+03  0.12514718453E+03 0.  0.
         35    2    3    3    0    0  0.34410455959E+01  0.10419315054E+03  0.12615148819E+03  0.81620297394E+03  0.79962806559E+03 0.  0.
         22    1    5    5    0    0  0.30829073226E+03  0.15488213624E+03 -0.17312160096E+03  0.38600873104E+03  0.00000000000E+00 0.  1.
         22    1    5    5    0    0 -0.30484968666E+03 -0.50688985696E+02  0.29927308915E+03  0.43019424289E+03  0.00000000000E+00 0.  1.
          5    1    4    4  502    0 -0.29845513968E+02 -0.94797237164E+02  0.15579339996E+03  0.18485384591E+03  0.47000000000E+01 0.  1.
         -5    1    4    4    0  502  0.26404468372E+02 -0.93959133803E+01 -0.13468092414E+02  0.31447712978E+02  0.47000000000E+01 0.  1.
<mgrwt>
<rscale>  0 0.99698838E+03</rscale>
<asrwt>0</asrwt>
<pdfrwt beam="1">  1        1 0.10007549E+00 0.99698838E+03</pdfrwt>
<pdfrwt beam="2">  1       -1 0.58771364E-01 0.99698838E+03</pdfrwt>
<totfact> 0.10321001E+02</totfact>
</mgrwt>
</event>
<event>
 9    1  0.4488205E-036  0.9996188E+03  0.7818608E-02  0.8681401E-01
          1   -1    0    0  501    0  0.00000000000E+00  0.00000000000E+00  0.21180247757E+04  0.21180247757E+04  0.00000000000E+00 0.  1.
         -1   -1    0    0    0  501 -0.00000000000E+00 -0.00000000000E+00 -0.11794453794E+03  0.11794453794E+03  0.00000000000E+00 0.  1.
         36    2    1    2    0    0  0.00000000000E+00  0.00000000000E+00  0.20000802377E+04  0.22359693136E+04  0.99961883436E+03 0.  0.
         25    2    3    3    0    0 -0.53115546457E+02  0.57907039437E+02  0.11851212232E+03  0.18974540345E+03  0.12563323009E+03 0.  0.
         35    2    3    3    0    0  0.53115546457E+02 -0.57907039437E+02  0.18815681154E+04  0.20462239101E+04  0.80034944308E+03 0.  0.
         22    1    5    5    0    0 -0.50485795774E+02  0.10534937838E+03 -0.33413005622E+02  0.12150611525E+03  0.00000000000E+00 0. -1.
         22    1    5    5    0    0  0.10360134223E+03 -0.16325641781E+03  0.19149811210E+04  0.19247177949E+04  0.00000000000E+00 0. -1.
          5    1    4    4  502    0 -0.64429512475E+02  0.43173749894E+02  0.85983468444E+01  0.78173885193E+02  0.47000000000E+01 0. -1.
         -5    1    4    4    0  502  0.11313966019E+02  0.14733289544E+02  0.10991377547E+03  0.11157151826E+03  0.47000000000E+01 0. -1.
<mgrwt>
<rscale>  0 0.99961883E+03</rscale>
<asrwt>0</asrwt>
<pdfrwt beam="1">  1        1 0.32584994E+00 0.99961883E+03</pdfrwt>
<pdfrwt beam="2">  1       -1 0.18145315E-01 0.99961883E+03</pdfrwt>
<totfact> 0.61793195E+01</totfact>
</mgrwt>
</event>
<event>
 9    1  0.4488205E-036  0.1000228E+04  0.7818608E-02  0.8680821E-01
         -2   -1    0    0    0  501 -0.00000000000E+00  0.00000000000E+00  0.79007896495E+02  0.79007896495E+02  0.00000000000E+00 0.  1.
          2   -1    0    0  501    0  0.00000000000E+00 -0.00000000000E+00 -0.31656816369E+04  0.31656816369E+04  0.00000000000E+00 0.  1.
         36    2    1    2    0    0  0.56843418861E-13  0.00000000000E+00 -0.30866737404E+04  0.32446895334E+04  0.10002276683E+04 0.  0.
         25    2    3    3    0    0 -0.11215722836E+03  0.84858640427E+02 -0.63482277933E+03  0.66225809516E+03  0.12572028761E+03 0.  0.
         35    2    3    3    0    0  0.11215722836E+03 -0.84858640427E+02 -0.24518509611E+04  0.25824314382E+04  0.79849781786E+03 0.  0.
         22    1    5    5    0    0  0.35756961423E+03  0.95672686556E+02 -0.59489497456E+03  0.70064921518E+03  0.00000000000E+00 0. -1.
         22    1    5    5    0    0 -0.24541238587E+03 -0.18053132698E+03 -0.18569559865E+04  0.18817822230E+04  0.00000000000E+00 0. -1.
          5    1    4    4  502    0 -0.86329904284E+02  0.67735567695E+02 -0.61596422855E+03  0.62567961479E+03  0.47000000000E+01 0. -1.
         -5    1    4    4    0  502 -0.25827324078E+02  0.17123072732E+02 -0.18858550779E+02  0.36578480372E+02  0.47000000000E+01 0. -1.
<mgrwt>
<rscale>  0 0.10002277E+04</rscale>
<asrwt>0</asrwt>
<pdfrwt beam="1">  1        2 0.48702798E+00 0.10002277E+04</pdfrwt>
<pdfrwt beam="2">  1       -2 0.12155060E-01 0.10002277E+04</pdfrwt>
<totfact> 0.73212500E+01</totfact>
</mgrwt>
</event>
<event>
 9    1  0.4488205E-036  0.9982826E+03  0.7818608E-02  0.8682675E-01
         -1   -1    0    0    0  501 -0.00000000000E+00  0.00000000000E+00  0.80553161175E+03  0.80553161175E+03  0.00000000000E+00 0.  1.
          1   -1    0    0  501    0  0.00000000000E+00 -0.00000000000E+00 -0.30928899192E+03  0.30928899192E+03  0.00000000000E+00 0.  1.
         36    2    1    2    0    0  0.00000000000E+00  0.00000000000E+00  0.49624261983E+03  0.11148206037E+04  0.99828264566E+03 0.  0.
         25    2    3    3    0    0 -0.92691880944E+01  0.12810634634E+03  0.37209222101E+02  0.18348011255E+03  0.12563149155E+03 0.  0.
         35    2    3    3    0    0  0.92691880944E+01 -0.12810634634E+03  0.45903339773E+03  0.93134049112E+03  0.80011642674E+03 0.  0.
         22    1    5    5    0    0  0.28735885125E+03 -0.11173694761E+02  0.54623967775E+03  0.61731494911E+03  0.00000000000E+00 0. -1.
         22    1    5    5    0    0 -0.27808966316E+03 -0.11693265158E+03 -0.87206280018E+02  0.31402554201E+03  0.00000000000E+00 0. -1.
          5    1    4    4  502    0  0.40979868203E+02  0.11138577404E+03  0.33568765837E+00  0.11877854580E+03  0.47000000000E+01 0.  1.
         -5    1    4    4    0  502 -0.50249056298E+02  0.16720572298E+02  0.36873534443E+02  0.64701566744E+02  0.47000000000E+01 0.  1.
<mgrwt>
<rscale>  0 0.99828265E+03</rscale>
<asrwt>0</asrwt>
<pdfrwt beam="1">  1        1 0.47582922E-01 0.99828265E+03</pdfrwt>
<pdfrwt beam="2">  1       -1 0.12392794E+00 0.99828265E+03</pdfrwt>
<totfact> 0.57850734E+01</totfact>
</mgrwt>
</event>
<event>
 9    1  0.4488205E-036  0.9993897E+03  0.7818608E-02  0.8681619E-01
          3   -1    0    0  501    0  0.00000000000E+00  0.00000000000E+00  0.59049800302E+03  0.59049800302E+03  0.00000000000E+00 0. -1.
         -3   -1    0    0    0  501 -0.00000000000E+00 -0.00000000000E+00 -0.42285488249E+03  0.42285488249E+03  0.00000000000E+00 0. -1.
         36    2    1    2    0    0 -0.28421709430E-13 -0.14210854715E-13  0.16764312053E+03  0.10133528855E+04  0.99938974115E+03 0.  0.
         25    2    3    3    0    0 -0.11591191432E+03  0.17266782653E+02  0.12355978001E+03  0.21048867408E+03  0.12371236404E+03 0.  0.
         35    2    3    3    0    0  0.11591191432E+03 -0.17266782653E+02  0.44083340520E+02  0.80286421143E+03  0.79304091157E+03 0.  0.
         22    1    5    5    0    0 -0.28330176808E+03  0.18716077501E+03 -0.53848820726E+02  0.34378589703E+03  0.00000000000E+00 0. -1.
         22    1    5    5    0    0  0.39921368240E+03 -0.20442755766E+03  0.97932161245E+02  0.45907831440E+03  0.00000000000E+00 0. -1.
          5    1    4    4  502    0 -0.11651404284E+03  0.56790140546E+02  0.85033216411E+02  0.15509152180E+03  0.47000000000E+01 0. -1.
         -5    1    4    4    0  502  0.60212851789E+00 -0.39523357893E+02  0.38526563603E+02  0.55397152282E+02  0.47000000000E+01 0. -1.
<mgrwt>
<rscale>  0 0.99938974E+03</rscale>
<asrwt>0</asrwt>
<pdfrwt beam="1">  1        3 0.90845846E-01 0.99938974E+03</pdfrwt>
<pdfrwt beam="2">  1       -3 0.65054597E-01 0.99938974E+03</pdfrwt>
<totfact> 0.10192085E+01</totfact>
</mgrwt>
</event>
<event>
 9    1  0.4488205E-036  0.9994288E+03  0.7818608E-02  0.8681582E-01
          2   -1    0    0  501    0  0.00000000000E+00  0.00000000000E+00  0.41720423960E+03  0.41720423960E+03  0.00000000000E+00 0.  1.
         -2   -1    0    0    0  501 -0.00000000000E+00 -0.00000000000E+00 -0.59854250135E+03  0.59854250135E+03  0.00000000000E+00 0.  1.
         36    2    1    2    0    0  0.28421709430E-13  0.42632564146E-13 -0.18133826175E+03  0.10157467410E+04  0.99942877514E+03 0.  0.
         25    2    3    3    0    0  0.13104555502E+03  0.48249254507E+02 -0.59986136580E+02  0.19614414980E+03  0.12398896268E+03 0.  0.
         35    2    3    3    0    0 -0.13104555502E+03 -0.48249254507E+02 -0.12135212517E+03  0.81960259116E+03  0.79844921009E+03 0.  0.
         22    1    5    5    0    0  0.61557008815E+01  0.35654714500E+03 -0.15918195105E+03  0.39051588034E+03  0.00000000000E+00 0. -1.
         22    1    5    5    0    0 -0.13720125590E+03 -0.40479639950E+03  0.37829825883E+02  0.42908671082E+03  0.00000000000E+00 0. -1.
          5    1    4    4  502    0  0.10609320586E+03  0.46292053192E+02 -0.97082055064E+02  0.15114806626E+03  0.47000000000E+01 0. -1.
         -5    1    4    4    0  502  0.24952349164E+02  0.19572013158E+01  0.37095918484E+02  0.44996083540E+02  0.47000000000E+01 0. -1.
<mgrwt>
<rscale>  0 0.99942878E+03</rscale>
<asrwt>0</asrwt>
<pdfrwt beam="1">  1        2 0.64185268E-01 0.99942878E+03</pdfrwt>
<pdfrwt beam="2">  1       -2 0.92083461E-01 0.99942878E+03</pdfrwt>
<totfact> 0.90714200E+01</totfact>
</mgrwt>
</event>
<event>
 9    1  0.4488205E-036  0.1000376E+04  0.7818608E-02  0.8680680E-01
          2   -1    0    0  501    0  0.00000000000E+00  0.00000000000E+00  0.68736909388E+03  0.68736909388E+03  0.00000000000E+00 0.  1.
         -2   -1    0    0    0  501 -0.00000000000E+00 -0.00000000000E+00 -0.36397906580E+03  0.36397906580E+03  0.00000000000E+00 0.  1.
         36    2    1    2    0    0  0.28421709430E-13  0.00000000000E+00  0.32339002808E+03  0.10513481597E+04  0.10003758507E+04 0.  0.
         25    2    3    3    0    0 -0.73293114573E+02 -0.80496064566E+02  0.15265355012E+03  0.22597158549E+03  0.12612911650E+03 0.  0.
         35    2    3    3    0    0  0.73293114573E+02  0.80496064566E+02  0.17073647796E+03  0.82537657419E+03  0.80015251500E+03 0.  0.
         22    1    5    5    0    0 -0.20923424985E+03  0.35528993451E+03  0.10860293623E+03  0.42638539683E+03  0.00000000000E+00 0.  1.
         22    1    5    5    0    0  0.28252736442E+03 -0.27479386994E+03  0.62133541732E+02  0.39899117736E+03  0.00000000000E+00 0.  1.
          5    1    4    4  502    0 -0.83080332827E+02 -0.92565479314E+02  0.72195968340E+02  0.14389252068E+03  0.47000000000E+01 0. -1.
         -5    1    4    4    0  502  0.97872182538E+01  0.12069414748E+02  0.80457581780E+02  0.82079064806E+02  0.47000000000E+01 0. -1.
<mgrwt>
<rscale>  0 0.10003759E+04</rscale>
<asrwt>0</asrwt>
<pdfrwt beam="1">  1        2 0.10574909E+00 0.10003759E+04</pdfrwt>
<pdfrwt beam="2">  1       -2 0.55996779E-01 0.10003759E+04</pdfrwt>
<totfact> 0.15194949E+02</totfact>
</mgrwt>
</event>
<event>
 9    1  0.4488205E-036  0.1008037E+04  0.7818608E-02  0.8673422E-01
          3   -1    0    0  501    0  0.00000000000E+00  0.00000000000E+00  0.88819701368E+03  0.88819701368E+03  0.00000000000E+00 0.  1.
         -3   -1    0    0    0  501 -0.00000000000E+00 -0.00000000000E+00 -0.28601132527E+03  0.28601132527E+03  0.00000000000E+00 0.  1.
         36    2    1    2    0    0 -0.71054273576E-14  0.71054273576E-14  0.60218568842E+03  0.11742083389E+04  0.10080365172E+04 0.  0.
         25    2    3    3    0    0  0.29532316312E+02 -0.56229121017E+02 -0.41242744766E+02  0.14579009372E+03  0.12457895357E+03 0.  0.
         35    2    3    3    0    0 -0.29532316312E+02  0.56229121017E+02  0.64342843318E+03  0.10284182452E+04  0.79975625458E+03 0.  0.
         22    1    5    5    0    0 -0.41318094805E+03  0.30325414472E+02  0.28593022989E+03  0.50338277976E+03  0.00000000000E+00 0.  1.
         22    1    5    5    0    0  0.38364863174E+03  0.25903706545E+02  0.35749820329E+03  0.52503546547E+03  0.00000000000E+00 0.  1.
          5    1    4    4  502    0  0.23586361243E+02 -0.20395444898E+02  0.43351502317E+02  0.53607213716E+02  0.47000000000E+01 0. -1.
         -5    1    4    4    0  502  0.59459550693E+01 -0.35833676119E+02 -0.84594247083E+02  0.92182880002E+02  0.47000000000E+01 0. -1.
<mgrwt>
<rscale>  0 0.10080365E+04</rscale>
<asrwt>0</asrwt>
<pdfrwt beam="1">  1        3 0.13664569E+00 0.10080365E+04</pdfrwt>
<pdfrwt beam="2">  1       -3 0.44001743E-01 0.10080365E+04</pdfrwt>
<totfact> 0.88176861E+00</totfact>
</mgrwt>
</event>
<event>
 9    1  0.4488205E-036  0.9968535E+03  0.7818608E-02  0.8684040E-01
         -3   -1    0    0    0  501 -0.00000000000E+00  0.00000000000E+00  0.12874260805E+04  0.12874260805E+04  0.00000000000E+00 0.  1.
          3   -1    0    0  501    0  0.00000000000E+00 -0.00000000000E+00 -0.19296581407E+03  0.19296581407E+03  0.00000000000E+00 0.  1.
         36    2    1    2    0    0  0.00000000000E+00  0.71054273576E-14  0.10944602664E+04  0.14803918945E+04  0.99685349310E+03 0.  0.
         25    2    3    3    0    0  0.12529683953E+03 -0.29247419977E+02  0.13252067482E+03  0.22350306822E+03  0.12584586872E+03 0.  0.
         35    2    3    3    0    0 -0.12529683953E+03  0.29247419977E+02  0.96193959158E+03  0.12568888263E+04  0.79867830465E+03 0.  0.
         22    1    5    5    0    0 -0.20292158785E+03  0.18612340804E+03 -0.38373283373E+01  0.27537940904E+03  0.00000000000E+00 0.  1.
         22    1    5    5    0    0  0.77624748312E+02 -0.15687598806E+03  0.96577691992E+03  0.98150941729E+03  0.00000000000E+00 0.  1.
          5    1    4    4  502    0  0.17410964477E+02  0.44361829209E+02  0.48367078176E+02  0.68063043027E+02  0.47000000000E+01 0. -1.
         -5    1    4    4    0  502  0.10788587506E+03 -0.73609249186E+02  0.84153596642E+02  0.15544002519E+03  0.47000000000E+01 0. -1.
<mgrwt>
<rscale>  0 0.99685349E+03</rscale>
<asrwt>0</asrwt>
<pdfrwt beam="1">  1        3 0.29687049E-01 0.99685349E+03</pdfrwt>
<pdfrwt beam="2">  1       -3 0.19806555E+00 0.99685349E+03</pdfrwt>
<totfact> 0.46286492E+00</totfact>
</mgrwt>
</event>
<event>
 9    1  0.4488205E-036  0.9989368E+03  0.7818608E-02  0.8682051E-01
          1   -1    0    0  501    0  0.00000000000E+00  0.00000000000E+00  0.25088978491E+04  0.25088978491E+04  0.00000000000E+00 0. -1.
         -1   -1    0    0    0  501 -0.00000000000E+00 -0.00000000000E+00 -0.99433575555E+02  0.99433575555E+02  0.00000000000E+00 0. -1.
         36    2    1    2    0    0  0.00000000000E+00 -0.71054273576E-14  0.24094642735E+04  0.26083314246E+04  0.99893680248E+03 0.  0.
         25    2    3    3    0    0 -0.80597261961E+02 -0.25947600737E+02  0.73016382314E+03  0.74634699458E+03  0.12932683819E+03 0.  0.
         35    2    3    3    0    0  0.80597261961E+02  0.25947600737E+02  0.16793004504E+04  0.18619844300E+04  0.79985424827E+03 0.  0.
         22    1    5    5    0    0 -0.32003041673E+03  0.15614814316E+03  0.53559812383E+03  0.64316954257E+03  0.00000000000E+00 0.  1.
         22    1    5    5    0    0  0.40062767869E+03 -0.13020054242E+03  0.11437023265E+04  0.12188148875E+04  0.00000000000E+00 0.  1.
          5    1    4    4  502    0 -0.35310357229E+02 -0.72041296679E+02  0.52727550599E+03  0.53336508975E+03  0.47000000000E+01 0.  1.
         -5    1    4    4    0  502 -0.45286904732E+02  0.46093695942E+02  0.20288831715E+03  0.21298190483E+03  0.47000000000E+01 0.  1.
<mgrwt>
<rscale>  0 0.99893680E+03</rscale>
<asrwt>0</asrwt>
<pdfrwt beam="1">  1        1 0.38598424E+00 0.99893680E+03</pdfrwt>
<pdfrwt beam="2">  1       -1 0.15297475E-01 0.99893680E+03</pdfrwt>
<totfact> 0.43361207E+01</totfact>
</mgrwt>
</event>
<event>
 9    1  0.4488205E-036  0.9966002E+03  0.7818608E-02  0.8684282E-01
          2   -1    0    0  501    0  0.00000000000E+00  0.00000000000E+00  0.11705022871E+04  0.11705022871E+04  0.00000000000E+00 0. -1.
         -2   -1    0    0    0  501 -0.00000000000E+00 -0.00000000000E+00 -0.21213370230E+03  0.21213370230E+03  0.00000000000E+00 0. -1.
         36    2    1    2    0    0 -0.28421709430E-13 -0.17763568394E-14  0.95836858475E+03  0.13826359894E+04  0.99660018805E+03 0.  0.
         25    2    3    3    0    0  0.12071336333E+03  0.13932686571E+02  0.95777939502E+02  0.19873890763E+03  0.12473132673E+03 0.  0.
         35    2    3    3    0    0 -0.12071336333E+03 -0.13932686571E+02  0.86259064525E+03  0.11838970817E+04  0.80173801395E+03 0.  0.
         22    1    5    5    0    0 -0.41395905368E+03 -0.26658350215E+02  0.20274569536E+03  0.46171266254E+03  0.00000000000E+00 0. -1.
         22    1    5    5    0    0  0.29324569035E+03  0.12725663644E+02  0.65984494989E+03  0.72218441919E+03  0.00000000000E+00 0. -1.
          5    1    4    4  502    0  0.13531771097E+03  0.70573832656E+01  0.11163543198E+03  0.17562815616E+03  0.47000000000E+01 0.  1.
         -5    1    4    4    0  502 -0.14604347647E+02  0.68753033056E+01 -0.15857492479E+02  0.23110751469E+02  0.47000000000E+01 0.  1.
<mgrwt>
<rscale>  0 0.99660019E+03</rscale>
<asrwt>0</asrwt>
<pdfrwt beam="1">  1        2 0.18007727E+00 0.99660019E+03</pdfrwt>
<pdfrwt beam="2">  1       -2 0.32635955E-01 0.99660019E+03</pdfrwt>
<totfact> 0.20803064E+02</totfact>
</mgrwt>
</event>
<event>
 9    1  0.4488205E-036  0.9993196E+03  0.7818608E-02  0.8681686E-01
          1   -1    0    0  501    0  0.00000000000E+00  0.00000000000E+00  0.22598458294E+04  0.22598458294E+04  0.00000000000E+00 0.  1.
         -1   -1    0    0    0  501 -0.00000000000E+00 -0.00000000000E+00 -0.11047652464E+03  0.11047652464E+03  0.00000000000E+00 0.  1.
         36    2    1    2    0    0  0.14210854715E-13  0.71054273576E-14  0.21493693048E+04  0.23703223541E+04  0.99931959543E+03 0.  0.
         25    2    3    3    0    0 -0.11839263600E+03 -0.35218472320E+02  0.26610026654E+03  0.32050160985E+03  0.12905337273E+03 0.  0.
         35    2    3    3    0    0  0.11839263600E+03  0.35218472320E+02  0.18832690382E+04  0.20498207442E+04  0.79987852572E+03 0.  0.
         22    1    5    5    0    0  0.64149222640E+01  0.21249844958E+03  0.18177492143E+04  0.18301390517E+04  0.00000000000E+00 0.  1.
         22    1    5    5    0    0  0.11197771374E+03 -0.17727997726E+03  0.65519823941E+02  0.21968169255E+03  0.00000000000E+00 0.  1.
          5    1    4    4  502    0 -0.36744639156E+02  0.33276097121E+02  0.16923360774E+03  0.17640740102E+03  0.47000000000E+01 0.  1.
         -5    1    4    4    0  502 -0.81647996846E+02 -0.68494569441E+02  0.96866658795E+02  0.14409420883E+03  0.47000000000E+01 0.  1.
<mgrwt>
<rscale>  0 0.99931960E+03</rscale>
<asrwt>0</asrwt>
<pdfrwt beam="1">  1        1 0.34766855E+00 0.99931960E+03</pdfrwt>
<pdfrwt beam="2">  1       -1 0.16996390E-01 0.99931960E+03</pdfrwt>
<totfact> 0.54677205E+01</totfact>
</mgrwt>
</event>
<event>
 9    1  0.4488205E-036  0.1000152E+04  0.7818608E-02  0.8680893E-01
         -1   -1    0    0    0  501 -0.00000000000E+00  0.00000000000E+00  0.25767958032E+03  0.25767958032E+03  0.00000000000E+00 0. -1.
          1   -1    0    0  501    0  0.00000000000E+00 -0.00000000000E+00 -0.97049269010E+03  0.97049269010E+03  0.00000000000E+00 0. -1.
         36    2    1    2    0    0  0.00000000000E+00  0.00000000000E+00 -0.71281310978E+03  0.12281722704E+04  0.10001522866E+04 0.  0.
         25    2    3    3    0    0 -0.15448309703E+02 -0.13232119297E+03 -0.78198194517E+02  0.19830472344E+03  0.12434732540E+03 0.  0.
         35    2    3    3    0    0  0.15448309703E+02  0.13232119297E+03 -0.63461491526E+03  0.10298675470E+04  0.80008969827E+03 0.  0.
         22    1    5    5    0    0 -0.15392702617E+03 -0.32121395130E+02 -0.75056441740E+03  0.76685869499E+03  0.00000000000E+00 0. -1.
         22    1    5    5    0    0  0.16937533588E+03  0.16444258810E+03  0.11594950214E+03  0.26300885200E+03  0.00000000000E+00 0. -1.
          5    1    4    4  502    0 -0.69121781744E+02 -0.74658248108E+02 -0.31526127538E+02  0.10661923579E+03  0.47000000000E+01 0.  1.
         -5    1    4    4    0  502  0.53673472041E+02 -0.57662944859E+02 -0.46672066979E+02  0.91685487656E+02  0.47000000000E+01 0.  1.
<mgrwt>
<rscale>  0 0.10001523E+04</rscale>
<asrwt>0</asrwt>
<pdfrwt beam="1">  1        1 0.14930657E+00 0.10001523E+04</pdfrwt>
<pdfrwt beam="2">  1       -1 0.39643011E-01 0.10001523E+04</pdfrwt>
<totfact> 0.11089048E+02</totfact>
</mgrwt>
</event>
<event>
 9    1  0.4488205E-036  0.1000611E+04  0.7818608E-02  0.8680457E-01
          1   -1    0    0  501    0  0.00000000000E+00  0.00000000000E+00  0.97425696173E+03  0.97425696173E+03  0.00000000000E+00 0. -1.
         -1   -1    0    0    0  501 -0.00000000000E+00 -0.00000000000E+00 -0.25691926852E+03  0.25691926852E+03  0.00000000000E+00 0. -1.
         36    2    1    2    0    0  0.00000000000E+00 -0.28421709430E-13  0.71733769321E+03  0.12311762303E+04  0.10006105855E+04 0.  0.
         25    2    3    3    0    0 -0.10926624405E+03  0.75150068612E+02  0.19051272790E+03  0.26428061639E+03  0.12634278690E+03 0.  0.
         35    2    3    3    0    0  0.10926624405E+03 -0.75150068612E+02  0.52682496530E+03  0.96689561386E+03  0.79984744742E+03 0.  0.
         22    1    5    5    0    0  0.25733759678E+03 -0.35030432279E+03  0.11439979848E+03  0.44946976670E+03  0.00000000000E+00 0. -1.
         22    1    5    5    0    0 -0.14807135273E+03  0.27515425418E+03  0.41242516682E+03  0.51742584717E+03  0.00000000000E+00 0. -1.
          5    1    4    4  502    0 -0.87471487579E+02  0.10475548588E+03  0.10894755108E+03  0.17469010231E+03  0.47000000000E+01 0. -1.
         -5    1    4    4    0  502 -0.21794756476E+02 -0.29605417265E+02  0.81565176825E+02  0.89590514072E+02  0.47000000000E+01 0. -1.
<mgrwt>
<rscale>  0 0.10006106E+04</rscale>
<asrwt>0</asrwt>
<pdfrwt beam="1">  1        1 0.14988568E+00 0.10006106E+04</pdfrwt>
<pdfrwt beam="2">  1       -1 0.39526042E-01 0.10006106E+04</pdfrwt>
<totfact> 0.11069573E+02</totfact>
</mgrwt>
</event>
<event>
 9    1  0.4488205E-036  0.1003680E+04  0.7818608E-02  0.8677541E-01
          2   -1    0    0  501    0  0.00000000000E+00  0.00000000000E+00  0.23047379716E+04  0.23047379716E+04  0.00000000000E+00 0. -1.
         -2   -1    0    0    0  501 -0.00000000000E+00 -0.00000000000E+00 -0.10927206400E+03  0.10927206400E+03  0.00000000000E+00 0. -1.
         36    2    1    2    0    0 -0.14210854715E-13  0.71054273576E-14  0.21954659076E+04  0.24140100356E+04  0.10036801784E+04 0.  0.
         25    2    3    3    0    0 -0.10481877088E+03  0.20911341516E+02  0.65097877394E+03  0.67149301820E+03  0.12532059061E+03 0.  0.
         35    2    3    3    0    0  0.10481877088E+03 -0.20911341516E+02  0.15444871336E+04  0.17425170174E+04  0.79968793347E+03 0.  0.
         22    1    5    5    0    0 -0.12515908266E+03  0.10284993442E+03  0.14586360304E+04  0.14676041612E+04  0.00000000000E+00 0. -1.
         22    1    5    5    0    0  0.22997785354E+03 -0.12376127594E+03  0.85851103280E+02  0.27491285615E+03  0.00000000000E+00 0. -1.
          5    1    4    4  502    0 -0.97177456415E+02 -0.32853822659E+02  0.32049304111E+03  0.33654228724E+03  0.47000000000E+01 0. -1.
         -5    1    4    4    0  502 -0.76413144656E+01  0.53765164175E+02  0.33048573283E+03  0.33495073096E+03  0.47000000000E+01 0. -1.
<mgrwt>
<rscale>  0 0.10036802E+04</rscale>
<asrwt>0</asrwt>
<pdfrwt beam="1">  1        2 0.35457504E+00 0.10036802E+04</pdfrwt>
<pdfrwt beam="2">  1       -2 0.16811089E-01 0.10036802E+04</pdfrwt>
<totfact> 0.15039325E+02</totfact>
</mgrwt>
</event>
<event>
 9    1  0.4488205E-036  0.9993483E+03  0.7818608E-02  0.8681659E-01
          1   -1    0    0  501    0  0.00000000000E+00  0.00000000000E+00  0.45215003027E+03  0.45215003027E+03  0.00000000000E+00 0. -1.
         -1   -1    0    0    0  501 -0.00000000000E+00 -0.00000000000E+00 -0.55219338031E+03  0.55219338031E+03  0.00000000000E+00 0. -1.
         36    2    1    2    0    0  0.00000000000E+00 -0.14210854715E-13 -0.10004335003E+03  0.10043434106E+04  0.99934829489E+03 0.  0.
         25    2    3    3    0    0 -0.12444224507E+03 -0.21126519149E+02 -0.60507784108E+02  0.18754927903E+03  0.12482522965E+03 0.  0.
         35    2    3    3    0    0  0.12444224507E+03  0.21126519149E+02 -0.39535565926E+02  0.81679413155E+03  0.80601326925E+03 0.  0.
         22    1    5    5    0    0 -0.13007683437E+03 -0.27639761850E+03 -0.22904351332E+03  0.38180696346E+03  0.00000000000E+00 0.  1.
         22    1    5    5    0    0  0.25451907943E+03  0.29752413765E+03  0.18950794740E+03  0.43498716809E+03  0.00000000000E+00 0.  1.
          5    1    4    4  502    0  0.36350660914E+01  0.30023652196E+02  0.10501319282E+02  0.32357396424E+02  0.47000000000E+01 0. -1.
         -5    1    4    4    0  502 -0.12807731116E+03 -0.51150171345E+02 -0.71009103391E+02  0.15519188260E+03  0.47000000000E+01 0. -1.
<mgrwt>
<rscale>  0 0.99934829E+03</rscale>
<asrwt>0</asrwt>
<pdfrwt beam="1">  1        1 0.69561543E-01 0.99934829E+03</pdfrwt>
<pdfrwt beam="2">  1       -1 0.84952828E-01 0.99934829E+03</pdfrwt>
<totfact> 0.82720327E+01</totfact>
</mgrwt>
</event>
<event>
 9    1  0.4488205E-036  0.1000055E+04  0.7818608E-02  0.8680986E-01
          1   -1    0    0  501    0  0.00000000000E+00  0.00000000000E+00  0.15934789397E+04  0.15934789397E+04  0.00000000000E+00 0.  1.
         -1   -1    0    0    0  501 -0.00000000000E+00 -0.00000000000E+00 -0.15690660976E+03  0.15690660976E+03  0.00000000000E+00 0.  1.
         36    2    1    2    0    0 -0.71054273576E-14 -0.35527136788E-13  0.14365723300E+04  0.17503855495E+04  0.10000547548E+04 0.  0.
         25    2    3    3    0    0  0.21760382151E+02 -0.32707499448E+02  0.25565629790E+02  0.12786582842E+03  0.11896543153E+03 0.  0.
         35    2    3    3    0    0 -0.21760382151E+02  0.32707499448E+02  0.14110067002E+04  0.16225197211E+04  0.80005439975E+03 0.  0.
         22    1    5    5    0    0  0.83562709036E+02 -0.37222178231E+03  0.63001369557E+03  0.73651139717E+03  0.00000000000E+00 0.  1.
         22    1    5    5    0    0 -0.10532309119E+03  0.40492928176E+03  0.78099300461E+03  0.88600832390E+03  0.00000000000E+00 0.  1.
          5    1    4    4  502    0  0.18168776313E+02  0.42918465935E+02  0.22452059249E+02  0.51945010496E+02  0.47000000000E+01 0. -1.
         -5    1    4    4    0  502  0.35916058378E+01 -0.75625965384E+02  0.31135705410E+01  0.75920817924E+02  0.47000000000E+01 0. -1.
<mgrwt>
<rscale>  0 0.10000548E+04</rscale>
<asrwt>0</asrwt>
<pdfrwt beam="1">  1        1 0.24515060E+00 0.10000548E+04</pdfrwt>
<pdfrwt beam="2">  1       -1 0.24139479E-01 0.10000548E+04</pdfrwt>
<totfact> 0.89954519E+01</totfact>
</mgrwt>
</event>
<event>
 9    1  0.4488205E-036  0.9982663E+03  0.7818608E-02  0.8682691E-01
          2   -1    0    0  501    0  0.00000000000E+00  0.00000000000E+00  0.40369113029E+04  0.40369113029E+04  0.00000000000E+00 0.  1.
         -2   -1    0    0    0  501 -0.00000000000E+00 -0.00000000000E+00 -0.61713994886E+02  0.61713994886E+02  0.00000000000E+00 0.  1.
         36    2    1    2    0    0  0.14210854715E-13  0.14210854715E-13  0.39751973080E+04  0.40986252978E+04  0.99826634423E+03 0.  0.
         25    2    3    3    0    0  0.92749448714E+02 -0.10279144870E+03  0.77141162523E+03  0.79369275883E+03  0.12531463489E+03 0.  0.
         35    2    3    3    0    0 -0.92749448714E+02  0.10279144870E+03  0.32037856828E+04  0.33049325390E+04  0.79947973313E+03 0.  0.
         22    1    5    5    0    0  0.14706084680E+03 -0.25574757729E+03  0.63501977838E+03  0.70020270986E+03  0.00000000000E+00 0.  1.
         22    1    5    5    0    0 -0.23981029551E+03  0.35853902599E+03  0.25687659044E+04  0.26047298291E+04  0.00000000000E+00 0.  1.
          5    1    4    4  502    0  0.22994094329E+02 -0.84797007616E+02  0.21040931964E+03  0.22806453619E+03  0.47000000000E+01 0. -1.
         -5    1    4    4    0  502  0.69755354385E+02 -0.17994441084E+02  0.56100230558E+03  0.56562822264E+03  0.47000000000E+01 0. -1.
<mgrwt>
<rscale>  0 0.99826634E+03</rscale>
<asrwt>0</asrwt>
<pdfrwt beam="1">  1        2 0.62106307E+00 0.99826634E+03</pdfrwt>
<pdfrwt beam="2">  1       -2 0.94944639E-02 0.99826634E+03</pdfrwt>
<totfact> 0.22937183E+01</totfact>
</mgrwt>
</event>
<event>
 9    1  0.4488205E-036  0.9893345E+03  0.7818608E-02  0.8691262E-01
          2   -1    0    0  501    0  0.00000000000E+00  0.00000000000E+00  0.15879670409E+04  0.15879670409E+04  0.00000000000E+00 0.  1.
         -2   -1    0    0    0  501 -0.00000000000E+00 -0.00000000000E+00 -0.15409367511E+03  0.15409367511E+03  0.00000000000E+00 0.  1.
         36    2    1    2    0    0  0.28421709430E-13  0.00000000000E+00  0.14338733658E+04  0.17420607160E+04  0.98933447790E+03 0.  0.
         25    2    3    3    0    0  0.82823307752E+02  0.85457834023E+02  0.17341583784E+03  0.24448955864E+03  0.12465692827E+03 0.  0.
         35    2    3    3    0    0 -0.82823307752E+02 -0.85457834023E+02  0.12604575280E+04  0.14975711574E+04  0.79987714678E+03 0.  0.
         22    1    5    5    0    0 -0.44060867321E+03 -0.79009056105E+02  0.63377602887E+03  0.77591912505E+03  0.00000000000E+00 0. -1.
         22    1    5    5    0    0  0.35778536545E+03 -0.64487779182E+01  0.62668149911E+03  0.72165203235E+03  0.00000000000E+00 0. -1.
          5    1    4    4  502    0  0.15945570714E+02  0.81256997530E+02  0.15341743681E+03  0.17440172244E+03  0.47000000000E+01 0. -1.
         -5    1    4    4    0  502  0.66877737038E+02  0.42008364931E+01  0.19998401022E+02  0.70087836191E+02  0.47000000000E+01 0. -1.
<mgrwt>
<rscale>  0 0.98933448E+03</rscale>
<asrwt>0</asrwt>
<pdfrwt beam="1">  1        2 0.24430261E+00 0.98933448E+03</pdfrwt>
<pdfrwt beam="2">  1       -2 0.23706720E-01 0.98933448E+03</pdfrwt>
<totfact> 0.21292132E+02</totfact>
</mgrwt>
</event>
<event>
 9    1  0.4488205E-036  0.9981552E+03  0.7818608E-02  0.8682797E-01
          2   -1    0    0  501    0  0.00000000000E+00  0.00000000000E+00  0.93450972477E+03  0.93450972477E+03  0.00000000000E+00 0. -1.
         -2   -1    0    0    0  501 -0.00000000000E+00 -0.00000000000E+00 -0.26653383064E+03  0.26653383064E+03  0.00000000000E+00 0. -1.
         36    2    1    2    0    0  0.00000000000E+00  0.00000000000E+00  0.66797589413E+03  0.12010435554E+04  0.99815521181E+03 0.  0.
         25    2    3    3    0    0 -0.16258248543E+02  0.71744093002E+02  0.26779572314E+03  0.30410359197E+03  0.12390681900E+03 0.  0.
         35    2    3    3    0    0  0.16258248543E+02 -0.71744093002E+02  0.40018017099E+03  0.89693996344E+03  0.79934071786E+03 0.  0.
         22    1    5    5    0    0 -0.25518128611E+03 -0.16299812077E+03  0.50762850771E+03  0.59107747208E+03  0.00000000000E+00 0. -1.
         22    1    5    5    0    0  0.27143953466E+03  0.91254027766E+02 -0.10744833672E+03  0.30586249136E+03  0.00000000000E+00 0. -1.
          5    1    4    4  502    0 -0.60540378257E+02  0.77434982918E+02  0.19821348403E+03  0.22129615729E+03  0.47000000000E+01 0. -1.
         -5    1    4    4    0  502  0.44282129713E+02 -0.56908899163E+01  0.69582239110E+02  0.82807434687E+02  0.47000000000E+01 0. -1.
<mgrwt>
<rscale>  0 0.99815521E+03</rscale>
<asrwt>0</asrwt>
<pdfrwt beam="1">  1        2 0.14377072E+00 0.99815521E+03</pdfrwt>
<pdfrwt beam="2">  1       -2 0.41005205E-01 0.99815521E+03</pdfrwt>
<totfact> 0.18935106E+02</totfact>
</mgrwt>
</event>
<event>
 9    1  0.4488205E-036  0.1000896E+04  0.7818608E-02  0.8680185E-01
         -1   -1    0    0    0  501 -0.00000000000E+00  0.00000000000E+00  0.28068674416E+03  0.28068674416E+03  0.00000000000E+00 0. -1.
          1   -1    0    0  501    0  0.00000000000E+00 -0.00000000000E+00 -0.89226903161E+03  0.89226903161E+03  0.00000000000E+00 0. -1.
         36    2    1    2    0    0  0.00000000000E+00  0.14210854715E-13 -0.61158228745E+03  0.11729557758E+04  0.10008957776E+04 0.  0.
         25    2    3    3    0    0 -0.66995761843E+02  0.12242553250E+03 -0.13647188487E+03  0.23212596669E+03  0.12562422512E+03 0.  0.
         35    2    3    3    0    0  0.66995761843E+02 -0.12242553250E+03 -0.47511040257E+03  0.94082980908E+03  0.79997149444E+03 0.  0.
         22    1    5    5    0    0  0.36712331037E+03 -0.26944009773E+03 -0.38068134175E+03  0.59354509116E+03  0.00000000000E+00 0. -1.
         22    1    5    5    0    0 -0.30012754853E+03  0.14701456523E+03 -0.94429060823E+02  0.34728471792E+03  0.00000000000E+00 0. -1.
          5    1    4    4  502    0 -0.96712095395E+02  0.68492025133E+02 -0.57307107740E+02  0.13172160605E+03  0.47000000000E+01 0. -1.
         -5    1    4    4    0  502  0.29716333552E+02  0.53933507369E+02 -0.79164777133E+02  0.10040436064E+03  0.47000000000E+01 0. -1.
<mgrwt>
<rscale>  0 0.10008958E+04</rscale>
<asrwt>0</asrwt>
<pdfrwt beam="1">  1        1 0.13727216E+00 0.10008958E+04</pdfrwt>
<pdfrwt beam="2">  1       -1 0.43182575E-01 0.10008958E+04</pdfrwt>
<totfact> 0.11028378E+02</totfact>
</mgrwt>
</event>
<event>
 9    1  0.4488205E-036  0.1000852E+04  0.7818608E-02  0.8680227E-01
         -1   -1    0    0    0  501 -0.00000000000E+00  0.00000000000E+00  0.19132751734E+03  0.19132751734E+03  0.00000000000E+00 0.  1.
          1   -1    0    0  501    0  0.00000000000E+00 -0.00000000000E+00 -0.13088869837E+04  0.13088869837E+04  0.00000000000E+00 0.  1.
         36    2    1    2    0    0 -0.14210854715E-13  0.14210854715E-13 -0.11175594663E+04  0.15002145010E+04  0.10008518313E+04 0.  0.
         25    2    3    3    0    0 -0.81550028804E+02 -0.95858480398E+02 -0.11574806554E+03  0.21234765080E+03  0.12591526779E+03 0.  0.
         35    2    3    3    0    0  0.81550028804E+02  0.95858480398E+02 -0.10018114008E+04  0.12878668502E+04  0.79945962103E+03 0.  0.
         22    1    5    5    0    0 -0.32020234649E+03 -0.51049010277E+02 -0.67737711430E+03  0.75098288871E+03  0.00000000000E+00 0.  1.
         22    1    5    5    0    0  0.40175237530E+03  0.14690749068E+03 -0.32443428649E+03  0.53688396151E+03  0.00000000000E+00 0.  1.
          5    1    4    4  502    0 -0.10335026494E+03 -0.10534170426E+03 -0.76678369804E+02  0.16637251671E+03  0.47000000000E+01 0.  1.
         -5    1    4    4    0  502  0.21800236136E+02  0.94832238632E+01 -0.39069695732E+02  0.45975134095E+02  0.47000000000E+01 0.  1.
<mgrwt>
<rscale>  0 0.10008518E+04</rscale>
<asrwt>0</asrwt>
<pdfrwt beam="1">  1        1 0.20136723E+00 0.10008518E+04</pdfrwt>
<pdfrwt beam="2">  1       -1 0.29435002E-01 0.10008518E+04</pdfrwt>
<totfact> 0.10287090E+02</totfact>
</mgrwt>
</event>
<event>
 9    1  0.4488205E-036  0.1000111E+04  0.7818608E-02  0.8680932E-01
          2   -1    0    0  501    0  0.00000000000E+00  0.00000000000E+00  0.77254001774E+03  0.77254001774E+03  0.00000000000E+00 0. -1.
         -2   -1    0    0    0  501 -0.00000000000E+00 -0.00000000000E+00 -0.32367971684E+03  0.32367971684E+03  0.00000000000E+00 0. -1.
         36    2    1    2    0    0 -0.14210854715E-13  0.71054273576E-14  0.44886030090E+03  0.10962197346E+04  0.10001110622E+04 0.  0.
         25    2    3    3    0    0  0.58871017189E+02  0.60519238369E+01  0.21974414266E+03  0.25964214598E+03  0.12499653311E+03 0.  0.
         35    2    3    3    0    0 -0.58871017189E+02 -0.60519238369E+01  0.22911615824E+03  0.83657758860E+03  0.80241225398E+03 0.  0.
         22    1    5    5    0    0  0.21600331784E+03  0.29934225021E+03  0.21124781335E+03  0.42531030404E+03  0.00000000000E+00 0.  1.
         22    1    5    5    0    0 -0.27487433503E+03 -0.30539417405E+03  0.17868344891E+02  0.41126728456E+03  0.00000000000E+00 0.  1.
          5    1    4    4  502    0  0.50970812332E+01 -0.34401084085E+02  0.17549434225E+03  0.17896862570E+03  0.47000000000E+01 0. -1.
         -5    1    4    4    0  502  0.53773935956E+02  0.40453007922E+02  0.44249800413E+02  0.80673520283E+02  0.47000000000E+01 0. -1.
<mgrwt>
<rscale>  0 0.10001111E+04</rscale>
<asrwt>0</asrwt>
<pdfrwt beam="1">  1        2 0.11885231E+00 0.10001111E+04</pdfrwt>
<pdfrwt beam="2">  1       -2 0.49796880E-01 0.10001111E+04</pdfrwt>
<totfact> 0.16662436E+02</totfact>
</mgrwt>
</event>
<event>
 9    1  0.4488205E-036  0.9997123E+03  0.7818608E-02  0.8681312E-01
         -2   -1    0    0    0  501 -0.00000000000E+00  0.00000000000E+00  0.38628252622E+03  0.38628252622E+03  0.00000000000E+00 0. -1.
          2   -1    0    0  501    0  0.00000000000E+00 -0.00000000000E+00 -0.64682233580E+03  0.64682233580E+03  0.00000000000E+00 0. -1.
         36    2    1    2    0    0 -0.56843418861E-13  0.71054273576E-14 -0.26053980957E+03  0.10331048620E+04  0.99971229039E+03 0.  0.
         25    2    3    3    0    0  0.12397866761E+03  0.61240034065E+02 -0.31075937118E+02  0.18918945903E+03  0.12532312534E+03 0.  0.
         35    2    3    3    0    0 -0.12397866761E+03 -0.61240034065E+02 -0.22946387245E+03  0.84391540299E+03  0.80026151154E+03 0.  0.
         22    1    5    5    0    0 -0.44444063444E+03  0.72862239852E+02 -0.20737856769E+03  0.49582482176E+03  0.00000000000E+00 0.  1.
         22    1    5    5    0    0  0.32046196683E+03 -0.13410227392E+03 -0.22085304763E+02  0.34809058123E+03  0.00000000000E+00 0.  1.
          5    1    4    4  502    0  0.11999105660E+03  0.93263795516E+02 -0.14865754424E+02  0.15277129924E+03  0.47000000000E+01 0.  1.
         -5    1    4    4    0  502  0.39876110093E+01 -0.32023761451E+02 -0.16210182694E+02  0.36418159783E+02  0.47000000000E+01 0.  1.
<mgrwt>
<rscale>  0 0.99971229E+03</rscale>
<asrwt>0</asrwt>
<pdfrwt beam="1">  1        2 0.99511127E-01 0.99971229E+03</pdfrwt>
<pdfrwt beam="2">  1       -2 0.59428082E-01 0.99971229E+03</pdfrwt>
<totfact> 0.14465524E+02</totfact>
</mgrwt>
</event>
<event>
 9    1  0.4488205E-036  0.9997628E+03  0.7818608E-02  0.8681264E-01
         -1   -1    0    0    0  501 -0.00000000000E+00  0.00000000000E+00  0.20098428903E+03  0.20098428903E+03  0.00000000000E+00 0. -1.
          1   -1    0    0  501    0  0.00000000000E+00 -0.00000000000E+00 -0.12432883310E+04  0.12432883310E+04  0.00000000000E+00 0. -1.
         36    2    1    2    0    0 -0.10658141036E-13 -0.28421709430E-13 -0.10423040419E+04  0.14442726200E+04  0.99976281440E+03 0.  0.
         25    2    3    3    0    0  0.89494975961E+01 -0.90265556490E+02 -0.34972622141E+03  0.38237338870E+03  0.12519190966E+03 0.  0.
         35    2    3    3    0    0 -0.89494975961E+01  0.90265556490E+02 -0.69257782052E+03  0.10618992313E+04  0.79983621809E+03 0.  0.
         22    1    5    5    0    0  0.19854109955E+03 -0.28826124224E+03 -0.43829321390E+03  0.56090467402E+03  0.00000000000E+00 0. -1.
         22    1    5    5    0    0 -0.20749059714E+03  0.37852679873E+03 -0.25428460662E+03  0.50099455728E+03  0.00000000000E+00 0. -1.
          5    1    4    4  502    0 -0.18883963323E+02 -0.79848904235E+02 -0.93912225796E+02  0.12479602451E+03  0.47000000000E+01 0. -1.
         -5    1    4    4    0  502  0.27833460919E+02 -0.10416652255E+02 -0.25581399562E+03  0.25757736419E+03  0.47000000000E+01 0. -1.
<mgrwt>
<rscale>  0 0.99976281E+03</rscale>
<asrwt>0</asrwt>
<pdfrwt beam="1">  1        1 0.19127513E+00 0.99976281E+03</pdfrwt>
<pdfrwt beam="2">  1       -1 0.30920660E-01 0.99976281E+03</pdfrwt>
<totfact> 0.10565031E+02</totfact>
</mgrwt>
</event>
<event>
 9    1  0.4488205E-036  0.9939496E+03  0.7818608E-02  0.8686821E-01
          4   -1    0    0  501    0  0.00000000000E+00  0.00000000000E+00  0.14294949961E+04  0.14294949961E+04  0.00000000000E+00 0.  1.
         -4   -1    0    0    0  501 -0.00000000000E+00 -0.00000000000E+00 -0.17277706849E+03  0.17277706849E+03  0.00000000000E+00 0.  1.
         36    2    1    2    0    0  0.00000000000E+00  0.28421709430E-13  0.12567179276E+04  0.16022720646E+04  0.99394960606E+03 0.  0.
         25    2    3    3    0    0 -0.10395390558E+03  0.83519472558E+02  0.25825492562E+03  0.31489324735E+03  0.12116201481E+03 0.  0.
         35    2    3    3    0    0  0.10395390558E+03 -0.83519472558E+02  0.99846300194E+03  0.12873788172E+04  0.80164451970E+03 0.  0.
         22    1    5    5    0    0 -0.69003724016E+02 -0.38889631248E+03  0.77912633941E+03  0.87352144138E+03  0.00000000000E+00 0.  1.
         22    1    5    5    0    0  0.17295762960E+03  0.30537683992E+03  0.21933666253E+03  0.41385737583E+03  0.00000000000E+00 0.  1.
          5    1    4    4  502    0 -0.12848694898E+03  0.49696389244E+02  0.20513793513E+03  0.24714831497E+03  0.47000000000E+01 0.  1.
         -5    1    4    4    0  502  0.24533043404E+02  0.33823083314E+02  0.53116990490E+02  0.67744932373E+02  0.47000000000E+01 0.  1.
<mgrwt>
<rscale>  0 0.99394961E+03</rscale>
<asrwt>0</asrwt>
<pdfrwt beam="1">  1        4 0.21992230E+00 0.99394961E+03</pdfrwt>
<pdfrwt beam="2">  1       -4 0.26581088E-01 0.99394961E+03</pdfrwt>
<totfact> 0.22455734E+00</totfact>
</mgrwt>
</event>
<event>
 9    1  0.4488205E-036  0.9968747E+03  0.7818608E-02  0.8684020E-01
         -2   -1    0    0    0  501 -0.00000000000E+00  0.00000000000E+00  0.14538064142E+03  0.14538064142E+03  0.00000000000E+00 0. -1.
          2   -1    0    0  501    0  0.00000000000E+00 -0.00000000000E+00 -0.17088918209E+04  0.17088918209E+04  0.00000000000E+00 0. -1.
         36    2    1    2    0    0  0.00000000000E+00  0.35527136788E-13 -0.15635111795E+04  0.18542724623E+04  0.99687469431E+03 0.  0.
         25    2    3    3    0    0  0.64688508943E+02  0.10110181193E+02 -0.51743492796E+03  0.53747691950E+03  0.12982956275E+03 0.  0.
         35    2    3    3    0    0 -0.64688508943E+02 -0.10110181193E+02 -0.10460762515E+04  0.13167955428E+04  0.79711238772E+03 0.  0.
         22    1    5    5    0    0  0.16279069111E+03  0.29187069208E+03 -0.19846339071E+03  0.38868628412E+03  0.00000000000E+00 0.  1.
         22    1    5    5    0    0 -0.22747920005E+03 -0.30198087328E+03 -0.84761286079E+03  0.92810925869E+03  0.00000000000E+00 0.  1.
          5    1    4    4  502    0  0.69829447425E+02 -0.48902794759E+02 -0.28067131756E+03  0.29337026701E+03  0.47000000000E+01 0.  1.
         -5    1    4    4    0  502 -0.51409384825E+01  0.59012975952E+02 -0.23676361040E+03  0.24410665249E+03  0.47000000000E+01 0.  1.
<mgrwt>
<rscale>  0 0.99687469E+03</rscale>
<asrwt>0</asrwt>
<pdfrwt beam="1">  1        2 0.26290643E+00 0.99687469E+03</pdfrwt>
<pdfrwt beam="2">  1       -2 0.22366253E-01 0.99687469E+03</pdfrwt>
<totfact> 0.20159824E+02</totfact>
</mgrwt>
</event>
<event>
 9    1  0.4488205E-036  0.9994856E+03  0.7818608E-02  0.8681528E-01
          2   -1    0    0  501    0  0.00000000000E+00  0.00000000000E+00  0.79086832911E+03  0.79086832911E+03  0.00000000000E+00 0.  1.
         -2   -1    0    0    0  501 -0.00000000000E+00 -0.00000000000E+00 -0.31578311085E+03  0.31578311085E+03  0.00000000000E+00 0.  1.
         36    2    1    2    0    0  0.44408920985E-13 -0.21316282073E-13  0.47508521826E+03  0.11066514400E+04  0.99948559016E+03 0.  0.
         25    2    3    3    0    0 -0.14257610160E+02 -0.33302767740E+02 -0.61642401563E+02  0.14327470701E+03  0.12415918094E+03 0.  0.
         35    2    3    3    0    0  0.14257610160E+02  0.33302767740E+02  0.53672761982E+03  0.96337673294E+03  0.79919073938E+03 0.  0.
         22    1    5    5    0    0 -0.26464840236E+03  0.15765973500E+03  0.57825689657E+03  0.65519188589E+03  0.00000000000E+00 0.  1.
         22    1    5    5    0    0  0.27890601252E+03 -0.12435696726E+03 -0.41529276745E+02  0.30818484705E+03  0.00000000000E+00 0.  1.
          5    1    4    4  502    0 -0.21110702884E+02  0.45324499058E+02 -0.21991015311E+02  0.54823961418E+02  0.47000000000E+01 0. -1.
         -5    1    4    4    0  502  0.68530927242E+01 -0.78627266798E+02 -0.39651386252E+02  0.88450745592E+02  0.47000000000E+01 0. -1.
<mgrwt>
<rscale>  0 0.99948559E+03</rscale>
<asrwt>0</asrwt>
<pdfrwt beam="1">  1        2 0.12167205E+00 0.99948559E+03</pdfrwt>
<pdfrwt beam="2">  1       -2 0.48582017E-01 0.99948559E+03</pdfrwt>
<totfact> 0.16986452E+02</totfact>
</mgrwt>
</event>
<event>
 9    1  0.4488205E-036  0.9998985E+03  0.7818608E-02  0.8681135E-01
          2   -1    0    0  501    0  0.00000000000E+00  0.00000000000E+00  0.28311558027E+04  0.28311558027E+04  0.00000000000E+00 0.  1.
         -2   -1    0    0    0  501 -0.00000000000E+00 -0.00000000000E+00 -0.88285236231E+02  0.88285236231E+02  0.00000000000E+00 0.  1.
         36    2    1    2    0    0 -0.28421709430E-13  0.14210854715E-13  0.27428705664E+04  0.29194410389E+04  0.99989851254E+03 0.  0.
         25    2    3    3    0    0 -0.68818045320E+02  0.89649303254E+02  0.75883949784E+03  0.77745141672E+03  0.12577917531E+03 0.  0.
         35    2    3    3    0    0  0.68818045320E+02 -0.89649303254E+02  0.19840310686E+04  0.21419896222E+04  0.79935432659E+03 0.  0.
         22    1    5    5    0    0  0.39622162424E+03  0.11678820988E+03  0.88129288637E+03  0.97329759737E+03  0.00000000000E+00 0.  1.
         22    1    5    5    0    0 -0.32740357892E+03 -0.20643751313E+03  0.11027381822E+04  0.11686920248E+04  0.00000000000E+00 0.  1.
          5    1    4    4  502    0 -0.85382888276E+02  0.11189868583E+03  0.62075182737E+03  0.63652688450E+03  0.47000000000E+01 0. -1.
         -5    1    4    4    0  502  0.16564842956E+02 -0.22249382573E+02  0.13808767046E+03  0.14092453222E+03  0.47000000000E+01 0. -1.
<mgrwt>
<rscale>  0 0.99989851E+03</rscale>
<asrwt>0</asrwt>
<pdfrwt beam="1">  1        2 0.43556236E+00 0.99989851E+03</pdfrwt>
<pdfrwt beam="2">  1       -2 0.13582346E-01 0.99989851E+03</pdfrwt>
<totfact> 0.10193889E+02</totfact>
</mgrwt>
</event>
<event>
 9    1  0.4488205E-036  0.9990591E+03  0.7818608E-02  0.8681934E-01
         -1   -1    0    0    0  501 -0.00000000000E+00  0.00000000000E+00  0.20900459861E+03  0.20900459861E+03  0.00000000000E+00 0. -1.
          1   -1    0    0  501    0  0.00000000000E+00 -0.00000000000E+00 -0.11938962009E+04  0.11938962009E+04  0.00000000000E+00 0. -1.
         36    2    1    2    0    0  0.14210854715E-13 -0.42632564146E-13 -0.98489160234E+03  0.14029007995E+04  0.99905914991E+03 0.  0.
         25    2    3    3    0    0  0.73186344233E+02 -0.69488868079E+02 -0.49548418020E+02  0.16758270643E+03  0.12427378645E+03 0.  0.
         35    2    3    3    0    0 -0.73186344233E+02  0.69488868079E+02 -0.93534318432E+03  0.12353180931E+04  0.80059913500E+03 0.  0.
         22    1    5    5    0    0 -0.16879514848E+03  0.38694871215E+03 -0.73594404461E+03  0.84843075427E+03  0.00000000000E+00 0.  1.
         22    1    5    5    0    0  0.95608804249E+02 -0.31745984407E+03 -0.19939913970E+03  0.38688733885E+03  0.00000000000E+00 0.  1.
          5    1    4    4  502    0  0.56011354571E+02  0.48150095178E+01 -0.68618122916E+02  0.88831261108E+02  0.47000000000E+01 0. -1.
         -5    1    4    4    0  502  0.17174989662E+02 -0.74303877597E+02  0.19069704896E+02  0.78751445324E+02  0.47000000000E+01 0. -1.
<mgrwt>
<rscale>  0 0.99905915E+03</rscale>
<asrwt>0</asrwt>
<pdfrwt beam="1">  1        1 0.18367634E+00 0.99905915E+03</pdfrwt>
<pdfrwt beam="2">  1       -1 0.32154554E-01 0.99905915E+03</pdfrwt>
<totfact> 0.10749025E+02</totfact>
</mgrwt>
</event>
<event>
 9    1  0.4488205E-036  0.1001449E+04  0.7818608E-02  0.8679659E-01
         -2   -1    0    0    0  501 -0.00000000000E+00  0.00000000000E+00  0.17348641837E+03  0.17348641837E+03  0.00000000000E+00 0.  1.
          2   -1    0    0  501    0  0.00000000000E+00 -0.00000000000E+00 -0.14452150639E+04  0.14452150639E+04  0.00000000000E+00 0.  1.
         36    2    1    2    0    0 -0.21316282073E-13  0.28421709430E-13 -0.12717286455E+04  0.16187014823E+04  0.10014493202E+04 0.  0.
         25    2    3    3    0    0  0.50606227457E+02 -0.12330877215E+03 -0.31808017206E+03  0.36678246320E+03  0.12485325750E+03 0.  0.
         35    2    3    3    0    0 -0.50606227457E+02  0.12330877215E+03 -0.95364847346E+03  0.12519190191E+04  0.80005610792E+03 0.  0.
         22    1    5    5    0    0  0.28302104645E+03  0.27670542564E+03 -0.70480409034E+03  0.80834127142E+03  0.00000000000E+00 0.  1.
         22    1    5    5    0    0 -0.33362727391E+03 -0.15339665349E+03 -0.24884438312E+03  0.44357774765E+03  0.00000000000E+00 0.  1.
          5    1    4    4  502    0  0.88157322962E+01 -0.19765217559E+02 -0.21049058739E+03  0.21165244705E+03  0.47000000000E+01 0.  1.
         -5    1    4    4    0  502  0.41790495161E+02 -0.10354355459E+03 -0.10758958467E+03  0.15513001615E+03  0.47000000000E+01 0.  1.
<mgrwt>
<rscale>  0 0.10014493E+04</rscale>
<asrwt>0</asrwt>
<pdfrwt beam="1">  1        2 0.22234078E+00 0.10014493E+04</pdfrwt>
<pdfrwt beam="2">  1       -2 0.26690218E-01 0.10014493E+04</pdfrwt>
<totfact> 0.20776891E+02</totfact>
</mgrwt>
</event>
<event>
 9    1  0.4488205E-036  0.9993713E+03  0.7818608E-02  0.8681637E-01
         -1   -1    0    0    0  501 -0.00000000000E+00  0.00000000000E+00  0.23680552737E+03  0.23680552737E+03  0.00000000000E+00 0.  1.
          1   -1    0    0  501    0  0.00000000000E+00 -0.00000000000E+00 -0.10543915509E+04  0.10543915509E+04  0.00000000000E+00 0.  1.
         36    2    1    2    0    0  0.28421709430E-13 -0.14210854715E-13 -0.81758602352E+03  0.12911970783E+04  0.99937129690E+03 0.  0.
         25    2    3    3    0    0 -0.51526720050E+02  0.94954425358E+02 -0.37869086336E+02  0.16913033213E+03  0.12449761352E+03 0.  0.
         35    2    3    3    0    0  0.51526720050E+02 -0.94954425358E+02 -0.77971693718E+03  0.11220667461E+04  0.79962737252E+03 0.  0.
         22    1    5    5    0    0  0.21981791928E+03  0.27229848312E+03 -0.56493414321E+03  0.66454267561E+03  0.00000000000E+00 0. -1.
         22    1    5    5    0    0 -0.16829119922E+03 -0.36725290848E+03 -0.21478279397E+03  0.45752407053E+03  0.00000000000E+00 0. -1.
          5    1    4    4  502    0  0.39070543660E+02  0.36123336690E+02  0.30896481723E+01  0.53507371094E+02  0.47000000000E+01 0. -1.
         -5    1    4    4    0  502 -0.90597263711E+02  0.58831088668E+02 -0.40958734509E+02  0.11562296103E+03  0.47000000000E+01 0. -1.
<mgrwt>
<rscale>  0 0.99937130E+03</rscale>
<asrwt>0</asrwt>
<pdfrwt beam="1">  1        1 0.16221408E+00 0.99937130E+03</pdfrwt>
<pdfrwt beam="2">  1       -1 0.36431620E-01 0.99937130E+03</pdfrwt>
<totfact> 0.11050147E+02</totfact>
</mgrwt>
</event>
<event>
 9    1  0.4488205E-036  0.9995337E+03  0.7818608E-02  0.8681482E-01
         -2   -1    0    0    0  501 -0.00000000000E+00  0.00000000000E+00  0.77947033710E+02  0.77947033710E+02  0.00000000000E+00 0. -1.
          2   -1    0    0  501    0  0.00000000000E+00 -0.00000000000E+00 -0.32043159990E+04  0.32043159990E+04  0.00000000000E+00 0. -1.
         36    2    1    2    0    0 -0.28421709430E-13 -0.21316282073E-13 -0.31263689653E+04  0.32822630327E+04  0.99953374569E+03 0.  0.
         25    2    3    3    0    0  0.12494720709E+03  0.55945604747E+02 -0.51972661712E+03  0.55179374702E+03  0.12497546743E+03 0.  0.
         35    2    3    3    0    0 -0.12494720709E+03 -0.55945604747E+02 -0.26066423482E+04  0.27304692857E+04  0.80133418345E+03 0.  0.
         22    1    5    5    0    0 -0.78581782764E+01 -0.36259257247E+03 -0.63148022449E+03  0.72821864745E+03  0.00000000000E+00 0. -1.
         22    1    5    5    0    0 -0.11708902882E+03  0.30664696772E+03 -0.19751621237E+04  0.20022506382E+04  0.00000000000E+00 0. -1.
          5    1    4    4  502    0  0.37075096376E+02 -0.39007560788E+02 -0.19104154704E+03  0.19853240357E+03  0.47000000000E+01 0.  1.
         -5    1    4    4    0  502  0.87872110719E+02  0.94953165536E+02 -0.32868507007E+03  0.35326134345E+03  0.47000000000E+01 0.  1.
<mgrwt>
<rscale>  0 0.99953375E+03</rscale>
<asrwt>0</asrwt>
<pdfrwt beam="1">  1        2 0.49297176E+00 0.99953375E+03</pdfrwt>
<pdfrwt beam="2">  1       -2 0.11991850E-01 0.99953375E+03</pdfrwt>
<totfact> 0.70363598E+01</totfact>
</mgrwt>
</event>
<event>
 9    1  0.4488205E-036  0.9995131E+03  0.7818608E-02  0.8681502E-01
          2   -1    0    0  501    0  0.00000000000E+00  0.00000000000E+00  0.14036515978E+04  0.14036515978E+04  0.00000000000E+00 0.  1.
         -2   -1    0    0    0  501 -0.00000000000E+00 -0.00000000000E+00 -0.17793348706E+03  0.17793348706E+03  0.00000000000E+00 0.  1.
         36    2    1    2    0    0  0.00000000000E+00 -0.28421709430E-13  0.12257181107E+04  0.15815850849E+04  0.99951312832E+03 0.  0.
         25    2    3    3    0    0 -0.58512905136E+02 -0.45277409533E+02  0.41503376084E+02  0.15082656494E+03  0.12470893546E+03 0.  0.
         35    2    3    3    0    0  0.58512905136E+02  0.45277409533E+02  0.11842147346E+04  0.14307585199E+04  0.79951960620E+03 0.  0.
         22    1    5    5    0    0 -0.15293885348E+03 -0.21375098895E+03  0.76589934289E+02  0.27376229875E+03  0.00000000000E+00 0.  1.
         22    1    5    5    0    0  0.21145175861E+03  0.25902839849E+03  0.11076248004E+04  0.11569962212E+04  0.00000000000E+00 0.  1.
          5    1    4    4  502    0 -0.23037151107E+02  0.26920304811E+02 -0.27215090597E+02  0.44923983555E+02  0.47000000000E+01 0.  1.
         -5    1    4    4    0  502 -0.35475754029E+02 -0.72197714343E+02  0.68718466682E+02  0.10590258138E+03  0.47000000000E+01 0.  1.
<mgrwt>
<rscale>  0 0.99951313E+03</rscale>
<asrwt>0</asrwt>
<pdfrwt beam="1">  1        2 0.21594639E+00 0.99951313E+03</pdfrwt>
<pdfrwt beam="2">  1       -2 0.27374384E-01 0.99951313E+03</pdfrwt>
<totfact> 0.20968184E+02</totfact>
</mgrwt>
</event>
<event>
 9    1  0.4488205E-036  0.9992765E+03  0.7818608E-02  0.8681727E-01
         -1   -1    0    0    0  501 -0.00000000000E+00  0.00000000000E+00  0.51359178404E+03  0.51359178404E+03  0.00000000000E+00 0. -1.
          1   -1    0    0  501    0  0.00000000000E+00 -0.00000000000E+00 -0.48606381299E+03  0.48606381299E+03  0.00000000000E+00 0. -1.
         36    2    1    2    0    0 -0.28421709430E-13  0.49737991503E-13  0.27527971050E+02  0.99965559702E+03  0.99927650001E+03 0.  0.
         25    2    3    3    0    0 -0.11862561786E+03  0.30652952460E+02  0.73834600585E+02  0.18986212295E+03  0.12483764168E+03 0.  0.
         35    2    3    3    0    0  0.11862561786E+03 -0.30652952460E+02 -0.46306629535E+02  0.80979347407E+03  0.79913048122E+03 0.  0.
         22    1    5    5    0    0 -0.15696697801E+03  0.26032950295E+03  0.17622928077E+03  0.35137848781E+03  0.00000000000E+00 0.  1.
         22    1    5    5    0    0  0.27559259588E+03 -0.29098245541E+03 -0.22253591030E+03  0.45841498627E+03  0.00000000000E+00 0.  1.
          5    1    4    4  502    0 -0.18500235807E+02 -0.26119349898E+02 -0.22736728866E+02  0.39541471944E+02  0.47000000000E+01 0.  1.
         -5    1    4    4    0  502 -0.10012538206E+03  0.56772302358E+02  0.96571329451E+02  0.15032065101E+03  0.47000000000E+01 0.  1.
<mgrwt>
<rscale>  0 0.99927650E+03</rscale>
<asrwt>0</asrwt>
<pdfrwt beam="1">  1        1 0.74779047E-01 0.99927650E+03</pdfrwt>
<pdfrwt beam="2">  1       -1 0.79014121E-01 0.99927650E+03</pdfrwt>
<totfact> 0.87266026E+01</totfact>
</mgrwt>
</event>
<event>
 9    1  0.4488205E-036  0.1000242E+04  0.7818608E-02  0.8680807E-01
          2   -1    0    0  501    0  0.00000000000E+00  0.00000000000E+00  0.78730032626E+03  0.78730032626E+03  0.00000000000E+00 0. -1.
         -2   -1    0    0    0  501 -0.00000000000E+00 -0.00000000000E+00 -0.31769460050E+03  0.31769460050E+03  0.00000000000E+00 0. -1.
         36    2    1    2    0    0  0.00000000000E+00  0.00000000000E+00  0.46960572576E+03  0.11049949268E+04  0.10002420959E+04 0.  0.
         25    2    3    3    0    0  0.73130870641E+02 -0.11321773889E+03  0.13673210274E+03  0.22921197080E+03  0.12520414928E+03 0.  0.
         35    2    3    3    0    0 -0.73130870641E+02  0.11321773889E+03  0.33287362301E+03  0.87578295596E+03  0.79876439355E+03 0.  0.
         22    1    5    5    0    0 -0.17624950549E+03  0.20122772211E+03  0.55468744406E+03  0.61582030247E+03  0.00000000000E+00 0. -1.
         22    1    5    5    0    0  0.10311863485E+03 -0.88009983225E+02 -0.22181382105E+03  0.25996265349E+03  0.00000000000E+00 0. -1.
          5    1    4    4  502    0 -0.15703342243E+02 -0.15355915217E+01 -0.13984944367E+02  0.21601427450E+02  0.47000000000E+01 0.  1.
         -5    1    4    4    0  502  0.88834212884E+02 -0.11168214736E+03  0.15071704711E+03  0.20761054335E+03  0.47000000000E+01 0.  1.
<mgrwt>
<rscale>  0 0.10002421E+04</rscale>
<asrwt>0</asrwt>
<pdfrwt beam="1">  1        2 0.12112313E+00 0.10002421E+04</pdfrwt>
<pdfrwt beam="2">  1       -2 0.48876093E-01 0.10002421E+04</pdfrwt>
<totfact> 0.16881144E+02</totfact>
</mgrwt>
</event>
<event>
 9    1  0.4488205E-036  0.9931138E+03  0.7818608E-02  0.8687623E-01
          2   -1    0    0  501    0  0.00000000000E+00  0.00000000000E+00  0.16078496040E+03  0.16078496040E+03  0.00000000000E+00 0.  1.
         -2   -1    0    0    0  501 -0.00000000000E+00 -0.00000000000E+00 -0.15335312814E+04  0.15335312814E+04  0.00000000000E+00 0.  1.
         36    2    1    2    0    0  0.00000000000E+00 -0.14210854715E-13 -0.13727463210E+04  0.16943162418E+04  0.99311382299E+03 0.  0.
         25    2    3    3    0    0 -0.46812378281E+02  0.76523437460E+02 -0.41793616395E+03  0.44527770867E+03  0.12471714178E+03 0.  0.
         35    2    3    3    0    0  0.46812378281E+02 -0.76523437460E+02 -0.95481015707E+03  0.12490385332E+04  0.80024220460E+03 0.  0.
         22    1    5    5    0    0 -0.11646167047E+03  0.13643050790E+03  0.67832236928E+02  0.19177543258E+03  0.00000000000E+00 0.  1.
         22    1    5    5    0    0  0.16327404875E+03 -0.21295394536E+03 -0.10226423940E+04  0.10572631006E+04  0.00000000000E+00 0.  1.
          5    1    4    4  502    0  0.33015905350E+02  0.41925771633E+02 -0.79930776670E+02  0.96222863147E+02  0.47000000000E+01 0. -1.
         -5    1    4    4    0  502 -0.79828283631E+02  0.34597665827E+02 -0.33800538728E+03  0.34905484552E+03  0.47000000000E+01 0. -1.
<mgrwt>
<rscale>  0 0.99311382E+03</rscale>
<asrwt>0</asrwt>
<pdfrwt beam="1">  1        2 0.24736148E-01 0.99311382E+03</pdfrwt>
<pdfrwt beam="2">  1       -2 0.23592788E+00 0.99311382E+03</pdfrwt>
<totfact> 0.18728098E+01</totfact>
</mgrwt>
</event>
<event>
 9    1  0.4488205E-036  0.9983890E+03  0.7818608E-02  0.8682574E-01
          2   -1    0    0  501    0  0.00000000000E+00  0.00000000000E+00  0.83218450291E+03  0.83218450291E+03  0.00000000000E+00 0. -1.
         -2   -1    0    0    0  501 -0.00000000000E+00 -0.00000000000E+00 -0.29944697304E+03  0.29944697304E+03  0.00000000000E+00 0. -1.
         36    2    1    2    0    0 -0.14210854715E-13  0.00000000000E+00  0.53273752987E+03  0.11316314760E+04  0.99838896310E+03 0.  0.
         25    2    3    3    0    0  0.11015949489E+03  0.53589512202E+02  0.29901373113E+02  0.17858271271E+03  0.12645450974E+03 0.  0.
         35    2    3    3    0    0 -0.11015949489E+03 -0.53589512202E+02  0.50283615676E+03  0.95304876324E+03  0.80028169693E+03 0.  0.
         22    1    5    5    0    0  0.24394497644E+03 -0.20824847162E+02  0.54253746457E+03  0.59522241746E+03  0.00000000000E+00 0.  1.
         22    1    5    5    0    0 -0.35410447133E+03 -0.32764665040E+02 -0.39701307812E+02  0.35782634578E+03  0.00000000000E+00 0.  1.
          5    1    4    4  502    0 -0.36984205897E+01  0.22412673800E+02 -0.36358110135E+02  0.43127815088E+02  0.47000000000E+01 0. -1.
         -5    1    4    4    0  502  0.11385791548E+03  0.31176838402E+02  0.66259483248E+02  0.13545489763E+03  0.47000000000E+01 0. -1.
<mgrwt>
<rscale>  0 0.99838896E+03</rscale>
<asrwt>0</asrwt>
<pdfrwt beam="1">  1        2 0.12802838E+00 0.99838896E+03</pdfrwt>
<pdfrwt beam="2">  1       -2 0.46068765E-01 0.99838896E+03</pdfrwt>
<totfact> 0.17660401E+02</totfact>
</mgrwt>
</event>
<event>
 9    1  0.4488205E-036  0.9987256E+03  0.7818608E-02  0.8682252E-01
         -2   -1    0    0    0  501 -0.00000000000E+00  0.00000000000E+00  0.18279197294E+03  0.18279197294E+03  0.00000000000E+00 0. -1.
          2   -1    0    0  501    0  0.00000000000E+00 -0.00000000000E+00 -0.13641912567E+04  0.13641912567E+04  0.00000000000E+00 0. -1.
         36    2    1    2    0    0  0.00000000000E+00  0.00000000000E+00 -0.11813992838E+04  0.15469832296E+04  0.99872561053E+03 0.  0.
         25    2    3    3    0    0 -0.83158538313E+01  0.13617888763E+03 -0.18000893406E+03  0.25797873651E+03  0.12464336841E+03 0.  0.
         35    2    3    3    0    0  0.83158538313E+01 -0.13617888763E+03 -0.10013903497E+04  0.12890044931E+04  0.80008506296E+03 0.  0.
         22    1    5    5    0    0  0.17886649595E+03  0.12834079451E+03 -0.94368487554E+03  0.96902307880E+03  0.00000000000E+00 0.  1.
         22    1    5    5    0    0 -0.17055064212E+03 -0.26451968214E+03 -0.57705474150E+02  0.31998141433E+03  0.00000000000E+00 0.  1.
          5    1    4    4  502    0 -0.33086752525E+02  0.14679804466E+03 -0.12177226787E+03  0.19363619066E+03  0.47000000000E+01 0. -1.
         -5    1    4    4    0  502  0.24770898694E+02 -0.10619157031E+02 -0.58236666189E+02  0.64342545854E+02  0.47000000000E+01 0. -1.
<mgrwt>
<rscale>  0 0.99872561E+03</rscale>
<asrwt>0</asrwt>
<pdfrwt beam="1">  1        2 0.20987557E+00 0.99872561E+03</pdfrwt>
<pdfrwt beam="2">  1       -2 0.28121843E-01 0.99872561E+03</pdfrwt>
<totfact> 0.21041377E+02</totfact>
</mgrwt>
</event>
<event>
 9    1  0.4488205E-036  0.9997994E+03  0.7818608E-02  0.8681229E-01
          2   -1    0    0  501    0  0.00000000000E+00  0.00000000000E+00  0.16770733020E+04  0.16770733020E+04  0.00000000000E+00 0. -1.
         -2   -1    0    0    0  501 -0.00000000000E+00 -0.00000000000E+00 -0.14900941275E+03  0.14900941275E+03  0.00000000000E+00 0. -1.
         36    2    1    2    0    0  0.00000000000E+00  0.00000000000E+00  0.15280638893E+04  0.18260827148E+04  0.99979939563E+03 0.  0.
         25    2    3    3    0    0 -0.65444018237E+02 -0.28287959003E+02  0.63671760441E+02  0.15731531789E+03  0.12494353931E+03 0.  0.
         35    2    3    3    0    0  0.65444018237E+02  0.28287959003E+02  0.14643921288E+04  0.16687673969E+04  0.79703023141E+03 0.  0.
         22    1    5    5    0    0  0.19930987572E+03  0.40846697560E+02  0.15123825204E+04  0.15260058215E+04  0.00000000000E+00 0. -1.
         22    1    5    5    0    0 -0.13386585749E+03 -0.12558738557E+02 -0.47990391590E+02  0.14276157536E+03  0.00000000000E+00 0. -1.
          5    1    4    4  502    0 -0.90489534350E+01 -0.99737070100E+01  0.90819367302E+02  0.91932615904E+02  0.47000000000E+01 0.  1.
         -5    1    4    4    0  502 -0.56395064802E+02 -0.18314251993E+02 -0.27147606861E+02  0.65382701981E+02  0.47000000000E+01 0.  1.
<mgrwt>
<rscale>  0 0.99979940E+03</rscale>
<asrwt>0</asrwt>
<pdfrwt beam="1">  1        2 0.25801126E+00 0.99979940E+03</pdfrwt>
<pdfrwt beam="2">  1       -2 0.22924526E-01 0.99979940E+03</pdfrwt>
<totfact> 0.20120433E+02</totfact>
</mgrwt>
</event>
<event>
 9    1  0.4488205E-036  0.1000256E+04  0.7818608E-02  0.8680794E-01
         -3   -1    0    0    0  501 -0.00000000000E+00  0.00000000000E+00  0.14755416002E+03  0.14755416002E+03  0.00000000000E+00 0.  1.
          3   -1    0    0  501    0  0.00000000000E+00 -0.00000000000E+00 -0.16951616484E+04  0.16951616484E+04  0.00000000000E+00 0.  1.
         36    2    1    2    0    0 -0.14210854715E-13 -0.14210854715E-13 -0.15476074884E+04  0.18427158084E+04  0.10002562734E+04 0.  0.
         25    2    3    3    0    0  0.87305082056E+02  0.61918625352E+02 -0.12371967844E+03  0.20605367982E+03  0.12528154939E+03 0.  0.
         35    2    3    3    0    0 -0.87305082056E+02 -0.61918625352E+02 -0.14238878099E+04  0.16366621286E+04  0.79984394375E+03 0.  0.
         22    1    5    5    0    0 -0.44746398165E+02  0.27345741363E+03 -0.14281357198E+03  0.31173211827E+03  0.00000000000E+00 0.  1.
         22    1    5    5    0    0 -0.42558683891E+02 -0.33537603898E+03 -0.12810742380E+04  0.13249300103E+04  0.00000000000E+00 0.  1.
          5    1    4    4  502    0  0.89945363333E+02  0.90320441301E+02 -0.12290724340E+03  0.17713337061E+03  0.47000000000E+01 0. -1.
         -5    1    4    4    0  502 -0.26402812773E+01 -0.28401815949E+02 -0.81243503747E+00  0.28920309216E+02  0.47000000000E+01 0. -1.
<mgrwt>
<rscale>  0 0.10002563E+04</rscale>
<asrwt>0</asrwt>
<pdfrwt beam="1">  1        3 0.26079409E+00 0.10002563E+04</pdfrwt>
<pdfrwt beam="2">  1       -3 0.22700640E-01 0.10002563E+04</pdfrwt>
<totfact> 0.47354540E+00</totfact>
</mgrwt>
</event>
<event>
 9    1  0.4488205E-036  0.9998995E+03  0.7818608E-02  0.8681134E-01
          2   -1    0    0  501    0  0.00000000000E+00  0.00000000000E+00  0.32159273536E+04  0.32159273536E+04  0.00000000000E+00 0.  1.
         -2   -1    0    0    0  501 -0.00000000000E+00 -0.00000000000E+00 -0.77722455889E+02  0.77722455889E+02  0.00000000000E+00 0.  1.
         36    2    1    2    0    0  0.71054273576E-14  0.21316282073E-13  0.31382048977E+04  0.32936498095E+04  0.99989953871E+03 0.  0.
         25    2    3    3    0    0 -0.32317872132E+02  0.62376977416E+02  0.19353939104E+03  0.24134822449E+03  0.12592115553E+03 0.  0.
         35    2    3    3    0    0  0.32317872132E+02 -0.62376977416E+02  0.29446655066E+04  0.30523015850E+04  0.80034660456E+03 0.  0.
         22    1    5    5    0    0 -0.98543616879E+02 -0.35368180814E+03  0.75575821609E+03  0.84022148688E+03  0.00000000000E+00 0. -1.
         22    1    5    5    0    0  0.13086148901E+03  0.29130483072E+03  0.21889072906E+04  0.22120800981E+04  0.00000000000E+00 0. -1.
          5    1    4    4  502    0 -0.44933369792E+02  0.95666022283E+02  0.12334555102E+03  0.16250295535E+03  0.47000000000E+01 0.  1.
         -5    1    4    4    0  502  0.12615497660E+02 -0.33289044867E+02  0.70193840015E+02  0.78845269138E+02  0.47000000000E+01 0.  1.
<mgrwt>
<rscale>  0 0.99989954E+03</rscale>
<asrwt>0</asrwt>
<pdfrwt beam="1">  1        2 0.49475795E+00 0.99989954E+03</pdfrwt>
<pdfrwt beam="2">  1       -2 0.11957303E-01 0.99989954E+03</pdfrwt>
<totfact> 0.69384671E+01</totfact>
</mgrwt>
</event>
<event>
 9    1  0.4488205E-036  0.9980318E+03  0.7818608E-02  0.8682915E-01
         -2   -1    0    0    0  501 -0.00000000000E+00  0.00000000000E+00  0.20207706028E+03  0.20207706028E+03  0.00000000000E+00 0. -1.
          2   -1    0    0  501    0  0.00000000000E+00 -0.00000000000E+00 -0.12322867340E+04  0.12322867340E+04  0.00000000000E+00 0. -1.
         36    2    1    2    0    0  0.24868995752E-13  0.56843418861E-13 -0.10302096737E+04  0.14343637943E+04  0.99803182439E+03 0.  0.
         25    2    3    3    0    0  0.58677558985E+00 -0.13320761535E+03 -0.14397739339E+03  0.23285790655E+03  0.12549383149E+03 0.  0.
         35    2    3    3    0    0 -0.58677558985E+00  0.13320761535E+03 -0.88623228034E+03  0.12015058877E+04  0.80029002896E+03 0.  0.
         22    1    5    5    0    0 -0.32634253622E+03  0.70231517482E+02 -0.78751677371E+03  0.85534471756E+03  0.00000000000E+00 0.  1.
         22    1    5    5    0    0  0.32575576063E+03  0.62976097868E+02 -0.98715506633E+02  0.34616117017E+03  0.00000000000E+00 0.  1.
          5    1    4    4  502    0  0.22556643313E+02 -0.56015590211E+02 -0.13979683824E+03  0.15235417450E+03  0.47000000000E+01 0. -1.
         -5    1    4    4    0  502 -0.21969867723E+02 -0.77192025138E+02 -0.41805551462E+01  0.80503732051E+02  0.47000000000E+01 0. -1.
<mgrwt>
<rscale>  0 0.99803182E+03</rscale>
<asrwt>0</asrwt>
<pdfrwt beam="1">  1        2 0.18958257E+00 0.99803182E+03</pdfrwt>
<pdfrwt beam="2">  1       -2 0.31088779E-01 0.99803182E+03</pdfrwt>
<totfact> 0.20911376E+02</totfact>
</mgrwt>
</event>
<event>
 9    1  0.4488205E-036  0.1000138E+04  0.7818608E-02  0.8680907E-01
          2   -1    0    0  501    0  0.00000000000E+00  0.00000000000E+00  0.53058657057E+03  0.53058657057E+03  0.00000000000E+00 0. -1.
         -2   -1    0    0    0  501 -0.00000000000E+00 -0.00000000000E+00 -0.47130668615E+03  0.47130668615E+03  0.00000000000E+00 0. -1.
         36    2    1    2    0    0  0.00000000000E+00  0.00000000000E+00  0.59279884412E+02  0.10018932567E+04  0.10001379871E+04 0.  0.
         25    2    3    3    0    0  0.87610128512E+02  0.47497738232E+02 -0.89034415850E+02  0.18144412568E+03  0.12273252945E+03 0.  0.
         35    2    3    3    0    0 -0.87610128512E+02 -0.47497738232E+02  0.14831430026E+03  0.82044913104E+03  0.80075469103E+03 0.  0.
         22    1    5    5    0    0  0.42870853838E+02 -0.44676877713E+02  0.46960136061E+03  0.47366588583E+03  0.00000000000E+00 0.  1.
         22    1    5    5    0    0 -0.13048098235E+03 -0.28208605185E+01 -0.32128706035E+03  0.34678324521E+03  0.00000000000E+00 0.  1.
          5    1    4    4  502    0  0.14431253500E+02  0.63123660445E+02 -0.84185358325E+02  0.10631143937E+03  0.47000000000E+01 0.  1.
         -5    1    4    4    0  502  0.73178875012E+02 -0.15625922213E+02 -0.48490575251E+01  0.75132686309E+02  0.47000000000E+01 0.  1.
<mgrwt>
<rscale>  0 0.10001380E+04</rscale>
<asrwt>0</asrwt>
<pdfrwt beam="1">  1        2 0.81628703E-01 0.10001380E+04</pdfrwt>
<pdfrwt beam="2">  1       -2 0.72508721E-01 0.10001380E+04</pdfrwt>
<totfact> 0.11949278E+02</totfact>
</mgrwt>
</event>
<event>
 9    1  0.4488205E-036  0.9998540E+03  0.7818608E-02  0.8681177E-01
         -1   -1    0    0    0  501 -0.00000000000E+00  0.00000000000E+00  0.24172993698E+03  0.24172993698E+03  0.00000000000E+00 0. -1.
          1   -1    0    0  501    0  0.00000000000E+00 -0.00000000000E+00 -0.10339100105E+04  0.10339100105E+04  0.00000000000E+00 0. -1.
         36    2    1    2    0    0  0.00000000000E+00  0.28421709430E-13 -0.79218007349E+03  0.12756399474E+04  0.99985399268E+03 0.  0.
         25    2    3    3    0    0  0.10943673749E+03  0.70661280169E+02 -0.22185523146E+03  0.28533626107E+03  0.12340025173E+03 0.  0.
         35    2    3    3    0    0 -0.10943673749E+03 -0.70661280169E+02 -0.57032484203E+03  0.99030368638E+03  0.79903789008E+03 0.  0.
         22    1    5    5    0    0 -0.12260823375E+03 -0.23394394810E+03 -0.72092357700E+03  0.76778470531E+03  0.00000000000E+00 0.  1.
         22    1    5    5    0    0  0.13171496259E+02  0.16328266793E+03  0.15059873497E+03  0.22251898107E+03  0.00000000000E+00 0.  1.
          5    1    4    4  502    0  0.11763546430E+02 -0.20521465348E+02 -0.10509782308E+03  0.10782928164E+03  0.47000000000E+01 0.  1.
         -5    1    4    4    0  502  0.97673191060E+02  0.91182745517E+02 -0.11675740838E+03  0.17750697942E+03  0.47000000000E+01 0.  1.
<mgrwt>
<rscale>  0 0.99985399E+03</rscale>
<asrwt>0</asrwt>
<pdfrwt beam="1">  1        1 0.15906308E+00 0.99985399E+03</pdfrwt>
<pdfrwt beam="2">  1       -1 0.37189220E-01 0.99985399E+03</pdfrwt>
<totfact> 0.11057444E+02</totfact>
</mgrwt>
</event>
<event>
 9    1  0.4488205E-036  0.1001197E+04  0.7818608E-02  0.8679899E-01
          3   -1    0    0  501    0  0.00000000000E+00  0.00000000000E+00  0.79726432659E+03  0.79726432659E+03  0.00000000000E+00 0.  1.
         -3   -1    0    0    0  501 -0.00000000000E+00 -0.00000000000E+00 -0.31432325760E+03  0.31432325760E+03  0.00000000000E+00 0.  1.
         36    2    1    2    0    0  0.14210854715E-13 -0.42632564146E-13  0.48294106899E+03  0.11115875842E+04  0.10011967245E+04 0.  0.
         25    2    3    3    0    0  0.11703910608E+03 -0.74575154564E+02  0.12622876129E+03  0.22537108639E+03  0.12489523759E+03 0.  0.
         35    2    3    3    0    0 -0.11703910608E+03  0.74575154564E+02  0.35671230770E+03  0.88621649780E+03  0.79929744431E+03 0.  0.
         22    1    5    5    0    0 -0.85539949801E+02 -0.36147403240E+03  0.19937159486E+03  0.42157987611E+03  0.00000000000E+00 0. -1.
         22    1    5    5    0    0 -0.31499156276E+02  0.43604918696E+03  0.15734071285E+03  0.46463662169E+03  0.00000000000E+00 0. -1.
          5    1    4    4  502    0  0.60864811886E+02 -0.76411519931E+02  0.13662244349E+03  0.16802091468E+03  0.47000000000E+01 0. -1.
         -5    1    4    4    0  502  0.56174294191E+02  0.18363653672E+01 -0.10393682195E+02  0.57350171710E+02  0.47000000000E+01 0. -1.
<mgrwt>
<rscale>  0 0.10011967E+04</rscale>
<asrwt>0</asrwt>
<pdfrwt beam="1">  1        3 0.12265605E+00 0.10011967E+04</pdfrwt>
<pdfrwt beam="2">  1       -3 0.48357424E-01 0.10011967E+04</pdfrwt>
<totfact> 0.95555650E+00</totfact>
</mgrwt>
</event>
<event>
 9    1  0.4488205E-036  0.9995513E+03  0.7818608E-02  0.8681465E-01
          2   -1    0    0  501    0  0.00000000000E+00  0.00000000000E+00  0.30015919205E+03  0.30015919205E+03  0.00000000000E+00 0. -1.
         -2   -1    0    0    0  501 -0.00000000000E+00 -0.00000000000E+00 -0.83214414686E+03  0.83214414686E+03  0.00000000000E+00 0. -1.
         36    2    1    2    0    0 -0.71054273576E-14 -0.28421709430E-13 -0.53198495480E+03  0.11323033389E+04  0.99955132893E+03 0.  0.
         25    2    3    3    0    0  0.21647372608E+02  0.13102625539E+03 -0.53319759276E+02  0.19061635810E+03  0.12591707947E+03 0.  0.
         35    2    3    3    0    0 -0.21647372608E+02 -0.13102625539E+03 -0.47866519553E+03  0.94168698082E+03  0.80001094498E+03 0.  0.
         22    1    5    5    0    0  0.38407934778E+02 -0.18896452788E+03 -0.68896248319E+03  0.71543837295E+03  0.00000000000E+00 0. -1.
         22    1    5    5    0    0 -0.60055307386E+02  0.57938272487E+02  0.21029728766E+03  0.22624860786E+03  0.00000000000E+00 0. -1.
          5    1    4    4  502    0  0.54229503023E+02  0.13877202127E+03 -0.46151032894E+02  0.15604653384E+03  0.47000000000E+01 0. -1.
         -5    1    4    4    0  502 -0.32582130414E+02 -0.77457658778E+01 -0.71687263827E+01  0.34569824259E+02  0.47000000000E+01 0. -1.
<mgrwt>
<rscale>  0 0.99955133E+03</rscale>
<asrwt>0</asrwt>
<pdfrwt beam="1">  1        2 0.46178338E-01 0.99955133E+03</pdfrwt>
<pdfrwt beam="2">  1       -2 0.12802217E+00 0.99955133E+03</pdfrwt>
<totfact> 0.57317456E+01</totfact>
</mgrwt>
</event>
<event>
 9    1  0.4488205E-036  0.9998692E+03  0.7818608E-02  0.8681163E-01
          2   -1    0    0  501    0  0.00000000000E+00  0.00000000000E+00  0.54420172749E+03  0.54420172749E+03  0.00000000000E+00 0. -1.
         -2   -1    0    0    0  501 -0.00000000000E+00 -0.00000000000E+00 -0.45926828397E+03  0.45926828397E+03  0.00000000000E+00 0. -1.
         36    2    1    2    0    0  0.00000000000E+00  0.42632564146E-13  0.84933443526E+02  0.10034700115E+04  0.99986917848E+03 0.  0.
         25    2    3    3    0    0 -0.11629998555E+03 -0.73789773260E+02 -0.14338481117E+02  0.18555536731E+03  0.12350945316E+03 0.  0.
         35    2    3    3    0    0  0.11629998555E+03  0.73789773260E+02  0.99271924643E+02  0.81791464415E+03  0.80009926435E+03 0.  0.
         22    1    5    5    0    0 -0.22251481705E+03  0.31353424016E+03 -0.23189696065E+02  0.38516791866E+03  0.00000000000E+00 0.  1.
         22    1    5    5    0    0  0.33881480260E+03 -0.23974446690E+03  0.12246162071E+03  0.43274672549E+03  0.00000000000E+00 0.  1.
          5    1    4    4  502    0 -0.94533883604E+02  0.67439249069E+01 -0.32023904344E+02  0.10014867010E+03  0.47000000000E+01 0.  1.
         -5    1    4    4    0  502 -0.21766101948E+02 -0.80533698167E+02  0.17685423227E+02  0.85406697215E+02  0.47000000000E+01 0.  1.
<mgrwt>
<rscale>  0 0.99986918E+03</rscale>
<asrwt>0</asrwt>
<pdfrwt beam="1">  1        2 0.83723342E-01 0.99986918E+03</pdfrwt>
<pdfrwt beam="2">  1       -2 0.70656659E-01 0.99986918E+03</pdfrwt>
<totfact> 0.12279477E+02</totfact>
</mgrwt>
</event>
<event>
 9    1  0.4488205E-036  0.9992232E+03  0.7818608E-02  0.8681778E-01
         -2   -1    0    0    0  501 -0.00000000000E+00  0.00000000000E+00  0.31502594534E+03  0.31502594534E+03  0.00000000000E+00 0.  1.
          2   -1    0    0  501    0  0.00000000000E+00 -0.00000000000E+00 -0.79235298263E+03  0.79235298263E+03  0.00000000000E+00 0.  1.
         36    2    1    2    0    0  0.28421709430E-13 -0.28421709430E-13 -0.47732703729E+03  0.11073789280E+04  0.99922319308E+03 0.  0.
         25    2    3    3    0    0  0.81231543203E+02  0.11095164057E+03 -0.90130623661E+02  0.20777395703E+03  0.12703408103E+03 0.  0.
         35    2    3    3    0    0 -0.81231543203E+02 -0.11095164057E+03 -0.38719641363E+03  0.89960497094E+03  0.80028695532E+03 0.  0.
         22    1    5    5    0    0 -0.31875066219E+03 -0.29485510211E+03 -0.41150668686E+03  0.59823011393E+03  0.00000000000E+00 0.  1.
         22    1    5    5    0    0  0.23751911899E+03  0.18390346154E+03  0.24310273231E+02  0.30137485701E+03  0.00000000000E+00 0.  1.
          5    1    4    4  502    0 -0.16571677578E+02 -0.10162453857E+02 -0.39039077268E+02  0.43863829292E+02  0.47000000000E+01 0. -1.
         -5    1    4    4    0  502  0.97803220782E+02  0.12111409442E+03 -0.51091546392E+02  0.16391012774E+03  0.47000000000E+01 0. -1.
<mgrwt>
<rscale>  0 0.99922319E+03</rscale>
<asrwt>0</asrwt>
<pdfrwt beam="1">  1        2 0.12190046E+00 0.99922319E+03</pdfrwt>
<pdfrwt beam="2">  1       -2 0.48465530E-01 0.99922319E+03</pdfrwt>
<totfact> 0.17026703E+02</totfact>
</mgrwt>
</event>
<event>
 9    1  0.4488205E-036  0.9990898E+03  0.7818608E-02  0.8681905E-01
          2   -1    0    0  501    0  0.00000000000E+00  0.00000000000E+00  0.10907327025E+04  0.10907327025E+04  0.00000000000E+00 0.  1.
         -2   -1    0    0    0  501 -0.00000000000E+00 -0.00000000000E+00 -0.22878665556E+03  0.22878665556E+03  0.00000000000E+00 0.  1.
         36    2    1    2    0    0 -0.71054273576E-14 -0.14210854715E-13  0.86194604696E+03  0.13195193581E+04  0.99908975997E+03 0.  0.
         25    2    3    3    0    0  0.58018655076E+02 -0.86640651453E+02  0.28144742806E+03  0.32537693465E+03  0.12563728753E+03 0.  0.
         35    2    3    3    0    0 -0.58018655076E+02  0.86640651453E+02  0.58049861889E+03  0.99414242343E+03  0.80029228704E+03 0.  0.
         22    1    5    5    0    0 -0.60697614722E+01  0.21276670356E+02  0.77873048874E+03  0.77904474377E+03  0.00000000000E+00 0.  1.
         22    1    5    5    0    0 -0.51948893604E+02  0.65363981097E+02 -0.19823186984E+03  0.21509767966E+03  0.00000000000E+00 0.  1.
          5    1    4    4  502    0 -0.24697684609E+02  0.80620456459E+01  0.10747218895E+03  0.11066767189E+03  0.47000000000E+01 0.  1.
         -5    1    4    4    0  502  0.82716339685E+02 -0.94702697099E+02  0.17397523912E+03  0.21470926276E+03  0.47000000000E+01 0.  1.
<mgrwt>
<rscale>  0 0.99908976E+03</rscale>
<asrwt>0</asrwt>
<pdfrwt beam="1">  1        2 0.16780503E+00 0.99908976E+03</pdfrwt>
<pdfrwt beam="2">  1       -2 0.35197948E-01 0.99908976E+03</pdfrwt>
<totfact> 0.20190853E+02</totfact>
</mgrwt>
</event>
<event>
 9    1  0.4488205E-036  0.9996492E+03  0.7818608E-02  0.8681372E-01
          1   -1    0    0  501    0  0.00000000000E+00  0.00000000000E+00  0.48393129935E+03  0.48393129935E+03  0.00000000000E+00 0.  1.
         -1   -1    0    0    0  501 -0.00000000000E+00 -0.00000000000E+00 -0.51623990141E+03  0.51623990141E+03  0.00000000000E+00 0.  1.
         36    2    1    2    0    0  0.00000000000E+00  0.71054273576E-14 -0.32308602064E+02  0.10001712008E+04  0.99964923101E+03 0.  0.
         25    2    3    3    0    0 -0.93047163355E+02  0.10876533100E+02  0.98671203405E+02  0.18631437143E+03  0.12728301158E+03 0.  0.
         35    2    3    3    0    0  0.93047163355E+02 -0.10876533100E+02 -0.13097980547E+03  0.81385682933E+03  0.79776635403E+03 0.  0.
         22    1    5    5    0    0 -0.91798323844E+02  0.81679552911E+02  0.30638048731E+03  0.33010223360E+03  0.00000000000E+00 0.  1.
         22    1    5    5    0    0  0.18484548720E+03 -0.92556086011E+02 -0.43736029278E+03  0.48375459573E+03  0.00000000000E+00 0.  1.
          5    1    4    4  502    0  0.72019681929E+01  0.49637853624E+02  0.34239682103E+02  0.60911662994E+02  0.47000000000E+01 0. -1.
         -5    1    4    4    0  502 -0.10024913155E+03 -0.38761320524E+02  0.64431521303E+02  0.12540270843E+03  0.47000000000E+01 0. -1.
<mgrwt>
<rscale>  0 0.99964923E+03</rscale>
<asrwt>0</asrwt>
<pdfrwt beam="1">  1        1 0.74450969E-01 0.99964923E+03</pdfrwt>
<pdfrwt beam="2">  1       -1 0.79421523E-01 0.99964923E+03</pdfrwt>
<totfact> 0.86861321E+01</totfact>
</mgrwt>
</event>
<event>
 9    1  0.4488205E-036  0.1000637E+04  0.7818608E-02  0.8680432E-01
         -1   -1    0    0    0  501 -0.00000000000E+00  0.00000000000E+00  0.28634183233E+03  0.28634183233E+03  0.00000000000E+00 0. -1.
          1   -1    0    0  501    0  0.00000000000E+00 -0.00000000000E+00 -0.87419424509E+03  0.87419424509E+03  0.00000000000E+00 0. -1.
         36    2    1    2    0    0 -0.56843418861E-13 -0.71054273576E-14 -0.58785241276E+03  0.11605360774E+04  0.10006365613E+04 0.  0.
         25    2    3    3    0    0 -0.13585097910E+03 -0.36877141253E+02 -0.10384585206E+03  0.21507106725E+03  0.12512470143E+03 0.  0.
         35    2    3    3    0    0  0.13585097910E+03  0.36877141253E+02 -0.48400656070E+03  0.94546501017E+03  0.79989144425E+03 0.  0.
         22    1    5    5    0    0  0.35686708187E+03  0.30165816332E+03 -0.27796124547E+03  0.54370416184E+03  0.00000000000E+00 0. -1.
         22    1    5    5    0    0 -0.22101610276E+03 -0.26478102206E+03 -0.20604531523E+03  0.40176084834E+03  0.00000000000E+00 0. -1.
          5    1    4    4  502    0 -0.10897825230E+03 -0.93732401082E+01 -0.12875955208E+03  0.16901251242E+03  0.47000000000E+01 0.  1.
         -5    1    4    4    0  502 -0.26872726807E+02 -0.27503901144E+02  0.24913700019E+02  0.46058554828E+02  0.47000000000E+01 0.  1.
<mgrwt>
<rscale>  0 0.10006366E+04</rscale>
<asrwt>0</asrwt>
<pdfrwt beam="1">  1        1 0.13449142E+00 0.10006366E+04</pdfrwt>
<pdfrwt beam="2">  1       -1 0.44052590E-01 0.10006366E+04</pdfrwt>
<totfact> 0.11016772E+02</totfact>
</mgrwt>
</event>
<event>
 9    1  0.4488205E-036  0.1000237E+04  0.7818608E-02  0.8680812E-01
          2   -1    0    0  501    0  0.00000000000E+00  0.00000000000E+00  0.12116552490E+04  0.12116552490E+04  0.00000000000E+00 0. -1.
         -2   -1    0    0    0  501 -0.00000000000E+00 -0.00000000000E+00 -0.20642725591E+03  0.20642725591E+03  0.00000000000E+00 0. -1.
         36    2    1    2    0    0  0.00000000000E+00 -0.71054273576E-14  0.10052279930E+04  0.14180825049E+04  0.10002373082E+04 0.  0.
         25    2    3    3    0    0  0.13392556633E+03  0.94915784350E+01  0.13180389221E+03  0.22578222639E+03  0.12481666704E+03 0.  0.
         35    2    3    3    0    0 -0.13392556633E+03 -0.94915784350E+01  0.87342410083E+03  0.11923002785E+04  0.80042747753E+03 0.  0.
         22    1    5    5    0    0 -0.34488207144E+03  0.83097293673E+02  0.89320240728E+03  0.96107197638E+03  0.00000000000E+00 0.  1.
         22    1    5    5    0    0  0.21095650511E+03 -0.92588872108E+02 -0.19778306445E+02  0.23122830210E+03  0.00000000000E+00 0.  1.
          5    1    4    4  502    0  0.14254685380E+03 -0.25068973880E+02  0.89314940120E+02  0.17013908284E+03  0.47000000000E+01 0.  1.
         -5    1    4    4    0  502 -0.86212874704E+01  0.34560552315E+02  0.42488952093E+02  0.55643143548E+02  0.47000000000E+01 0.  1.
<mgrwt>
<rscale>  0 0.10002373E+04</rscale>
<asrwt>0</asrwt>
<pdfrwt beam="1">  1        2 0.18640850E+00 0.10002373E+04</pdfrwt>
<pdfrwt beam="2">  1       -2 0.31758040E-01 0.10002373E+04</pdfrwt>
<totfact> 0.20679674E+02</totfact>
</mgrwt>
</event>
<event>
 9    1  0.4488205E-036  0.1001633E+04  0.7818608E-02  0.8679485E-01
         -2   -1    0    0    0  501 -0.00000000000E+00  0.00000000000E+00  0.25417633886E+04  0.25417633886E+04  0.00000000000E+00 0.  1.
          2   -1    0    0  501    0  0.00000000000E+00 -0.00000000000E+00 -0.98678367058E+02  0.98678367058E+02  0.00000000000E+00 0.  1.
         36    2    1    2    0    0  0.14210854715E-13 -0.14210854715E-13  0.24430850216E+04  0.26404417557E+04  0.10016327883E+04 0.  0.
         25    2    3    3    0    0 -0.39814078065E+02 -0.10670956295E+03  0.23814268862E+03  0.29236493379E+03  0.12567108947E+03 0.  0.
         35    2    3    3    0    0  0.39814078065E+02  0.10670956295E+03  0.22049423329E+04  0.23480768219E+04  0.79920083725E+03 0.  0.
         22    1    5    5    0    0 -0.12571398461E+03 -0.25579149780E+03  0.15897087722E+04  0.16150564314E+04  0.00000000000E+00 0.  1.
         22    1    5    5    0    0  0.16552806267E+03  0.36250106075E+03  0.61523356073E+03  0.73302039045E+03  0.00000000000E+00 0.  1.
          5    1    4    4  502    0 -0.39494299851E+02 -0.20510299922E+02  0.65766404035E+01  0.45230678998E+02  0.47000000000E+01 0. -1.
         -5    1    4    4    0  502 -0.31977821469E+00 -0.86199263026E+02  0.23156604822E+03  0.24713425480E+03  0.47000000000E+01 0. -1.
<mgrwt>
<rscale>  0 0.10016328E+04</rscale>
<asrwt>0</asrwt>
<pdfrwt beam="1">  1        2 0.15181289E-01 0.10016328E+04</pdfrwt>
<pdfrwt beam="2">  1       -2 0.39104047E+00 0.10016328E+04</pdfrwt>
<totfact> 0.47744661E+00</totfact>
</mgrwt>
</event>
<event>
 9    1  0.4488205E-036  0.9999175E+03  0.7818608E-02  0.8681117E-01
         -2   -1    0    0    0  501 -0.00000000000E+00  0.00000000000E+00  0.46775375818E+03  0.46775375818E+03  0.00000000000E+00 0. -1.
          2   -1    0    0  501    0  0.00000000000E+00 -0.00000000000E+00 -0.53438102007E+03  0.53438102007E+03  0.00000000000E+00 0. -1.
         36    2    1    2    0    0 -0.71054273576E-14  0.00000000000E+00 -0.66627261886E+02  0.10021347783E+04  0.99991745747E+03 0.  0.
         25    2    3    3    0    0 -0.60251937435E+02 -0.77712002376E+02 -0.11190823276E+03  0.19483440803E+03  0.12556887637E+03 0.  0.
         35    2    3    3    0    0  0.60251937435E+02  0.77712002376E+02  0.45280970878E+02  0.80730037022E+03  0.80000879380E+03 0.  0.
         22    1    5    5    0    0 -0.10862126641E+03  0.28380022947E+03  0.30831586815E+03  0.43289701352E+03  0.00000000000E+00 0. -1.
         22    1    5    5    0    0  0.16887320384E+03 -0.20608822710E+03 -0.26303489727E+03  0.37440335670E+03  0.00000000000E+00 0. -1.
          5    1    4    4  502    0 -0.72415483072E+02 -0.23033969371E+02 -0.78181076212E+01  0.76536127027E+02  0.47000000000E+01 0.  1.
         -5    1    4    4    0  502  0.12163545636E+02 -0.54678033005E+02 -0.10409012514E+03  0.11829828100E+03  0.47000000000E+01 0.  1.
<mgrwt>
<rscale>  0 0.99991746E+03</rscale>
<asrwt>0</asrwt>
<pdfrwt beam="1">  1        2 0.82212465E-01 0.99991746E+03</pdfrwt>
<pdfrwt beam="2">  1       -2 0.71962116E-01 0.99991746E+03</pdfrwt>
<totfact> 0.12049749E+02</totfact>
</mgrwt>
</event>
<event>
 9    1  0.4488205E-036  0.9993371E+03  0.7818608E-02  0.8681670E-01
          2   -1    0    0  501    0  0.00000000000E+00  0.00000000000E+00  0.12684526852E+04  0.12684526852E+04  0.00000000000E+00 0.  1.
         -2   -1    0    0    0  501 -0.00000000000E+00 -0.00000000000E+00 -0.19682928542E+03  0.19682928542E+03  0.00000000000E+00 0.  1.
         36    2    1    2    0    0 -0.28421709430E-13  0.14210854715E-13  0.10716233997E+04  0.14652819706E+04  0.99933705146E+03 0.  0.
         25    2    3    3    0    0 -0.90264234328E+02  0.10533647218E+03  0.18644776632E+03  0.26372094815E+03  0.12466982216E+03 0.  0.
         35    2    3    3    0    0  0.90264234328E+02 -0.10533647218E+03  0.88517563342E+03  0.12015610224E+04  0.80060576081E+03 0.  0.
         22    1    5    5    0    0 -0.34473442938E+03 -0.59013164626E+02  0.54426424243E+03  0.64695281589E+03  0.00000000000E+00 0. -1.
         22    1    5    5    0    0  0.43499866371E+03 -0.46323307552E+02  0.34091139099E+03  0.55460820653E+03  0.00000000000E+00 0. -1.
          5    1    4    4  502    0 -0.27775879441E+02  0.16730908736E+02 -0.14117480612E+02  0.35676547545E+02  0.47000000000E+01 0.  1.
         -5    1    4    4    0  502 -0.62488354887E+02  0.88605563442E+02  0.20056524693E+03  0.22804440060E+03  0.47000000000E+01 0.  1.
<mgrwt>
<rscale>  0 0.99933705E+03</rscale>
<asrwt>0</asrwt>
<pdfrwt beam="1">  1        2 0.19514656E+00 0.99933705E+03</pdfrwt>
<pdfrwt beam="2">  1       -2 0.30281429E-01 0.99933705E+03</pdfrwt>
<totfact> 0.20899260E+02</totfact>
</mgrwt>
</event>
<event>
 9    1  0.4488205E-036  0.9999764E+03  0.7818608E-02  0.8681060E-01
         -2   -1    0    0    0  501 -0.00000000000E+00  0.00000000000E+00  0.42679359130E+03  0.42679359130E+03  0.00000000000E+00 0. -1.
          2   -1    0    0  501    0  0.00000000000E+00 -0.00000000000E+00 -0.58573555045E+03  0.58573555045E+03  0.00000000000E+00 0. -1.
         36    2    1    2    0    0  0.71054273576E-14  0.35527136788E-13 -0.15894195915E+03  0.10125291418E+04  0.99997635798E+03 0.  0.
         25    2    3    3    0    0  0.41589801502E+02 -0.43311125077E+02  0.94371158596E+02  0.16979424042E+03  0.12774428896E+03 0.  0.
         35    2    3    3    0    0 -0.41589801502E+02  0.43311125077E+02 -0.25331311774E+03  0.84273490133E+03  0.80151669549E+03 0.  0.
         22    1    5    5    0    0 -0.99276569576E+02 -0.37029579966E+03 -0.86300225699E+02  0.39296634139E+03  0.00000000000E+00 0. -1.
         22    1    5    5    0    0  0.57686768074E+02  0.41360692474E+03 -0.16701289204E+03  0.44976855994E+03  0.00000000000E+00 0. -1.
          5    1    4    4  502    0 -0.40196043777E+02 -0.27455471589E+02  0.77382407418E+01  0.49512576436E+02  0.47000000000E+01 0.  1.
         -5    1    4    4    0  502  0.81785845280E+02 -0.15855653488E+02  0.86632917854E+02  0.12028166399E+03  0.47000000000E+01 0.  1.
<mgrwt>
<rscale>  0 0.99997636E+03</rscale>
<asrwt>0</asrwt>
<pdfrwt beam="1">  1        2 0.90113161E-01 0.99997636E+03</pdfrwt>
<pdfrwt beam="2">  1       -2 0.65660553E-01 0.99997636E+03</pdfrwt>
<totfact> 0.13196079E+02</totfact>
</mgrwt>
</event>
<event>
 9    1  0.4488205E-036  0.9989927E+03  0.7818608E-02  0.8681998E-01
          1   -1    0    0  501    0  0.00000000000E+00  0.00000000000E+00  0.12400336740E+04  0.12400336740E+04  0.00000000000E+00 0. -1.
         -1   -1    0    0    0  501 -0.00000000000E+00 -0.00000000000E+00 -0.20120147012E+03  0.20120147012E+03  0.00000000000E+00 0. -1.
         36    2    1    2    0    0  0.71054273576E-14  0.00000000000E+00  0.10388322038E+04  0.14412351441E+04  0.99899268905E+03 0.  0.
         25    2    3    3    0    0  0.37679090806E+02  0.11858435546E+03  0.27950168919E+03  0.32996300658E+03  0.12358166615E+03 0.  0.
         35    2    3    3    0    0 -0.37679090806E+02 -0.11858435546E+03  0.75933051464E+03  0.11112721375E+04  0.80178611228E+03 0.  0.
         22    1    5    5    0    0 -0.18175901769E+03 -0.42356936716E+03  0.53506545211E+03  0.70621695487E+03  0.00000000000E+00 0. -1.
         22    1    5    5    0    0  0.14407992688E+03  0.30498501170E+03  0.22426506253E+03  0.40505518261E+03  0.00000000000E+00 0. -1.
          5    1    4    4  502    0 -0.88567162617E+01 -0.28190692365E+01 -0.88192418851E+01  0.13647622567E+02  0.47000000000E+01 0.  1.
         -5    1    4    4    0  502  0.46535807068E+02  0.12140342470E+03  0.28832093108E+03  0.31631538402E+03  0.47000000000E+01 0.  1.
<mgrwt>
<rscale>  0 0.99899269E+03</rscale>
<asrwt>0</asrwt>
<pdfrwt beam="1">  1        1 0.19077441E+00 0.99899269E+03</pdfrwt>
<pdfrwt beam="2">  1       -1 0.30954073E-01 0.99899269E+03</pdfrwt>
<totfact> 0.10604716E+02</totfact>
</mgrwt>
</event>
<event>
 9    1  0.4488205E-036  0.1002114E+04  0.7818608E-02  0.8679028E-01
         -2   -1    0    0    0  501 -0.00000000000E+00  0.00000000000E+00  0.17065576930E+03  0.17065576930E+03  0.00000000000E+00 0. -1.
          2   -1    0    0  501    0  0.00000000000E+00 -0.00000000000E+00 -0.14711364697E+04  0.14711364697E+04  0.00000000000E+00 0. -1.
         36    2    1    2    0    0 -0.14210854715E-13 -0.17763568394E-14 -0.13004807004E+04  0.16417922390E+04  0.10021136183E+04 0.  0.
         25    2    3    3    0    0 -0.34932158921E+02  0.13241527076E+02 -0.20492471657E+02  0.13218442611E+03  0.12512868315E+03 0.  0.
         35    2    3    3    0    0  0.34932158921E+02 -0.13241527076E+02 -0.12799882288E+04  0.15096078129E+04  0.79946875439E+03 0.  0.
         22    1    5    5    0    0 -0.13658658209E+03  0.28254732916E+02  0.64442010817E+02  0.15364568688E+03  0.00000000000E+00 0.  1.
         22    1    5    5    0    0  0.17151874101E+03 -0.41496259992E+02 -0.13444302396E+04  0.13559621260E+04  0.00000000000E+00 0.  1.
          5    1    4    4  502    0  0.21516427501E+02 -0.36949450558E+01  0.41121020429E+02  0.46793563579E+02  0.47000000000E+01 0. -1.
         -5    1    4    4    0  502 -0.56448586422E+02  0.16936472132E+02 -0.61613492086E+02  0.85390862534E+02  0.47000000000E+01 0. -1.
<mgrwt>
<rscale>  0 0.10021136E+04</rscale>
<asrwt>0</asrwt>
<pdfrwt beam="1">  1        2 0.22632868E+00 0.10021136E+04</pdfrwt>
<pdfrwt beam="2">  1       -2 0.26254735E-01 0.10021136E+04</pdfrwt>
<totfact> 0.20683798E+02</totfact>
</mgrwt>
</event>
<event>
 9    1  0.4488205E-036  0.9992128E+03  0.7818608E-02  0.8681788E-01
          2   -1    0    0  501    0  0.00000000000E+00  0.00000000000E+00  0.46970269999E+03  0.46970269999E+03  0.00000000000E+00 0.  1.
         -2   -1    0    0    0  501 -0.00000000000E+00 -0.00000000000E+00 -0.53141390944E+03  0.53141390944E+03  0.00000000000E+00 0.  1.
         36    2    1    2    0    0 -0.14210854715E-13  0.00000000000E+00 -0.61711209445E+02  0.10011166094E+04  0.99921278630E+03 0.  0.
         25    2    3    3    0    0 -0.70501839968E+02  0.10254500302E+03 -0.74384594732E+02  0.19140507919E+03  0.12496739303E+03 0.  0.
         35    2    3    3    0    0  0.70501839968E+02 -0.10254500302E+03  0.12673385286E+02  0.80971153024E+03  0.79999135022E+03 0.  0.
         22    1    5    5    0    0 -0.63613395666E+02 -0.43926647466E+03 -0.29448360921E+02  0.44482457871E+03  0.00000000000E+00 0.  1.
         22    1    5    5    0    0  0.13411523563E+03  0.33672147164E+03  0.42121746207E+02  0.36488695152E+03  0.00000000000E+00 0.  1.
          5    1    4    4  502    0 -0.43689099194E+02 -0.19948127725E+02 -0.35928197485E+02  0.60163033190E+02  0.47000000000E+01 0. -1.
         -5    1    4    4    0  502 -0.26812740774E+02  0.12249313075E+03 -0.38456397246E+02  0.13124204600E+03  0.47000000000E+01 0. -1.
<mgrwt>
<rscale>  0 0.99921279E+03</rscale>
<asrwt>0</asrwt>
<pdfrwt beam="1">  1        2 0.72261954E-01 0.99921279E+03</pdfrwt>
<pdfrwt beam="2">  1       -2 0.81755986E-01 0.99921279E+03</pdfrwt>
<totfact> 0.10483307E+02</totfact>
</mgrwt>
</event>
<event>
 9    1  0.4488205E-036  0.1000200E+04  0.7818608E-02  0.8680848E-01
         -2   -1    0    0    0  501 -0.00000000000E+00  0.00000000000E+00  0.15538307986E+03  0.15538307986E+03  0.00000000000E+00 0.  1.
          2   -1    0    0  501    0  0.00000000000E+00 -0.00000000000E+00 -0.16095699444E+04  0.16095699444E+04  0.00000000000E+00 0.  1.
         36    2    1    2    0    0 -0.28421709430E-13  0.00000000000E+00 -0.14541868646E+04  0.17649530243E+04  0.10001998505E+04 0.  0.
         25    2    3    3    0    0 -0.94600778542E+02  0.81916250081E+02 -0.38353999651E+03  0.42225997311E+03  0.12466345349E+03 0.  0.
         35    2    3    3    0    0  0.94600778542E+02 -0.81916250081E+02 -0.10706468681E+04  0.13426930512E+04  0.80055001986E+03 0.  0.
         22    1    5    5    0    0  0.37743396494E+03 -0.23266503287E+03 -0.39055727320E+03  0.59086749704E+03  0.00000000000E+00 0. -1.
         22    1    5    5    0    0 -0.28283318640E+03  0.15074878278E+03 -0.68008959485E+03  0.75182555415E+03  0.00000000000E+00 0. -1.
          5    1    4    4  502    0  0.11346180507E+02  0.98976341950E+01  0.20621154223E+01  0.15907271757E+02  0.47000000000E+01 0.  1.
         -5    1    4    4    0  502 -0.10594695905E+03  0.72018615886E+02 -0.38560211193E+03  0.40635270135E+03  0.47000000000E+01 0.  1.
<mgrwt>
<rscale>  0 0.10001999E+04</rscale>
<asrwt>0</asrwt>
<pdfrwt beam="1">  1        2 0.24762616E+00 0.10001999E+04</pdfrwt>
<pdfrwt beam="2">  1       -2 0.23905087E-01 0.10001999E+04</pdfrwt>
<totfact> 0.20401522E+02</totfact>
</mgrwt>
</event>
<event>
 9    1  0.4488205E-036  0.9994105E+03  0.7818608E-02  0.8681600E-01
         -1   -1    0    0    0  501 -0.00000000000E+00  0.00000000000E+00  0.10093964483E+03  0.10093964483E+03  0.00000000000E+00 0. -1.
          1   -1    0    0  501    0  0.00000000000E+00 -0.00000000000E+00 -0.24738084832E+04  0.24738084832E+04  0.00000000000E+00 0. -1.
         36    2    1    2    0    0  0.14210854715E-13  0.14210854715E-13 -0.23728688384E+04  0.25747481280E+04  0.99941052563E+03 0.  0.
         25    2    3    3    0    0 -0.22728247279E+02  0.10563486627E+03 -0.68090607174E+03  0.70074077947E+03  0.12541635968E+03 0.  0.
         35    2    3    3    0    0  0.22728247279E+02 -0.10563486627E+03 -0.16919627666E+04  0.18740073486E+04  0.79842985957E+03 0.  0.
         22    1    5    5    0    0  0.35396393697E+03  0.45487835008E+02 -0.12575156822E+04  0.13071745495E+04  0.00000000000E+00 0. -1.
         22    1    5    5    0    0 -0.33123568969E+03 -0.15112270128E+03 -0.43444708443E+03  0.56683279910E+03  0.00000000000E+00 0. -1.
          5    1    4    4  502    0 -0.33749064342E+02  0.93861949215E+02 -0.67586721794E+03  0.68320396013E+03  0.47000000000E+01 0.  1.
         -5    1    4    4    0  502  0.11020817063E+02  0.11772917055E+02 -0.50388538030E+01  0.17536819335E+02  0.47000000000E+01 0.  1.
<mgrwt>
<rscale>  0 0.99941053E+03</rscale>
<asrwt>0</asrwt>
<pdfrwt beam="1">  1        1 0.38058591E+00 0.99941053E+03</pdfrwt>
<pdfrwt beam="2">  1       -1 0.15529177E-01 0.99941053E+03</pdfrwt>
<totfact> 0.44786568E+01</totfact>
</mgrwt>
</event>
<event>
 9    1  0.4488205E-036  0.9997834E+03  0.7818608E-02  0.8681244E-01
          4   -1    0    0  501    0  0.00000000000E+00  0.00000000000E+00  0.23639088691E+03  0.23639088691E+03  0.00000000000E+00 0. -1.
         -4   -1    0    0    0  501 -0.00000000000E+00 -0.00000000000E+00 -0.10571123525E+04  0.10571123525E+04  0.00000000000E+00 0. -1.
         36    2    1    2    0    0  0.00000000000E+00  0.00000000000E+00 -0.82072146556E+03  0.12935032394E+04  0.99978342968E+03 0.  0.
         25    2    3    3    0    0  0.11717649755E+03  0.27598524385E+01 -0.53787455350E+02  0.17947096475E+03  0.12481501702E+03 0.  0.
         35    2    3    3    0    0 -0.11717649755E+03 -0.27598524385E+01 -0.76693401021E+03  0.11140322746E+04  0.79946368557E+03 0.  0.
         22    1    5    5    0    0  0.26939815421E+03 -0.23412460643E+03 -0.31826904906E+03  0.47821008397E+03  0.00000000000E+00 0.  1.
         22    1    5    5    0    0 -0.38657465176E+03  0.23136475399E+03 -0.44866496115E+03  0.63582219066E+03  0.00000000000E+00 0.  1.
          5    1    4    4  502    0  0.11374923517E+02  0.40325112884E+02  0.18303568841E+02  0.45963183598E+02  0.47000000000E+01 0.  1.
         -5    1    4    4    0  502  0.10580157403E+03 -0.37565260446E+02 -0.72091024192E+02  0.13350778115E+03  0.47000000000E+01 0.  1.
<mgrwt>
<rscale>  0 0.99978343E+03</rscale>
<asrwt>0</asrwt>
<pdfrwt beam="1">  1        4 0.36367828E-01 0.99978343E+03</pdfrwt>
<pdfrwt beam="2">  1       -4 0.16263267E+00 0.99978343E+03</pdfrwt>
<totfact> 0.34303432E+00</totfact>
</mgrwt>
</event>
<event>
 9    1  0.4488205E-036  0.1000234E+04  0.7818608E-02  0.8680815E-01
         -1   -1    0    0    0  501 -0.00000000000E+00  0.00000000000E+00  0.37785781563E+03  0.37785781563E+03  0.00000000000E+00 0. -1.
          1   -1    0    0  501    0  0.00000000000E+00 -0.00000000000E+00 -0.66193410909E+03  0.66193410909E+03  0.00000000000E+00 0. -1.
         36    2    1    2    0    0 -0.14210854715E-13  0.21316282073E-13 -0.28407629346E+03  0.10397919247E+04  0.10002339257E+04 0.  0.
         25    2    3    3    0    0 -0.10737185321E+03  0.28720063210E+02 -0.14254095071E+03  0.22027932924E+03  0.12590275361E+03 0.  0.
         35    2    3    3    0    0  0.10737185321E+03 -0.28720063210E+02 -0.14153534275E+03  0.81951259549E+03  0.79950927701E+03 0.  0.
         22    1    5    5    0    0  0.30090011697E+03 -0.31440272182E+03  0.25927715640E+02  0.43596123488E+03  0.00000000000E+00 0. -1.
         22    1    5    5    0    0 -0.19352826376E+03  0.28568265861E+03 -0.16746305839E+03  0.38355136061E+03  0.00000000000E+00 0. -1.
          5    1    4    4  502    0 -0.21707720450E+02 -0.13677178177E+02 -0.11886973205E+03  0.12169796025E+03  0.47000000000E+01 0.  1.
         -5    1    4    4    0  502 -0.85664132762E+02  0.42397241387E+02 -0.23671218660E+02  0.98581368990E+02  0.47000000000E+01 0.  1.
<mgrwt>
<rscale>  0 0.10002339E+04</rscale>
<asrwt>0</asrwt>
<pdfrwt beam="1">  1        1 0.10183602E+00 0.10002339E+04</pdfrwt>
<pdfrwt beam="2">  1       -1 0.58131972E-01 0.10002339E+04</pdfrwt>
<totfact> 0.10263248E+02</totfact>
</mgrwt>
</event>
<event>
 9    1  0.4488205E-036  0.9993157E+03  0.7818608E-02  0.8681690E-01
          2   -1    0    0  501    0  0.00000000000E+00  0.00000000000E+00  0.50716286413E+03  0.50716286413E+03  0.00000000000E+00 0. -1.
         -2   -1    0    0    0  501 -0.00000000000E+00 -0.00000000000E+00 -0.49226392801E+03  0.49226392801E+03  0.00000000000E+00 0. -1.
         36    2    1    2    0    0  0.28421709430E-13 -0.14210854715E-13  0.14898936121E+02  0.99942679214E+03  0.99931573316E+03 0.  0.
         25    2    3    3    0    0  0.73461293810E+02 -0.12283932965E+03  0.14253089370E+02  0.19005173484E+03  0.12421935744E+03 0.  0.
         35    2    3    3    0    0 -0.73461293810E+02  0.12283932965E+03  0.64584675093E+00  0.80937505730E+03  0.79661879444E+03 0.  0.
         22    1    5    5    0    0  0.15282848701E+03  0.22202161184E+03  0.31173865021E+03  0.41210572502E+03  0.00000000000E+00 0.  1.
         22    1    5    5    0    0 -0.22628978082E+03 -0.99182282189E+02 -0.31109280345E+03  0.39726933227E+03  0.00000000000E+00 0.  1.
          5    1    4    4  502    0  0.68006303512E+02 -0.74191690925E+01 -0.16212402848E+02  0.70461573879E+02  0.47000000000E+01 0.  1.
         -5    1    4    4    0  502  0.54549902978E+01 -0.11542016056E+03  0.30465492218E+02  0.11959016096E+03  0.47000000000E+01 0.  1.
<mgrwt>
<rscale>  0 0.99931573E+03</rscale>
<asrwt>0</asrwt>
<pdfrwt beam="1">  1        2 0.78025056E-01 0.99931573E+03</pdfrwt>
<pdfrwt beam="2">  1       -2 0.75732912E-01 0.99931573E+03</pdfrwt>
<totfact> 0.11430483E+02</totfact>
</mgrwt>
</event>
<event>
 9    1  0.4488205E-036  0.9995877E+03  0.7818608E-02  0.8681431E-01
         -2   -1    0    0    0  501 -0.00000000000E+00  0.00000000000E+00  0.97338197996E+03  0.97338197996E+03  0.00000000000E+00 0. -1.
          2   -1    0    0  501    0  0.00000000000E+00 -0.00000000000E+00 -0.25662472297E+03  0.25662472297E+03  0.00000000000E+00 0. -1.
         36    2    1    2    0    0  0.00000000000E+00 -0.14210854715E-13  0.71675725699E+03  0.12300067029E+04  0.99958767690E+03 0.  0.
         25    2    3    3    0    0  0.10785403023E+03  0.66167178866E+02  0.20333985152E+03  0.27264584505E+03  0.13029993942E+03 0.  0.
         35    2    3    3    0    0 -0.10785403023E+03 -0.66167178866E+02  0.51341740547E+03  0.95736085787E+03  0.79808006651E+03 0.  0.
         22    1    5    5    0    0  0.28181413603E+03  0.97928394271E+02  0.43478339273E+03  0.52730046109E+03  0.00000000000E+00 0.  1.
         22    1    5    5    0    0 -0.38966816626E+03 -0.16409557314E+03  0.78634012736E+02  0.43006039678E+03  0.00000000000E+00 0.  1.
          5    1    4    4  502    0  0.11896730027E+03  0.84043872975E+02  0.20442088256E+03  0.25105094771E+03  0.47000000000E+01 0. -1.
         -5    1    4    4    0  502 -0.11113270034E+02 -0.17876694109E+02 -0.10810310487E+01  0.21594897343E+02  0.47000000000E+01 0. -1.
<mgrwt>
<rscale>  0 0.99958768E+03</rscale>
<asrwt>0</asrwt>
<pdfrwt beam="1">  1        2 0.39480727E-01 0.99958768E+03</pdfrwt>
<pdfrwt beam="2">  1       -2 0.14975107E+00 0.99958768E+03</pdfrwt>
<totfact> 0.44555605E+01</totfact>
</mgrwt>
</event>
<event>
 9    1  0.4488205E-036  0.1000867E+04  0.7818608E-02  0.8680213E-01
         -1   -1    0    0    0  501 -0.00000000000E+00  0.00000000000E+00  0.27868373786E+03  0.27868373786E+03  0.00000000000E+00 0.  1.
          1   -1    0    0  501    0  0.00000000000E+00 -0.00000000000E+00 -0.89863022301E+03  0.89863022301E+03  0.00000000000E+00 0.  1.
         36    2    1    2    0    0  0.21316282073E-13 -0.14210854715E-13 -0.61994648516E+03  0.11773139609E+04  0.10008668833E+04 0.  0.
         25    2    3    3    0    0 -0.23415390333E+01  0.10858401091E+03 -0.11103511099E+02  0.16648487279E+03  0.12568991479E+03 0.  0.
         35    2    3    3    0    0  0.23415390333E+01 -0.10858401091E+03 -0.60884297406E+03  0.10108290881E+04  0.79955594427E+03 0.  0.
         22    1    5    5    0    0 -0.29743217405E+03 -0.21144562737E+03 -0.58949279017E+03  0.69330866225E+03  0.00000000000E+00 0.  1.
         22    1    5    5    0    0  0.29977371309E+03  0.10286161646E+03 -0.19350183891E+02  0.31752042582E+03  0.00000000000E+00 0.  1.
          5    1    4    4  502    0 -0.59055881903E+02  0.67817696235E+02  0.15920761454E+02  0.91446146749E+02  0.47000000000E+01 0. -1.
         -5    1    4    4    0  502  0.56714342869E+02  0.40766314674E+02 -0.27024272554E+02  0.75038726044E+02  0.47000000000E+01 0. -1.
<mgrwt>
<rscale>  0 0.10008669E+04</rscale>
<asrwt>0</asrwt>
<pdfrwt beam="1">  1        1 0.13825080E+00 0.10008669E+04</pdfrwt>
<pdfrwt beam="2">  1       -1 0.42874422E-01 0.10008669E+04</pdfrwt>
<totfact> 0.11035960E+02</totfact>
</mgrwt>
</event>
<event>
 9    1  0.4488205E-036  0.1000382E+04  0.7818608E-02  0.8680674E-01
         -1   -1    0    0    0  501 -0.00000000000E+00  0.00000000000E+00  0.82265454951E+03  0.82265454951E+03  0.00000000000E+00 0.  1.
          1   -1    0    0  501    0  0.00000000000E+00 -0.00000000000E+00 -0.30412649361E+03  0.30412649361E+03  0.00000000000E+00 0.  1.
         36    2    1    2    0    0  0.28421709430E-13  0.00000000000E+00  0.51852805591E+03  0.11267810431E+04  0.10003820142E+04 0.  0.
         25    2    3    3    0    0 -0.99566496895E+02  0.89108485486E+02  0.14118682727E+03  0.23224031383E+03  0.12707491366E+03 0.  0.
         35    2    3    3    0    0  0.99566496895E+02 -0.89108485486E+02  0.37734122863E+03  0.89454072929E+03  0.79997681469E+03 0.  0.
         22    1    5    5    0    0  0.18188260463E+03 -0.37204268527E+03 -0.20917225288E+01  0.41412729544E+03  0.00000000000E+00 0.  1.
         22    1    5    5    0    0 -0.82316107732E+02  0.28293419978E+03  0.37943295116E+03  0.48041343385E+03  0.00000000000E+00 0.  1.
          5    1    4    4  502    0 -0.72328792623E+02  0.90187002619E+02  0.32632231361E+02  0.12021689651E+03  0.47000000000E+01 0.  1.
         -5    1    4    4    0  502 -0.27237704272E+02 -0.10785171330E+01  0.10855459591E+03  0.11202341732E+03  0.47000000000E+01 0.  1.
<mgrwt>
<rscale>  0 0.10003820E+04</rscale>
<asrwt>0</asrwt>
<pdfrwt beam="1">  1        1 0.46788691E-01 0.10003820E+04</pdfrwt>
<pdfrwt beam="2">  1       -1 0.12656224E+00 0.10003820E+04</pdfrwt>
<totfact> 0.56047481E+01</totfact>
</mgrwt>
</event>
<event>
 9    1  0.4488205E-036  0.1000112E+04  0.7818608E-02  0.8680931E-01
         -1   -1    0    0    0  501 -0.00000000000E+00  0.00000000000E+00  0.50872834006E+03  0.50872834006E+03  0.00000000000E+00 0.  1.
          1   -1    0    0  501    0  0.00000000000E+00 -0.00000000000E+00 -0.49153133206E+03  0.49153133206E+03  0.00000000000E+00 0.  1.
         36    2    1    2    0    0  0.00000000000E+00  0.00000000000E+00  0.17197008002E+02  0.10002596721E+04  0.10001118310E+04 0.  0.
         25    2    3    3    0    0 -0.13997492857E+02  0.66759561282E+02 -0.11921887936E+03  0.18569272410E+03  0.12496350570E+03 0.  0.
         35    2    3    3    0    0  0.13997492857E+02 -0.66759561282E+02  0.13641588737E+03  0.81456694802E+03  0.80016076488E+03 0.  0.
         22    1    5    5    0    0 -0.23953367004E+03 -0.69611989969E+02 -0.24950379716E+03  0.35280923036E+03  0.00000000000E+00 0.  1.
         22    1    5    5    0    0  0.25353116290E+03  0.28524286871E+01  0.38591968453E+03  0.46175771766E+03  0.00000000000E+00 0.  1.
          5    1    4    4  502    0  0.41448565892E+02  0.21533823590E+01 -0.34492387675E+01  0.41911906639E+02  0.47000000000E+01 0. -1.
         -5    1    4    4    0  502 -0.55446058749E+02  0.64606178923E+02 -0.11576964060E+03  0.14378081746E+03  0.47000000000E+01 0. -1.
<mgrwt>
<rscale>  0 0.10001118E+04</rscale>
<asrwt>0</asrwt>
<pdfrwt beam="1">  1        1 0.75620205E-01 0.10001118E+04</pdfrwt>
<pdfrwt beam="2">  1       -1 0.78265898E-01 0.10001118E+04</pdfrwt>
<totfact> 0.87629185E+01</totfact>
</mgrwt>
</event>
<event>
 9    1  0.4488205E-036  0.9959215E+03  0.7818608E-02  0.8684932E-01
          2   -1    0    0  501    0  0.00000000000E+00  0.00000000000E+00  0.26066355396E+04  0.26066355396E+04  0.00000000000E+00 0.  1.
         -2   -1    0    0    0  501 -0.00000000000E+00 -0.00000000000E+00 -0.95128334586E+02  0.95128334586E+02  0.00000000000E+00 0.  1.
         36    2    1    2    0    0  0.00000000000E+00  0.88817841970E-14  0.25115072050E+04  0.27017638742E+04  0.99592147833E+03 0.  0.
         25    2    3    3    0    0 -0.12779175707E+03 -0.11836300868E+02  0.33659303456E+03  0.38102045652E+03  0.12414059039E+03 0.  0.
         35    2    3    3    0    0  0.12779175707E+03  0.11836300868E+02  0.21749141704E+04  0.23207434176E+04  0.79945452065E+03 0.  0.
         22    1    5    5    0    0  0.20948770378E+03  0.10216585881E+03  0.21860519244E+04  0.21984417156E+04  0.00000000000E+00 0.  1.
         22    1    5    5    0    0 -0.81695946714E+02 -0.90329557943E+02 -0.11137754004E+02  0.12230170200E+03  0.00000000000E+00 0.  1.
          5    1    4    4  502    0 -0.10889938314E+03  0.11854435560E+02  0.12111835868E+03  0.16337487598E+03  0.47000000000E+01 0.  1.
         -5    1    4    4    0  502 -0.18892373925E+02 -0.23690736428E+02  0.21547467588E+03  0.21764558054E+03  0.47000000000E+01 0.  1.
<mgrwt>
<rscale>  0 0.99592148E+03</rscale>
<asrwt>0</asrwt>
<pdfrwt beam="1">  1        2 0.40102080E+00 0.99592148E+03</pdfrwt>
<pdfrwt beam="2">  1       -2 0.14635130E-01 0.99592148E+03</pdfrwt>
<totfact> 0.12482208E+02</totfact>
</mgrwt>
</event>
<event>
 9    1  0.4488205E-036  0.1000603E+04  0.7818608E-02  0.8680464E-01
         -2   -1    0    0    0  501 -0.00000000000E+00  0.00000000000E+00  0.11562291263E+04  0.11562291263E+04  0.00000000000E+00 0. -1.
          2   -1    0    0  501    0  0.00000000000E+00 -0.00000000000E+00 -0.21648103676E+03  0.21648103676E+03  0.00000000000E+00 0. -1.
         36    2    1    2    0    0 -0.71054273576E-14  0.00000000000E+00  0.93974808952E+03  0.13727101630E+04  0.10006031781E+04 0.  0.
         25    2    3    3    0    0  0.17066289459E+02 -0.12070778492E+03  0.77975501762E+02  0.19071127257E+03  0.12421345754E+03 0.  0.
         35    2    3    3    0    0 -0.17066289459E+02  0.12070778492E+03  0.86177258776E+03  0.11819988905E+04  0.79975481024E+03 0.  0.
         22    1    5    5    0    0 -0.11752094680E+03  0.61636322718E+02  0.99567940330E+03  0.10044837895E+04  0.00000000000E+00 0.  1.
         22    1    5    5    0    0  0.10045465734E+03  0.59071462197E+02 -0.13390681554E+03  0.17751510098E+03  0.00000000000E+00 0.  1.
          5    1    4    4  502    0 -0.80769558847E+01 -0.90926344662E+02  0.10785365921E+03  0.14137658637E+03  0.47000000000E+01 0. -1.
         -5    1    4    4    0  502  0.25143245343E+02 -0.29781440253E+02 -0.29878157443E+02  0.49334686197E+02  0.47000000000E+01 0. -1.
<mgrwt>
<rscale>  0 0.10006032E+04</rscale>
<asrwt>0</asrwt>
<pdfrwt beam="1">  1        2 0.33304776E-01 0.10006032E+04</pdfrwt>
<pdfrwt beam="2">  1       -2 0.17788140E+00 0.10006032E+04</pdfrwt>
<totfact> 0.32802765E+01</totfact>
</mgrwt>
</event>
<event>
 9    1  0.4488205E-036  0.9997176E+03  0.7818608E-02  0.8681307E-01
         -2   -1    0    0    0  501 -0.00000000000E+00  0.00000000000E+00  0.27967448937E+03  0.27967448937E+03  0.00000000000E+00 0. -1.
          2   -1    0    0  501    0  0.00000000000E+00 -0.00000000000E+00 -0.89339144177E+03  0.89339144177E+03  0.00000000000E+00 0. -1.
         36    2    1    2    0    0  0.00000000000E+00  0.00000000000E+00 -0.61371695239E+03  0.11730659311E+04  0.99971755068E+03 0.  0.
         25    2    3    3    0    0  0.64021483859E+02 -0.12170665309E+03 -0.14216718276E+03  0.23396572615E+03  0.12496876953E+03 0.  0.
         35    2    3    3    0    0 -0.64021483859E+02  0.12170665309E+03 -0.47154976964E+03  0.93910020498E+03  0.80039911916E+03 0.  0.
         22    1    5    5    0    0 -0.90340932536E+02  0.12504748414E+03 -0.69609945679E+03  0.71298864727E+03  0.00000000000E+00 0. -1.
         22    1    5    5    0    0  0.26319448677E+02 -0.33408310430E+01  0.22454968716E+03  0.22611155772E+03  0.00000000000E+00 0. -1.
          5    1    4    4  502    0  0.10056729283E+03 -0.87090841612E+02 -0.86432774322E+02  0.15871770398E+03  0.47000000000E+01 0. -1.
         -5    1    4    4    0  502 -0.36545808968E+02 -0.34615811483E+02 -0.55734408435E+02  0.75248022176E+02  0.47000000000E+01 0. -1.
<mgrwt>
<rscale>  0 0.99971755E+03</rscale>
<asrwt>0</asrwt>
<pdfrwt beam="1">  1        2 0.13744484E+00 0.99971755E+03</pdfrwt>
<pdfrwt beam="2">  1       -2 0.43026845E-01 0.99971755E+03</pdfrwt>
<totfact> 0.18355638E+02</totfact>
</mgrwt>
</event>
<event>
 9    1  0.4488205E-036  0.9996245E+03  0.7818608E-02  0.8681396E-01
         -1   -1    0    0    0  501 -0.00000000000E+00  0.00000000000E+00  0.45629606704E+03  0.45629606704E+03  0.00000000000E+00 0.  1.
          1   -1    0    0  501    0  0.00000000000E+00 -0.00000000000E+00 -0.54747851151E+03  0.54747851151E+03  0.00000000000E+00 0.  1.
         36    2    1    2    0    0  0.14210854715E-13 -0.14210854715E-13 -0.91182444471E+02  0.10037745786E+04  0.99962451269E+03 0.  0.
         25    2    3    3    0    0  0.80808634834E+02 -0.10525561512E+03 -0.68597551404E+02  0.19352653497E+03  0.12303705011E+03 0.  0.
         35    2    3    3    0    0 -0.80808634834E+02  0.10525561512E+03 -0.22584893067E+02  0.81024804358E+03  0.79898875759E+03 0.  0.
         22    1    5    5    0    0  0.33865526354E+03 -0.44058134055E+02  0.85543583583E+02  0.35205995426E+03  0.00000000000E+00 0.  1.
         22    1    5    5    0    0 -0.41946389838E+03  0.14931374917E+03 -0.10812847665E+03  0.45818808932E+03  0.00000000000E+00 0.  1.
          5    1    4    4  502    0  0.40043195931E+02  0.20773989638E+02 -0.25168468390E+01  0.45425110940E+02  0.47000000000E+01 0. -1.
         -5    1    4    4    0  502  0.40765438903E+02 -0.12602960476E+03 -0.66080704565E+02  0.14810142403E+03  0.47000000000E+01 0. -1.
<mgrwt>
<rscale>  0 0.99962451E+03</rscale>
<asrwt>0</asrwt>
<pdfrwt beam="1">  1        1 0.84227463E-01 0.99962451E+03</pdfrwt>
<pdfrwt beam="2">  1       -1 0.70199395E-01 0.99962451E+03</pdfrwt>
<totfact> 0.93901455E+01</totfact>
</mgrwt>
</event>
<event>
 9    1  0.4488205E-036  0.1000133E+04  0.7818608E-02  0.8680911E-01
         -2   -1    0    0    0  501 -0.00000000000E+00  0.00000000000E+00  0.26639538831E+03  0.26639538831E+03  0.00000000000E+00 0. -1.
          2   -1    0    0  501    0  0.00000000000E+00 -0.00000000000E+00 -0.93870522774E+03  0.93870522774E+03  0.00000000000E+00 0. -1.
         36    2    1    2    0    0  0.28421709430E-13 -0.21316282073E-13 -0.67230983943E+03  0.12051006161E+04  0.10001334784E+04 0.  0.
         25    2    3    3    0    0  0.82431388833E+02 -0.14551005531E+01  0.16905100954E+01  0.15619259017E+03  0.13265073018E+03 0.  0.
         35    2    3    3    0    0 -0.82431388833E+02  0.14551005531E+01 -0.67400034953E+03  0.10489080259E+04  0.79945889476E+03 0.  0.
         22    1    5    5    0    0 -0.21114822084E+03  0.25347666808E+03 -0.13316276348E+02  0.33016861699E+03  0.00000000000E+00 0. -1.
         22    1    5    5    0    0  0.12871683201E+03 -0.25202156753E+03 -0.66068407318E+03  0.71873940889E+03  0.00000000000E+00 0. -1.
          5    1    4    4  502    0 -0.20254618515E+02  0.36041678036E+02  0.18416050959E+02  0.45502670908E+02  0.47000000000E+01 0.  1.
         -5    1    4    4    0  502  0.10268600735E+03 -0.37496778589E+02 -0.16725540863E+02  0.11068991926E+03  0.47000000000E+01 0.  1.
<mgrwt>
<rscale>  0 0.10001335E+04</rscale>
<asrwt>0</asrwt>
<pdfrwt beam="1">  1        2 0.14441619E+00 0.10001335E+04</pdfrwt>
<pdfrwt beam="2">  1       -2 0.40983905E-01 0.10001335E+04</pdfrwt>
<totfact> 0.18835613E+02</totfact>
</mgrwt>
</event>
<event>
 9    1  0.4488205E-036  0.1001493E+04  0.7818608E-02  0.8679617E-01
         -1   -1    0    0    0  501 -0.00000000000E+00  0.00000000000E+00  0.66103538174E+03  0.66103538174E+03  0.00000000000E+00 0. -1.
          1   -1    0    0  501    0  0.00000000000E+00 -0.00000000000E+00 -0.37932472750E+03  0.37932472750E+03  0.00000000000E+00 0. -1.
         36    2    1    2    0    0  0.14210854715E-13  0.28421709430E-13  0.28171065424E+03  0.10403601092E+04  0.10014930175E+04 0.  0.
         25    2    3    3    0    0 -0.11022062004E+03 -0.69415230265E+02 -0.40289189763E+01  0.18111414351E+03  0.12577377118E+03 0.  0.
         35    2    3    3    0    0  0.11022062004E+03  0.69415230265E+02  0.28573957322E+03  0.85924596573E+03  0.79980589310E+03 0.  0.
         22    1    5    5    0    0  0.20561066340E+02 -0.18296772427E+03 -0.22005010480E+03  0.28691809667E+03  0.00000000000E+00 0. -1.
         22    1    5    5    0    0  0.89659553702E+02  0.25238295454E+03  0.50578967802E+03  0.57232786906E+03  0.00000000000E+00 0. -1.
          5    1    4    4  502    0 -0.11109512196E+03 -0.10172619413E+01 -0.13034260509E+02  0.11196045236E+03  0.47000000000E+01 0. -1.
         -5    1    4    4    0  502  0.87450191575E+00 -0.68397968323E+02  0.90053415325E+01  0.69153691156E+02  0.47000000000E+01 0. -1.
<mgrwt>
<rscale>  0 0.10014930E+04</rscale>
<asrwt>0</asrwt>
<pdfrwt beam="1">  1        1 0.58357650E-01 0.10014930E+04</pdfrwt>
<pdfrwt beam="2">  1       -1 0.10169775E+00 0.10014930E+04</pdfrwt>
<totfact> 0.70775056E+01</totfact>
</mgrwt>
</event>
<event>
 9    1  0.4488205E-036  0.1000109E+04  0.7818608E-02  0.8680934E-01
         -1   -1    0    0    0  501 -0.00000000000E+00  0.00000000000E+00  0.89909801126E+03  0.89909801126E+03  0.00000000000E+00 0.  1.
          1   -1    0    0  501    0  0.00000000000E+00 -0.00000000000E+00 -0.27811712537E+03  0.27811712537E+03  0.00000000000E+00 0.  1.
         36    2    1    2    0    0  0.71054273576E-14 -0.10658141036E-13  0.62098088589E+03  0.11772151366E+04  0.10001091027E+04 0.  0.
         25    2    3    3    0    0  0.42844407478E+02  0.28271876994E+02 -0.37961588261E+02  0.14000562940E+03  0.12460157222E+03 0.  0.
         35    2    3    3    0    0 -0.42844407478E+02 -0.28271876994E+02  0.65894247415E+03  0.10372095072E+04  0.79935188458E+03 0.  0.
         22    1    5    5    0    0 -0.37283280098E+03 -0.14783356651E+03  0.52697331668E+03  0.66223858040E+03  0.00000000000E+00 0. -1.
         22    1    5    5    0    0  0.32998839351E+03  0.11956168952E+03  0.13196915747E+03  0.37497092684E+03  0.00000000000E+00 0. -1.
          5    1    4    4  502    0 -0.32113731027E+02  0.62224490329E+00  0.22674055944E+02  0.39596486235E+02  0.47000000000E+01 0. -1.
         -5    1    4    4    0  502  0.74958138505E+02  0.27649632091E+02 -0.60635644205E+02  0.10040914316E+03  0.47000000000E+01 0. -1.
<mgrwt>
<rscale>  0 0.10001091E+04</rscale>
<asrwt>0</asrwt>
<pdfrwt beam="1">  1        1 0.42787250E-01 0.10001091E+04</pdfrwt>
<pdfrwt beam="2">  1       -1 0.13832277E+00 0.10001091E+04</pdfrwt>
<totfact> 0.49821294E+01</totfact>
</mgrwt>
</event>
<event>
 9    1  0.4488205E-036  0.1011933E+04  0.7818608E-02  0.8669757E-01
         -2   -1    0    0    0  501 -0.00000000000E+00  0.00000000000E+00  0.25342277283E+03  0.25342277283E+03  0.00000000000E+00 0.  1.
          2   -1    0    0  501    0  0.00000000000E+00 -0.00000000000E+00 -0.10101773421E+04  0.10101773421E+04  0.00000000000E+00 0.  1.
         36    2    1    2    0    0  0.14210854715E-13 -0.35527136788E-14 -0.75675456924E+03  0.12636001149E+04  0.10119326916E+04 0.  0.
         25    2    3    3    0    0 -0.69603915281E+02 -0.93785061455E+01  0.17850524426E+02  0.14783476060E+03  0.12885578691E+03 0.  0.
         35    2    3    3    0    0  0.69603915281E+02  0.93785061455E+01 -0.77460509367E+03  0.11157653543E+04  0.79999163328E+03 0.  0.
         22    1    5    5    0    0  0.20225618230E+03 -0.32138649275E+03 -0.17469990229E+03  0.41799150334E+03  0.00000000000E+00 0.  1.
         22    1    5    5    0    0 -0.13265226702E+03  0.33076499890E+03 -0.59990519138E+03  0.69777385096E+03  0.00000000000E+00 0.  1.
          5    1    4    4  502    0 -0.10749738815E+03 -0.48390457730E+01  0.18965717040E+02  0.10936586874E+03  0.47000000000E+01 0. -1.
         -5    1    4    4    0  502  0.37893472869E+02 -0.45394603725E+01 -0.11151926136E+01  0.38468891862E+02  0.47000000000E+01 0. -1.
<mgrwt>
<rscale>  0 0.10119327E+04</rscale>
<asrwt>0</asrwt>
<pdfrwt beam="1">  1        2 0.15541190E+00 0.10119327E+04</pdfrwt>
<pdfrwt beam="2">  1       -2 0.38988119E-01 0.10119327E+04</pdfrwt>
<totfact> 0.18664686E+02</totfact>
</mgrwt>
</event>
<event>
 9    1  0.4488205E-036  0.1000366E+04  0.7818608E-02  0.8680689E-01
         -1   -1    0    0    0  501 -0.00000000000E+00  0.00000000000E+00  0.10159061417E+03  0.10159061417E+03  0.00000000000E+00 0.  1.
          1   -1    0    0  501    0  0.00000000000E+00 -0.00000000000E+00 -0.24626595742E+04  0.24626595742E+04  0.00000000000E+00 0.  1.
         36    2    1    2    0    0  0.00000000000E+00  0.28421709430E-13 -0.23610689600E+04  0.25642501884E+04  0.10003661302E+04 0.  0.
         25    2    3    3    0    0 -0.79497500548E+02  0.10029975151E+03 -0.58996801008E+03  0.61640309007E+03  0.12454165483E+03 0.  0.
         35    2    3    3    0    0  0.79497500548E+02 -0.10029975151E+03 -0.17711009499E+04  0.19478470983E+04  0.80058094574E+03 0.  0.
         22    1    5    5    0    0  0.48707017974E+02 -0.39990163575E+03 -0.50283825425E+03  0.64431358965E+03  0.00000000000E+00 0. -1.
         22    1    5    5    0    0  0.30790482574E+02  0.29960188423E+03 -0.12682626957E+04  0.13035335086E+04  0.00000000000E+00 0. -1.
          5    1    4    4  502    0 -0.86764093522E+02  0.58091868900E+02 -0.54174497371E+03  0.55173578794E+03  0.47000000000E+01 0.  1.
         -5    1    4    4    0  502  0.72665929744E+01  0.42207882614E+02 -0.48223036370E+02  0.64667302131E+02  0.47000000000E+01 0.  1.
<mgrwt>
<rscale>  0 0.10003661E+04</rscale>
<asrwt>0</asrwt>
<pdfrwt beam="1">  1        1 0.37887069E+00 0.10003661E+04</pdfrwt>
<pdfrwt beam="2">  1       -1 0.15629326E-01 0.10003661E+04</pdfrwt>
<totfact> 0.45126054E+01</totfact>
</mgrwt>
</event>
<event>
 9    1  0.4488205E-036  0.9993567E+03  0.7818608E-02  0.8681651E-01
         -1   -1    0    0    0  501 -0.00000000000E+00  0.00000000000E+00  0.47466264409E+03  0.47466264409E+03  0.00000000000E+00 0.  1.
          1   -1    0    0  501    0  0.00000000000E+00 -0.00000000000E+00 -0.52601244154E+03  0.52601244154E+03  0.00000000000E+00 0.  1.
         36    2    1    2    0    0 -0.14210854715E-13  0.71054273576E-14 -0.51349797451E+02  0.10006750856E+04  0.99935670573E+03 0.  0.
         25    2    3    3    0    0 -0.62402441634E+02  0.54045343161E+02  0.10397209168E+03  0.18216211934E+03  0.12473122317E+03 0.  0.
         35    2    3    3    0    0  0.62402441634E+02 -0.54045343161E+02 -0.15532188913E+03  0.81851296628E+03  0.79938953139E+03 0.  0.
         22    1    5    5    0    0  0.16250418074E+03 -0.10323185897E+03  0.29628342049E+03  0.35333877613E+03  0.00000000000E+00 0. -1.
         22    1    5    5    0    0 -0.10010173910E+03  0.49186515808E+02 -0.45160530962E+03  0.46517419015E+03  0.00000000000E+00 0. -1.
          5    1    4    4  502    0  0.85977880267E+01  0.52902286035E+02 -0.27687103011E+01  0.53873273369E+02  0.47000000000E+01 0. -1.
         -5    1    4    4    0  502 -0.71000229661E+02  0.11430571259E+01  0.10674080198E+03  0.12828884597E+03  0.47000000000E+01 0. -1.
<mgrwt>
<rscale>  0 0.99935671E+03</rscale>
<asrwt>0</asrwt>
<pdfrwt beam="1">  1        1 0.80924991E-01 0.99935671E+03</pdfrwt>
<pdfrwt beam="2">  1       -1 0.73025022E-01 0.99935671E+03</pdfrwt>
<totfact> 0.91825760E+01</totfact>
</mgrwt>
</event>
<event>
 9    1  0.4488205E-036  0.9973005E+03  0.7818608E-02  0.8683613E-01
          3   -1    0    0  501    0  0.00000000000E+00  0.00000000000E+00  0.22925992976E+03  0.22925992976E+03  0.00000000000E+00 0.  1.
         -3   -1    0    0    0  501 -0.00000000000E+00 -0.00000000000E+00 -0.10845857382E+04  0.10845857382E+04  0.00000000000E+00 0.  1.
         36    2    1    2    0    0  0.00000000000E+00  0.00000000000E+00 -0.85532580841E+03  0.13138456679E+04  0.99730045653E+03 0.  0.
         25    2    3    3    0    0  0.40463050911E+02 -0.12072312306E+03 -0.22671580644E+03  0.28842717234E+03  0.12481524716E+03 0.  0.
         35    2    3    3    0    0 -0.40463050911E+02  0.12072312306E+03 -0.62861000197E+03  0.10254184956E+04  0.80007576240E+03 0.  0.
         22    1    5    5    0    0  0.18189942771E+03  0.31577430364E+03 -0.39922024200E+02  0.36659866428E+03  0.00000000000E+00 0.  1.
         22    1    5    5    0    0 -0.22236247862E+03 -0.19505118058E+03 -0.58868797777E+03  0.65881983130E+03  0.00000000000E+00 0.  1.
          5    1    4    4  502    0  0.40472175493E+02 -0.45892656520E+02 -0.19939699778E+03  0.20862738467E+03  0.47000000000E+01 0.  1.
         -5    1    4    4    0  502 -0.91245825605E-02 -0.74830466538E+02 -0.27318808666E+02  0.79799787672E+02  0.47000000000E+01 0.  1.
<mgrwt>
<rscale>  0 0.99730046E+03</rscale>
<asrwt>0</asrwt>
<pdfrwt beam="1">  1        3 0.35270757E-01 0.99730046E+03</pdfrwt>
<pdfrwt beam="2">  1       -3 0.16685935E+00 0.99730046E+03</pdfrwt>
<totfact> 0.59088038E+00</totfact>
</mgrwt>
</event>
<event>
 9    1  0.4488205E-036  0.9996411E+03  0.7818608E-02  0.8681380E-01
         -1   -1    0    0    0  501 -0.00000000000E+00  0.00000000000E+00  0.98549243711E+02  0.98549243711E+02  0.00000000000E+00 0.  1.
          1   -1    0    0  501    0  0.00000000000E+00 -0.00000000000E+00 -0.25349821363E+04  0.25349821363E+04  0.00000000000E+00 0.  1.
         36    2    1    2    0    0  0.28421709430E-13  0.28421709430E-13 -0.24364328926E+04  0.26335313800E+04  0.99964108029E+03 0.  0.
         25    2    3    3    0    0  0.11266307669E+03  0.61739187076E+02 -0.62690184391E+03  0.65200709369E+03  0.12491049700E+03 0.  0.
         35    2    3    3    0    0 -0.11266307669E+03 -0.61739187076E+02 -0.18095310487E+04  0.19815242863E+04  0.79720209800E+03 0.  0.
         22    1    5    5    0    0 -0.29461327696E+03  0.27905616761E+03 -0.11184796813E+04  0.11898176856E+04  0.00000000000E+00 0. -1.
         22    1    5    5    0    0  0.18195020027E+03 -0.34079535469E+03 -0.69105136739E+03  0.79170660066E+03  0.00000000000E+00 0. -1.
          5    1    4    4  502    0  0.13228618185E+03  0.76734642929E+02 -0.51122619950E+03  0.53363110516E+03  0.47000000000E+01 0.  1.
         -5    1    4    4    0  502 -0.19623105167E+02 -0.14995455852E+02 -0.11567564441E+03  0.11837598853E+03  0.47000000000E+01 0.  1.
<mgrwt>
<rscale>  0 0.99964108E+03</rscale>
<asrwt>0</asrwt>
<pdfrwt beam="1">  1        1 0.38999725E+00 0.99964108E+03</pdfrwt>
<pdfrwt beam="2">  1       -1 0.15161422E-01 0.99964108E+03</pdfrwt>
<totfact> 0.42174183E+01</totfact>
</mgrwt>
</event>
<event>
 9    1  0.4488205E-036  0.9983580E+03  0.7818608E-02  0.8682603E-01
         -2   -1    0    0    0  501 -0.00000000000E+00  0.00000000000E+00  0.94949804845E+03  0.94949804845E+03  0.00000000000E+00 0.  1.
          2   -1    0    0  501    0  0.00000000000E+00 -0.00000000000E+00 -0.26243305639E+03  0.26243305639E+03  0.00000000000E+00 0.  1.
         36    2    1    2    0    0  0.00000000000E+00  0.00000000000E+00  0.68706499205E+03  0.12119311048E+04  0.99835800171E+03 0.  0.
         25    2    3    3    0    0 -0.82239498840E+02  0.76538717589E+02  0.29670660608E+02  0.17005562495E+03  0.12416544212E+03 0.  0.
         35    2    3    3    0    0  0.82239498840E+02 -0.76538717589E+02  0.65739433145E+03  0.10418754799E+04  0.80044718634E+03 0.  0.
         22    1    5    5    0    0  0.18204857334E+03 -0.14528425467E+03  0.81239220633E+03  0.84512146738E+03  0.00000000000E+00 0.  1.
         22    1    5    5    0    0 -0.99809074501E+02  0.68745537076E+02 -0.15499787489E+03  0.19675401251E+03  0.00000000000E+00 0.  1.
          5    1    4    4  502    0 -0.54078178413E+02  0.11047086892E+03  0.20815166750E+02  0.12483438400E+03  0.47000000000E+01 0. -1.
         -5    1    4    4    0  502 -0.28161320427E+02 -0.33932151333E+02  0.88554938571E+01  0.45221240957E+02  0.47000000000E+01 0. -1.
<mgrwt>
<rscale>  0 0.99835800E+03</rscale>
<asrwt>0</asrwt>
<pdfrwt beam="1">  1        2 0.40374317E-01 0.99835800E+03</pdfrwt>
<pdfrwt beam="2">  1       -2 0.14607662E+00 0.99835800E+03</pdfrwt>
<totfact> 0.46561966E+01</totfact>
</mgrwt>
</event>
<event>
 9    1  0.4488205E-036  0.9999804E+03  0.7818608E-02  0.8681057E-01
         -2   -1    0    0    0  501 -0.00000000000E+00  0.00000000000E+00  0.31809315098E+03  0.31809315098E+03  0.00000000000E+00 0. -1.
          2   -1    0    0  501    0  0.00000000000E+00 -0.00000000000E+00 -0.78590244982E+03  0.78590244982E+03  0.00000000000E+00 0. -1.
         36    2    1    2    0    0  0.00000000000E+00 -0.42632564146E-13 -0.46780929884E+03  0.11039956008E+04  0.99998037305E+03 0.  0.
         25    2    3    3    0    0  0.42717930701E+02 -0.11429575316E+03 -0.11751795423E+02  0.17608847657E+03  0.12641481754E+03 0.  0.
         35    2    3    3    0    0 -0.42717930701E+02  0.11429575316E+03 -0.45605750342E+03  0.92790712422E+03  0.79883342692E+03 0.  0.
         22    1    5    5    0    0 -0.11211368584E+03 -0.16752372344E+03 -0.57871370287E+03  0.61281581764E+03  0.00000000000E+00 0. -1.
         22    1    5    5    0    0  0.69395755140E+02  0.28181947659E+03  0.12265619945E+03  0.31509130658E+03  0.00000000000E+00 0. -1.
          5    1    4    4  502    0 -0.17566435960E+01 -0.10329906116E+03  0.36227783782E+02  0.10958249929E+03  0.47000000000E+01 0.  1.
         -5    1    4    4    0  502  0.44474574297E+02 -0.10996691999E+02 -0.47979579204E+02  0.66505977283E+02  0.47000000000E+01 0.  1.
<mgrwt>
<rscale>  0 0.99998037E+03</rscale>
<asrwt>0</asrwt>
<pdfrwt beam="1">  1        2 0.12090807E+00 0.99998037E+03</pdfrwt>
<pdfrwt beam="2">  1       -2 0.48937408E-01 0.99998037E+03</pdfrwt>
<totfact> 0.16877577E+02</totfact>
</mgrwt>
</event>
<event>
 9    1  0.4488205E-036  0.9989222E+03  0.7818608E-02  0.8682065E-01
          2   -1    0    0  501    0  0.00000000000E+00  0.00000000000E+00  0.18277434930E+04  0.18277434930E+04  0.00000000000E+00 0.  1.
         -2   -1    0    0    0  501 -0.00000000000E+00 -0.00000000000E+00 -0.13648598574E+03  0.13648598574E+03  0.00000000000E+00 0.  1.
         36    2    1    2    0    0 -0.71054273576E-14 -0.14210854715E-13  0.16912575073E+04  0.19642294788E+04  0.99892216379E+03 0.  0.
         25    2    3    3    0    0 -0.21111603723E+02  0.47793240136E+02  0.62602478712E+02  0.14888366665E+03  0.12456878517E+03 0.  0.
         35    2    3    3    0    0  0.21111603723E+02 -0.47793240136E+02  0.16286550286E+04  0.18153458121E+04  0.80014581289E+03 0.  0.
         22    1    5    5    0    0 -0.55044081295E+02  0.31516456495E+03  0.30982990310E+03  0.44536852464E+03  0.00000000000E+00 0. -1.
         22    1    5    5    0    0  0.76155685018E+02 -0.36295780509E+03  0.13188251255E+04  0.13699772875E+04  0.00000000000E+00 0. -1.
          5    1    4    4  502    0 -0.45555572172E+02  0.54953789042E+02  0.87456596803E+02  0.11298661607E+03  0.47000000000E+01 0.  1.
         -5    1    4    4    0  502  0.24443968449E+02 -0.71605489058E+01 -0.24854118091E+02  0.35897050579E+02  0.47000000000E+01 0.  1.
<mgrwt>
<rscale>  0 0.99892216E+03</rscale>
<asrwt>0</asrwt>
<pdfrwt beam="1">  1        2 0.28119129E+00 0.99892216E+03</pdfrwt>
<pdfrwt beam="2">  1       -2 0.20997845E-01 0.99892216E+03</pdfrwt>
<totfact> 0.19289754E+02</totfact>
</mgrwt>
</event>
<event>
 9    1  0.4488205E-036  0.9983335E+03  0.7818608E-02  0.8682627E-01
          1   -1    0    0  501    0  0.00000000000E+00  0.00000000000E+00  0.42724223938E+04  0.42724223938E+04  0.00000000000E+00 0. -1.
         -1   -1    0    0    0  501 -0.00000000000E+00 -0.00000000000E+00 -0.58319948984E+02  0.58319948984E+02  0.00000000000E+00 0. -1.
         36    2    1    2    0    0  0.00000000000E+00  0.00000000000E+00  0.42141024448E+04  0.43307423428E+04  0.99833352351E+03 0.  0.
         25    2    3    3    0    0 -0.93301403335E+01  0.13287112190E+03  0.94378456439E+03  0.96126311829E+03  0.12472246009E+03 0.  0.
         35    2    3    3    0    0  0.93301403335E+01 -0.13287112190E+03  0.32703178804E+04  0.33694792245E+04  0.80041827733E+03 0.  0.
         22    1    5    5    0    0  0.15665660455E+02  0.54444242874E+02  0.31416047280E+04  0.31421155064E+04  0.00000000000E+00 0.  1.
         22    1    5    5    0    0 -0.63355201213E+01 -0.18731536478E+03  0.12871315240E+03  0.22736371808E+03  0.00000000000E+00 0.  1.
          5    1    4    4  502    0  0.20519945831E+02  0.13170299898E+03  0.53548088791E+03  0.55184111793E+03  0.47000000000E+01 0.  1.
         -5    1    4    4    0  502 -0.29850086164E+02  0.11681229201E+01  0.40830367648E+03  0.40942200037E+03  0.47000000000E+01 0.  1.
<mgrwt>
<rscale>  0 0.99833352E+03</rscale>
<asrwt>0</asrwt>
<pdfrwt beam="1">  1        1 0.65729551E+00 0.99833352E+03</pdfrwt>
<pdfrwt beam="2">  1       -1 0.89723032E-02 0.99833352E+03</pdfrwt>
<totfact> 0.50624312E+00</totfact>
</mgrwt>
</event>
<event>
 9    1  0.4488205E-036  0.1000267E+04  0.7818608E-02  0.8680783E-01
         -2   -1    0    0    0  501 -0.00000000000E+00  0.00000000000E+00  0.27142458669E+03  0.27142458669E+03  0.00000000000E+00 0.  1.
          2   -1    0    0  501    0  0.00000000000E+00 -0.00000000000E+00 -0.92155870270E+03  0.92155870270E+03  0.00000000000E+00 0.  1.
         36    2    1    2    0    0  0.71054273576E-14  0.28421709430E-13 -0.65013411601E+03  0.11929832894E+04  0.10002673442E+04 0.  0.
         25    2    3    3    0    0 -0.31178110561E+02  0.81354936886E+02 -0.24928377089E+03  0.29202169190E+03  0.12467385361E+03 0.  0.
         35    2    3    3    0    0  0.31178110561E+02 -0.81354936886E+02 -0.40085034512E+03  0.90096159749E+03  0.80215964785E+03 0.  0.
         22    1    5    5    0    0  0.28274674513E+03 -0.24380566687E+03  0.31894919080E+02  0.37470549894E+03  0.00000000000E+00 0. -1.
         22    1    5    5    0    0 -0.25156863457E+03  0.16245072998E+03 -0.43274526420E+03  0.52625609855E+03  0.00000000000E+00 0. -1.
          5    1    4    4  502    0 -0.40875630915E+02  0.87284567041E+02 -0.25897109505E+03  0.27636485109E+03  0.47000000000E+01 0.  1.
         -5    1    4    4    0  502  0.96975203538E+01 -0.59296301548E+01  0.96873241562E+01  0.15656840808E+02  0.47000000000E+01 0.  1.
<mgrwt>
<rscale>  0 0.10002673E+04</rscale>
<asrwt>0</asrwt>
<pdfrwt beam="1">  1        2 0.14177826E+00 0.10002673E+04</pdfrwt>
<pdfrwt beam="2">  1       -2 0.41757628E-01 0.10002673E+04</pdfrwt>
<totfact> 0.18640250E+02</totfact>
</mgrwt>
</event>
