<event>
 9    1  0.2065703E-002  0.2749742E+03  0.7818608E-02  0.1098466E+00
          2   -1    0    0  501    0  0.00000000000E+00  0.00000000000E+00  0.12167296014E+04  0.12167296014E+04  0.00000000000E+00 0.  1.
         -2   -1    0    0    0  501 -0.00000000000E+00 -0.00000000000E+00 -0.15535666640E+02  0.15535666640E+02  0.00000000000E+00 0.  1.
         36    2    1    2    0    0  0.00000000000E+00  0.00000000000E+00  0.12011939347E+04  0.12322652680E+04  0.27497422045E+03 0.  0.
         25    2    3    3    0    0  0.13084266349E+02 -0.25921381338E+02  0.48075055159E+03  0.50047839847E+03  0.13606769802E+03 0.  0.
         25    2    3    3    0    0 -0.13084266349E+02  0.25921381338E+02  0.72044338314E+03  0.73178686954E+03  0.12502095058E+03 0.  0.
          5    1    4    4  502    0  0.38189262502E+01 -0.18623076436E+01  0.47314951142E+03  0.47319192992E+03  0.47000000000E+01 0.  1.
         -5    1    4    4    0  502  0.92653400991E+01 -0.24059073694E+02  0.76010401719E+01  0.27286468549E+02  0.47000000000E+01 0.  1.
          5    1    5    5  503    0 -0.50259393570E+02  0.28806485633E+02  0.64387255460E+03  0.64649035323E+03  0.47000000000E+01 0. -1.
         -5    1    5    5    0  503  0.37175127221E+02 -0.28851042954E+01  0.76570828542E+02  0.85296516308E+02  0.47000000000E+01 0. -1.
<mgrwt>
<rscale>  0 0.27497422E+03</rscale>
<asrwt>0</asrwt>
<pdfrwt beam="1">  1        2 0.18718909E+00 0.27497422E+03</pdfrwt>
<pdfrwt beam="2">  1       -2 0.23901035E-02 0.27497422E+03</pdfrwt>
<totfact> 0.11597525E+04</totfact>
</mgrwt>
</event>
<event>
 9    1  0.2065703E-002  0.2758912E+03  0.7818608E-02  0.1097954E+00
          2   -1    0    0  501    0  0.00000000000E+00  0.00000000000E+00  0.18819488439E+04  0.18819488439E+04  0.00000000000E+00 0.  1.
         -2   -1    0    0    0  501 -0.00000000000E+00 -0.00000000000E+00 -0.10111320234E+02  0.10111320234E+02  0.00000000000E+00 0.  1.
         36    2    1    2    0    0 -0.35527136788E-14  0.00000000000E+00  0.18718375236E+04  0.18920601641E+04  0.27589119177E+03 0.  0.
         25    2    3    3    0    0 -0.19223950422E+02 -0.53870500384E+02  0.97187438443E+03  0.98132993719E+03  0.12327625662E+03 0.  0.
         25    2    3    3    0    0  0.19223950422E+02  0.53870500384E+02  0.89996313920E+03  0.91073022690E+03  0.12737465678E+03 0.  0.
          5    1    4    4  502    0  0.45608300883E+02 -0.28498065526E+02  0.23319994897E+03  0.23936700493E+03  0.47000000000E+01 0. -1.
         -5    1    4    4    0  502 -0.64832251306E+02 -0.25372434858E+02  0.73867443545E+03  0.74196293226E+03  0.47000000000E+01 0. -1.
          5    1    5    5  503    0  0.65737198160E+01  0.94764192702E+02  0.55508221668E+03  0.56317122023E+03  0.47000000000E+01 0. -1.
         -5    1    5    5    0  503  0.12650230606E+02 -0.40893692318E+02  0.34488092251E+03  0.34755900667E+03  0.47000000000E+01 0. -1.
<mgrwt>
<rscale>  0 0.27589119E+03</rscale>
<asrwt>0</asrwt>
<pdfrwt beam="1">  1        2 0.28953031E+00 0.27589119E+03</pdfrwt>
<pdfrwt beam="2">  1       -2 0.15555892E-02 0.27589119E+03</pdfrwt>
<totfact> 0.95873016E+03</totfact>
</mgrwt>
</event>
<event>
 9    1  0.2065703E-002  0.2747508E+03  0.7818608E-02  0.1098591E+00
         -2   -1    0    0    0  501 -0.00000000000E+00  0.00000000000E+00  0.21689742646E+02  0.21689742646E+02  0.00000000000E+00 0.  1.
          2   -1    0    0  501    0  0.00000000000E+00 -0.00000000000E+00 -0.87008861367E+03  0.87008861367E+03  0.00000000000E+00 0.  1.
         36    2    1    2    0    0 -0.14210854715E-13  0.35527136788E-14 -0.84839887102E+03  0.89177835632E+03  0.27475078242E+03 0.  0.
         25    2    3    3    0    0  0.51446514780E+02 -0.14002423001E+02 -0.40221721808E+03  0.42496020518E+03  0.12637117447E+03 0.  0.
         25    2    3    3    0    0 -0.51446514780E+02  0.14002423001E+02 -0.44618165295E+03  0.46681815113E+03  0.12648441433E+03 0.  0.
          5    1    4    4  502    0  0.16220500315E+02 -0.50839357181E+02 -0.66644534653E+02  0.85506308938E+02  0.47000000000E+01 0. -1.
         -5    1    4    4    0  502  0.35226014465E+02  0.36836934181E+02 -0.33557268343E+03  0.33945389625E+03  0.47000000000E+01 0. -1.
          5    1    5    5  503    0 -0.10542611865E+02  0.24557720077E+02 -0.10543834131E+02  0.29111693845E+02  0.47000000000E+01 0. -1.
         -5    1    5    5    0  503 -0.40903902915E+02 -0.10555297076E+02 -0.43563781881E+03  0.43770645729E+03  0.47000000000E+01 0. -1.
<mgrwt>
<rscale>  0 0.27475078E+03</rscale>
<asrwt>0</asrwt>
<pdfrwt beam="1">  1        2 0.13385981E+00 0.27475078E+03</pdfrwt>
<pdfrwt beam="2">  1       -2 0.33368830E-02 0.27475078E+03</pdfrwt>
<totfact> 0.11443899E+04</totfact>
</mgrwt>
</event>
<event>
 9    1  0.2065703E-002  0.2733852E+03  0.7818608E-02  0.1099358E+00
          1   -1    0    0  501    0  0.00000000000E+00  0.00000000000E+00  0.78041666620E+02  0.78041666620E+02  0.00000000000E+00 0. -1.
         -1   -1    0    0    0  501 -0.00000000000E+00 -0.00000000000E+00 -0.23942171214E+03  0.23942171214E+03  0.00000000000E+00 0. -1.
         36    2    1    2    0    0 -0.71054273576E-14  0.00000000000E+00 -0.16138004552E+03  0.31746337876E+03  0.27338521862E+03 0.  0.
         25    2    3    3    0    0 -0.13032894774E+02 -0.15197178967E+02 -0.23273343803E+02  0.12893655991E+03  0.12522850057E+03 0.  0.
         25    2    3    3    0    0  0.13032894774E+02  0.15197178967E+02 -0.13810670171E+03  0.18852681885E+03  0.12675996913E+03 0.  0.
          5    1    4    4  502    0 -0.54393595086E+02 -0.43224101180E+02 -0.34196409887E+02  0.77578802248E+02  0.47000000000E+01 0.  1.
         -5    1    4    4    0  502  0.41360700312E+02  0.28026922213E+02  0.10923066083E+02  0.51357757658E+02  0.47000000000E+01 0.  1.
          5    1    5    5  503    0  0.64784834732E+02  0.30528294118E+02 -0.60442768924E+02  0.93832136649E+02  0.47000000000E+01 0. -1.
         -5    1    5    5    0  503 -0.51751939957E+02 -0.15331115151E+02 -0.77663932790E+02  0.94694682203E+02  0.47000000000E+01 0. -1.
<mgrwt>
<rscale>  0 0.27338522E+03</rscale>
<asrwt>0</asrwt>
<pdfrwt beam="1">  1        1 0.12006410E-01 0.27338522E+03</pdfrwt>
<pdfrwt beam="2">  1       -1 0.36834109E-01 0.27338522E+03</pdfrwt>
<totfact> 0.35658878E+03</totfact>
</mgrwt>
</event>
<event>
 9    1  0.2065703E-002  0.2750418E+03  0.7818608E-02  0.1098428E+00
          3   -1    0    0  501    0  0.00000000000E+00  0.00000000000E+00  0.60620248785E+02  0.60620248785E+02  0.00000000000E+00 0. -1.
         -3   -1    0    0    0  501 -0.00000000000E+00 -0.00000000000E+00 -0.31197485812E+03  0.31197485812E+03  0.00000000000E+00 0. -1.
         36    2    1    2    0    0 -0.14210854715E-13  0.35527136788E-14 -0.25135460933E+03  0.37259510690E+03  0.27504176784E+03 0.  0.
         25    2    3    3    0    0 -0.36696397344E+02  0.10785809606E+02 -0.17565306769E+03  0.21996556855E+03  0.12675918858E+03 0.  0.
         25    2    3    3    0    0  0.36696397344E+02 -0.10785809606E+02 -0.75701541639E+02  0.15262953835E+03  0.12689402391E+03 0.  0.
          5    1    4    4  502    0  0.47016231205E+02 -0.25138995270E+01 -0.68645265560E+02  0.83373306108E+02  0.47000000000E+01 0.  1.
         -5    1    4    4    0  502 -0.83712628549E+02  0.13299709133E+02 -0.10700780213E+03  0.13659226244E+03  0.47000000000E+01 0.  1.
          5    1    5    5  503    0  0.27605507203E+01 -0.66054971035E+02 -0.48567359395E+02  0.82169083221E+02  0.47000000000E+01 0. -1.
         -5    1    5    5    0  503  0.33935846624E+02  0.55269161430E+02 -0.27134182243E+02  0.70460455130E+02  0.47000000000E+01 0. -1.
<mgrwt>
<rscale>  0 0.27504177E+03</rscale>
<asrwt>0</asrwt>
<pdfrwt beam="1">  1        3 0.93261922E-02 0.27504177E+03</pdfrwt>
<pdfrwt beam="2">  1       -3 0.47996132E-01 0.27504177E+03</pdfrwt>
<totfact> 0.91340930E+02</totfact>
</mgrwt>
</event>
<event>
 9    1  0.2065703E-002  0.2737048E+03  0.7818608E-02  0.1099178E+00
          2   -1    0    0  501    0  0.00000000000E+00  0.00000000000E+00  0.53204142463E+02  0.53204142463E+02  0.00000000000E+00 0. -1.
         -2   -1    0    0    0  501 -0.00000000000E+00 -0.00000000000E+00 -0.35201350708E+03  0.35201350708E+03  0.00000000000E+00 0. -1.
         36    2    1    2    0    0  0.00000000000E+00 -0.14210854715E-13 -0.29880936462E+03  0.40521764954E+03  0.27370478096E+03 0.  0.
         25    2    3    3    0    0  0.70515311514E+01  0.26476653346E+02 -0.11022731484E+03  0.17156562907E+03  0.12858447370E+03 0.  0.
         25    2    3    3    0    0 -0.70515311514E+01 -0.26476653346E+02 -0.18858204978E+03  0.23365202047E+03  0.13520110913E+03 0.  0.
          5    1    4    4  502    0  0.39956025547E+02 -0.33730840960E+02 -0.15951180474E+02  0.54870609327E+02  0.47000000000E+01 0.  1.
         -5    1    4    4    0  502 -0.32904494396E+02  0.60207494306E+02 -0.94276134368E+02  0.11669501975E+03  0.47000000000E+01 0.  1.
          5    1    5    5  503    0  0.25839793740E+02  0.47583294271E+02 -0.54876014605E+02  0.77235560548E+02  0.47000000000E+01 0.  1.
         -5    1    5    5    0  503 -0.32891324891E+02 -0.74059947617E+02 -0.13370603517E+03  0.15641645992E+03  0.47000000000E+01 0.  1.
<mgrwt>
<rscale>  0 0.27370478E+03</rscale>
<asrwt>0</asrwt>
<pdfrwt beam="1">  1        2 0.81852528E-02 0.27370478E+03</pdfrwt>
<pdfrwt beam="2">  1       -2 0.54155924E-01 0.27370478E+03</pdfrwt>
<totfact> 0.26887115E+03</totfact>
</mgrwt>
</event>
<event>
 9    1  0.2065703E-002  0.2754106E+03  0.7818608E-02  0.1098222E+00
         -4   -1    0    0    0  501 -0.00000000000E+00  0.00000000000E+00  0.21376150781E+04  0.21376150781E+04  0.00000000000E+00 0. -1.
          4   -1    0    0  501    0  0.00000000000E+00 -0.00000000000E+00 -0.88709829378E+01  0.88709829378E+01  0.00000000000E+00 0. -1.
         36    2    1    2    0    0 -0.71054273576E-14  0.71054273576E-14  0.21287440952E+04  0.21464860610E+04  0.27541057994E+03 0.  0.
         25    2    3    3    0    0  0.26583497883E+02 -0.45882203837E+02  0.10727173099E+04  0.10814877348E+04  0.12681259569E+03 0.  0.
         25    2    3    3    0    0 -0.26583497883E+02  0.45882203837E+02  0.10560267852E+04  0.10649983263E+04  0.12734600447E+03 0.  0.
          5    1    4    4  502    0 -0.46856139039E+02 -0.12859890229E+02  0.24270903477E+03  0.24756946521E+03  0.47000000000E+01 0. -1.
         -5    1    4    4    0  502  0.73439636922E+02 -0.33022313608E+02  0.83000827517E+03  0.83391826957E+03  0.47000000000E+01 0. -1.
          5    1    5    5  503    0 -0.34239592332E+01  0.87497738834E+02  0.58320355596E+03  0.58975931996E+03  0.47000000000E+01 0. -1.
         -5    1    5    5    0  503 -0.23159538650E+02 -0.41615534997E+02  0.47282322926E+03  0.47523900630E+03  0.47000000000E+01 0. -1.
<mgrwt>
<rscale>  0 0.27541058E+03</rscale>
<asrwt>0</asrwt>
<pdfrwt beam="1">  1        4 0.13647683E-02 0.27541058E+03</pdfrwt>
<pdfrwt beam="2">  1       -4 0.32886345E+00 0.27541058E+03</pdfrwt>
<totfact> 0.83325476E+01</totfact>
</mgrwt>
</event>
<event>
 9    1  0.2065703E-002  0.2740062E+03  0.7818608E-02  0.1099008E+00
         -1   -1    0    0    0  501 -0.00000000000E+00  0.00000000000E+00  0.10818955020E+03  0.10818955020E+03  0.00000000000E+00 0.  1.
          1   -1    0    0  501    0  0.00000000000E+00 -0.00000000000E+00 -0.17349035425E+03  0.17349035425E+03  0.00000000000E+00 0.  1.
         36    2    1    2    0    0 -0.71054273576E-14  0.35527136788E-14 -0.65300804046E+02  0.28167990445E+03  0.27400615606E+03 0.  0.
         25    2    3    3    0    0 -0.29225948106E+02 -0.19189718997E+02 -0.23526881817E+02  0.13536953049E+03  0.12864289432E+03 0.  0.
         25    2    3    3    0    0  0.29225948106E+02  0.19189718997E+02 -0.41773922229E+02  0.14631037396E+03  0.13579125005E+03 0.  0.
          5    1    4    4  502    0  0.17224757853E+02  0.35704558496E+02 -0.45019446131E+02  0.60169330314E+02  0.47000000000E+01 0.  1.
         -5    1    4    4    0  502 -0.46450705959E+02 -0.54894277494E+02  0.21492564314E+02  0.75200200176E+02  0.47000000000E+01 0.  1.
          5    1    5    5  503    0  0.10176454822E+02  0.57971434530E+01  0.49970956048E+02  0.51539824925E+02  0.47000000000E+01 0. -1.
         -5    1    5    5    0  503  0.19049493284E+02  0.13392575545E+02 -0.91744878277E+02  0.94770549033E+02  0.47000000000E+01 0. -1.
<mgrwt>
<rscale>  0 0.27400616E+03</rscale>
<asrwt>0</asrwt>
<pdfrwt beam="1">  1        1 0.26690824E-01 0.27400616E+03</pdfrwt>
<pdfrwt beam="2">  1       -1 0.16644546E-01 0.27400616E+03</pdfrwt>
<totfact> 0.47493263E+03</totfact>
</mgrwt>
</event>
<event>
 9    1  0.2065703E-002  0.2752754E+03  0.7818608E-02  0.1098298E+00
         -2   -1    0    0    0  501 -0.00000000000E+00  0.00000000000E+00  0.90131186017E+02  0.90131186017E+02  0.00000000000E+00 0. -1.
          2   -1    0    0  501    0  0.00000000000E+00 -0.00000000000E+00 -0.21018400258E+03  0.21018400258E+03  0.00000000000E+00 0. -1.
         36    2    1    2    0    0  0.71054273576E-14 -0.71054273576E-14 -0.12005281656E+03  0.30031518859E+03  0.27527537800E+03 0.  0.
         25    2    3    3    0    0 -0.36802538700E+02  0.13082202285E+02 -0.81394560260E+01  0.12893160396E+03  0.12260316832E+03 0.  0.
         25    2    3    3    0    0  0.36802538700E+02 -0.13082202285E+02 -0.11191336053E+03  0.17138358463E+03  0.12378272071E+03 0.  0.
          5    1    4    4  502    0 -0.54978599894E+02  0.57621041991E+02 -0.10885956558E+02  0.80519717937E+02  0.47000000000E+01 0. -1.
         -5    1    4    4    0  502  0.18176061194E+02 -0.44538839706E+02  0.27465005321E+01  0.48411886020E+02  0.47000000000E+01 0. -1.
          5    1    5    5  503    0  0.55864464166E+02  0.38352058138E+02 -0.88489968809E+02  0.11155394794E+03  0.47000000000E+01 0.  1.
         -5    1    5    5    0  503 -0.19061925467E+02 -0.51434260423E+02 -0.23423391724E+02  0.59829636700E+02  0.47000000000E+01 0.  1.
<mgrwt>
<rscale>  0 0.27527538E+03</rscale>
<asrwt>0</asrwt>
<pdfrwt beam="1">  1        2 0.32336000E-01 0.27527538E+03</pdfrwt>
<pdfrwt beam="2">  1       -2 0.13866337E-01 0.27527538E+03</pdfrwt>
<totfact> 0.62473075E+03</totfact>
</mgrwt>
</event>
<event>
 9    1  0.2065703E-002  0.2748454E+03  0.7818608E-02  0.1098538E+00
          4   -1    0    0  501    0  0.00000000000E+00  0.00000000000E+00  0.10343247531E+03  0.10343247531E+03  0.00000000000E+00 0. -1.
         -4   -1    0    0    0  501 -0.00000000000E+00 -0.00000000000E+00 -0.18258286309E+03  0.18258286309E+03  0.00000000000E+00 0. -1.
         36    2    1    2    0    0  0.00000000000E+00  0.00000000000E+00 -0.79150387779E+02  0.28601533840E+03  0.27484539274E+03 0.  0.
         25    2    3    3    0    0 -0.33102861693E+02 -0.43838499625E+02 -0.14582442774E+02  0.13298013097E+03  0.12022251908E+03 0.  0.
         25    2    3    3    0    0  0.33102861693E+02  0.43838499625E+02 -0.64567945005E+02  0.15303520743E+03  0.12740934695E+03 0.  0.
          5    1    4    4  502    0 -0.10909702941E+02  0.34907706944E+02 -0.32435478260E+02  0.49109264628E+02  0.47000000000E+01 0.  1.
         -5    1    4    4    0  502 -0.22193158752E+02 -0.78746206569E+02  0.17853035486E+02  0.83870866339E+02  0.47000000000E+01 0.  1.
          5    1    5    5  503    0  0.30832778550E+02  0.53727156369E+02  0.21882208211E+02  0.65864926940E+02  0.47000000000E+01 0. -1.
         -5    1    5    5    0  503  0.22700831424E+01 -0.98886567434E+01 -0.86450153217E+02  0.87170280491E+02  0.47000000000E+01 0. -1.
<mgrwt>
<rscale>  0 0.27484539E+03</rscale>
<asrwt>0</asrwt>
<pdfrwt beam="1">  1        4 0.15912689E-01 0.27484539E+03</pdfrwt>
<pdfrwt beam="2">  1       -4 0.28089671E-01 0.27484539E+03</pdfrwt>
<totfact> 0.76712803E+02</totfact>
</mgrwt>
</event>
<event>
 9    1  0.2065703E-002  0.2750043E+03  0.7818608E-02  0.1098449E+00
          1   -1    0    0  501    0  0.00000000000E+00  0.00000000000E+00  0.47663258414E+03  0.47663258414E+03  0.00000000000E+00 0. -1.
         -1   -1    0    0    0  501 -0.00000000000E+00 -0.00000000000E+00 -0.39667546719E+02  0.39667546719E+02  0.00000000000E+00 0. -1.
         36    2    1    2    0    0  0.71054273576E-14 -0.35527136788E-14  0.43696503742E+03  0.51630013086E+03  0.27500432941E+03 0.  0.
         25    2    3    3    0    0  0.43603632718E+02 -0.31317380992E+02  0.24735485341E+03  0.28175279042E+03  0.12376653935E+03 0.  0.
         25    2    3    3    0    0 -0.43603632718E+02  0.31317380992E+02  0.18961018400E+03  0.23454734044E+03  0.12719425258E+03 0.  0.
          5    1    4    4  502    0  0.26206314493E+02 -0.68472580133E+00 -0.48370462628E+01  0.27068926563E+02  0.47000000000E+01 0. -1.
         -5    1    4    4    0  502  0.17397318226E+02 -0.30632655191E+02  0.25219189968E+03  0.25468386386E+03  0.47000000000E+01 0. -1.
          5    1    5    5  503    0 -0.70550610889E+02  0.32003155981E+01  0.43083907863E+02  0.82860991024E+02  0.47000000000E+01 0.  1.
         -5    1    5    5    0  503  0.26946978170E+02  0.28117065394E+02  0.14652627614E+03  0.15168634941E+03  0.47000000000E+01 0.  1.
<mgrwt>
<rscale>  0 0.27500433E+03</rscale>
<asrwt>0</asrwt>
<pdfrwt beam="1">  1        1 0.73328086E-01 0.27500433E+03</pdfrwt>
<pdfrwt beam="2">  1       -1 0.61026998E-02 0.27500433E+03</pdfrwt>
<totfact> 0.62370727E+03</totfact>
</mgrwt>
</event>
<event>
 9    1  0.2065703E-002  0.2763569E+03  0.7818608E-02  0.1097696E+00
          2   -1    0    0  501    0  0.00000000000E+00  0.00000000000E+00  0.46288324970E+03  0.46288324970E+03  0.00000000000E+00 0. -1.
         -2   -1    0    0    0  501 -0.00000000000E+00 -0.00000000000E+00 -0.41248587474E+02  0.41248587474E+02  0.00000000000E+00 0. -1.
         36    2    1    2    0    0  0.00000000000E+00 -0.35527136788E-14  0.42163466223E+03  0.50413183717E+03  0.27635687229E+03 0.  0.
         25    2    3    3    0    0  0.71824722827E+01 -0.27493953227E+02  0.14974046441E+03  0.20245026450E+03  0.13325313332E+03 0.  0.
         25    2    3    3    0    0 -0.71824722827E+01  0.27493953227E+02  0.27189419781E+03  0.30168157268E+03  0.12758452538E+03 0.  0.
          5    1    4    4  502    0 -0.37242863309E+02 -0.58691119765E+02  0.12390235971E+03  0.14214627377E+03  0.47000000000E+01 0. -1.
         -5    1    4    4    0  502  0.44425335591E+02  0.31197166537E+02  0.25838104708E+02  0.60303990724E+02  0.47000000000E+01 0. -1.
          5    1    5    5  503    0 -0.21489206624E+02  0.75708254795E+02  0.18629271331E+03  0.20228838543E+03  0.47000000000E+01 0. -1.
         -5    1    5    5    0  503  0.14306734341E+02 -0.48214301568E+02  0.85601484500E+02  0.99393187250E+02  0.47000000000E+01 0. -1.
<mgrwt>
<rscale>  0 0.27635687E+03</rscale>
<asrwt>0</asrwt>
<pdfrwt beam="1">  1        2 0.71212804E-01 0.27635687E+03</pdfrwt>
<pdfrwt beam="2">  1       -2 0.63459369E-02 0.27635687E+03</pdfrwt>
<totfact> 0.91612583E+03</totfact>
</mgrwt>
</event>
<event>
 9    1  0.2065703E-002  0.2750613E+03  0.7818608E-02  0.1098417E+00
          1   -1    0    0  501    0  0.00000000000E+00  0.00000000000E+00  0.66049323622E+03  0.66049323622E+03  0.00000000000E+00 0. -1.
         -1   -1    0    0    0  501 -0.00000000000E+00 -0.00000000000E+00 -0.28637194415E+02  0.28637194415E+02  0.00000000000E+00 0. -1.
         36    2    1    2    0    0  0.00000000000E+00 -0.35527136788E-14  0.63185604180E+03  0.68913043063E+03  0.27506125293E+03 0.  0.
         25    2    3    3    0    0  0.35732916248E+02  0.95033774479E+01  0.25238793234E+03  0.28684862674E+03  0.13120712931E+03 0.  0.
         25    2    3    3    0    0 -0.35732916248E+02 -0.95033774479E+01  0.37946810946E+03  0.40228180390E+03  0.12832555538E+03 0.  0.
          5    1    4    4  502    0 -0.40431548562E+02  0.29938350550E+02  0.57432285105E+02  0.76495570625E+02  0.47000000000E+01 0.  1.
         -5    1    4    4    0  502  0.76164464810E+02 -0.20434973102E+02  0.19495564724E+03  0.21035305611E+03  0.47000000000E+01 0.  1.
          5    1    5    5  503    0  0.84883506187E-01  0.20475926412E+02  0.34084300564E+03  0.34148984650E+03  0.47000000000E+01 0.  1.
         -5    1    5    5    0  503 -0.35817799754E+02 -0.29979303860E+02  0.38625103815E+02  0.60791957395E+02  0.47000000000E+01 0.  1.
<mgrwt>
<rscale>  0 0.27506125E+03</rscale>
<asrwt>0</asrwt>
<pdfrwt beam="1">  1        1 0.10161433E+00 0.27506125E+03</pdfrwt>
<pdfrwt beam="2">  1       -1 0.44057227E-02 0.27506125E+03</pdfrwt>
<totfact> 0.65097445E+03</totfact>
</mgrwt>
</event>
<event>
 9    1  0.2065703E-002  0.2750383E+03  0.7818608E-02  0.1098430E+00
          2   -1    0    0  501    0  0.00000000000E+00  0.00000000000E+00  0.19087918326E+04  0.19087918326E+04  0.00000000000E+00 0. -1.
         -2   -1    0    0    0  501 -0.00000000000E+00 -0.00000000000E+00 -0.99075845125E+01  0.99075845125E+01  0.00000000000E+00 0. -1.
         36    2    1    2    0    0  0.71054273576E-14  0.00000000000E+00  0.18988842481E+04  0.19186994171E+04  0.27503829841E+03 0.  0.
         25    2    3    3    0    0  0.34480531834E+02 -0.44282708324E+02  0.88106683561E+03  0.89155884031E+03  0.12429212200E+03 0.  0.
         25    2    3    3    0    0 -0.34480531834E+02  0.44282708324E+02  0.10178174124E+04  0.10271405768E+04  0.12615710063E+03 0.  0.
          5    1    4    4  502    0 -0.14011201318E+02 -0.51282585751E+02  0.15704039821E+03  0.16586136992E+03  0.47000000000E+01 0.  1.
         -5    1    4    4    0  502  0.48491733152E+02  0.69998774269E+01  0.72402643741E+03  0.72569747039E+03  0.47000000000E+01 0.  1.
          5    1    5    5  503    0  0.41319299113E+01  0.44538895066E+01 -0.11985532995E+00  0.76820792647E+01  0.47000000000E+01 0.  1.
         -5    1    5    5    0  503 -0.38612461745E+02  0.39828818817E+02  0.10179372678E+04  0.10194584975E+04  0.47000000000E+01 0.  1.
<mgrwt>
<rscale>  0 0.27503830E+03</rscale>
<asrwt>0</asrwt>
<pdfrwt beam="1">  1        2 0.29365999E+00 0.27503830E+03</pdfrwt>
<pdfrwt beam="2">  1       -2 0.15242453E-02 0.27503830E+03</pdfrwt>
<totfact> 0.95615373E+03</totfact>
</mgrwt>
</event>
<event>
 9    1  0.2065703E-002  0.2760495E+03  0.7818608E-02  0.1097866E+00
          2   -1    0    0  501    0  0.00000000000E+00  0.00000000000E+00  0.14372450728E+04  0.14372450728E+04  0.00000000000E+00 0. -1.
         -2   -1    0    0    0  501 -0.00000000000E+00 -0.00000000000E+00 -0.13255098421E+02  0.13255098421E+02  0.00000000000E+00 0. -1.
         36    2    1    2    0    0  0.00000000000E+00  0.00000000000E+00  0.14239899744E+04  0.14505001712E+04  0.27604945133E+03 0.  0.
         25    2    3    3    0    0  0.43716244923E+02 -0.64022997794E+02  0.80464435130E+03  0.81761877357E+03  0.12262900351E+03 0.  0.
         25    2    3    3    0    0 -0.43716244923E+02  0.64022997794E+02  0.61934562307E+03  0.63288139764E+03  0.10459353873E+03 0.  0.
          5    1    4    4  502    0  0.17366733458E+02  0.35184163027E+02  0.30238270467E+03  0.30495396184E+03  0.47000000000E+01 0. -1.
         -5    1    4    4    0  502  0.26349511465E+02 -0.99207160820E+02  0.50226164663E+03  0.51266481173E+03  0.47000000000E+01 0. -1.
          5    1    5    5  503    0 -0.48277020320E+02 -0.84410712560E+01  0.36593562969E+03  0.36923284991E+03  0.47000000000E+01 0. -1.
         -5    1    5    5    0  503  0.45607753973E+01  0.72464069050E+02  0.25340999337E+03  0.26364854772E+03  0.47000000000E+01 0. -1.
<mgrwt>
<rscale>  0 0.27604945E+03</rscale>
<asrwt>0</asrwt>
<pdfrwt beam="1">  1        2 0.22111450E+00 0.27604945E+03</pdfrwt>
<pdfrwt beam="2">  1       -2 0.20392471E-02 0.27604945E+03</pdfrwt>
<totfact> 0.11079803E+04</totfact>
</mgrwt>
</event>
<event>
 9    1  0.2065703E-002  0.2739176E+03  0.7818608E-02  0.1099058E+00
          1   -1    0    0  501    0  0.00000000000E+00  0.00000000000E+00  0.18810154049E+04  0.18810154049E+04  0.00000000000E+00 0.  1.
         -1   -1    0    0    0  501 -0.00000000000E+00 -0.00000000000E+00 -0.99721234780E+01  0.99721234780E+01  0.00000000000E+00 0.  1.
         36    2    1    2    0    0  0.71054273576E-14  0.00000000000E+00  0.18710432814E+04  0.18909875284E+04  0.27391763639E+03 0.  0.
         25    2    3    3    0    0 -0.45898044984E+02 -0.35529434861E+02  0.78392465325E+03  0.79533034954E+03  0.12101046098E+03 0.  0.
         25    2    3    3    0    0  0.45898044984E+02  0.35529434861E+02  0.10871186282E+04  0.10956571788E+04  0.12356686662E+03 0.  0.
          5    1    4    4  502    0 -0.45352791308E+02 -0.78397972213E+02  0.50218395117E+03  0.51030768026E+03  0.47000000000E+01 0.  1.
         -5    1    4    4    0  502 -0.54525367533E+00  0.42868537352E+02  0.28174070208E+03  0.28502266928E+03  0.47000000000E+01 0.  1.
          5    1    5    5  503    0 -0.14591303077E+02 -0.30175284592E+01  0.78312105230E+03  0.78327688856E+03  0.47000000000E+01 0.  1.
         -5    1    5    5    0  503  0.60489348060E+02  0.38546963321E+02  0.30399757588E+03  0.31238029028E+03  0.47000000000E+01 0.  1.
<mgrwt>
<rscale>  0 0.27391764E+03</rscale>
<asrwt>0</asrwt>
<pdfrwt beam="1">  1        1 0.28938670E+00 0.27391764E+03</pdfrwt>
<pdfrwt beam="2">  1       -1 0.15341743E-02 0.27391764E+03</pdfrwt>
<totfact> 0.40711201E+03</totfact>
</mgrwt>
</event>
<event>
 9    1  0.2065703E-002  0.2748718E+03  0.7818608E-02  0.1098523E+00
          2   -1    0    0  501    0  0.00000000000E+00  0.00000000000E+00  0.10660348220E+04  0.10660348220E+04  0.00000000000E+00 0. -1.
         -2   -1    0    0    0  501 -0.00000000000E+00 -0.00000000000E+00 -0.17718587282E+02  0.17718587282E+02  0.00000000000E+00 0. -1.
         36    2    1    2    0    0  0.71054273576E-14  0.35527136788E-14  0.10483162348E+04  0.10837534093E+04  0.27487183224E+03 0.  0.
         25    2    3    3    0    0  0.19851332526E+02 -0.29501908065E+02  0.44093318389E+03  0.46315274300E+03  0.13720041074E+03 0.  0.
         25    2    3    3    0    0 -0.19851332526E+02  0.29501908065E+02  0.60738305087E+03  0.62060066633E+03  0.12233796868E+03 0.  0.
          5    1    4    4  502    0  0.66464493555E+02 -0.44636374399E+02  0.35653679247E+03  0.36544563099E+03  0.47000000000E+01 0. -1.
         -5    1    4    4    0  502 -0.46613161029E+02  0.15134466334E+02  0.84396391421E+02  0.97707112009E+02  0.47000000000E+01 0. -1.
          5    1    5    5  503    0  0.44212233299E+01 -0.19568672325E+02  0.14544689814E+02  0.25221382874E+02  0.47000000000E+01 0.  1.
         -5    1    5    5    0  503 -0.24272555856E+02  0.49070580389E+02  0.59283836106E+03  0.59537928346E+03  0.47000000000E+01 0.  1.
<mgrwt>
<rscale>  0 0.27487183E+03</rscale>
<asrwt>0</asrwt>
<pdfrwt beam="1">  1        2 0.16400531E+00 0.27487183E+03</pdfrwt>
<pdfrwt beam="2">  1       -2 0.27259373E-02 0.27487183E+03</pdfrwt>
<totfact> 0.11671069E+04</totfact>
</mgrwt>
</event>
<event>
 9    1  0.2065703E-002  0.2756599E+03  0.7818608E-02  0.1098083E+00
          2   -1    0    0  501    0  0.00000000000E+00  0.00000000000E+00  0.15853189404E+04  0.15853189404E+04  0.00000000000E+00 0. -1.
         -2   -1    0    0    0  501 -0.00000000000E+00 -0.00000000000E+00 -0.11983133934E+02  0.11983133934E+02  0.00000000000E+00 0. -1.
         36    2    1    2    0    0  0.00000000000E+00 -0.48849813084E-14  0.15733358064E+04  0.15973020743E+04  0.27565985701E+03 0.  0.
         25    2    3    3    0    0  0.49480523934E+02  0.21890519742E+01  0.64256708779E+03  0.65668756483E+03  0.12606736806E+03 0.  0.
         25    2    3    3    0    0 -0.49480523934E+02 -0.21890519742E+01  0.93076871864E+03  0.94061450947E+03  0.12638090692E+03 0.  0.
          5    1    4    4  502    0  0.55213761861E+02 -0.70437878056E+00  0.10217014291E+03  0.11623202550E+03  0.47000000000E+01 0.  1.
         -5    1    4    4    0  502 -0.57332379278E+01  0.28934307547E+01  0.54039694488E+03  0.54045553933E+03  0.47000000000E+01 0.  1.
          5    1    5    5  503    0 -0.67742728902E+02  0.44064957975E+02  0.44670528863E+03  0.45398072947E+03  0.47000000000E+01 0. -1.
         -5    1    5    5    0  503  0.18262204968E+02 -0.46254009949E+02  0.48406343001E+03  0.48663378000E+03  0.47000000000E+01 0. -1.
<mgrwt>
<rscale>  0 0.27565986E+03</rscale>
<asrwt>0</asrwt>
<pdfrwt beam="1">  1        2 0.24389506E+00 0.27565986E+03</pdfrwt>
<pdfrwt beam="2">  1       -2 0.18435603E-02 0.27565986E+03</pdfrwt>
<totfact> 0.10708755E+04</totfact>
</mgrwt>
</event>
<event>
 9    1  0.2065703E-002  0.2688352E+03  0.7818608E-02  0.1101948E+00
          2   -1    0    0  501    0  0.00000000000E+00  0.00000000000E+00  0.46714578761E+03  0.46714578761E+03  0.00000000000E+00 0. -1.
         -2   -1    0    0    0  501 -0.00000000000E+00 -0.00000000000E+00 -0.38677634071E+02  0.38677634071E+02  0.00000000000E+00 0. -1.
         36    2    1    2    0    0 -0.17763568394E-14 -0.35527136788E-14  0.42846815354E+03  0.50582342168E+03  0.26883521965E+03 0.  0.
         25    2    3    3    0    0  0.84105738685E+01  0.27012485751E+02  0.12907168305E+03  0.18066624624E+03  0.12320868892E+03 0.  0.
         25    2    3    3    0    0 -0.84105738685E+01 -0.27012485751E+02  0.29939647049E+03  0.32515717544E+03  0.12364679559E+03 0.  0.
          5    1    4    4  502    0  0.22060786140E+02  0.22569037608E+02 -0.15383903088E+02  0.35423074653E+02  0.47000000000E+01 0. -1.
         -5    1    4    4    0  502 -0.13650212272E+02  0.44434481435E+01  0.14445558613E+03  0.14524317158E+03  0.47000000000E+01 0. -1.
          5    1    5    5  503    0 -0.45924467719E+01  0.41912539180E+02  0.46405600529E+02  0.62875442490E+02  0.47000000000E+01 0.  1.
         -5    1    5    5    0  503 -0.38181270966E+01 -0.68925024931E+02  0.25299086996E+03  0.26228173295E+03  0.47000000000E+01 0.  1.
<mgrwt>
<rscale>  0 0.26883522E+03</rscale>
<asrwt>0</asrwt>
<pdfrwt beam="1">  1        2 0.71868579E-01 0.26883522E+03</pdfrwt>
<pdfrwt beam="2">  1       -2 0.59504056E-02 0.26883522E+03</pdfrwt>
<totfact> 0.10000330E+04</totfact>
</mgrwt>
</event>
<event>
 9    1  0.2065703E-002  0.2741876E+03  0.7818608E-02  0.1098907E+00
         -2   -1    0    0    0  501 -0.00000000000E+00  0.00000000000E+00  0.42376296524E+02  0.42376296524E+02  0.00000000000E+00 0.  1.
          2   -1    0    0  501    0  0.00000000000E+00 -0.00000000000E+00 -0.44351944390E+03  0.44351944390E+03  0.00000000000E+00 0.  1.
         36    2    1    2    0    0 -0.53290705182E-14  0.35527136788E-14 -0.40114314737E+03  0.48589574042E+03  0.27418761072E+03 0.  0.
         25    2    3    3    0    0 -0.71715585491E+00  0.18124992103E+02 -0.29291693222E+03  0.31905682567E+03  0.12517147908E+03 0.  0.
         25    2    3    3    0    0  0.71715585491E+00 -0.18124992103E+02 -0.10822621515E+03  0.16683891475E+03  0.12567131804E+03 0.  0.
          5    1    4    4  502    0  0.12553178386E+01 -0.19620496346E+02  0.32296740199E+01  0.20470967100E+02  0.47000000000E+01 0.  1.
         -5    1    4    4    0  502 -0.19724736935E+01  0.37745488448E+02 -0.29614660624E+03  0.29858585857E+03  0.47000000000E+01 0.  1.
          5    1    5    5  503    0 -0.55163395676E+02  0.17213330528E+02 -0.67762720073E+02  0.89180576372E+02  0.47000000000E+01 0.  1.
         -5    1    5    5    0  503  0.55880551531E+02 -0.35338322630E+02 -0.40463495082E+02  0.77658338381E+02  0.47000000000E+01 0.  1.
<mgrwt>
<rscale>  0 0.27418761E+03</rscale>
<asrwt>0</asrwt>
<pdfrwt beam="1">  1        2 0.68233764E-01 0.27418761E+03</pdfrwt>
<pdfrwt beam="2">  1       -2 0.65194299E-02 0.27418761E+03</pdfrwt>
<totfact> 0.92093975E+03</totfact>
</mgrwt>
</event>
<event>
 9    1  0.2065703E-002  0.2753204E+03  0.7818608E-02  0.1098273E+00
          2   -1    0    0  501    0  0.00000000000E+00  0.00000000000E+00  0.65298292540E+03  0.65298292540E+03  0.00000000000E+00 0. -1.
         -2   -1    0    0    0  501 -0.00000000000E+00 -0.00000000000E+00 -0.29021172621E+02  0.29021172621E+02  0.00000000000E+00 0. -1.
         36    2    1    2    0    0  0.35527136788E-14  0.00000000000E+00  0.62396175278E+03  0.68200409802E+03  0.27532039661E+03 0.  0.
         25    2    3    3    0    0 -0.60876039993E+01 -0.53099235037E+02  0.24501904721E+03  0.28035762545E+03  0.12533745239E+03 0.  0.
         25    2    3    3    0    0  0.60876039993E+01  0.53099235037E+02  0.37894270557E+03  0.40164647257E+03  0.12192508821E+03 0.  0.
          5    1    4    4  502    0 -0.39724885493E+02 -0.57634962486E+02  0.23411205724E+03  0.24439803758E+03  0.47000000000E+01 0.  1.
         -5    1    4    4    0  502  0.33637281493E+02  0.45357274482E+01  0.10906989963E+02  0.35959587870E+02  0.47000000000E+01 0.  1.
          5    1    5    5  503    0  0.31764634530E+02 -0.12949975720E+02  0.26590426586E+03  0.26814895577E+03  0.47000000000E+01 0.  1.
         -5    1    5    5    0  503 -0.25677030531E+02  0.66049210757E+02  0.11303843971E+03  0.13349751680E+03  0.47000000000E+01 0.  1.
<mgrwt>
<rscale>  0 0.27532040E+03</rscale>
<asrwt>0</asrwt>
<pdfrwt beam="1">  1        2 0.10045890E+00 0.27532040E+03</pdfrwt>
<pdfrwt beam="2">  1       -2 0.44647963E-02 0.27532040E+03</pdfrwt>
<totfact> 0.10571661E+04</totfact>
</mgrwt>
</event>
<event>
 8    1  0.2065703E-002  0.2525517E+03  0.7818608E-02  0.1111703E+00
         -1   -1    0    0    0  501 -0.00000000000E+00  0.00000000000E+00  0.17957980953E+03  0.17957980953E+03  0.00000000000E+00 0.  1.
          1   -1    0    0  501    0  0.00000000000E+00 -0.00000000000E+00 -0.88793889955E+02  0.88793889955E+02  0.00000000000E+00 0.  1.
         25    2    1    2    0    0  0.21390851123E+02 -0.17231252609E+02 -0.33126456888E+02  0.87259637142E+02  0.75910457448E+02 0.  0.
         25    2    1    2    0    0 -0.21390851123E+02  0.17231252609E+02  0.12391237647E+03  0.18111406235E+03  0.12920349051E+03 0.  0.
          5    1    3    3  502    0  0.15831995211E+02  0.25843293114E+02 -0.30871297283E+02  0.43516144904E+02  0.47000000000E+01 0. -1.
         -5    1    3    3    0  502  0.55588559120E+01 -0.43074545723E+02 -0.22551596050E+01  0.43743492238E+02  0.47000000000E+01 0. -1.
          5    1    4    4  503    0  0.52371637303E+02  0.14326472755E+02  0.32240659273E+02  0.63321294410E+02  0.47000000000E+01 0. -1.
         -5    1    4    4    0  503 -0.73762488426E+02  0.29047798541E+01  0.91671717195E+02  0.11779276794E+03  0.47000000000E+01 0. -1.
<mgrwt>
<rscale>  0 0.25255170E+03</rscale>
<asrwt>0</asrwt>
<pdfrwt beam="1">  1        1 0.13660598E-01 0.25255170E+03</pdfrwt>
<pdfrwt beam="2">  1       -1 0.27627663E-01 0.25255170E+03</pdfrwt>
<totfact> 0.49088909E+03</totfact>
</mgrwt>
</event>
<event>
 9    1  0.2065703E-002  0.2746424E+03  0.7818608E-02  0.1098652E+00
          1   -1    0    0  501    0  0.00000000000E+00  0.00000000000E+00  0.10947953397E+03  0.10947953397E+03  0.00000000000E+00 0.  1.
         -1   -1    0    0    0  501 -0.00000000000E+00 -0.00000000000E+00 -0.17224329459E+03  0.17224329459E+03  0.00000000000E+00 0.  1.
         36    2    1    2    0    0  0.00000000000E+00  0.71054273576E-14 -0.62763760615E+02  0.28172282856E+03  0.27464242660E+03 0.  0.
         25    2    3    3    0    0  0.21378946797E+02  0.35701873873E+02  0.90423533559E+01  0.13213834438E+03  0.12508834773E+03 0.  0.
         25    2    3    3    0    0 -0.21378946797E+02 -0.35701873873E+02 -0.71806113971E+02  0.14958448418E+03  0.12444965545E+03 0.  0.
          5    1    4    4  502    0  0.33893176223E+02  0.44749275533E+02  0.57840710220E+02  0.80739598798E+02  0.47000000000E+01 0. -1.
         -5    1    4    4    0  502 -0.12514229426E+02 -0.90474016593E+01 -0.48798356864E+02  0.51398745584E+02  0.47000000000E+01 0. -1.
          5    1    5    5  503    0  0.17528636697E+02  0.10192156469E+02  0.26826051852E+02  0.33953795310E+02  0.47000000000E+01 0.  1.
         -5    1    5    5    0  503 -0.38907583494E+02 -0.45894030343E+02 -0.98632165823E+02  0.11563068887E+03  0.47000000000E+01 0.  1.
<mgrwt>
<rscale>  0 0.27464243E+03</rscale>
<asrwt>0</asrwt>
<pdfrwt beam="1">  1        1 0.16843005E-01 0.27464243E+03</pdfrwt>
<pdfrwt beam="2">  1       -1 0.26498968E-01 0.27464243E+03</pdfrwt>
<totfact> 0.40126821E+03</totfact>
</mgrwt>
</event>
<event>
 9    1  0.2065703E-002  0.2740358E+03  0.7818608E-02  0.1098992E+00
         -1   -1    0    0    0  501 -0.00000000000E+00  0.00000000000E+00  0.78671560725E+02  0.78671560725E+02  0.00000000000E+00 0. -1.
          1   -1    0    0  501    0  0.00000000000E+00 -0.00000000000E+00 -0.23863645823E+03  0.23863645823E+03  0.00000000000E+00 0. -1.
         36    2    1    2    0    0  0.00000000000E+00  0.00000000000E+00 -0.15996489751E+03  0.31730801896E+03  0.27403578317E+03 0.  0.
         25    2    3    3    0    0 -0.40792669842E+02 -0.36392966998E-01 -0.12030023384E+03  0.17945296729E+03  0.12675637250E+03 0.  0.
         25    2    3    3    0    0  0.40792669842E+02  0.36392966998E-01 -0.39664663667E+02  0.13785505167E+03  0.12556546694E+03 0.  0.
          5    1    4    4  502    0 -0.79739235561E+02 -0.21645093393E+02 -0.51872312338E+02  0.97671298462E+02  0.47000000000E+01 0.  1.
         -5    1    4    4    0  502  0.38946565719E+02  0.21608700426E+02 -0.68427921501E+02  0.81781668828E+02  0.47000000000E+01 0.  1.
          5    1    5    5  503    0  0.24512598275E+02  0.43572736518E+02  0.26562993685E+02  0.56807864556E+02  0.47000000000E+01 0. -1.
         -5    1    5    5    0  503  0.16280071567E+02 -0.43536343551E+02 -0.66227657353E+02  0.81047187110E+02  0.47000000000E+01 0. -1.
<mgrwt>
<rscale>  0 0.27403578E+03</rscale>
<asrwt>0</asrwt>
<pdfrwt beam="1">  1        1 0.36713301E-01 0.27403578E+03</pdfrwt>
<pdfrwt beam="2">  1       -1 0.12103317E-01 0.27403578E+03</pdfrwt>
<totfact> 0.52574706E+03</totfact>
</mgrwt>
</event>
<event>
 9    1  0.2065703E-002  0.2749956E+03  0.7818608E-02  0.1098454E+00
         -1   -1    0    0    0  501 -0.00000000000E+00  0.00000000000E+00  0.99603899711E+01  0.99603899711E+01  0.00000000000E+00 0. -1.
          1   -1    0    0  501    0  0.00000000000E+00 -0.00000000000E+00 -0.18980829034E+04  0.18980829034E+04  0.00000000000E+00 0. -1.
         36    2    1    2    0    0  0.17763568394E-14 -0.14210854715E-13 -0.18881225134E+04  0.19080432934E+04  0.27499560662E+03 0.  0.
         25    2    3    3    0    0  0.79477195778E+01  0.73541709091E+02 -0.87868939217E+03  0.88920355736E+03  0.11452671866E+03 0.  0.
         25    2    3    3    0    0 -0.79477195778E+01 -0.73541709091E+02 -0.10094331212E+04  0.10188397360E+04  0.11665175592E+03 0.  0.
          5    1    4    4  502    0 -0.38855259866E+02  0.92868100548E+01 -0.53055658343E+03  0.53207927443E+03  0.47000000000E+01 0.  1.
         -5    1    4    4    0  502  0.46802979444E+02  0.64254899036E+02 -0.34813280875E+03  0.35712428293E+03  0.47000000000E+01 0.  1.
          5    1    5    5  503    0  0.52898898682E+01  0.31425034633E+02 -0.22956292980E+03  0.23181187303E+03  0.47000000000E+01 0. -1.
         -5    1    5    5    0  503 -0.13237609446E+02 -0.10496674372E+03 -0.77987019143E+03  0.78702786296E+03  0.47000000000E+01 0. -1.
<mgrwt>
<rscale>  0 0.27499561E+03</rscale>
<asrwt>0</asrwt>
<pdfrwt beam="1">  1        1 0.29201269E+00 0.27499561E+03</pdfrwt>
<pdfrwt beam="2">  1       -1 0.15323680E-02 0.27499561E+03</pdfrwt>
<totfact> 0.39753732E+03</totfact>
</mgrwt>
</event>
<event>
 9    1  0.2065703E-002  0.2751857E+03  0.7818608E-02  0.1098348E+00
          1   -1    0    0  501    0  0.00000000000E+00  0.00000000000E+00  0.16136316358E+04  0.16136316358E+04  0.00000000000E+00 0. -1.
         -1   -1    0    0    0  501 -0.00000000000E+00 -0.00000000000E+00 -0.11732412131E+02  0.11732412131E+02  0.00000000000E+00 0. -1.
         36    2    1    2    0    0  0.71054273576E-14  0.00000000000E+00  0.16018992236E+04  0.16253640479E+04  0.27518569278E+03 0.  0.
         25    2    3    3    0    0  0.39287478011E+02  0.28978349448E+02  0.67847682577E+03  0.69233190155E+03  0.12887749271E+03 0.  0.
         25    2    3    3    0    0 -0.39287478011E+02 -0.28978349448E+02  0.92342239787E+03  0.93303214636E+03  0.12432542210E+03 0.  0.
          5    1    4    4  502    0  0.64439312022E+02 -0.26446440718E+02  0.25137574383E+03  0.26089019480E+03  0.47000000000E+01 0.  1.
         -5    1    4    4    0  502 -0.25151834011E+02  0.55424790166E+02  0.42710108195E+03  0.43144170675E+03  0.47000000000E+01 0.  1.
          5    1    5    5  503    0 -0.59449802597E+02  0.21950781117E+02  0.70264870213E+03  0.70551640975E+03  0.47000000000E+01 0.  1.
         -5    1    5    5    0  503  0.20162324587E+02 -0.50929130565E+02  0.22077369574E+03  0.22751573661E+03  0.47000000000E+01 0.  1.
<mgrwt>
<rscale>  0 0.27518569E+03</rscale>
<asrwt>0</asrwt>
<pdfrwt beam="1">  1        1 0.24825085E+00 0.27518569E+03</pdfrwt>
<pdfrwt beam="2">  1       -1 0.18049878E-02 0.27518569E+03</pdfrwt>
<totfact> 0.47977172E+03</totfact>
</mgrwt>
</event>
<event>
 9    1  0.2065703E-002  0.2752288E+03  0.7818608E-02  0.1098324E+00
          2   -1    0    0  501    0  0.00000000000E+00  0.00000000000E+00  0.41524775610E+03  0.41524775610E+03  0.00000000000E+00 0.  1.
         -2   -1    0    0    0  501 -0.00000000000E+00 -0.00000000000E+00 -0.45605834381E+02  0.45605834381E+02  0.00000000000E+00 0.  1.
         36    2    1    2    0    0 -0.17763568394E-14  0.00000000000E+00  0.36964192172E+03  0.46085359048E+03  0.27522878041E+03 0.  0.
         25    2    3    3    0    0 -0.14498864067E+02 -0.29709919717E+02  0.23861630912E+03  0.27678033880E+03  0.13629642907E+03 0.  0.
         25    2    3    3    0    0  0.14498864067E+02  0.29709919717E+02  0.13102561259E+03  0.18407325168E+03  0.12498941731E+03 0.  0.
          5    1    4    4  502    0  0.21679262619E+02 -0.18966287581E+02 -0.55170333609E+01  0.29702493994E+02  0.47000000000E+01 0. -1.
         -5    1    4    4    0  502 -0.36178126686E+02 -0.10743632136E+02  0.24413334248E+03  0.24707784481E+03  0.47000000000E+01 0. -1.
          5    1    5    5  503    0  0.13584758625E+01 -0.48593764147E+02  0.39475284899E+02  0.62797989526E+02  0.47000000000E+01 0.  1.
         -5    1    5    5    0  503  0.13140388204E+02  0.78303683865E+02  0.91550327695E+02  0.12127526215E+03  0.47000000000E+01 0.  1.
<mgrwt>
<rscale>  0 0.27522878E+03</rscale>
<asrwt>0</asrwt>
<pdfrwt beam="1">  1        2 0.63884268E-01 0.27522878E+03</pdfrwt>
<pdfrwt beam="2">  1       -2 0.70162825E-02 0.27522878E+03</pdfrwt>
<totfact> 0.88373314E+03</totfact>
</mgrwt>
</event>
<event>
 9    1  0.2065703E-002  0.2714725E+03  0.7818608E-02  0.1100440E+00
         -2   -1    0    0    0  501 -0.00000000000E+00  0.00000000000E+00  0.16781448065E+03  0.16781448065E+03  0.00000000000E+00 0.  1.
          2   -1    0    0  501    0  0.00000000000E+00 -0.00000000000E+00 -0.10978984470E+03  0.10978984470E+03  0.00000000000E+00 0.  1.
         36    2    1    2    0    0 -0.71054273576E-14 -0.21316282073E-13  0.58024635951E+02  0.27760432535E+03  0.27147247204E+03 0.  0.
         25    2    3    3    0    0 -0.17846944877E+02 -0.37540081257E+02  0.52914536546E+01  0.13059112483E+03  0.12368618056E+03 0.  0.
         25    2    3    3    0    0  0.17846944877E+02  0.37540081257E+02  0.52733182296E+02  0.14701320052E+03  0.13078349082E+03 0.  0.
          5    1    4    4  502    0  0.37508488797E+02 -0.35911683357E+02 -0.34248713104E+02  0.62382690569E+02  0.47000000000E+01 0. -1.
         -5    1    4    4    0  502 -0.55355433674E+02 -0.16283979000E+01  0.39540166759E+02  0.68208434260E+02  0.47000000000E+01 0. -1.
          5    1    5    5  503    0  0.40528199407E+02 -0.38769127163E+02  0.12337774711E+02  0.57618494019E+02  0.47000000000E+01 0. -1.
         -5    1    5    5    0  503 -0.22681254530E+02  0.76309208421E+02  0.40395407585E+02  0.89394706503E+02  0.47000000000E+01 0. -1.
<mgrwt>
<rscale>  0 0.27147247E+03</rscale>
<asrwt>0</asrwt>
<pdfrwt beam="1">  1        2 0.16890745E-01 0.27147247E+03</pdfrwt>
<pdfrwt beam="2">  1       -2 0.25817613E-01 0.27147247E+03</pdfrwt>
<totfact> 0.45101665E+03</totfact>
</mgrwt>
</event>
<event>
 9    1  0.2065703E-002  0.2776955E+03  0.7818608E-02  0.1096954E+00
         -2   -1    0    0    0  501 -0.00000000000E+00  0.00000000000E+00  0.79325103424E+02  0.79325103424E+02  0.00000000000E+00 0.  1.
          2   -1    0    0  501    0  0.00000000000E+00 -0.00000000000E+00 -0.24303408152E+03  0.24303408152E+03  0.00000000000E+00 0.  1.
         36    2    1    2    0    0 -0.35527136788E-14 -0.35527136788E-14 -0.16370897809E+03  0.32235918494E+03  0.27769554301E+03 0.  0.
         25    2    3    3    0    0 -0.16810447661E+02 -0.43410514087E+01 -0.15365576000E+03  0.19581802330E+03  0.12013812796E+03 0.  0.
         25    2    3    3    0    0  0.16810447661E+02  0.43410514087E+01 -0.10053218092E+02  0.12654116164E+03  0.12494063598E+03 0.  0.
          5    1    4    4  502    0 -0.43763329814E+01 -0.35150337880E+02  0.27647780199E+01  0.35838980747E+02  0.47000000000E+01 0. -1.
         -5    1    4    4    0  502 -0.12434114679E+02  0.30809286472E+02 -0.15642053802E+03  0.15997904255E+03  0.47000000000E+01 0. -1.
          5    1    5    5  503    0 -0.27618807311E+02 -0.30855718565E+02  0.34650418938E+02  0.54199773229E+02  0.47000000000E+01 0.  1.
         -5    1    5    5    0  503  0.44429254972E+02  0.35196769974E+02 -0.44703637030E+02  0.72341388414E+02  0.47000000000E+01 0.  1.
<mgrwt>
<rscale>  0 0.27769554E+03</rscale>
<asrwt>0</asrwt>
<pdfrwt beam="1">  1        2 0.37389858E-01 0.27769554E+03</pdfrwt>
<pdfrwt beam="2">  1       -2 0.12203862E-01 0.27769554E+03</pdfrwt>
<totfact> 0.65704461E+03</totfact>
</mgrwt>
</event>
<event>
 9    1  0.2065703E-002  0.2753257E+03  0.7818608E-02  0.1098270E+00
          2   -1    0    0  501    0  0.00000000000E+00  0.00000000000E+00  0.19190113443E+03  0.19190113443E+03  0.00000000000E+00 0. -1.
         -2   -1    0    0    0  501 -0.00000000000E+00 -0.00000000000E+00 -0.98754255912E+02  0.98754255912E+02  0.00000000000E+00 0. -1.
         36    2    1    2    0    0 -0.17763568394E-14  0.00000000000E+00  0.93146878513E+02  0.29065539034E+03  0.27532565256E+03 0.  0.
         25    2    3    3    0    0  0.27851238961E+00  0.59728075460E+02  0.58577410377E+02  0.15071358027E+03  0.12536247326E+03 0.  0.
         25    2    3    3    0    0 -0.27851238961E+00 -0.59728075460E+02  0.34569468137E+02  0.13994181007E+03  0.12174211068E+03 0.  0.
          5    1    4    4  502    0  0.38688329327E+02  0.79005294109E+02  0.61413269815E+02  0.10738856100E+03  0.47000000000E+01 0. -1.
         -5    1    4    4    0  502 -0.38409816937E+02 -0.19277218650E+02 -0.28358594383E+01  0.43325019270E+02  0.47000000000E+01 0. -1.
          5    1    5    5  503    0 -0.87124266868E+01  0.47147846411E+01 -0.39672215821E+02  0.41159570954E+02  0.47000000000E+01 0.  1.
         -5    1    5    5    0  503  0.84339142971E+01 -0.64442860101E+02  0.74241683957E+02  0.98782239118E+02  0.47000000000E+01 0.  1.
<mgrwt>
<rscale>  0 0.27532565E+03</rscale>
<asrwt>0</asrwt>
<pdfrwt beam="1">  1        2 0.29523251E-01 0.27532565E+03</pdfrwt>
<pdfrwt beam="2">  1       -2 0.15192963E-01 0.27532565E+03</pdfrwt>
<totfact> 0.59380636E+03</totfact>
</mgrwt>
</event>
<event>
 9    1  0.2065703E-002  0.2743038E+03  0.7818608E-02  0.1098841E+00
         -2   -1    0    0    0  501 -0.00000000000E+00  0.00000000000E+00  0.20935141754E+02  0.20935141754E+02  0.00000000000E+00 0. -1.
          2   -1    0    0  501    0  0.00000000000E+00 -0.00000000000E+00 -0.89852022874E+03  0.89852022874E+03  0.00000000000E+00 0. -1.
         36    2    1    2    0    0 -0.35527136788E-14  0.00000000000E+00 -0.87758508698E+03  0.91945537049E+03  0.27430383415E+03 0.  0.
         25    2    3    3    0    0  0.29660001696E+02  0.33348144829E+02 -0.37674609322E+03  0.40144374365E+03  0.13125412791E+03 0.  0.
         25    2    3    3    0    0 -0.29660001696E+02 -0.33348144829E+02 -0.50083899377E+03  0.51801162685E+03  0.12451720126E+03 0.  0.
          5    1    4    4  502    0 -0.23039817137E+02 -0.26284333558E+01 -0.49377856096E+01  0.24170510179E+02  0.47000000000E+01 0. -1.
         -5    1    4    4    0  502  0.52699818833E+02  0.35976578185E+02 -0.37180830761E+03  0.37727323347E+03  0.47000000000E+01 0. -1.
          5    1    5    5  503    0 -0.45811510304E+02 -0.21106502726E+02 -0.68626307354E+02  0.85298528679E+02  0.47000000000E+01 0. -1.
         -5    1    5    5    0  503  0.16151508608E+02 -0.12241642102E+02 -0.43221268641E+03  0.43271309817E+03  0.47000000000E+01 0. -1.
<mgrwt>
<rscale>  0 0.27430383E+03</rscale>
<asrwt>0</asrwt>
<pdfrwt beam="1">  1        2 0.13823393E+00 0.27430383E+03</pdfrwt>
<pdfrwt beam="2">  1       -2 0.32207900E-02 0.27430383E+03</pdfrwt>
<totfact> 0.11560167E+04</totfact>
</mgrwt>
</event>
<event>
 9    1  0.2065703E-002  0.2750320E+03  0.7818608E-02  0.1098434E+00
          2   -1    0    0  501    0  0.00000000000E+00  0.00000000000E+00  0.11042476316E+04  0.11042476316E+04  0.00000000000E+00 0. -1.
         -2   -1    0    0    0  501 -0.00000000000E+00 -0.00000000000E+00 -0.17125376388E+02  0.17125376388E+02  0.00000000000E+00 0. -1.
         36    2    1    2    0    0  0.00000000000E+00 -0.14210854715E-13  0.10871222553E+04  0.11213730080E+04  0.27503204408E+03 0.  0.
         25    2    3    3    0    0 -0.52100192518E+02 -0.55569357770E+02  0.58370687791E+03  0.60258965115E+03  0.12883394263E+03 0.  0.
         25    2    3    3    0    0  0.52100192518E+02  0.55569357770E+02  0.50341537735E+03  0.51878335688E+03  0.99532636073E+02 0.  0.
          5    1    4    4  502    0 -0.73106551071E+02 -0.13974750373E+02  0.16261245389E+03  0.17889874683E+03  0.47000000000E+01 0.  1.
         -5    1    4    4    0  502  0.21006358553E+02 -0.41594607397E+02  0.42109442402E+03  0.42369090432E+03  0.47000000000E+01 0.  1.
          5    1    5    5  503    0  0.31141348702E+02  0.46999855158E+01  0.35773206925E+02  0.47892439868E+02  0.47000000000E+01 0. -1.
         -5    1    5    5    0  503  0.20958843816E+02  0.50869372254E+02  0.46764217043E+03  0.47089091702E+03  0.47000000000E+01 0. -1.
<mgrwt>
<rscale>  0 0.27503204E+03</rscale>
<asrwt>0</asrwt>
<pdfrwt beam="1">  1        2 0.16988419E+00 0.27503204E+03</pdfrwt>
<pdfrwt beam="2">  1       -2 0.26346742E-02 0.27503204E+03</pdfrwt>
<totfact> 0.11653990E+04</totfact>
</mgrwt>
</event>
<event>
 9    1  0.2065703E-002  0.2742451E+03  0.7818608E-02  0.1098874E+00
          2   -1    0    0  501    0  0.00000000000E+00  0.00000000000E+00  0.25836370576E+02  0.25836370576E+02  0.00000000000E+00 0. -1.
         -2   -1    0    0    0  501 -0.00000000000E+00 -0.00000000000E+00 -0.72775687307E+03  0.72775687307E+03  0.00000000000E+00 0. -1.
         36    2    1    2    0    0  0.00000000000E+00  0.00000000000E+00 -0.70192050249E+03  0.75359324364E+03  0.27424511855E+03 0.  0.
         25    2    3    3    0    0 -0.22084749930E+02 -0.42707012716E+02 -0.28849699027E+03  0.31896143703E+03  0.12725666901E+03 0.  0.
         25    2    3    3    0    0  0.22084749930E+02  0.42707012716E+02 -0.41342351223E+03  0.43463180661E+03  0.12519657241E+03 0.  0.
          5    1    4    4  502    0 -0.40164044023E+02 -0.18260151773E+02 -0.19934148781E+02  0.48641996903E+02  0.47000000000E+01 0.  1.
         -5    1    4    4    0  502  0.18079294093E+02 -0.24446860943E+02 -0.26856284149E+03  0.27031944013E+03  0.47000000000E+01 0.  1.
          5    1    5    5  503    0 -0.27659426540E+02 -0.32877157990E+02 -0.14704784833E+03  0.15326810200E+03  0.47000000000E+01 0.  1.
         -5    1    5    5    0  503  0.49744176470E+02  0.75584170707E+02 -0.26637566390E+03  0.28136370461E+03  0.47000000000E+01 0.  1.
<mgrwt>
<rscale>  0 0.27424512E+03</rscale>
<asrwt>0</asrwt>
<pdfrwt beam="1">  1        2 0.39748265E-02 0.27424512E+03</pdfrwt>
<pdfrwt beam="2">  1       -2 0.11196259E+00 0.27424512E+03</pdfrwt>
<totfact> 0.14024212E+03</totfact>
</mgrwt>
</event>
<event>
 9    1  0.2065703E-002  0.2726530E+03  0.7818608E-02  0.1099771E+00
          1   -1    0    0  501    0  0.00000000000E+00  0.00000000000E+00  0.19866844892E+04  0.19866844892E+04  0.00000000000E+00 0.  1.
         -1   -1    0    0    0  501 -0.00000000000E+00 -0.00000000000E+00 -0.93547414829E+01  0.93547414829E+01  0.00000000000E+00 0.  1.
         36    2    1    2    0    0  0.13322676296E-14  0.71054273576E-14  0.19773297478E+04  0.19960392307E+04  0.27265303816E+03 0.  0.
         25    2    3    3    0    0  0.19056306582E+01  0.41037841766E+02  0.86680654874E+03  0.87750223600E+03  0.13026452072E+03 0.  0.
         25    2    3    3    0    0 -0.19056306582E+01 -0.41037841766E+02  0.11105231990E+04  0.11185369947E+04  0.12718292781E+03 0.  0.
          5    1    4    4  502    0 -0.22323501407E+00 -0.44794321235E+02  0.19054706749E+03  0.19579799789E+03  0.47000000000E+01 0. -1.
         -5    1    4    4    0  502  0.21288656722E+01  0.85832163001E+02  0.67625948125E+03  0.68170423811E+03  0.47000000000E+01 0. -1.
          5    1    5    5  503    0 -0.59932481148E+02 -0.39096045296E+02  0.47974695850E+03  0.48507693951E+03  0.47000000000E+01 0.  1.
         -5    1    5    5    0  503  0.58026850490E+02 -0.19417964705E+01  0.63077624052E+03  0.63346005521E+03  0.47000000000E+01 0.  1.
<mgrwt>
<rscale>  0 0.27265304E+03</rscale>
<asrwt>0</asrwt>
<pdfrwt beam="1">  1        1 0.30564343E+00 0.27265304E+03</pdfrwt>
<pdfrwt beam="2">  1       -1 0.14391926E-02 0.27265304E+03</pdfrwt>
<totfact> 0.38152973E+03</totfact>
</mgrwt>
</event>
<event>
 9    1  0.2065703E-002  0.2844426E+03  0.7818608E-02  0.1093287E+00
          1   -1    0    0  501    0  0.00000000000E+00  0.00000000000E+00  0.26016163069E+02  0.26016163069E+02  0.00000000000E+00 0.  1.
         -1   -1    0    0    0  501 -0.00000000000E+00 -0.00000000000E+00 -0.77747405272E+03  0.77747405272E+03  0.00000000000E+00 0.  1.
         36    2    1    2    0    0 -0.71054273576E-14  0.71054273576E-14 -0.75145788965E+03  0.80349021579E+03  0.28444255474E+03 0.  0.
         25    2    3    3    0    0  0.37148019316E+02  0.56986458540E+02 -0.47458613376E+03  0.49267216507E+03  0.11343029613E+03 0.  0.
         25    2    3    3    0    0 -0.37148019316E+02 -0.56986458540E+02 -0.27687175589E+03  0.31081805071E+03  0.12378392321E+03 0.  0.
          5    1    4    4  502    0 -0.33579712997E+02  0.42435835404E+02 -0.27644877470E+03  0.28173464871E+03  0.47000000000E+01 0.  1.
         -5    1    4    4    0  502  0.70727732314E+02  0.14550623137E+02 -0.19813735906E+03  0.21093751636E+03  0.47000000000E+01 0.  1.
          5    1    5    5  503    0 -0.21051835573E+02  0.37345479531E+02 -0.61692573522E+02  0.75272360466E+02  0.47000000000E+01 0.  1.
         -5    1    5    5    0  503 -0.16096183743E+02 -0.94331938072E+02 -0.21517918236E+03  0.23554569025E+03  0.47000000000E+01 0.  1.
<mgrwt>
<rscale>  0 0.28444255E+03</rscale>
<asrwt>0</asrwt>
<pdfrwt beam="1">  1        1 0.40024862E-02 0.28444255E+03</pdfrwt>
<pdfrwt beam="2">  1       -1 0.11961141E+00 0.28444255E+03</pdfrwt>
<totfact> 0.15147027E+03</totfact>
</mgrwt>
</event>
<event>
 9    1  0.2065703E-002  0.2745207E+03  0.7818608E-02  0.1098720E+00
          1   -1    0    0  501    0  0.00000000000E+00  0.00000000000E+00  0.37853889699E+03  0.37853889699E+03  0.00000000000E+00 0. -1.
         -1   -1    0    0    0  501 -0.00000000000E+00 -0.00000000000E+00 -0.49771382461E+02  0.49771382461E+02  0.00000000000E+00 0. -1.
         36    2    1    2    0    0  0.00000000000E+00 -0.71054273576E-14  0.32876751453E+03  0.42831027945E+03  0.27452070391E+03 0.  0.
         25    2    3    3    0    0 -0.16576450521E+02  0.18679542576E+02  0.95373555603E+02  0.16124304284E+03  0.12759114285E+03 0.  0.
         25    2    3    3    0    0  0.16576450521E+02 -0.18679542576E+02  0.23339395892E+03  0.26706723661E+03  0.12739099177E+03 0.  0.
          5    1    4    4  502    0 -0.41525551328E+01  0.65028946654E+02  0.92098188885E+02  0.11291666845E+03  0.47000000000E+01 0.  1.
         -5    1    4    4    0  502 -0.12423895388E+02 -0.46349404077E+02  0.32753667178E+01  0.48326374394E+02  0.47000000000E+01 0.  1.
          5    1    5    5  503    0  0.47492911118E+02  0.38641925655E+02  0.84235411947E+02  0.10424236016E+03  0.47000000000E+01 0. -1.
         -5    1    5    5    0  503 -0.30916460597E+02 -0.57321468232E+02  0.14915854698E+03  0.16282487645E+03  0.47000000000E+01 0. -1.
<mgrwt>
<rscale>  0 0.27452070E+03</rscale>
<asrwt>0</asrwt>
<pdfrwt beam="1">  1        1 0.58236752E-01 0.27452070E+03</pdfrwt>
<pdfrwt beam="2">  1       -1 0.76571360E-02 0.27452070E+03</pdfrwt>
<totfact> 0.59560453E+03</totfact>
</mgrwt>
</event>
<event>
 9    1  0.2065703E-002  0.2761600E+03  0.7818608E-02  0.1097805E+00
         -2   -1    0    0    0  501 -0.00000000000E+00  0.00000000000E+00  0.11839076944E+02  0.11839076944E+02  0.00000000000E+00 0.  1.
          2   -1    0    0  501    0  0.00000000000E+00 -0.00000000000E+00 -0.16104363882E+04  0.16104363882E+04  0.00000000000E+00 0.  1.
         36    2    1    2    0    0  0.88817841970E-15 -0.71054273576E-14 -0.15985973113E+04  0.16222754651E+04  0.27615995592E+03 0.  0.
         25    2    3    3    0    0 -0.29484721323E+01  0.58211240701E+02 -0.74265316995E+03  0.75525152296E+03  0.12439409175E+03 0.  0.
         25    2    3    3    0    0  0.29484721323E+01 -0.58211240701E+02 -0.85594414131E+03  0.86702394219E+03  0.12527131059E+03 0.  0.
          5    1    4    4  502    0  0.31720137780E+01 -0.35985992770E+02 -0.32514056546E+03  0.32717507646E+03  0.47000000000E+01 0. -1.
         -5    1    4    4    0  502 -0.61204859104E+01  0.94197233471E+02 -0.41751260449E+03  0.42807644650E+03  0.47000000000E+01 0. -1.
          5    1    5    5  503    0  0.82766055711E+01  0.29816719287E+02 -0.77430195716E+02  0.83516849542E+02  0.47000000000E+01 0.  1.
         -5    1    5    5    0  503 -0.53281334387E+01 -0.88027959988E+02 -0.77851394559E+03  0.78350709264E+03  0.47000000000E+01 0.  1.
<mgrwt>
<rscale>  0 0.27615996E+03</rscale>
<asrwt>0</asrwt>
<pdfrwt beam="1">  1        2 0.24775938E+00 0.27615996E+03</pdfrwt>
<pdfrwt beam="2">  1       -2 0.18213969E-02 0.27615996E+03</pdfrwt>
<totfact> 0.10571857E+04</totfact>
</mgrwt>
</event>
<event>
 9    1  0.2065703E-002  0.2745213E+03  0.7818608E-02  0.1098719E+00
          4   -1    0    0  501    0  0.00000000000E+00  0.00000000000E+00  0.31630105925E+03  0.31630105925E+03  0.00000000000E+00 0. -1.
         -4   -1    0    0    0  501 -0.00000000000E+00 -0.00000000000E+00 -0.59565058245E+02  0.59565058245E+02  0.00000000000E+00 0. -1.
         36    2    1    2    0    0  0.00000000000E+00  0.00000000000E+00  0.25673600100E+03  0.37586611749E+03  0.27452133627E+03 0.  0.
         25    2    3    3    0    0 -0.10507367993E+00 -0.55322477365E+02  0.15198105507E+03  0.20424825587E+03  0.12473380208E+03 0.  0.
         25    2    3    3    0    0  0.10507367993E+00  0.55322477365E+02  0.10475494593E+03  0.17161786162E+03  0.12417126958E+03 0.  0.
          5    1    4    4  502    0  0.12833388052E+02 -0.84805859546E+02  0.55110156583E+02  0.10205855682E+03  0.47000000000E+01 0.  1.
         -5    1    4    4    0  502 -0.12938461732E+02  0.29483382181E+02  0.96870898490E+02  0.10218969905E+03  0.47000000000E+01 0.  1.
          5    1    5    5  503    0 -0.10257845046E+02  0.52333854465E+02  0.13172758913E+03  0.14219108075E+03  0.47000000000E+01 0. -1.
         -5    1    5    5    0  503  0.10362918726E+02  0.29886228995E+01 -0.26972643198E+02  0.29426780871E+02  0.47000000000E+01 0. -1.
<mgrwt>
<rscale>  0 0.27452134E+03</rscale>
<asrwt>0</asrwt>
<pdfrwt beam="1">  1        4 0.48661701E-01 0.27452134E+03</pdfrwt>
<pdfrwt beam="2">  1       -4 0.91638553E-02 0.27452134E+03</pdfrwt>
<totfact> 0.67581259E+02</totfact>
</mgrwt>
</event>
<event>
 9    1  0.2065703E-002  0.2747715E+03  0.7818608E-02  0.1098579E+00
         -1   -1    0    0    0  501 -0.00000000000E+00  0.00000000000E+00  0.15587288355E+02  0.15587288355E+02  0.00000000000E+00 0.  1.
          1   -1    0    0  501    0  0.00000000000E+00 -0.00000000000E+00 -0.12109130329E+04  0.12109130329E+04  0.00000000000E+00 0.  1.
         36    2    1    2    0    0 -0.71054273576E-14  0.35527136788E-14 -0.11953257445E+04  0.12265003212E+04  0.27477154595E+03 0.  0.
         25    2    3    3    0    0 -0.48014807484E+02  0.28721062932E+02 -0.58285522222E+03  0.59874465587E+03  0.12507850203E+03 0.  0.
         25    2    3    3    0    0  0.48014807484E+02 -0.28721062932E+02 -0.61247052229E+03  0.62775566535E+03  0.12580426666E+03 0.  0.
          5    1    4    4  502    0 -0.33747391246E+02  0.22068884473E+02 -0.58076668344E+03  0.58218377912E+03  0.47000000000E+01 0. -1.
         -5    1    4    4    0  502 -0.14267416238E+02  0.66521784592E+01 -0.20885387765E+01  0.16560876746E+02  0.47000000000E+01 0. -1.
          5    1    5    5  503    0  0.41804479036E+02 -0.52054384228E+02 -0.59194958485E+03  0.59572113811E+03  0.47000000000E+01 0.  1.
         -5    1    5    5    0  503  0.62103284482E+01  0.23333321296E+02 -0.20520937439E+02  0.32034527240E+02  0.47000000000E+01 0.  1.
<mgrwt>
<rscale>  0 0.27477155E+03</rscale>
<asrwt>0</asrwt>
<pdfrwt beam="1">  1        1 0.18629443E+00 0.27477155E+03</pdfrwt>
<pdfrwt beam="2">  1       -1 0.23980429E-02 0.27477155E+03</pdfrwt>
<totfact> 0.59065081E+03</totfact>
</mgrwt>
</event>
<event>
 9    1  0.2065703E-002  0.2790567E+03  0.7818608E-02  0.1096205E+00
          1   -1    0    0  501    0  0.00000000000E+00  0.00000000000E+00  0.86921364905E+03  0.86921364905E+03  0.00000000000E+00 0.  1.
         -1   -1    0    0    0  501 -0.00000000000E+00 -0.00000000000E+00 -0.22397436865E+02  0.22397436865E+02  0.00000000000E+00 0.  1.
         36    2    1    2    0    0  0.00000000000E+00 -0.71054273576E-14  0.84681621218E+03  0.89161108591E+03  0.27905668117E+03 0.  0.
         25    2    3    3    0    0  0.11312095400E+02 -0.41763742627E+02  0.50465780165E+03  0.52192440181E+03  0.12591032817E+03 0.  0.
         25    2    3    3    0    0 -0.11312095400E+02  0.41763742627E+02  0.34215841053E+03  0.36968668410E+03  0.13313036019E+03 0.  0.
          5    1    4    4  502    0  0.63902979874E+02 -0.26311176422E+02  0.37058780702E+03  0.37700567841E+03  0.47000000000E+01 0.  1.
         -5    1    4    4    0  502 -0.52590884473E+02 -0.15452566205E+02  0.13406999463E+03  0.14491872340E+03  0.47000000000E+01 0.  1.
          5    1    5    5  503    0 -0.64000897165E+02  0.29482563710E+01  0.23856892736E+03  0.24706685362E+03  0.47000000000E+01 0.  1.
         -5    1    5    5    0  503  0.52688801764E+02  0.38815486256E+02  0.10358948317E+03  0.12261983049E+03  0.47000000000E+01 0.  1.
<mgrwt>
<rscale>  0 0.27905668E+03</rscale>
<asrwt>0</asrwt>
<pdfrwt beam="1">  1        1 0.13372515E+00 0.27905668E+03</pdfrwt>
<pdfrwt beam="2">  1       -1 0.34457602E-02 0.27905668E+03</pdfrwt>
<totfact> 0.62009032E+03</totfact>
</mgrwt>
</event>
<event>
 9    1  0.2065703E-002  0.2747829E+03  0.7818608E-02  0.1098573E+00
         -2   -1    0    0    0  501 -0.00000000000E+00  0.00000000000E+00  0.42249899981E+02  0.42249899981E+02  0.00000000000E+00 0.  1.
          2   -1    0    0  501    0  0.00000000000E+00 -0.00000000000E+00 -0.44677997264E+03  0.44677997264E+03  0.00000000000E+00 0.  1.
         36    2    1    2    0    0  0.17763568394E-14  0.35527136788E-14 -0.40453007266E+03  0.48902987262E+03  0.27478288999E+03 0.  0.
         25    2    3    3    0    0 -0.91925858441E+00  0.31761295309E+02 -0.12327981984E+03  0.17904830783E+03  0.12589979206E+03 0.  0.
         25    2    3    3    0    0  0.91925858441E+00 -0.31761295309E+02 -0.28125025282E+03  0.30998156479E+03  0.12640111108E+03 0.  0.
          5    1    4    4  502    0 -0.54747402699E+02 -0.16013233546E+02 -0.46892108786E+02  0.73990956321E+02  0.47000000000E+01 0.  1.
         -5    1    4    4    0  502  0.53828144115E+02  0.47774528855E+02 -0.76387711050E+02  0.10505735151E+03  0.47000000000E+01 0.  1.
          5    1    5    5  503    0 -0.13381707994E+02  0.36609348221E+02 -0.19491062171E+03  0.19882543837E+03  0.47000000000E+01 0.  1.
         -5    1    5    5    0  503  0.14300966578E+02 -0.68370643530E+02 -0.86339631114E+02  0.11115612643E+03  0.47000000000E+01 0.  1.
<mgrwt>
<rscale>  0 0.27478289E+03</rscale>
<asrwt>0</asrwt>
<pdfrwt beam="1">  1        2 0.68735380E-01 0.27478289E+03</pdfrwt>
<pdfrwt beam="2">  1       -2 0.64999846E-02 0.27478289E+03</pdfrwt>
<totfact> 0.91784676E+03</totfact>
</mgrwt>
</event>
<event>
 9    1  0.2065703E-002  0.2737017E+03  0.7818608E-02  0.1099179E+00
          4   -1    0    0  501    0  0.00000000000E+00  0.00000000000E+00  0.30217356963E+02  0.30217356963E+02  0.00000000000E+00 0. -1.
         -4   -1    0    0    0  501 -0.00000000000E+00 -0.00000000000E+00 -0.61978159726E+03  0.61978159726E+03  0.00000000000E+00 0. -1.
         36    2    1    2    0    0 -0.35527136788E-14  0.00000000000E+00 -0.58956424029E+03  0.64999895422E+03  0.27370174836E+03 0.  0.
         25    2    3    3    0    0  0.10405788981E+02  0.20757114275E+02 -0.40727289212E+03  0.42673694001E+03  0.12527597164E+03 0.  0.
         25    2    3    3    0    0 -0.10405788981E+02 -0.20757114275E+02 -0.18229134817E+03  0.22326201421E+03  0.12679374249E+03 0.  0.
          5    1    4    4  502    0  0.32229524935E+02  0.53610883023E+02 -0.10844547622E+03  0.12528120517E+03  0.47000000000E+01 0.  1.
         -5    1    4    4    0  502 -0.21823735953E+02 -0.32853768748E+02 -0.29882741590E+03  0.30145573484E+03  0.47000000000E+01 0.  1.
          5    1    5    5  503    0  0.36528447332E+02 -0.18960314118E+02 -0.73579555944E+01  0.42071967942E+02  0.47000000000E+01 0.  1.
         -5    1    5    5    0  503 -0.46934236314E+02 -0.17968001567E+01 -0.17493339258E+03  0.18119004627E+03  0.47000000000E+01 0.  1.
<mgrwt>
<rscale>  0 0.27370175E+03</rscale>
<asrwt>0</asrwt>
<pdfrwt beam="1">  1        4 0.46488243E-02 0.27370175E+03</pdfrwt>
<pdfrwt beam="2">  1       -4 0.95351012E-01 0.27370175E+03</pdfrwt>
<totfact> 0.47951818E+02</totfact>
</mgrwt>
</event>
<event>
 9    1  0.2065703E-002  0.2742484E+03  0.7818608E-02  0.1098872E+00
         -2   -1    0    0    0  501 -0.00000000000E+00  0.00000000000E+00  0.76862260871E+01  0.76862260871E+01  0.00000000000E+00 0.  1.
          2   -1    0    0  501    0  0.00000000000E+00 -0.00000000000E+00 -0.24463303199E+04  0.24463303199E+04  0.00000000000E+00 0.  1.
         36    2    1    2    0    0  0.17763568394E-14 -0.35527136788E-14 -0.24386440938E+04  0.24540165460E+04  0.27424841238E+03 0.  0.
         25    2    3    3    0    0  0.10336925280E+02  0.26381563493E+02 -0.16697858539E+04  0.16746465594E+04  0.12431195467E+03 0.  0.
         25    2    3    3    0    0 -0.10336925280E+02 -0.26381563493E+02 -0.76885823988E+03  0.77936998656E+03  0.12438546543E+03 0.  0.
          5    1    4    4  502    0  0.97910886133E+01  0.63113466256E+02 -0.47628078921E+03  0.48056701428E+03  0.47000000000E+01 0. -1.
         -5    1    4    4    0  502  0.54583666664E+00 -0.36731902763E+02 -0.11935050647E+04  0.11940795451E+04  0.47000000000E+01 0. -1.
          5    1    5    5  503    0 -0.16953455096E+02  0.31916273638E+02 -0.78950636239E+02  0.86956087338E+02  0.47000000000E+01 0.  1.
         -5    1    5    5    0  503  0.66165298163E+01 -0.58297837131E+02 -0.68990760364E+03  0.69241389922E+03  0.47000000000E+01 0.  1.
<mgrwt>
<rscale>  0 0.27424841E+03</rscale>
<asrwt>0</asrwt>
<pdfrwt beam="1">  1        2 0.37635882E+00 0.27424841E+03</pdfrwt>
<pdfrwt beam="2">  1       -2 0.11824953E-02 0.27424841E+03</pdfrwt>
<totfact> 0.71671513E+03</totfact>
</mgrwt>
</event>
<event>
 9    1  0.2065703E-002  0.2790215E+03  0.7818608E-02  0.1096225E+00
          2   -1    0    0  501    0  0.00000000000E+00  0.00000000000E+00  0.13300091572E+02  0.13300091572E+02  0.00000000000E+00 0.  1.
         -2   -1    0    0    0  501 -0.00000000000E+00 -0.00000000000E+00 -0.14633922374E+04  0.14633922374E+04  0.00000000000E+00 0.  1.
         36    2    1    2    0    0  0.00000000000E+00  0.00000000000E+00 -0.14500921458E+04  0.14766923290E+04  0.27902151002E+03 0.  0.
         25    2    3    3    0    0  0.20036101599E+01 -0.44117926139E+02 -0.56301973744E+03  0.57834636988E+03  0.12467113918E+03 0.  0.
         25    2    3    3    0    0 -0.20036101599E+01  0.44117926139E+02 -0.88707240839E+03  0.89834595909E+03  0.13482432509E+03 0.  0.
          5    1    4    4  502    0  0.32902806790E+01 -0.59838406395E+02 -0.11273070334E+03  0.12775665268E+03  0.47000000000E+01 0. -1.
         -5    1    4    4    0  502 -0.12866705191E+01  0.15720480256E+02 -0.45028903410E+03  0.45058971720E+03  0.47000000000E+01 0. -1.
          5    1    5    5  503    0  0.32670210438E+01  0.45407328766E+02 -0.87544021130E+02  0.98785345916E+02  0.47000000000E+01 0. -1.
         -5    1    5    5    0  503 -0.52706312037E+01 -0.12894026273E+01 -0.79952838726E+03  0.79956061318E+03  0.47000000000E+01 0. -1.
<mgrwt>
<rscale>  0 0.27902151E+03</rscale>
<asrwt>0</asrwt>
<pdfrwt beam="1">  1        2 0.20461681E-02 0.27902151E+03</pdfrwt>
<pdfrwt beam="2">  1       -2 0.22513725E+00 0.27902151E+03</pdfrwt>
<totfact> 0.53532322E+02</totfact>
</mgrwt>
</event>
<event>
 9    1  0.2065703E-002  0.2748580E+03  0.7818608E-02  0.1098531E+00
         -1   -1    0    0    0  501 -0.00000000000E+00  0.00000000000E+00  0.65823223565E+03  0.65823223565E+03  0.00000000000E+00 0. -1.
          1   -1    0    0  501    0  0.00000000000E+00 -0.00000000000E+00 -0.28693117331E+02  0.28693117331E+02  0.00000000000E+00 0. -1.
         36    2    1    2    0    0  0.21316282073E-13 -0.35527136788E-14  0.62953911832E+03  0.68692535298E+03  0.27485803440E+03 0.  0.
         25    2    3    3    0    0  0.58424876886E+02 -0.35247564961E+01  0.29813483477E+03  0.32871141893E+03  0.12546285141E+03 0.  0.
         25    2    3    3    0    0 -0.58424876886E+02  0.35247564961E+01  0.33140428355E+03  0.35821393406E+03  0.12272951253E+03 0.  0.
          5    1    4    4  502    0  0.15673280443E+02 -0.45942814902E+02  0.38480087377E+02  0.62122468443E+02  0.47000000000E+01 0. -1.
         -5    1    4    4    0  502  0.42751596443E+02  0.42418058406E+02  0.25965474739E+03  0.26658895048E+03  0.47000000000E+01 0. -1.
          5    1    5    5  503    0 -0.69349572017E+02  0.16966986645E+02  0.84777427630E+02  0.11093486382E+03  0.47000000000E+01 0.  1.
         -5    1    5    5    0  503  0.10924695131E+02 -0.13442230149E+02  0.24662685592E+03  0.24727907024E+03  0.47000000000E+01 0.  1.
<mgrwt>
<rscale>  0 0.27485803E+03</rscale>
<asrwt>0</asrwt>
<pdfrwt beam="1">  1        1 0.44143262E-02 0.27485803E+03</pdfrwt>
<pdfrwt beam="2">  1       -1 0.10126649E+00 0.27485803E+03</pdfrwt>
<totfact> 0.19388215E+03</totfact>
</mgrwt>
</event>
<event>
 9    1  0.2065703E-002  0.2756708E+03  0.7818608E-02  0.1098077E+00
          2   -1    0    0  501    0  0.00000000000E+00  0.00000000000E+00  0.82884239932E+02  0.82884239932E+02  0.00000000000E+00 0.  1.
         -2   -1    0    0    0  501 -0.00000000000E+00 -0.00000000000E+00 -0.22921841053E+03  0.22921841053E+03  0.00000000000E+00 0.  1.
         36    2    1    2    0    0  0.00000000000E+00 -0.35527136788E-14 -0.14633417060E+03  0.31210265046E+03  0.27567077274E+03 0.  0.
         25    2    3    3    0    0  0.42882170778E+02  0.48317713721E+01 -0.13050657905E+03  0.18692633153E+03  0.12667777887E+03 0.  0.
         25    2    3    3    0    0 -0.42882170778E+02 -0.48317713721E+01 -0.15827591550E+02  0.12517631893E+03  0.11643183234E+03 0.  0.
          5    1    4    4  502    0  0.47991758114E+02 -0.13834835800E+01  0.73127944700E+01  0.48792313295E+02  0.47000000000E+01 0.  1.
         -5    1    4    4    0  502 -0.51095873357E+01  0.62152549522E+01 -0.13781937352E+03  0.13813401824E+03  0.47000000000E+01 0.  1.
          5    1    5    5  503    0 -0.17599578792E+02 -0.29076652969E+02 -0.59688617515E+02  0.68847788508E+02  0.47000000000E+01 0. -1.
         -5    1    5    5    0  503 -0.25282591986E+02  0.24244881596E+02  0.43861025965E+02  0.56328530425E+02  0.47000000000E+01 0. -1.
<mgrwt>
<rscale>  0 0.27567077E+03</rscale>
<asrwt>0</asrwt>
<pdfrwt beam="1">  1        2 0.12751422E-01 0.27567077E+03</pdfrwt>
<pdfrwt beam="2">  1       -2 0.35264371E-01 0.27567077E+03</pdfrwt>
<totfact> 0.35749240E+03</totfact>
</mgrwt>
</event>
<event>
 9    1  0.2065703E-002  0.2751643E+03  0.7818608E-02  0.1098360E+00
          2   -1    0    0  501    0  0.00000000000E+00  0.00000000000E+00  0.10521395535E+03  0.10521395535E+03  0.00000000000E+00 0. -1.
         -2   -1    0    0    0  501 -0.00000000000E+00 -0.00000000000E+00 -0.17990814395E+03  0.17990814395E+03  0.00000000000E+00 0. -1.
         36    2    1    2    0    0  0.14210854715E-13 -0.35527136788E-14 -0.74694188598E+02  0.28512209930E+03  0.27516429583E+03 0.  0.
         25    2    3    3    0    0 -0.58951881918E+02 -0.20861366010E+02 -0.34935884510E+02  0.13864400707E+03  0.11870603901E+03 0.  0.
         25    2    3    3    0    0  0.58951881918E+02  0.20861366010E+02 -0.39758304088E+02  0.14647809223E+03  0.12635104980E+03 0.  0.
          5    1    4    4  502    0  0.26853469069E+01  0.34018357566E+02 -0.43559177590E+02  0.55533338562E+02  0.47000000000E+01 0. -1.
         -5    1    4    4    0  502 -0.61637228825E+02 -0.54879723576E+02  0.86232930804E+01  0.83110668512E+02  0.47000000000E+01 0. -1.
          5    1    5    5  503    0  0.90521934995E+02  0.44147079120E+02 -0.22174870320E+02  0.10323274763E+03  0.47000000000E+01 0.  1.
         -5    1    5    5    0  503 -0.31570053077E+02 -0.23285713110E+02 -0.17583433768E+02  0.43245344598E+02  0.47000000000E+01 0.  1.
<mgrwt>
<rscale>  0 0.27516430E+03</rscale>
<asrwt>0</asrwt>
<pdfrwt beam="1">  1        2 0.16186762E-01 0.27516430E+03</pdfrwt>
<pdfrwt beam="2">  1       -2 0.27678176E-01 0.27516430E+03</pdfrwt>
<totfact> 0.41897235E+03</totfact>
</mgrwt>
</event>
<event>
 9    1  0.2065703E-002  0.2750369E+03  0.7818608E-02  0.1098431E+00
          1   -1    0    0  501    0  0.00000000000E+00  0.00000000000E+00  0.13270214002E+04  0.13270214002E+04  0.00000000000E+00 0. -1.
         -1   -1    0    0    0  501 -0.00000000000E+00 -0.00000000000E+00 -0.14250955831E+02  0.14250955831E+02  0.00000000000E+00 0. -1.
         36    2    1    2    0    0  0.28421709430E-13  0.00000000000E+00  0.13127704444E+04  0.13412723561E+04  0.27503689470E+03 0.  0.
         25    2    3    3    0    0  0.64325586053E+02  0.32828677107E+02  0.57990141700E+03  0.59532330357E+03  0.11361636886E+03 0.  0.
         25    2    3    3    0    0 -0.64325586053E+02 -0.32828677107E+02  0.73286902739E+03  0.74594905249E+03  0.11885905321E+03 0.  0.
          5    1    4    4  502    0  0.45001994380E+02 -0.36437085170E+02  0.18522407338E+03  0.19412080784E+03  0.47000000000E+01 0.  1.
         -5    1    4    4    0  502  0.19323591672E+02  0.69265762277E+02  0.39467734362E+03  0.40120249573E+03  0.47000000000E+01 0.  1.
          5    1    5    5  503    0  0.31672015213E+02 -0.22072285366E+02  0.29326925707E+03  0.29583652491E+03  0.47000000000E+01 0. -1.
         -5    1    5    5    0  503 -0.95997601266E+02 -0.10756391741E+02  0.43959977033E+03  0.45011252758E+03  0.47000000000E+01 0. -1.
<mgrwt>
<rscale>  0 0.27503689E+03</rscale>
<asrwt>0</asrwt>
<pdfrwt beam="1">  1        1 0.20415704E+00 0.27503689E+03</pdfrwt>
<pdfrwt beam="2">  1       -1 0.21924558E-02 0.27503689E+03</pdfrwt>
<totfact> 0.56037893E+03</totfact>
</mgrwt>
</event>
<event>
 9    1  0.2065703E-002  0.2744557E+03  0.7818608E-02  0.1098756E+00
          2   -1    0    0  501    0  0.00000000000E+00  0.00000000000E+00  0.77725564438E+03  0.77725564438E+03  0.00000000000E+00 0.  1.
         -2   -1    0    0    0  501 -0.00000000000E+00 -0.00000000000E+00 -0.24228175993E+02  0.24228175993E+02  0.00000000000E+00 0.  1.
         36    2    1    2    0    0  0.17763568394E-14  0.00000000000E+00  0.75302746839E+03  0.80148382038E+03  0.27445572717E+03 0.  0.
         25    2    3    3    0    0 -0.56886812369E+01 -0.19900687431E+02  0.53181019985E+03  0.54635322424E+03  0.12349639071E+03 0.  0.
         25    2    3    3    0    0  0.56886812369E+01  0.19900687431E+02  0.22121726854E+03  0.25513059613E+03  0.12540391832E+03 0.  0.
          5    1    4    4  502    0 -0.29538744855E+01  0.45639958076E+02  0.35013822971E+03  0.35314388152E+03  0.47000000000E+01 0. -1.
         -5    1    4    4    0  502 -0.27348067514E+01 -0.65540645507E+02  0.18167197014E+03  0.19320934273E+03  0.47000000000E+01 0. -1.
          5    1    5    5  503    0 -0.51932757492E+02 -0.21068759344E+02  0.98650698079E+02  0.11355595164E+03  0.47000000000E+01 0.  1.
         -5    1    5    5    0  503  0.57621438728E+02  0.40969446775E+02  0.12256657046E+03  0.14157464449E+03  0.47000000000E+01 0.  1.
<mgrwt>
<rscale>  0 0.27445573E+03</rscale>
<asrwt>0</asrwt>
<pdfrwt beam="1">  1        2 0.11957777E+00 0.27445573E+03</pdfrwt>
<pdfrwt beam="2">  1       -2 0.37274123E-02 0.27445573E+03</pdfrwt>
<totfact> 0.11212519E+04</totfact>
</mgrwt>
</event>
<event>
 9    1  0.2065703E-002  0.2741311E+03  0.7818608E-02  0.1098938E+00
          2   -1    0    0  501    0  0.00000000000E+00  0.00000000000E+00  0.19423286778E+03  0.19423286778E+03  0.00000000000E+00 0. -1.
         -2   -1    0    0    0  501 -0.00000000000E+00 -0.00000000000E+00 -0.96723938085E+02  0.96723938085E+02  0.00000000000E+00 0. -1.
         36    2    1    2    0    0 -0.14210854715E-13 -0.71054273576E-14  0.97508929694E+02  0.29095680586E+03  0.27413112101E+03 0.  0.
         25    2    3    3    0    0 -0.46537393862E+02 -0.17994287783E+02  0.12304483770E+02  0.13300041205E+03  0.12267104737E+03 0.  0.
         25    2    3    3    0    0  0.46537393862E+02  0.17994287783E+02  0.85204445924E+02  0.15795639382E+03  0.12329193535E+03 0.  0.
          5    1    4    4  502    0 -0.85032794299E+02 -0.14873327492E+02  0.28253998880E+02  0.90951472939E+02  0.47000000000E+01 0.  1.
         -5    1    4    4    0  502  0.38495400437E+02 -0.31209602913E+01 -0.15949515110E+02  0.42048939109E+02  0.47000000000E+01 0.  1.
          5    1    5    5  503    0  0.70462053007E+02  0.52731344371E+02  0.71088413569E+02  0.11323050886E+03  0.47000000000E+01 0. -1.
         -5    1    5    5    0  503 -0.23924659145E+02 -0.34737056588E+02  0.14116032355E+02  0.44725884955E+02  0.47000000000E+01 0. -1.
<mgrwt>
<rscale>  0 0.27413112E+03</rscale>
<asrwt>0</asrwt>
<pdfrwt beam="1">  1        2 0.29881979E-01 0.27413112E+03</pdfrwt>
<pdfrwt beam="2">  1       -2 0.14880606E-01 0.27413112E+03</pdfrwt>
<totfact> 0.60635015E+03</totfact>
</mgrwt>
</event>
<event>
 9    1  0.2065703E-002  0.2747588E+03  0.7818608E-02  0.1098587E+00
         -2   -1    0    0    0  501 -0.00000000000E+00  0.00000000000E+00  0.29406666834E+02  0.29406666834E+02  0.00000000000E+00 0.  1.
          2   -1    0    0  501    0  0.00000000000E+00 -0.00000000000E+00 -0.64179655749E+03  0.64179655749E+03  0.00000000000E+00 0.  1.
         36    2    1    2    0    0  0.00000000000E+00  0.71054273576E-14 -0.61238989066E+03  0.67120322432E+03  0.27475878542E+03 0.  0.
         25    2    3    3    0    0 -0.13032259562E+01 -0.38458457679E+02 -0.29733752156E+03  0.32989899578E+03  0.13763355087E+03 0.  0.
         25    2    3    3    0    0  0.13032259562E+01  0.38458457679E+02 -0.31505236909E+03  0.34130422854E+03  0.12549832582E+03 0.  0.
          5    1    4    4  502    0 -0.58016082716E+02  0.14709102570E+02 -0.87859982616E+02  0.10641282863E+03  0.47000000000E+01 0. -1.
         -5    1    4    4    0  502  0.56712856759E+02 -0.53167560249E+02 -0.20947753895E+03  0.22348616715E+03  0.47000000000E+01 0. -1.
          5    1    5    5  503    0 -0.60971799038E+02  0.13190476277E+02 -0.12754167261E+03  0.14205814723E+03  0.47000000000E+01 0. -1.
         -5    1    5    5    0  503  0.62275024994E+02  0.25267981402E+02 -0.18751069648E+03  0.19924608131E+03  0.47000000000E+01 0. -1.
<mgrwt>
<rscale>  0 0.27475879E+03</rscale>
<asrwt>0</asrwt>
<pdfrwt beam="1">  1        2 0.98737928E-01 0.27475879E+03</pdfrwt>
<pdfrwt beam="2">  1       -2 0.45241028E-02 0.27475879E+03</pdfrwt>
<totfact> 0.10576444E+04</totfact>
</mgrwt>
</event>
<event>
 9    1  0.2065703E-002  0.2749952E+03  0.7818608E-02  0.1098454E+00
          3   -1    0    0  501    0  0.00000000000E+00  0.00000000000E+00  0.14484860707E+03  0.14484860707E+03  0.00000000000E+00 0. -1.
         -3   -1    0    0    0  501 -0.00000000000E+00 -0.00000000000E+00 -0.13051968693E+03  0.13051968693E+03  0.00000000000E+00 0. -1.
         36    2    1    2    0    0  0.35527136788E-14  0.00000000000E+00  0.14328920143E+02  0.27536829400E+03  0.27499523521E+03 0.  0.
         25    2    3    3    0    0 -0.31810704824E+02  0.43777817315E+02  0.23666711306E+02  0.14030786796E+03  0.12727044574E+03 0.  0.
         25    2    3    3    0    0  0.31810704824E+02 -0.43777817315E+02 -0.93377911632E+01  0.13506042604E+03  0.12339248805E+03 0.  0.
          5    1    4    4  502    0 -0.14803146505E+02  0.87916990169E+02  0.25137455605E+02  0.92749727660E+02  0.47000000000E+01 0. -1.
         -5    1    4    4    0  502 -0.17007558319E+02 -0.44139172854E+02 -0.14707442995E+01  0.47558140302E+02  0.47000000000E+01 0. -1.
          5    1    5    5  503    0 -0.33061041950E+02 -0.59128709631E+02 -0.50483613033E+01  0.68094146219E+02  0.47000000000E+01 0. -1.
         -5    1    5    5    0  503  0.64871746775E+02  0.15350892316E+02 -0.42894298599E+01  0.66966279821E+02  0.47000000000E+01 0. -1.
<mgrwt>
<rscale>  0 0.27499524E+03</rscale>
<asrwt>0</asrwt>
<pdfrwt beam="1">  1        3 0.22284401E-01 0.27499524E+03</pdfrwt>
<pdfrwt beam="2">  1       -3 0.20079952E-01 0.27499524E+03</pdfrwt>
<totfact> 0.10484023E+03</totfact>
</mgrwt>
</event>
<event>
 9    1  0.2065703E-002  0.2749346E+03  0.7818608E-02  0.1098488E+00
          2   -1    0    0  501    0  0.00000000000E+00  0.00000000000E+00  0.10659175196E+04  0.10659175196E+04  0.00000000000E+00 0. -1.
         -2   -1    0    0    0  501 -0.00000000000E+00 -0.00000000000E+00 -0.17728632509E+02  0.17728632509E+02  0.00000000000E+00 0. -1.
         36    2    1    2    0    0  0.00000000000E+00  0.53290705182E-14  0.10481888871E+04  0.10836461521E+04  0.27493461034E+03 0.  0.
         25    2    3    3    0    0  0.56759447810E+02  0.14366260318E+02  0.46599406746E+03  0.48588902984E+03  0.12453776159E+03 0.  0.
         25    2    3    3    0    0 -0.56759447810E+02 -0.14366260318E+02  0.58219481962E+03  0.59775712226E+03  0.12220779380E+03 0.  0.
          5    1    4    4  502    0  0.19953250065E+02  0.57073434883E+02  0.11164398763E+03  0.12705108867E+03  0.47000000000E+01 0.  1.
         -5    1    4    4    0  502  0.36806197745E+02 -0.42707174565E+02  0.35435007982E+03  0.35883794117E+03  0.47000000000E+01 0.  1.
          5    1    5    5  503    0 -0.92512853507E+02 -0.12967867431E+02  0.33023317928E+03  0.34322417798E+03  0.47000000000E+01 0. -1.
         -5    1    5    5    0  503  0.35753405697E+02 -0.13983928872E+01  0.25196164033E+03  0.25453294427E+03  0.47000000000E+01 0. -1.
<mgrwt>
<rscale>  0 0.27493461E+03</rscale>
<asrwt>0</asrwt>
<pdfrwt beam="1">  1        2 0.16398726E+00 0.27493461E+03</pdfrwt>
<pdfrwt beam="2">  1       -2 0.27274828E-02 0.27493461E+03</pdfrwt>
<totfact> 0.11663214E+04</totfact>
</mgrwt>
</event>
<event>
 9    1  0.2065703E-002  0.2776083E+03  0.7818608E-02  0.1097002E+00
          2   -1    0    0  501    0  0.00000000000E+00  0.00000000000E+00  0.35789656642E+03  0.35789656642E+03  0.00000000000E+00 0. -1.
         -2   -1    0    0    0  501 -0.00000000000E+00 -0.00000000000E+00 -0.53832867542E+02  0.53832867542E+02  0.00000000000E+00 0. -1.
         36    2    1    2    0    0  0.00000000000E+00  0.71054273576E-14  0.30406369887E+03  0.41172943396E+03  0.27760834608E+03 0.  0.
         25    2    3    3    0    0  0.59896662204E+01 -0.25925420611E+02  0.22424610504E+03  0.25814362987E+03  0.12507523529E+03 0.  0.
         25    2    3    3    0    0 -0.59896662204E+01  0.25925420611E+02  0.79817593838E+02  0.15358580409E+03  0.12849026187E+03 0.  0.
          5    1    4    4  502    0 -0.98968891848E+01  0.41549237698E+02  0.15180501437E+03  0.15776926176E+03  0.47000000000E+01 0.  1.
         -5    1    4    4    0  502  0.15886555405E+02 -0.67474658310E+02  0.72441090670E+02  0.10037436811E+03  0.47000000000E+01 0.  1.
          5    1    5    5  503    0  0.38628719620E+02  0.61796789756E+02  0.52739794336E+02  0.90081058554E+02  0.47000000000E+01 0. -1.
         -5    1    5    5    0  503 -0.44618385840E+02 -0.35871369145E+02  0.27077799502E+02  0.63504745533E+02  0.47000000000E+01 0. -1.
<mgrwt>
<rscale>  0 0.27760835E+03</rscale>
<asrwt>0</asrwt>
<pdfrwt beam="1">  1        2 0.55061009E-01 0.27760835E+03</pdfrwt>
<pdfrwt beam="2">  1       -2 0.82819798E-02 0.27760835E+03</pdfrwt>
<totfact> 0.80224401E+03</totfact>
</mgrwt>
</event>
<event>
 9    1  0.2065703E-002  0.2748842E+03  0.7818608E-02  0.1098516E+00
         -2   -1    0    0    0  501 -0.00000000000E+00  0.00000000000E+00  0.10149426296E+03  0.10149426296E+03  0.00000000000E+00 0.  1.
          2   -1    0    0  501    0  0.00000000000E+00 -0.00000000000E+00 -0.18612211073E+03  0.18612211073E+03  0.00000000000E+00 0.  1.
         36    2    1    2    0    0 -0.71054273576E-14  0.00000000000E+00 -0.84627847761E+02  0.28761637369E+03  0.27488416796E+03 0.  0.
         25    2    3    3    0    0 -0.56839121497E+02  0.87506308134E+01 -0.50515119823E+02  0.14840576332E+03  0.12714257345E+03 0.  0.
         25    2    3    3    0    0  0.56839121497E+02 -0.87506308134E+01 -0.34112727939E+02  0.13921061037E+03  0.12210100966E+03 0.  0.
          5    1    4    4  502    0  0.41460780966E+01 -0.14922998869E+02  0.36215521866E+02  0.39667869653E+02  0.47000000000E+01 0.  1.
         -5    1    4    4    0  502 -0.60985199593E+02  0.23673629682E+02 -0.86730641688E+02  0.10873789367E+03  0.47000000000E+01 0.  1.
          5    1    5    5  503    0  0.73751555453E+02 -0.41886302986E+02  0.49147475776E+01  0.85088183982E+02  0.47000000000E+01 0.  1.
         -5    1    5    5    0  503 -0.16912433956E+02  0.33135672173E+02 -0.39027475516E+02  0.54122426385E+02  0.47000000000E+01 0.  1.
<mgrwt>
<rscale>  0 0.27488417E+03</rscale>
<asrwt>0</asrwt>
<pdfrwt beam="1">  1        2 0.28634171E-01 0.27488417E+03</pdfrwt>
<pdfrwt beam="2">  1       -2 0.15614502E-01 0.27488417E+03</pdfrwt>
<totfact> 0.58686624E+03</totfact>
</mgrwt>
</event>
<event>
 9    1  0.2065703E-002  0.2687423E+03  0.7818608E-02  0.1102002E+00
         -2   -1    0    0    0  501 -0.00000000000E+00  0.00000000000E+00  0.66140115246E+03  0.66140115246E+03  0.00000000000E+00 0. -1.
          2   -1    0    0  501    0  0.00000000000E+00 -0.00000000000E+00 -0.27299016847E+02  0.27299016847E+02  0.00000000000E+00 0. -1.
         36    2    1    2    0    0  0.35527136788E-14 -0.71054273576E-14  0.63410213561E+03  0.68870016930E+03  0.26874226466E+03 0.  0.
         25    2    3    3    0    0  0.17975818751E+02 -0.43810886364E+02  0.29053290147E+03  0.31986057557E+03  0.12513551514E+03 0.  0.
         25    2    3    3    0    0 -0.17975818751E+02  0.43810886364E+02  0.34356923414E+03  0.36883959373E+03  0.12554004711E+03 0.  0.
          5    1    4    4  502    0 -0.48546466120E+02  0.67723000368E+01  0.90666587230E+02  0.10317530451E+03  0.47000000000E+01 0. -1.
         -5    1    4    4    0  502  0.66522284871E+02 -0.50583186400E+02  0.19986631424E+03  0.21668527107E+03  0.47000000000E+01 0. -1.
          5    1    5    5  503    0  0.28913613443E+02 -0.32590295703E+02  0.97003426045E+02  0.10644190472E+03  0.47000000000E+01 0.  1.
         -5    1    5    5    0  503 -0.46889432194E+02  0.76401182066E+02  0.24656580810E+03  0.26239768901E+03  0.47000000000E+01 0.  1.
<mgrwt>
<rscale>  0 0.26874226E+03</rscale>
<asrwt>0</asrwt>
<pdfrwt beam="1">  1        2 0.41998492E-02 0.26874226E+03</pdfrwt>
<pdfrwt beam="2">  1       -2 0.10175401E+00 0.26874226E+03</pdfrwt>
<totfact> 0.16315210E+03</totfact>
</mgrwt>
</event>
<event>
 9    1  0.2065703E-002  0.2742507E+03  0.7818608E-02  0.1098871E+00
          4   -1    0    0  501    0  0.00000000000E+00  0.00000000000E+00  0.26790022613E+02  0.26790022613E+02  0.00000000000E+00 0.  1.
         -4   -1    0    0    0  501 -0.00000000000E+00 -0.00000000000E+00 -0.70187916812E+03  0.70187916812E+03  0.00000000000E+00 0.  1.
         36    2    1    2    0    0  0.00000000000E+00  0.71054273576E-14 -0.67508914550E+03  0.72866919073E+03  0.27425067938E+03 0.  0.
         25    2    3    3    0    0 -0.40112219019E+02  0.36663827711E+02 -0.38228781166E+03  0.40525662266E+03  0.12302736642E+03 0.  0.
         25    2    3    3    0    0  0.40112219019E+02 -0.36663827711E+02 -0.29280133384E+03  0.32341256807E+03  0.12613422100E+03 0.  0.
          5    1    4    4  502    0  0.72503852346E+01 -0.15324526574E+02 -0.11216906389E+01  0.17628312189E+02  0.47000000000E+01 0.  1.
         -5    1    4    4    0  502 -0.47362604254E+02  0.51988354285E+02 -0.38116612103E+03  0.38762831047E+03  0.47000000000E+01 0.  1.
          5    1    5    5  503    0 -0.24899136678E+02  0.32037337532E+02 -0.11371218838E+03  0.12082594832E+03  0.47000000000E+01 0.  1.
         -5    1    5    5    0  503  0.65011355697E+02 -0.68701165243E+02 -0.17908914546E+03  0.20258661974E+03  0.47000000000E+01 0.  1.
<mgrwt>
<rscale>  0 0.27425068E+03</rscale>
<asrwt>0</asrwt>
<pdfrwt beam="1">  1        4 0.41215419E-02 0.27425068E+03</pdfrwt>
<pdfrwt beam="2">  1       -4 0.10798141E+00 0.27425068E+03</pdfrwt>
<totfact> 0.43460737E+02</totfact>
</mgrwt>
</event>
<event>
 9    1  0.2065703E-002  0.2749629E+03  0.7818608E-02  0.1098472E+00
         -2   -1    0    0    0  501 -0.00000000000E+00  0.00000000000E+00  0.86999879391E+01  0.86999879391E+01  0.00000000000E+00 0.  1.
          2   -1    0    0  501    0  0.00000000000E+00 -0.00000000000E+00 -0.21725487732E+04  0.21725487732E+04  0.00000000000E+00 0.  1.
         36    2    1    2    0    0 -0.71054273576E-14  0.00000000000E+00 -0.21638487852E+04  0.21812487611E+04  0.27496289294E+03 0.  0.
         25    2    3    3    0    0  0.47483191654E+02  0.24695082567E+02 -0.91143397238E+03  0.92135528453E+03  0.12377064974E+03 0.  0.
         25    2    3    3    0    0 -0.47483191654E+02 -0.24695082567E+02 -0.12524148129E+04  0.12598934766E+04  0.12619115767E+03 0.  0.
          5    1    4    4  502    0 -0.32434509156E+01  0.59956896765E+02 -0.25554711740E+03  0.26254860246E+03  0.47000000000E+01 0.  1.
         -5    1    4    4    0  502  0.50726642569E+02 -0.35261814197E+02 -0.65588685498E+03  0.65880668207E+03  0.47000000000E+01 0.  1.
          5    1    5    5  503    0 -0.53673899589E+02 -0.27346382055E+02 -0.24145203823E+03  0.24889734605E+03  0.47000000000E+01 0.  1.
         -5    1    5    5    0  503  0.61907079356E+01  0.26512994885E+01 -0.10109627746E+04  0.10109961305E+04  0.47000000000E+01 0.  1.
<mgrwt>
<rscale>  0 0.27496289E+03</rscale>
<asrwt>0</asrwt>
<pdfrwt beam="1">  1        2 0.33423880E+00 0.27496289E+03</pdfrwt>
<pdfrwt beam="2">  1       -2 0.13384576E-02 0.27496289E+03</pdfrwt>
<totfact> 0.83936234E+03</totfact>
</mgrwt>
</event>
<event>
 9    1  0.2065703E-002  0.2745896E+03  0.7818608E-02  0.1098681E+00
         -2   -1    0    0    0  501 -0.00000000000E+00  0.00000000000E+00  0.33027896774E+02  0.33027896774E+02  0.00000000000E+00 0. -1.
          2   -1    0    0  501    0  0.00000000000E+00 -0.00000000000E+00 -0.57072535755E+03  0.57072535755E+03  0.00000000000E+00 0. -1.
         36    2    1    2    0    0  0.00000000000E+00  0.00000000000E+00 -0.53769746078E+03  0.60375325432E+03  0.27458957151E+03 0.  0.
         25    2    3    3    0    0 -0.40780530635E+02  0.23112240441E+02 -0.15513971668E+03  0.19744678281E+03  0.11278152780E+03 0.  0.
         25    2    3    3    0    0  0.40780530635E+02 -0.23112240441E+02 -0.38255774409E+03  0.40630647152E+03  0.12859741013E+03 0.  0.
          5    1    4    4  502    0 -0.50012229971E+02  0.25542489711E+02 -0.17004130202E+03  0.17913619489E+03  0.47000000000E+01 0.  1.
         -5    1    4    4    0  502  0.92316993359E+01 -0.24302492692E+01  0.14901585340E+02  0.18310587915E+02  0.47000000000E+01 0.  1.
          5    1    5    5  503    0  0.81653765667E+02 -0.35025216230E+02 -0.20180505339E+03  0.22054811899E+03  0.47000000000E+01 0.  1.
         -5    1    5    5    0  503 -0.40873235032E+02  0.11912975789E+02 -0.18075269071E+03  0.18575835252E+03  0.47000000000E+01 0.  1.
<mgrwt>
<rscale>  0 0.27458957E+03</rscale>
<asrwt>0</asrwt>
<pdfrwt beam="1">  1        2 0.87803900E-01 0.27458957E+03</pdfrwt>
<pdfrwt beam="2">  1       -2 0.50812149E-02 0.27458957E+03</pdfrwt>
<totfact> 0.10166887E+04</totfact>
</mgrwt>
</event>
<event>
 9    1  0.2065703E-002  0.2749956E+03  0.7818608E-02  0.1098454E+00
         -2   -1    0    0    0  501 -0.00000000000E+00  0.00000000000E+00  0.19230476392E+02  0.19230476392E+02  0.00000000000E+00 0. -1.
          2   -1    0    0  501    0  0.00000000000E+00 -0.00000000000E+00 -0.98310848134E+03  0.98310848134E+03  0.00000000000E+00 0. -1.
         36    2    1    2    0    0  0.00000000000E+00  0.71054273576E-14 -0.96387800495E+03  0.10023389577E+04  0.27499559590E+03 0.  0.
         25    2    3    3    0    0 -0.36031377108E+02  0.46464843867E+02 -0.43995352591E+03  0.46064475395E+03  0.12319595178E+03 0.  0.
         25    2    3    3    0    0  0.36031377108E+02 -0.46464843867E+02 -0.52392447904E+03  0.54169420378E+03  0.12441265537E+03 0.  0.
          5    1    4    4  502    0 -0.51436478140E+02 -0.42222456981E+01 -0.71129631310E+02  0.88005983277E+02  0.47000000000E+01 0. -1.
         -5    1    4    4    0  502  0.15405101031E+02  0.50687089565E+02 -0.36882389459E+03  0.37263877068E+03  0.47000000000E+01 0. -1.
          5    1    5    5  503    0 -0.10707741615E+02 -0.59447047185E+02 -0.44376732220E+03  0.44788406246E+03  0.47000000000E+01 0. -1.
         -5    1    5    5    0  503  0.46739118724E+02  0.12982203318E+02 -0.80157156840E+02  0.93810141322E+02  0.47000000000E+01 0. -1.
<mgrwt>
<rscale>  0 0.27499560E+03</rscale>
<asrwt>0</asrwt>
<pdfrwt beam="1">  1        2 0.15124748E+00 0.27499560E+03</pdfrwt>
<pdfrwt beam="2">  1       -2 0.29585344E-02 0.27499560E+03</pdfrwt>
<totfact> 0.11602099E+04</totfact>
</mgrwt>
</event>
<event>
 9    1  0.2065703E-002  0.2745658E+03  0.7818608E-02  0.1098695E+00
         -1   -1    0    0    0  501 -0.00000000000E+00  0.00000000000E+00  0.72065673477E+01  0.72065673477E+01  0.00000000000E+00 0. -1.
          1   -1    0    0  501    0  0.00000000000E+00 -0.00000000000E+00 -0.26151979345E+04  0.26151979345E+04  0.00000000000E+00 0. -1.
         36    2    1    2    0    0  0.00000000000E+00  0.71054273576E-14 -0.26079913672E+04  0.26224045019E+04  0.27456583941E+03 0.  0.
         25    2    3    3    0    0  0.75542580877E+01  0.29898957874E+02 -0.32169806204E+03  0.33256888364E+03  0.78494616018E+02 0.  0.
         25    2    3    3    0    0 -0.75542580877E+01 -0.29898957874E+02 -0.22862933051E+04  0.22898356182E+04  0.12352759588E+03 0.  0.
          5    1    4    4  502    0  0.36383309380E+02  0.11481881737E+02 -0.25057443346E+03  0.25350584907E+03  0.47000000000E+01 0. -1.
         -5    1    4    4    0  502 -0.28829051292E+02  0.18417076137E+02 -0.71123628587E+02  0.79063034569E+02  0.47000000000E+01 0. -1.
          5    1    5    5  503    0 -0.58312110258E+02 -0.28291801893E+02 -0.17269084761E+04  0.17281306962E+04  0.47000000000E+01 0. -1.
         -5    1    5    5    0  503  0.50757852171E+02 -0.16071559816E+01 -0.55938482902E+03  0.56170492204E+03  0.47000000000E+01 0. -1.
<mgrwt>
<rscale>  0 0.27456584E+03</rscale>
<asrwt>0</asrwt>
<pdfrwt beam="1">  1        1 0.40233842E+00 0.27456584E+03</pdfrwt>
<pdfrwt beam="2">  1       -1 0.11087019E-02 0.27456584E+03</pdfrwt>
<totfact> 0.21511543E+03</totfact>
</mgrwt>
</event>
<event>
 9    1  0.2065703E-002  0.2728215E+03  0.7818608E-02  0.1099676E+00
          2   -1    0    0  501    0  0.00000000000E+00  0.00000000000E+00  0.67631971566E+02  0.67631971566E+02  0.00000000000E+00 0.  1.
         -2   -1    0    0    0  501 -0.00000000000E+00 -0.00000000000E+00 -0.27513446983E+03  0.27513446983E+03  0.00000000000E+00 0.  1.
         36    2    1    2    0    0 -0.35527136788E-14  0.00000000000E+00 -0.20750249826E+03  0.34276644140E+03  0.27282145546E+03 0.  0.
         25    2    3    3    0    0  0.25760839712E+02  0.14605276714E+02 -0.15925285781E+03  0.20513456151E+03  0.12586413562E+03 0.  0.
         25    2    3    3    0    0 -0.25760839712E+02 -0.14605276714E+02 -0.48249640454E+02  0.13763187988E+03  0.12544947822E+03 0.  0.
          5    1    4    4  502    0  0.14849329355E+02 -0.34712468430E+02 -0.51836260274E-01  0.38046691495E+02  0.47000000000E+01 0. -1.
         -5    1    4    4    0  502  0.10911510357E+02  0.49317745144E+02 -0.15920102155E+03  0.16708787002E+03  0.47000000000E+01 0. -1.
          5    1    5    5  503    0 -0.74271194212E+02 -0.24817446046E+02 -0.22717394758E+02  0.81671818533E+02  0.47000000000E+01 0.  1.
         -5    1    5    5    0  503  0.48510354500E+02  0.10212169332E+02 -0.25532245695E+02  0.55960061351E+02  0.47000000000E+01 0.  1.
<mgrwt>
<rscale>  0 0.27282146E+03</rscale>
<asrwt>0</asrwt>
<pdfrwt beam="1">  1        2 0.10404918E-01 0.27282146E+03</pdfrwt>
<pdfrwt beam="2">  1       -2 0.42328381E-01 0.27282146E+03</pdfrwt>
<totfact> 0.32406847E+03</totfact>
</mgrwt>
</event>
<event>
 9    1  0.2065703E-002  0.2746990E+03  0.7818608E-02  0.1098620E+00
          1   -1    0    0  501    0  0.00000000000E+00  0.00000000000E+00  0.64906234024E+02  0.64906234024E+02  0.00000000000E+00 0.  1.
         -1   -1    0    0    0  501 -0.00000000000E+00 -0.00000000000E+00 -0.29064830151E+03  0.29064830151E+03  0.00000000000E+00 0.  1.
         36    2    1    2    0    0  0.00000000000E+00  0.14210854715E-13 -0.22574206749E+03  0.35555453554E+03  0.27469901111E+03 0.  0.
         25    2    3    3    0    0  0.45052176257E+01  0.54560198369E+02 -0.12596023250E+03  0.18687792924E+03  0.12672911280E+03 0.  0.
         25    2    3    3    0    0 -0.45052176257E+01 -0.54560198369E+02 -0.99781834985E+02  0.16867660630E+03  0.12449205071E+03 0.  0.
          5    1    4    4  502    0 -0.29730607466E+02  0.12392989868E+02 -0.12824505945E+03  0.13231167935E+03  0.47000000000E+01 0. -1.
         -5    1    4    4    0  502  0.34235825091E+02  0.42167208501E+02  0.22848269482E+01  0.54566249886E+02  0.47000000000E+01 0. -1.
          5    1    5    5  503    0 -0.10119549572E+02 -0.76590286447E+02 -0.12551381960E+02  0.78409849194E+02  0.47000000000E+01 0.  1.
         -5    1    5    5    0  503  0.56143319463E+01  0.22030088078E+02 -0.87230453025E+02  0.90266757108E+02  0.47000000000E+01 0.  1.
<mgrwt>
<rscale>  0 0.27469901E+03</rscale>
<asrwt>0</asrwt>
<pdfrwt beam="1">  1        1 0.99855745E-02 0.27469901E+03</pdfrwt>
<pdfrwt beam="2">  1       -1 0.44715123E-01 0.27469901E+03</pdfrwt>
<totfact> 0.32313024E+03</totfact>
</mgrwt>
</event>
<event>
 9    1  0.2065703E-002  0.2754062E+03  0.7818608E-02  0.1098225E+00
         -1   -1    0    0    0  501 -0.00000000000E+00  0.00000000000E+00  0.60341550907E+03  0.60341550907E+03  0.00000000000E+00 0. -1.
          1   -1    0    0  501    0  0.00000000000E+00 -0.00000000000E+00 -0.31424677766E+02  0.31424677766E+02  0.00000000000E+00 0. -1.
         36    2    1    2    0    0  0.26645352591E-14  0.71054273576E-14  0.57199083131E+03  0.63484018684E+03  0.27540615775E+03 0.  0.
         25    2    3    3    0    0  0.85804822427E+00  0.52094657653E+02  0.32858911031E+03  0.35485159779E+03  0.12342715843E+03 0.  0.
         25    2    3    3    0    0 -0.85804822427E+00 -0.52094657653E+02  0.24340172100E+03  0.27998858905E+03  0.12819759206E+03 0.  0.
          5    1    4    4  502    0  0.75024795198E+01  0.76391683599E+02  0.31793071878E+03  0.32709938622E+03  0.47000000000E+01 0. -1.
         -5    1    4    4    0  502 -0.66444312955E+01 -0.24297025946E+02  0.10658391529E+02  0.27752211571E+02  0.47000000000E+01 0. -1.
          5    1    5    5  503    0 -0.30093693318E+02 -0.16373948720E+02  0.25127483470E+01  0.34671897532E+02  0.47000000000E+01 0. -1.
         -5    1    5    5    0  503  0.29235645094E+02 -0.35720708933E+02  0.24088897265E+03  0.24531669152E+03  0.47000000000E+01 0. -1.
<mgrwt>
<rscale>  0 0.27540616E+03</rscale>
<asrwt>0</asrwt>
<pdfrwt beam="1">  1        1 0.48345663E-02 0.27540616E+03</pdfrwt>
<pdfrwt beam="2">  1       -1 0.92833147E-01 0.27540616E+03</pdfrwt>
<totfact> 0.20696284E+03</totfact>
</mgrwt>
</event>
<event>
 9    1  0.2065703E-002  0.2751772E+03  0.7818608E-02  0.1098353E+00
         -1   -1    0    0    0  501 -0.00000000000E+00  0.00000000000E+00  0.13884904184E+03  0.13884904184E+03  0.00000000000E+00 0. -1.
          1   -1    0    0  501    0  0.00000000000E+00 -0.00000000000E+00 -0.13633964174E+03  0.13633964174E+03  0.00000000000E+00 0. -1.
         36    2    1    2    0    0 -0.71054273576E-14  0.17763568394E-14  0.25094000960E+01  0.27518868359E+03  0.27517724195E+03 0.  0.
         25    2    3    3    0    0  0.29741825389E+01 -0.33411024926E+01 -0.50704431458E+02  0.13485547481E+03  0.12488014649E+03 0.  0.
         25    2    3    3    0    0 -0.29741825389E+01  0.33411024926E+01  0.53213831554E+02  0.14033320878E+03  0.12977553271E+03 0.  0.
          5    1    4    4  502    0 -0.42571075595E+02 -0.10258808701E+02 -0.71593580104E+02  0.84055162515E+02  0.47000000000E+01 0. -1.
         -5    1    4    4    0  502  0.45545258134E+02  0.69177062088E+01  0.20889148646E+02  0.50800312290E+02  0.47000000000E+01 0. -1.
          5    1    5    5  503    0  0.45100250664E+02 -0.39358936168E+02  0.58378598642E+01  0.60326852014E+02  0.47000000000E+01 0. -1.
         -5    1    5    5    0  503 -0.48074433203E+02  0.42700038660E+02  0.47375971690E+02  0.80006356766E+02  0.47000000000E+01 0. -1.
<mgrwt>
<rscale>  0 0.27517724E+03</rscale>
<asrwt>0</asrwt>
<pdfrwt beam="1">  1        1 0.20975329E-01 0.27517724E+03</pdfrwt>
<pdfrwt beam="2">  1       -1 0.21361391E-01 0.27517724E+03</pdfrwt>
<totfact> 0.43157431E+03</totfact>
</mgrwt>
</event>
<event>
 9    1  0.2065703E-002  0.2742270E+03  0.7818608E-02  0.1098884E+00
         -2   -1    0    0    0  501 -0.00000000000E+00  0.00000000000E+00  0.21788710749E+02  0.21788710749E+02  0.00000000000E+00 0. -1.
          2   -1    0    0  501    0  0.00000000000E+00 -0.00000000000E+00 -0.86283712185E+03  0.86283712185E+03  0.00000000000E+00 0. -1.
         36    2    1    2    0    0  0.00000000000E+00 -0.14210854715E-13 -0.84104841110E+03  0.88462583260E+03  0.27422697512E+03 0.  0.
         25    2    3    3    0    0  0.34912720739E+02 -0.69614907285E+02 -0.36796304160E+03  0.38881193293E+03  0.98553466782E+02 0.  0.
         25    2    3    3    0    0 -0.34912720739E+02  0.69614907285E+02 -0.47308536950E+03  0.49581389967E+03  0.12631913113E+03 0.  0.
          5    1    4    4  502    0  0.45724032309E+02 -0.83374283277E+02 -0.35205361512E+03  0.36469959715E+03  0.47000000000E+01 0.  1.
         -5    1    4    4    0  502 -0.10811311570E+02  0.13759375992E+02 -0.15909426483E+02  0.24112335776E+02  0.47000000000E+01 0.  1.
          5    1    5    5  503    0 -0.24190695210E+02  0.53043498580E+02 -0.65854295957E+02  0.88077697361E+02  0.47000000000E+01 0. -1.
         -5    1    5    5    0  503 -0.10722025529E+02  0.16571408705E+02 -0.40723107354E+03  0.40773620231E+03  0.47000000000E+01 0. -1.
<mgrwt>
<rscale>  0 0.27422698E+03</rscale>
<asrwt>0</asrwt>
<pdfrwt beam="1">  1        2 0.13274417E+00 0.27422698E+03</pdfrwt>
<pdfrwt beam="2">  1       -2 0.33521095E-02 0.27422698E+03</pdfrwt>
<totfact> 0.11491454E+04</totfact>
</mgrwt>
</event>
<event>
 9    1  0.2065703E-002  0.2743374E+03  0.7818608E-02  0.1098823E+00
          1   -1    0    0  501    0  0.00000000000E+00  0.00000000000E+00  0.12706047566E+03  0.12706047566E+03  0.00000000000E+00 0.  1.
         -1   -1    0    0    0  501 -0.00000000000E+00 -0.00000000000E+00 -0.14808112942E+03  0.14808112942E+03  0.00000000000E+00 0.  1.
         36    2    1    2    0    0  0.71054273576E-14 -0.35527136788E-14 -0.21020653753E+02  0.27514160508E+03  0.27433744724E+03 0.  0.
         25    2    3    3    0    0 -0.41201687407E+02 -0.19110464340E+02  0.21652922700E+02  0.13413220848E+03  0.12433748991E+03 0.  0.
         25    2    3    3    0    0  0.41201687407E+02  0.19110464340E+02 -0.42673576453E+02  0.14100939660E+03  0.12649042220E+03 0.  0.
          5    1    4    4  502    0 -0.81359605423E+02  0.57371284854E+01  0.27759060819E+02  0.86284155529E+02  0.47000000000E+01 0. -1.
         -5    1    4    4    0  502  0.40157918016E+02 -0.24847592825E+02 -0.61061381189E+01  0.47848052952E+02  0.47000000000E+01 0. -1.
          5    1    5    5  503    0 -0.44811751067E+02 -0.26428512820E+01 -0.19662055581E+02  0.49231739013E+02  0.47000000000E+01 0. -1.
         -5    1    5    5    0  503  0.86013438473E+02  0.21753315622E+02 -0.23011520872E+02  0.91777657583E+02  0.47000000000E+01 0. -1.
<mgrwt>
<rscale>  0 0.27433745E+03</rscale>
<asrwt>0</asrwt>
<pdfrwt beam="1">  1        1 0.19547765E-01 0.27433745E+03</pdfrwt>
<pdfrwt beam="2">  1       -1 0.22781712E-01 0.27433745E+03</pdfrwt>
<totfact> 0.42515166E+03</totfact>
</mgrwt>
</event>
<event>
 9    1  0.2065703E-002  0.2755181E+03  0.7818608E-02  0.1098162E+00
          1   -1    0    0  501    0  0.00000000000E+00  0.00000000000E+00  0.33926060499E+03  0.33926060499E+03  0.00000000000E+00 0.  1.
         -1   -1    0    0    0  501 -0.00000000000E+00 -0.00000000000E+00 -0.55937980903E+02  0.55937980903E+02  0.00000000000E+00 0.  1.
         36    2    1    2    0    0  0.00000000000E+00 -0.35527136788E-14  0.28332262408E+03  0.39519858589E+03  0.27551808103E+03 0.  0.
         25    2    3    3    0    0 -0.79291141589E+01 -0.18473774950E+02  0.16416304098E+03  0.20831841871E+03  0.12666060293E+03 0.  0.
         25    2    3    3    0    0  0.79291141589E+01  0.18473774950E+02  0.11915958310E+03  0.18688016718E+03  0.14255188329E+03 0.  0.
          5    1    4    4  502    0 -0.41899330959E+01 -0.34320363590E+02 -0.76084138429E+01  0.35713034840E+02  0.47000000000E+01 0.  1.
         -5    1    4    4    0  502 -0.37391810630E+01  0.15846588640E+02  0.17177145483E+03  0.17260538387E+03  0.47000000000E+01 0.  1.
          5    1    5    5  503    0 -0.24474653920E+02 -0.56490428774E+02  0.44273550463E+02  0.75976407510E+02  0.47000000000E+01 0. -1.
         -5    1    5    5    0  503  0.32403768078E+02  0.74964203724E+02  0.74886032637E+02  0.11090375967E+03  0.47000000000E+01 0. -1.
<mgrwt>
<rscale>  0 0.27551808E+03</rscale>
<asrwt>0</asrwt>
<pdfrwt beam="1">  1        1 0.52193938E-01 0.27551808E+03</pdfrwt>
<pdfrwt beam="2">  1       -1 0.86058434E-02 0.27551808E+03</pdfrwt>
<totfact> 0.57268435E+03</totfact>
</mgrwt>
</event>
<event>
 9    1  0.2065703E-002  0.2749609E+03  0.7818608E-02  0.1098473E+00
         -1   -1    0    0    0  501 -0.00000000000E+00  0.00000000000E+00  0.66982081643E+02  0.66982081643E+02  0.00000000000E+00 0. -1.
          1   -1    0    0  501    0  0.00000000000E+00 -0.00000000000E+00 -0.28217805709E+03  0.28217805709E+03  0.00000000000E+00 0. -1.
         36    2    1    2    0    0 -0.35527136788E-14 -0.26645352591E-14 -0.21519597545E+03  0.34916013873E+03  0.27496089655E+03 0.  0.
         25    2    3    3    0    0  0.26691874160E+02  0.36898998771E+01 -0.43212382180E+02  0.13430606778E+03  0.12427686173E+03 0.  0.
         25    2    3    3    0    0 -0.26691874160E+02 -0.36898998771E+01 -0.17198359327E+03  0.21485407095E+03  0.12592793155E+03 0.  0.
          5    1    4    4  502    0  0.97054869721E+01  0.87927061076E+01  0.43501334250E+02  0.45672357500E+02  0.47000000000E+01 0.  1.
         -5    1    4    4    0  502  0.16986387188E+02 -0.51028062305E+01 -0.86713716430E+02  0.88633710281E+02  0.47000000000E+01 0.  1.
          5    1    5    5  503    0  0.22315299193E+01  0.21333695474E+02  0.13255424796E+02  0.25649611593E+02  0.47000000000E+01 0. -1.
         -5    1    5    5    0  503 -0.28923404079E+02 -0.25023595352E+02 -0.18523901806E+03  0.18920445936E+03  0.47000000000E+01 0. -1.
<mgrwt>
<rscale>  0 0.27496090E+03</rscale>
<asrwt>0</asrwt>
<pdfrwt beam="1">  1        1 0.43412009E-01 0.27496090E+03</pdfrwt>
<pdfrwt beam="2">  1       -1 0.10304936E-01 0.27496090E+03</pdfrwt>
<totfact> 0.54717608E+03</totfact>
</mgrwt>
</event>
<event>
 9    1  0.2065703E-002  0.2742348E+03  0.7818608E-02  0.1098880E+00
          2   -1    0    0  501    0  0.00000000000E+00  0.00000000000E+00  0.15677031448E+02  0.15677031448E+02  0.00000000000E+00 0. -1.
         -2   -1    0    0    0  501 -0.00000000000E+00 -0.00000000000E+00 -0.11992817311E+04  0.11992817311E+04  0.00000000000E+00 0. -1.
         36    2    1    2    0    0 -0.35527136788E-14  0.00000000000E+00 -0.11836046997E+04  0.12149587626E+04  0.27423477106E+03 0.  0.
         25    2    3    3    0    0  0.17651577576E+02  0.12584753198E+02 -0.85942248936E+03  0.86764207503E+03  0.11715716339E+03 0.  0.
         25    2    3    3    0    0 -0.17651577576E+02 -0.12584753198E+02 -0.32418221034E+03  0.34731668757E+03  0.12273883558E+03 0.  0.
          5    1    4    4  502    0 -0.39839947568E+02  0.36415091079E+02 -0.48980015053E+03  0.49278753813E+03  0.47000000000E+01 0.  1.
         -5    1    4    4    0  502  0.57491525143E+02 -0.23830337881E+02 -0.36962233883E+03  0.37485453690E+03  0.47000000000E+01 0.  1.
          5    1    5    5  503    0  0.30139725219E+02 -0.27220983837E+02 -0.27143929906E+03  0.27450094367E+03  0.47000000000E+01 0. -1.
         -5    1    5    5    0  503 -0.47791302795E+02  0.14636230639E+02 -0.52742911272E+02  0.72815743899E+02  0.47000000000E+01 0. -1.
<mgrwt>
<rscale>  0 0.27423477E+03</rscale>
<asrwt>0</asrwt>
<pdfrwt beam="1">  1        2 0.24118515E-02 0.27423477E+03</pdfrwt>
<pdfrwt beam="2">  1       -2 0.18450484E+00 0.27423477E+03</pdfrwt>
<totfact> 0.76783978E+02</totfact>
</mgrwt>
</event>
<event>
 9    1  0.2065703E-002  0.2754360E+03  0.7818608E-02  0.1098208E+00
         -1   -1    0    0    0  501 -0.00000000000E+00  0.00000000000E+00  0.79326786176E+02  0.79326786176E+02  0.00000000000E+00 0. -1.
          1   -1    0    0  501    0  0.00000000000E+00 -0.00000000000E+00 -0.23909015733E+03  0.23909015733E+03  0.00000000000E+00 0. -1.
         36    2    1    2    0    0  0.35527136788E-14  0.00000000000E+00 -0.15976337115E+03  0.31841694350E+03  0.27543604548E+03 0.  0.
         25    2    3    3    0    0  0.68463753193E+01 -0.32972355934E+02 -0.13850734641E+03  0.18951822094E+03  0.12489524389E+03 0.  0.
         25    2    3    3    0    0 -0.68463753193E+01  0.32972355934E+02 -0.21256024743E+02  0.12889872257E+03  0.12259287492E+03 0.  0.
          5    1    4    4  502    0  0.74385821509E+01 -0.45227887756E+02 -0.15879656709E+03  0.16534610384E+03  0.47000000000E+01 0.  1.
         -5    1    4    4    0  502 -0.59220683152E+00  0.12255531822E+02  0.20289220680E+02  0.24172117098E+02  0.47000000000E+01 0.  1.
          5    1    5    5  503    0 -0.41400870331E+02  0.33456735246E+02  0.34159426251E+02  0.63421933109E+02  0.47000000000E+01 0. -1.
         -5    1    5    5    0  503  0.34554495012E+02 -0.48437931192E+00 -0.55415450994E+02  0.65476789458E+02  0.47000000000E+01 0. -1.
<mgrwt>
<rscale>  0 0.27543605E+03</rscale>
<asrwt>0</asrwt>
<pdfrwt beam="1">  1        1 0.36783101E-01 0.27543605E+03</pdfrwt>
<pdfrwt beam="2">  1       -1 0.12204121E-01 0.27543605E+03</pdfrwt>
<totfact> 0.51782320E+03</totfact>
</mgrwt>
</event>
<event>
 9    1  0.2065703E-002  0.2758438E+03  0.7818608E-02  0.1097981E+00
          2   -1    0    0  501    0  0.00000000000E+00  0.00000000000E+00  0.20635735715E+03  0.20635735715E+03  0.00000000000E+00 0. -1.
         -2   -1    0    0    0  501 -0.00000000000E+00 -0.00000000000E+00 -0.92182067086E+02  0.92182067086E+02  0.00000000000E+00 0. -1.
         36    2    1    2    0    0  0.35527136788E-14  0.00000000000E+00  0.11417529007E+03  0.29853942424E+03  0.27584378000E+03 0.  0.
         25    2    3    3    0    0 -0.74110769212E+01 -0.48175056522E+02  0.24296733540E+02  0.13827511650E+03  0.12709805841E+03 0.  0.
         25    2    3    3    0    0  0.74110769212E+01  0.48175056522E+02  0.89878556529E+02  0.16026430774E+03  0.12341285702E+03 0.  0.
          5    1    4    4  502    0  0.16328948653E+02  0.34653894463E+02  0.34004776016E+02  0.51438718466E+02  0.47000000000E+01 0. -1.
         -5    1    4    4    0  502 -0.23740025575E+02 -0.82828950985E+02 -0.97080424761E+01  0.86836398038E+02  0.47000000000E+01 0. -1.
          5    1    5    5  503    0  0.48829343542E+02  0.48864258858E+02  0.97278201244E+01  0.69919532813E+02  0.47000000000E+01 0.  1.
         -5    1    5    5    0  503 -0.41418266621E+02 -0.68920233545E+00  0.80150736404E+02  0.90344774923E+02  0.47000000000E+01 0.  1.
<mgrwt>
<rscale>  0 0.27584378E+03</rscale>
<asrwt>0</asrwt>
<pdfrwt beam="1">  1        2 0.31747286E-01 0.27584378E+03</pdfrwt>
<pdfrwt beam="2">  1       -2 0.14181856E-01 0.27584378E+03</pdfrwt>
<totfact> 0.61434281E+03</totfact>
</mgrwt>
</event>
<event>
 9    1  0.2065703E-002  0.2755123E+03  0.7818608E-02  0.1098166E+00
          2   -1    0    0  501    0  0.00000000000E+00  0.00000000000E+00  0.33090853894E+03  0.33090853894E+03  0.00000000000E+00 0.  1.
         -2   -1    0    0    0  501 -0.00000000000E+00 -0.00000000000E+00 -0.57347433720E+02  0.57347433720E+02  0.00000000000E+00 0.  1.
         36    2    1    2    0    0  0.71054273576E-14  0.35527136788E-14  0.27356110522E+03  0.38825597266E+03  0.27551229014E+03 0.  0.
         25    2    3    3    0    0  0.59677171857E+02 -0.15100493101E+02  0.13424509736E+03  0.19332442336E+03  0.12475254214E+03 0.  0.
         25    2    3    3    0    0 -0.59677171857E+02  0.15100493101E+02  0.13931600786E+03  0.19493154930E+03  0.12165512375E+03 0.  0.
          5    1    4    4  502    0  0.47586668690E+02 -0.53165166812E+02  0.23126578910E+02  0.75152875203E+02  0.47000000000E+01 0. -1.
         -5    1    4    4    0  502  0.12090503167E+02  0.38064673711E+02  0.11111851845E+03  0.11817154815E+03  0.47000000000E+01 0. -1.
          5    1    5    5  503    0 -0.60563564980E+02 -0.27949464279E+02  0.22836617270E+02  0.70659175235E+02  0.47000000000E+01 0.  1.
         -5    1    5    5    0  503  0.88639312370E+00  0.43049957380E+02  0.11647939059E+03  0.12427237407E+03  0.47000000000E+01 0.  1.
<mgrwt>
<rscale>  0 0.27551229E+03</rscale>
<asrwt>0</asrwt>
<pdfrwt beam="1">  1        2 0.50909005E-01 0.27551229E+03</pdfrwt>
<pdfrwt beam="2">  1       -2 0.88226823E-02 0.27551229E+03</pdfrwt>
<totfact> 0.79031049E+03</totfact>
</mgrwt>
</event>
<event>
 9    1  0.2065703E-002  0.2751566E+03  0.7818608E-02  0.1098364E+00
          2   -1    0    0  501    0  0.00000000000E+00  0.00000000000E+00  0.29966362963E+03  0.29966362963E+03  0.00000000000E+00 0.  1.
         -2   -1    0    0    0  501 -0.00000000000E+00 -0.00000000000E+00 -0.63163470657E+02  0.63163470657E+02  0.00000000000E+00 0.  1.
         36    2    1    2    0    0 -0.71054273576E-14  0.00000000000E+00  0.23650015898E+03  0.36282710029E+03  0.27515664540E+03 0.  0.
         25    2    3    3    0    0 -0.22050537835E+02 -0.33624775958E+02  0.15223504293E+03  0.20242886879E+03  0.12722062272E+03 0.  0.
         25    2    3    3    0    0  0.22050537835E+02  0.33624775958E+02  0.84265116043E+02  0.16039823150E+03  0.13042289335E+03 0.  0.
          5    1    4    4  502    0 -0.65310775336E+02  0.15719560911E+02  0.83705372820E+02  0.10743035609E+03  0.47000000000E+01 0.  1.
         -5    1    4    4    0  502  0.43260237501E+02 -0.49344336869E+02  0.68529670114E+02  0.94998512702E+02  0.47000000000E+01 0.  1.
          5    1    5    5  503    0 -0.10709665573E+02  0.14620243185E+01  0.10790473797E+03  0.10854656571E+03  0.47000000000E+01 0. -1.
         -5    1    5    5    0  503  0.32760203408E+02  0.32162751640E+02 -0.23639621924E+02  0.51851665789E+02  0.47000000000E+01 0. -1.
<mgrwt>
<rscale>  0 0.27515665E+03</rscale>
<asrwt>0</asrwt>
<pdfrwt beam="1">  1        2 0.46102096E-01 0.27515665E+03</pdfrwt>
<pdfrwt beam="2">  1       -2 0.97174572E-02 0.27515665E+03</pdfrwt>
<totfact> 0.75483787E+03</totfact>
</mgrwt>
</event>
<event>
 9    1  0.2065703E-002  0.2714549E+03  0.7818608E-02  0.1100450E+00
         -3   -1    0    0    0  501 -0.00000000000E+00  0.00000000000E+00  0.11028376049E+03  0.11028376049E+03  0.00000000000E+00 0.  1.
          3   -1    0    0  501    0  0.00000000000E+00 -0.00000000000E+00 -0.16704128254E+03  0.16704128254E+03  0.00000000000E+00 0.  1.
         36    2    1    2    0    0  0.00000000000E+00  0.00000000000E+00 -0.56757522057E+02  0.27732504303E+03  0.27145490082E+03 0.  0.
         25    2    3    3    0    0  0.50290226629E+02 -0.22449940444E+02 -0.18416879184E+02  0.13328814052E+03  0.11997266458E+03 0.  0.
         25    2    3    3    0    0 -0.50290226629E+02  0.22449940444E+02 -0.38340642873E+02  0.14403690250E+03  0.12745005950E+03 0.  0.
          5    1    4    4  502    0  0.29100186729E+02 -0.24730304940E+02  0.49071930326E+02  0.62358264857E+02  0.47000000000E+01 0. -1.
         -5    1    4    4    0  502  0.21190039900E+02  0.22803644953E+01 -0.67488809510E+02  0.70929875668E+02  0.47000000000E+01 0. -1.
          5    1    5    5  503    0  0.16161006795E+02  0.47379090998E+02 -0.51194411182E+02  0.71755934533E+02  0.47000000000E+01 0. -1.
         -5    1    5    5    0  503 -0.66451233424E+02 -0.24929150554E+02  0.12853768309E+02  0.72280967970E+02  0.47000000000E+01 0. -1.
<mgrwt>
<rscale>  0 0.27145490E+03</rscale>
<asrwt>0</asrwt>
<pdfrwt beam="1">  1        3 0.25698659E-01 0.27145490E+03</pdfrwt>
<pdfrwt beam="2">  1       -3 0.16966733E-01 0.27145490E+03</pdfrwt>
<totfact> 0.10878278E+03</totfact>
</mgrwt>
</event>
<event>
 9    1  0.2065703E-002  0.2744819E+03  0.7818608E-02  0.1098742E+00
         -2   -1    0    0    0  501 -0.00000000000E+00  0.00000000000E+00  0.38365075690E+02  0.38365075690E+02  0.00000000000E+00 0.  1.
          2   -1    0    0  501    0  0.00000000000E+00 -0.00000000000E+00 -0.49094337802E+03  0.49094337802E+03  0.00000000000E+00 0.  1.
         36    2    1    2    0    0 -0.71054273576E-14  0.00000000000E+00 -0.45257830233E+03  0.52930845371E+03  0.27448191093E+03 0.  0.
         25    2    3    3    0    0 -0.96637882560E+01  0.10950061635E+02 -0.35213446872E+03  0.37400203072E+03  0.12516206404E+03 0.  0.
         25    2    3    3    0    0  0.96637882560E+01 -0.10950061635E+02 -0.10044383362E+03  0.15530642299E+03  0.11754926055E+03 0.  0.
          5    1    4    4  502    0  0.13417372446E+02  0.43501851804E+02 -0.44770293703E+02  0.64022700599E+02  0.47000000000E+01 0. -1.
         -5    1    4    4    0  502 -0.23081160702E+02 -0.32551790169E+02 -0.30736417501E+03  0.30997933012E+03  0.47000000000E+01 0. -1.
          5    1    5    5  503    0  0.49765992267E+02 -0.43634694781E+02 -0.60228644769E+02  0.89611496058E+02  0.47000000000E+01 0.  1.
         -5    1    5    5    0  503 -0.40102204012E+02  0.32684633146E+02 -0.40215188847E+02  0.65694926931E+02  0.47000000000E+01 0.  1.
<mgrwt>
<rscale>  0 0.27448191E+03</rscale>
<asrwt>0</asrwt>
<pdfrwt beam="1">  1        2 0.75529750E-01 0.27448191E+03</pdfrwt>
<pdfrwt beam="2">  1       -2 0.59023194E-02 0.27448191E+03</pdfrwt>
<totfact> 0.95897350E+03</totfact>
</mgrwt>
</event>
<event>
 9    1  0.2065703E-002  0.2754315E+03  0.7818608E-02  0.1098211E+00
         -2   -1    0    0    0  501 -0.00000000000E+00  0.00000000000E+00  0.13539741385E+02  0.13539741385E+02  0.00000000000E+00 0.  1.
          2   -1    0    0  501    0  0.00000000000E+00 -0.00000000000E+00 -0.14007381015E+04  0.14007381015E+04  0.00000000000E+00 0.  1.
         36    2    1    2    0    0  0.00000000000E+00 -0.71054273576E-14 -0.13871983601E+04  0.14142778428E+04  0.27543152791E+03 0.  0.
         25    2    3    3    0    0 -0.31169541980E+02  0.22171329221E+02 -0.93512048839E+03  0.94414934613E+03  0.12451727519E+03 0.  0.
         25    2    3    3    0    0  0.31169541980E+02 -0.22171329221E+02 -0.45207787169E+03  0.47012849671E+03  0.12322050625E+03 0.  0.
          5    1    4    4  502    0 -0.26240621358E+02 -0.49781315003E+02 -0.48277161693E+03  0.48606303464E+03  0.47000000000E+01 0. -1.
         -5    1    4    4    0  502 -0.49289206219E+01  0.71952644224E+02 -0.45234887146E+03  0.45808631149E+03  0.47000000000E+01 0. -1.
          5    1    5    5  503    0 -0.25760189101E+00  0.44201687997E+02 -0.86890800764E+02  0.97601008385E+02  0.47000000000E+01 0. -1.
         -5    1    5    5    0  503  0.31427143871E+02 -0.66373017217E+02 -0.36518707093E+03  0.37252748833E+03  0.47000000000E+01 0. -1.
<mgrwt>
<rscale>  0 0.27543153E+03</rscale>
<asrwt>0</asrwt>
<pdfrwt beam="1">  1        2 0.21549823E+00 0.27543153E+03</pdfrwt>
<pdfrwt beam="2">  1       -2 0.20830366E-02 0.27543153E+03</pdfrwt>
<totfact> 0.11237990E+04</totfact>
</mgrwt>
</event>
<event>
 9    1  0.2065703E-002  0.2742051E+03  0.7818608E-02  0.1098897E+00
          1   -1    0    0  501    0  0.00000000000E+00  0.00000000000E+00  0.57554405150E+02  0.57554405150E+02  0.00000000000E+00 0. -1.
         -1   -1    0    0    0  501 -0.00000000000E+00 -0.00000000000E+00 -0.32659730854E+03  0.32659730854E+03  0.00000000000E+00 0. -1.
         36    2    1    2    0    0  0.35527136788E-14  0.00000000000E+00 -0.26904290339E+03  0.38415171369E+03  0.27420513355E+03 0.  0.
         25    2    3    3    0    0  0.83156767551E+01 -0.12619684248E+02 -0.21770707701E+03  0.25080366670E+03  0.12360299729E+03 0.  0.
         25    2    3    3    0    0 -0.83156767551E+01  0.12619684248E+02 -0.51335826384E+02  0.13334804700E+03  0.12213896862E+03 0.  0.
          5    1    4    4  502    0 -0.24915041704E+02  0.38602343855E+02 -0.34541562343E+02  0.57672435212E+02  0.47000000000E+01 0. -1.
         -5    1    4    4    0  502  0.33230718459E+02 -0.51222028103E+02 -0.18316551467E+03  0.19313123148E+03  0.47000000000E+01 0. -1.
          5    1    5    5  503    0 -0.23474439341E+02 -0.49695251085E+02 -0.39792042691E+02  0.68015909493E+02  0.47000000000E+01 0.  1.
         -5    1    5    5    0  503  0.15158762586E+02  0.62314935333E+02 -0.11543783693E+02  0.65332137503E+02  0.47000000000E+01 0.  1.
<mgrwt>
<rscale>  0 0.27420513E+03</rscale>
<asrwt>0</asrwt>
<pdfrwt beam="1">  1        1 0.88545239E-02 0.27420513E+03</pdfrwt>
<pdfrwt beam="2">  1       -1 0.50245740E-01 0.27420513E+03</pdfrwt>
<totfact> 0.30695467E+03</totfact>
</mgrwt>
</event>
<event>
 9    1  0.2065703E-002  0.2748727E+03  0.7818608E-02  0.1098523E+00
          1   -1    0    0  501    0  0.00000000000E+00  0.00000000000E+00  0.30625052537E+03  0.30625052537E+03  0.00000000000E+00 0.  1.
         -1   -1    0    0    0  501 -0.00000000000E+00 -0.00000000000E+00 -0.61677459126E+02  0.61677459126E+02  0.00000000000E+00 0.  1.
         36    2    1    2    0    0  0.00000000000E+00  0.00000000000E+00  0.24457306624E+03  0.36792798450E+03  0.27487272881E+03 0.  0.
         25    2    3    3    0    0  0.18502845611E+02  0.46959646394E+02  0.11420185077E+03  0.17714807994E+03  0.12566549176E+03 0.  0.
         25    2    3    3    0    0 -0.18502845611E+02 -0.46959646394E+02  0.13037121547E+03  0.19077990456E+03  0.12981815926E+03 0.  0.
          5    1    4    4  502    0  0.30883932363E+02  0.87428110467E+02  0.77975789682E+02  0.12124275465E+03  0.47000000000E+01 0. -1.
         -5    1    4    4    0  502 -0.12381086751E+02 -0.40468464073E+02  0.36226061089E+02  0.55905325288E+02  0.47000000000E+01 0. -1.
          5    1    5    5  503    0  0.47774964542E+02 -0.24980752424E+02  0.15541114880E+02  0.56303654236E+02  0.47000000000E+01 0. -1.
         -5    1    5    5    0  503 -0.66277810153E+02 -0.21978893970E+02  0.11483010059E+03  0.13447625032E+03  0.47000000000E+01 0. -1.
<mgrwt>
<rscale>  0 0.27487273E+03</rscale>
<asrwt>0</asrwt>
<pdfrwt beam="1">  1        1 0.47115464E-01 0.27487273E+03</pdfrwt>
<pdfrwt beam="2">  1       -1 0.94888401E-02 0.27487273E+03</pdfrwt>
<totfact> 0.56076078E+03</totfact>
</mgrwt>
</event>
<event>
 9    1  0.2065703E-002  0.2754212E+03  0.7818608E-02  0.1098216E+00
          2   -1    0    0  501    0  0.00000000000E+00  0.00000000000E+00  0.99371055979E+02  0.99371055979E+02  0.00000000000E+00 0. -1.
         -2   -1    0    0    0  501 -0.00000000000E+00 -0.00000000000E+00 -0.19084231885E+03  0.19084231885E+03  0.00000000000E+00 0. -1.
         36    2    1    2    0    0 -0.35527136788E-14  0.00000000000E+00 -0.91471262868E+02  0.29021337483E+03  0.27542115205E+03 0.  0.
         25    2    3    3    0    0  0.12341034065E+02 -0.50101719540E+02 -0.74195071779E+02  0.15498233351E+03  0.12590524851E+03 0.  0.
         25    2    3    3    0    0 -0.12341034065E+02  0.50101719540E+02 -0.17276191089E+02  0.13523104131E+03  0.12380017905E+03 0.  0.
          5    1    4    4  502    0 -0.63164169285E+01 -0.51713588290E+02  0.22088538470E+02  0.56781914976E+02  0.47000000000E+01 0. -1.
         -5    1    4    4    0  502  0.18657450994E+02  0.16118687502E+01 -0.96283610248E+02  0.98200418537E+02  0.47000000000E+01 0. -1.
          5    1    5    5  503    0 -0.11649902398E+02  0.90085791050E+02 -0.24779987172E+02  0.94272518473E+02  0.47000000000E+01 0. -1.
         -5    1    5    5    0  503 -0.69113166687E+00 -0.39984071510E+02  0.75037960821E+01  0.40958522839E+02  0.47000000000E+01 0. -1.
<mgrwt>
<rscale>  0 0.27542115E+03</rscale>
<asrwt>0</asrwt>
<pdfrwt beam="1">  1        2 0.15287855E-01 0.27542115E+03</pdfrwt>
<pdfrwt beam="2">  1       -2 0.29360356E-01 0.27542115E+03</pdfrwt>
<totfact> 0.40298683E+03</totfact>
</mgrwt>
</event>
<event>
 9    1  0.2065703E-002  0.2742634E+03  0.7818608E-02  0.1098864E+00
          2   -1    0    0  501    0  0.00000000000E+00  0.00000000000E+00  0.22976746498E+04  0.22976746498E+04  0.00000000000E+00 0. -1.
         -2   -1    0    0    0  501 -0.00000000000E+00 -0.00000000000E+00 -0.81844079972E+01  0.81844079972E+01  0.00000000000E+00 0. -1.
         36    2    1    2    0    0  0.14210854715E-13  0.00000000000E+00  0.22894902418E+04  0.23058590578E+04  0.27426342650E+03 0.  0.
         25    2    3    3    0    0  0.50233835704E+02  0.10074648752E+02  0.10876282596E+04  0.10957016963E+04  0.12248281284E+03 0.  0.
         25    2    3    3    0    0 -0.50233835704E+02 -0.10074648752E+02  0.12018619822E+04  0.12101573615E+04  0.13184717848E+03 0.  0.
          5    1    4    4  502    0 -0.15143561789E+02  0.51654592037E+02  0.51760724066E+03  0.52041989770E+03  0.47000000000E+01 0.  1.
         -5    1    4    4    0  502  0.65377397493E+02 -0.41579943285E+02  0.57002101891E+03  0.57528179859E+03  0.47000000000E+01 0.  1.
          5    1    5    5  503    0 -0.31953138179E+02 -0.61126716540E+02  0.36257578606E+03  0.36910807246E+03  0.47000000000E+01 0. -1.
         -5    1    5    5    0  503 -0.18280697525E+02  0.51052067789E+02  0.83928619616E+03  0.84104928904E+03  0.47000000000E+01 0. -1.
<mgrwt>
<rscale>  0 0.27426343E+03</rscale>
<asrwt>0</asrwt>
<pdfrwt beam="1">  1        2 0.35348789E+00 0.27426343E+03</pdfrwt>
<pdfrwt beam="2">  1       -2 0.12591415E-02 0.27426343E+03</pdfrwt>
<totfact> 0.78687712E+03</totfact>
</mgrwt>
</event>
<event>
 9    1  0.2065703E-002  0.2796356E+03  0.7818608E-02  0.1095888E+00
         -3   -1    0    0    0  501 -0.00000000000E+00  0.00000000000E+00  0.48455902980E+02  0.48455902980E+02  0.00000000000E+00 0. -1.
          3   -1    0    0  501    0  0.00000000000E+00 -0.00000000000E+00 -0.40343925162E+03  0.40343925162E+03  0.00000000000E+00 0. -1.
         36    2    1    2    0    0  0.00000000000E+00  0.14210854715E-13 -0.35498334864E+03  0.45189515460E+03  0.27963557166E+03 0.  0.
         25    2    3    3    0    0 -0.20382561922E+02 -0.77360660324E+02 -0.16138606791E+03  0.22617734735E+03  0.13678672795E+03 0.  0.
         25    2    3    3    0    0  0.20382561922E+02  0.77360660324E+02 -0.19359728073E+03  0.22571780725E+03  0.84074376640E+02 0.  0.
          5    1    4    4  502    0 -0.21481380453E+02  0.18953249207E+02  0.90005097773E+01  0.30393659502E+02  0.47000000000E+01 0. -1.
         -5    1    4    4    0  502  0.10988185309E+01 -0.96313909532E+02 -0.17038657769E+03  0.19578368785E+03  0.47000000000E+01 0. -1.
          5    1    5    5  503    0  0.41358696107E+02  0.91631179956E+01 -0.92947441907E+02  0.10225371109E+03  0.47000000000E+01 0. -1.
         -5    1    5    5    0  503 -0.20976134185E+02  0.68197542329E+02 -0.10064983883E+03  0.12346409616E+03  0.47000000000E+01 0. -1.
<mgrwt>
<rscale>  0 0.27963557E+03</rscale>
<asrwt>0</asrwt>
<pdfrwt beam="1">  1        3 0.62067576E-01 0.27963557E+03</pdfrwt>
<pdfrwt beam="2">  1       -3 0.74547544E-02 0.27963557E+03</pdfrwt>
<totfact> 0.78238505E+02</totfact>
</mgrwt>
</event>
<event>
 9    1  0.2065703E-002  0.2792905E+03  0.7818608E-02  0.1096077E+00
          2   -1    0    0  501    0  0.00000000000E+00  0.00000000000E+00  0.22301215786E+04  0.22301215786E+04  0.00000000000E+00 0. -1.
         -2   -1    0    0    0  501 -0.00000000000E+00 -0.00000000000E+00 -0.87442742700E+01  0.87442742700E+01  0.00000000000E+00 0. -1.
         36    2    1    2    0    0  0.71054273576E-14  0.00000000000E+00  0.22213773044E+04  0.22388658529E+04  0.27929049206E+03 0.  0.
         25    2    3    3    0    0 -0.55761245495E+02 -0.11938023324E+02  0.12787640499E+04  0.12861400591E+04  0.12516758121E+03 0.  0.
         25    2    3    3    0    0  0.55761245495E+02  0.11938023324E+02  0.94261325446E+03  0.95272579381E+03  0.12615410339E+03 0.  0.
          5    1    4    4  502    0 -0.49342597472E+01 -0.59149356562E+02  0.81746494640E+03  0.81963041787E+03  0.47000000000E+01 0.  1.
         -5    1    4    4    0  502 -0.50826985748E+02  0.47211333238E+02  0.46129910349E+03  0.46650964122E+03  0.47000000000E+01 0.  1.
          5    1    5    5  503    0  0.26178746721E+02  0.66547467373E+02  0.38210627440E+03  0.38876880936E+03  0.47000000000E+01 0. -1.
         -5    1    5    5    0  503  0.29582498774E+02 -0.54609444049E+02  0.56050698006E+03  0.56395698445E+03  0.47000000000E+01 0. -1.
<mgrwt>
<rscale>  0 0.27929049E+03</rscale>
<asrwt>0</asrwt>
<pdfrwt beam="1">  1        2 0.34309518E+00 0.27929049E+03</pdfrwt>
<pdfrwt beam="2">  1       -2 0.13452747E-02 0.27929049E+03</pdfrwt>
<totfact> 0.77644976E+03</totfact>
</mgrwt>
</event>
<event>
 9    1  0.2065703E-002  0.2749427E+03  0.7818608E-02  0.1098484E+00
          1   -1    0    0  501    0  0.00000000000E+00  0.00000000000E+00  0.58474698990E+03  0.58474698990E+03  0.00000000000E+00 0. -1.
         -1   -1    0    0    0  501 -0.00000000000E+00 -0.00000000000E+00 -0.32318898528E+02  0.32318898528E+02  0.00000000000E+00 0. -1.
         36    2    1    2    0    0  0.00000000000E+00  0.71054273576E-14  0.55242809137E+03  0.61706588843E+03  0.27494274772E+03 0.  0.
         25    2    3    3    0    0  0.97430795981E+01  0.26530183488E+02  0.40196615727E+03  0.42130260179E+03  0.12296467969E+03 0.  0.
         25    2    3    3    0    0 -0.97430795981E+01 -0.26530183488E+02  0.15046193411E+03  0.19576328664E+03  0.12200693646E+03 0.  0.
          5    1    4    4  502    0  0.35855607559E+02  0.16705064412E+02  0.34350279417E+02  0.52599576676E+02  0.47000000000E+01 0. -1.
         -5    1    4    4    0  502 -0.26112527961E+02  0.98251190760E+01  0.36761587785E+03  0.36870302511E+03  0.47000000000E+01 0. -1.
          5    1    5    5  503    0 -0.39322164797E+02  0.37504843929E+02  0.66036412703E+02  0.85648956591E+02  0.47000000000E+01 0. -1.
         -5    1    5    5    0  503  0.29579085199E+02 -0.64035027417E+02  0.84425521403E+02  0.11011433005E+03  0.47000000000E+01 0. -1.
<mgrwt>
<rscale>  0 0.27494275E+03</rscale>
<asrwt>0</asrwt>
<pdfrwt beam="1">  1        1 0.89961068E-01 0.27494275E+03</pdfrwt>
<pdfrwt beam="2">  1       -1 0.49721387E-02 0.27494275E+03</pdfrwt>
<totfact> 0.64460867E+03</totfact>
</mgrwt>
</event>
<event>
 9    1  0.2065703E-002  0.2754815E+03  0.7818608E-02  0.1098183E+00
         -4   -1    0    0    0  501 -0.00000000000E+00  0.00000000000E+00  0.67801324450E+02  0.67801324450E+02  0.00000000000E+00 0. -1.
          4   -1    0    0  501    0  0.00000000000E+00 -0.00000000000E+00 -0.27982503811E+03  0.27982503811E+03  0.00000000000E+00 0. -1.
         36    2    1    2    0    0  0.00000000000E+00 -0.71054273576E-14 -0.21202371366E+03  0.34762636256E+03  0.27548145635E+03 0.  0.
         25    2    3    3    0    0 -0.10244335017E+01 -0.30447526494E+02 -0.16705755860E+03  0.21177917074E+03  0.12654678163E+03 0.  0.
         25    2    3    3    0    0  0.10244335017E+01  0.30447526494E+02 -0.44966155063E+02  0.13584719182E+03  0.12451667797E+03 0.  0.
          5    1    4    4  502    0  0.41373997095E+02 -0.44881658199E+02 -0.15269315871E+03  0.16450976140E+03  0.47000000000E+01 0. -1.
         -5    1    4    4    0  502 -0.42398430597E+02  0.14434131705E+02 -0.14364399887E+02  0.47269409340E+02  0.47000000000E+01 0. -1.
          5    1    5    5  503    0  0.27648264069E+02  0.21926566888E+02 -0.81892419696E+02  0.89295348397E+02  0.47000000000E+01 0.  1.
         -5    1    5    5    0  503 -0.26623830567E+02  0.85209596056E+01  0.36926264633E+02  0.46551843427E+02  0.47000000000E+01 0.  1.
<mgrwt>
<rscale>  0 0.27548146E+03</rscale>
<asrwt>0</asrwt>
<pdfrwt beam="1">  1        4 0.43050007E-01 0.27548146E+03</pdfrwt>
<pdfrwt beam="2">  1       -4 0.10430973E-01 0.27548146E+03</pdfrwt>
<totfact> 0.69587052E+02</totfact>
</mgrwt>
</event>
<event>
 9    1  0.2065703E-002  0.2761450E+03  0.7818608E-02  0.1097813E+00
         -4   -1    0    0    0  501 -0.00000000000E+00  0.00000000000E+00  0.11634014312E+03  0.11634014312E+03  0.00000000000E+00 0. -1.
          4   -1    0    0  501    0  0.00000000000E+00 -0.00000000000E+00 -0.16386444403E+03  0.16386444403E+03  0.00000000000E+00 0. -1.
         36    2    1    2    0    0 -0.71054273576E-14  0.35527136788E-14 -0.47524300906E+02  0.28020458715E+03  0.27614498273E+03 0.  0.
         25    2    3    3    0    0  0.37740445518E+02  0.16477546391E+02 -0.70215290045E+02  0.14853254269E+03  0.12424121103E+03 0.  0.
         25    2    3    3    0    0 -0.37740445518E+02 -0.16477546391E+02  0.22690989138E+02  0.13167204447E+03  0.12299103847E+03 0.  0.
          5    1    4    4  502    0  0.46893744708E+02 -0.38660280605E+02 -0.30585029511E+01  0.61033474663E+02  0.47000000000E+01 0. -1.
         -5    1    4    4    0  502 -0.91532991898E+01  0.55137826997E+02 -0.67156787094E+02  0.87499068022E+02  0.47000000000E+01 0. -1.
          5    1    5    5  503    0  0.27330736234E+00  0.28931042440E+02 -0.37170036016E+02  0.47336893550E+02  0.47000000000E+01 0. -1.
         -5    1    5    5    0  503 -0.38013752880E+02 -0.45408588831E+02  0.59861025154E+02  0.84335150917E+02  0.47000000000E+01 0. -1.
<mgrwt>
<rscale>  0 0.27614498E+03</rscale>
<asrwt>0</asrwt>
<pdfrwt beam="1">  1        4 0.25209915E-01 0.27614498E+03</pdfrwt>
<pdfrwt beam="2">  1       -4 0.17898483E-01 0.27614498E+03</pdfrwt>
<totfact> 0.76266474E+02</totfact>
</mgrwt>
</event>
<event>
 9    1  0.2065703E-002  0.2752874E+03  0.7818608E-02  0.1098291E+00
         -1   -1    0    0    0  501 -0.00000000000E+00  0.00000000000E+00  0.14709335353E+02  0.14709335353E+02  0.00000000000E+00 0.  1.
          1   -1    0    0  501    0  0.00000000000E+00 -0.00000000000E+00 -0.12880112869E+04  0.12880112869E+04  0.00000000000E+00 0.  1.
         36    2    1    2    0    0 -0.71054273576E-14  0.00000000000E+00 -0.12733019515E+04  0.13027206222E+04  0.27528741314E+03 0.  0.
         25    2    3    3    0    0 -0.26358775879E+01 -0.33757847285E+02 -0.67239178370E+03  0.68532664526E+03  0.12812244068E+03 0.  0.
         25    2    3    3    0    0  0.26358775879E+01  0.33757847285E+02 -0.60091016783E+03  0.61739397698E+03  0.13760724148E+03 0.  0.
          5    1    4    4  502    0  0.35371354360E+02  0.34196859679E+02 -0.35836637127E+03  0.36175835026E+03  0.47000000000E+01 0. -1.
         -5    1    4    4    0  502 -0.38007231948E+02 -0.67954706964E+02 -0.31402541243E+03  0.32356829500E+03  0.47000000000E+01 0. -1.
          5    1    5    5  503    0  0.41629360665E+02  0.63828659953E+01 -0.53085017994E+03  0.53253896401E+03  0.47000000000E+01 0.  1.
         -5    1    5    5    0  503 -0.38993483077E+02  0.27374981290E+02 -0.70059987897E+02  0.84855012977E+02  0.47000000000E+01 0.  1.
<mgrwt>
<rscale>  0 0.27528741E+03</rscale>
<asrwt>0</asrwt>
<pdfrwt beam="1">  1        1 0.19815556E+00 0.27528741E+03</pdfrwt>
<pdfrwt beam="2">  1       -1 0.22629750E-02 0.27528741E+03</pdfrwt>
<totfact> 0.56881578E+03</totfact>
</mgrwt>
</event>
<event>
 9    1  0.2065703E-002  0.2727634E+03  0.7818608E-02  0.1099708E+00
         -1   -1    0    0    0  501 -0.00000000000E+00  0.00000000000E+00  0.75127717490E+02  0.75127717490E+02  0.00000000000E+00 0. -1.
          1   -1    0    0  501    0  0.00000000000E+00 -0.00000000000E+00 -0.24757802586E+03  0.24757802586E+03  0.00000000000E+00 0. -1.
         36    2    1    2    0    0 -0.71054273576E-14  0.00000000000E+00 -0.17245030837E+03  0.32270574335E+03  0.27276342851E+03 0.  0.
         25    2    3    3    0    0 -0.44359728653E+02 -0.40590649451E+02 -0.95267269899E+02  0.16669723260E+03  0.12286874417E+03 0.  0.
         25    2    3    3    0    0  0.44359728653E+02  0.40590649451E+02 -0.77183038467E+02  0.15600851075E+03  0.12151562718E+03 0.  0.
          5    1    4    4  502    0  0.32258378267E+02  0.16962493027E+02 -0.93749695514E+01  0.37925047030E+02  0.47000000000E+01 0. -1.
         -5    1    4    4    0  502 -0.76618106921E+02 -0.57553142477E+02 -0.85892300348E+02  0.12877218557E+03  0.47000000000E+01 0. -1.
          5    1    5    5  503    0 -0.19098742604E+02  0.46799942357E+02  0.59733027312E+01  0.51115231773E+02  0.47000000000E+01 0. -1.
         -5    1    5    5    0  503  0.63458471257E+02 -0.62092929068E+01 -0.83156341198E+02  0.10489327898E+03  0.47000000000E+01 0. -1.
<mgrwt>
<rscale>  0 0.27276343E+03</rscale>
<asrwt>0</asrwt>
<pdfrwt beam="1">  1        1 0.38088926E-01 0.27276343E+03</pdfrwt>
<pdfrwt beam="2">  1       -1 0.11558111E-01 0.27276343E+03</pdfrwt>
<totfact> 0.53937419E+03</totfact>
</mgrwt>
</event>
<event>
 9    1  0.2065703E-002  0.2752264E+03  0.7818608E-02  0.1098325E+00
          4   -1    0    0  501    0  0.00000000000E+00  0.00000000000E+00  0.84630702057E+02  0.84630702057E+02  0.00000000000E+00 0.  1.
         -4   -1    0    0    0  501 -0.00000000000E+00 -0.00000000000E+00 -0.22376499386E+03  0.22376499386E+03  0.00000000000E+00 0.  1.
         36    2    1    2    0    0  0.00000000000E+00 -0.17763568394E-14 -0.13913429181E+03  0.30839569592E+03  0.27522636884E+03 0.  0.
         25    2    3    3    0    0 -0.67445637941E+01  0.15489744055E+02 -0.29605211559E+02  0.12710522904E+03  0.12244937479E+03 0.  0.
         25    2    3    3    0    0  0.67445637941E+01 -0.15489744055E+02 -0.10952908025E+03  0.18129046688E+03  0.14347192286E+03 0.  0.
          5    1    4    4  502    0  0.37746789780E+02 -0.73536385925E+00  0.31682610281E+02  0.49509985790E+02  0.47000000000E+01 0.  1.
         -5    1    4    4    0  502 -0.44491353574E+02  0.16225107914E+02 -0.61287821841E+02  0.77595243254E+02  0.47000000000E+01 0.  1.
          5    1    5    5  503    0 -0.50474159962E+02  0.12842735923E+02  0.23955836237E+01  0.52348882612E+02  0.47000000000E+01 0.  1.
         -5    1    5    5    0  503  0.57218723756E+02 -0.28332479978E+02 -0.11192466387E+03  0.12894158426E+03  0.47000000000E+01 0.  1.
<mgrwt>
<rscale>  0 0.27522637E+03</rscale>
<asrwt>0</asrwt>
<pdfrwt beam="1">  1        4 0.13020108E-01 0.27522637E+03</pdfrwt>
<pdfrwt beam="2">  1       -4 0.34425384E-01 0.27522637E+03</pdfrwt>
<totfact> 0.73880916E+02</totfact>
</mgrwt>
</event>
<event>
 9    1  0.2065703E-002  0.2755180E+03  0.7818608E-02  0.1098162E+00
          1   -1    0    0  501    0  0.00000000000E+00  0.00000000000E+00  0.19959591041E+04  0.19959591041E+04  0.00000000000E+00 0.  1.
         -1   -1    0    0    0  501 -0.00000000000E+00 -0.00000000000E+00 -0.95079803294E+01  0.95079803294E+01  0.00000000000E+00 0.  1.
         36    2    1    2    0    0  0.35527136788E-14  0.00000000000E+00  0.19864511238E+04  0.20054670845E+04  0.27551798417E+03 0.  0.
         25    2    3    3    0    0  0.15660846994E+02  0.32270021970E+02  0.68565957851E+03  0.69806247385E+03  0.12599818788E+03 0.  0.
         25    2    3    3    0    0 -0.15660846994E+02 -0.32270021970E+02  0.13007915453E+04  0.13074046106E+04  0.12633904818E+03 0.  0.
          5    1    4    4  502    0  0.36601981098E+02  0.63815303697E+02  0.24750181083E+03  0.25824665413E+03  0.47000000000E+01 0. -1.
         -5    1    4    4    0  502 -0.20941134104E+02 -0.31545281727E+02  0.43815776768E+03  0.43981581972E+03  0.47000000000E+01 0. -1.
          5    1    5    5  503    0 -0.58642170821E+02 -0.29740421667E+02  0.38600624945E+03  0.39159457541E+03  0.47000000000E+01 0. -1.
         -5    1    5    5    0  503  0.42981323827E+02 -0.25296003032E+01  0.91478529586E+03  0.91581003522E+03  0.47000000000E+01 0. -1.
<mgrwt>
<rscale>  0 0.27551798E+03</rscale>
<asrwt>0</asrwt>
<pdfrwt beam="1">  1        1 0.30707030E+00 0.27551798E+03</pdfrwt>
<pdfrwt beam="2">  1       -1 0.14627678E-02 0.27551798E+03</pdfrwt>
<totfact> 0.36747366E+03</totfact>
</mgrwt>
</event>
<event>
 9    1  0.2065703E-002  0.2752295E+03  0.7818608E-02  0.1098323E+00
         -2   -1    0    0    0  501 -0.00000000000E+00  0.00000000000E+00  0.11922230451E+03  0.11922230451E+03  0.00000000000E+00 0.  1.
          2   -1    0    0  501    0  0.00000000000E+00 -0.00000000000E+00 -0.15884464509E+03  0.15884464509E+03  0.00000000000E+00 0.  1.
         36    2    1    2    0    0  0.13322676296E-14  0.00000000000E+00 -0.39622340579E+02  0.27806694959E+03  0.27522953799E+03 0.  0.
         25    2    3    3    0    0  0.23079982036E+01  0.51693840998E+02  0.27062907518E+02  0.13786694619E+03  0.12488920625E+03 0.  0.
         25    2    3    3    0    0 -0.23079982036E+01 -0.51693840998E+02 -0.66685248097E+02  0.14020000340E+03  0.11194435487E+03 0.  0.
          5    1    4    4  502    0 -0.46780576215E+02  0.18924048215E+02  0.52905877044E+02  0.73264341515E+02  0.47000000000E+01 0. -1.
         -5    1    4    4    0  502  0.49088574418E+02  0.32769792783E+02 -0.25842969526E+02  0.64602604680E+02  0.47000000000E+01 0. -1.
          5    1    5    5  503    0 -0.85027753338E-01 -0.47530941931E+02 -0.97555041858E+02  0.10861985943E+03  0.47000000000E+01 0. -1.
         -5    1    5    5    0  503 -0.22229704502E+01 -0.41628990672E+01  0.30869793761E+02  0.31580143969E+02  0.47000000000E+01 0. -1.
<mgrwt>
<rscale>  0 0.27522954E+03</rscale>
<asrwt>0</asrwt>
<pdfrwt beam="1">  1        2 0.24437638E-01 0.27522954E+03</pdfrwt>
<pdfrwt beam="2">  1       -2 0.18341893E-01 0.27522954E+03</pdfrwt>
<totfact> 0.53446835E+03</totfact>
</mgrwt>
</event>
<event>
 9    1  0.2065703E-002  0.2739910E+03  0.7818608E-02  0.1099017E+00
         -1   -1    0    0    0  501 -0.00000000000E+00  0.00000000000E+00  0.34521117262E+02  0.34521117262E+02  0.00000000000E+00 0. -1.
          1   -1    0    0  501    0  0.00000000000E+00 -0.00000000000E+00 -0.54366049500E+03  0.54366049500E+03  0.00000000000E+00 0. -1.
         36    2    1    2    0    0  0.00000000000E+00 -0.71054273576E-14 -0.50913937774E+03  0.57818161226E+03  0.27399100495E+03 0.  0.
         25    2    3    3    0    0  0.70401557893E+01 -0.60098226691E+02 -0.22405347423E+03  0.26043505056E+03  0.11817400559E+03 0.  0.
         25    2    3    3    0    0 -0.70401557893E+01  0.60098226691E+02 -0.28508590350E+03  0.31774656170E+03  0.12659993860E+03 0.  0.
          5    1    4    4  502    0 -0.24467303194E+02 -0.92474059725E+01 -0.18916884882E+03  0.19102645577E+03  0.47000000000E+01 0. -1.
         -5    1    4    4    0  502  0.31507458983E+02 -0.50850820718E+02 -0.34884625414E+02  0.69408594782E+02  0.47000000000E+01 0. -1.
          5    1    5    5  503    0 -0.57949582714E+02  0.66423852788E+02 -0.16646856290E+03  0.18842546216E+03  0.47000000000E+01 0. -1.
         -5    1    5    5    0  503  0.50909426925E+02 -0.63256260976E+01 -0.11861734060E+03  0.12932109954E+03  0.47000000000E+01 0. -1.
<mgrwt>
<rscale>  0 0.27399100E+03</rscale>
<asrwt>0</asrwt>
<pdfrwt beam="1">  1        1 0.83640067E-01 0.27399100E+03</pdfrwt>
<pdfrwt beam="2">  1       -1 0.53109417E-02 0.27399100E+03</pdfrwt>
<totfact> 0.64497393E+03</totfact>
</mgrwt>
</event>
<event>
 9    1  0.2065703E-002  0.2823864E+03  0.7818608E-02  0.1094393E+00
         -2   -1    0    0    0  501 -0.00000000000E+00  0.00000000000E+00  0.10534888398E+02  0.10534888398E+02  0.00000000000E+00 0. -1.
          2   -1    0    0  501    0  0.00000000000E+00 -0.00000000000E+00 -0.18923326762E+04  0.18923326762E+04  0.00000000000E+00 0. -1.
         36    2    1    2    0    0  0.00000000000E+00 -0.14210854715E-13 -0.18817977878E+04  0.19028675646E+04  0.28238635629E+03 0.  0.
         25    2    3    3    0    0 -0.43645526942E+02 -0.40832861662E+02 -0.10944686023E+04  0.11033958303E+04  0.12668299931E+03 0.  0.
         25    2    3    3    0    0  0.43645526942E+02  0.40832861662E+02 -0.78732918547E+03  0.79947173425E+03  0.12528189400E+03 0.  0.
          5    1    4    4  502    0 -0.22901608913E+02 -0.71429636550E+02 -0.34921749367E+03  0.35721369592E+03  0.47000000000E+01 0. -1.
         -5    1    4    4    0  502 -0.20743918028E+02  0.30596774888E+02 -0.74525110864E+03  0.74618213440E+03  0.47000000000E+01 0. -1.
          5    1    5    5  503    0  0.65653134214E+02 -0.21911508227E+02 -0.48076797034E+03  0.48574723832E+03  0.47000000000E+01 0. -1.
         -5    1    5    5    0  503 -0.22007607272E+02  0.62744369889E+02 -0.30656121512E+03  0.31372449593E+03  0.47000000000E+01 0. -1.
<mgrwt>
<rscale>  0 0.28238636E+03</rscale>
<asrwt>0</asrwt>
<pdfrwt beam="1">  1        2 0.29112818E+00 0.28238636E+03</pdfrwt>
<pdfrwt beam="2">  1       -2 0.16207516E-02 0.28238636E+03</pdfrwt>
<totfact> 0.89175244E+03</totfact>
</mgrwt>
</event>
<event>
 9    1  0.2065703E-002  0.2749057E+03  0.7818608E-02  0.1098504E+00
         -2   -1    0    0    0  501 -0.00000000000E+00  0.00000000000E+00  0.89343467435E+01  0.89343467435E+01  0.00000000000E+00 0. -1.
          2   -1    0    0  501    0  0.00000000000E+00 -0.00000000000E+00 -0.21146796335E+04  0.21146796335E+04  0.00000000000E+00 0. -1.
         36    2    1    2    0    0  0.00000000000E+00  0.00000000000E+00 -0.21057452867E+04  0.21236139802E+04  0.27490566452E+03 0.  0.
         25    2    3    3    0    0 -0.20890505900E+02  0.38413896255E+02 -0.85868748416E+03  0.86969320932E+03  0.13080536008E+03 0.  0.
         25    2    3    3    0    0  0.20890505900E+02 -0.38413896255E+02 -0.12470578026E+04  0.12539207709E+04  0.12349937679E+03 0.  0.
          5    1    4    4  502    0 -0.26854012842E+02 -0.45403733563E+02 -0.37833560445E+03  0.38202428800E+03  0.47000000000E+01 0. -1.
         -5    1    4    4    0  502  0.59635069421E+01  0.83817629818E+02 -0.48035187971E+03  0.48766892132E+03  0.47000000000E+01 0. -1.
          5    1    5    5  503    0  0.64065554986E+02 -0.38054188579E+02 -0.10211481939E+04  0.10238741332E+04  0.47000000000E+01 0. -1.
         -5    1    5    5    0  503 -0.43175049086E+02 -0.35970767601E+00 -0.22590960863E+03  0.23004663772E+03  0.47000000000E+01 0. -1.
<mgrwt>
<rscale>  0 0.27490566E+03</rscale>
<asrwt>0</asrwt>
<pdfrwt beam="1">  1        2 0.32533490E+00 0.27490566E+03</pdfrwt>
<pdfrwt beam="2">  1       -2 0.13745167E-02 0.27490566E+03</pdfrwt>
<totfact> 0.86648330E+03</totfact>
</mgrwt>
</event>
<event>
 9    1  0.2065703E-002  0.2752017E+03  0.7818608E-02  0.1098339E+00
          4   -1    0    0  501    0  0.00000000000E+00  0.00000000000E+00  0.20107761101E+03  0.20107761101E+03  0.00000000000E+00 0.  1.
         -4   -1    0    0    0  501 -0.00000000000E+00 -0.00000000000E+00 -0.94162608236E+02  0.94162608236E+02  0.00000000000E+00 0.  1.
         36    2    1    2    0    0 -0.88817841970E-15  0.14210854715E-13  0.10691500278E+03  0.29524021925E+03  0.27520168830E+03 0.  0.
         25    2    3    3    0    0 -0.39008743537E+01 -0.58836422739E+02  0.68606156664E+02  0.15233414037E+03  0.12256404092E+03 0.  0.
         25    2    3    3    0    0  0.39008743537E+01  0.58836422739E+02  0.38308846115E+02  0.14290607889E+03  0.12440915654E+03 0.  0.
          5    1    4    4  502    0 -0.72685579543E+01 -0.96572011103E+02  0.56813995600E+02  0.11237840255E+03  0.47000000000E+01 0.  1.
         -5    1    4    4    0  502  0.33676836006E+01  0.37735588363E+02  0.11792161064E+02  0.39955737817E+02  0.47000000000E+01 0.  1.
          5    1    5    5  503    0 -0.98984985703E+01  0.11334995694E+02 -0.44012800812E+02  0.46751246364E+02  0.47000000000E+01 0.  1.
         -5    1    5    5    0  503  0.13799372924E+02  0.47501427046E+02  0.82321646927E+02  0.96154832521E+02  0.47000000000E+01 0.  1.
<mgrwt>
<rscale>  0 0.27520169E+03</rscale>
<asrwt>0</asrwt>
<pdfrwt beam="1">  1        4 0.30935017E-01 0.27520169E+03</pdfrwt>
<pdfrwt beam="2">  1       -4 0.14486555E-01 0.27520169E+03</pdfrwt>
<totfact> 0.75356740E+02</totfact>
</mgrwt>
</event>
<event>
 9    1  0.2065703E-002  0.2750928E+03  0.7818608E-02  0.1098400E+00
          1   -1    0    0  501    0  0.00000000000E+00  0.00000000000E+00  0.35869327850E+03  0.35869327850E+03  0.00000000000E+00 0. -1.
         -1   -1    0    0    0  501 -0.00000000000E+00 -0.00000000000E+00 -0.52744268569E+02  0.52744268569E+02  0.00000000000E+00 0. -1.
         36    2    1    2    0    0  0.00000000000E+00 -0.71054273576E-14  0.30594900993E+03  0.41143754707E+03  0.27509281790E+03 0.  0.
         25    2    3    3    0    0  0.45076933151E+01 -0.45946659861E+02  0.20895643489E+03  0.24819521325E+03  0.12572452960E+03 0.  0.
         25    2    3    3    0    0 -0.45076933151E+01  0.45946659861E+02  0.96992575042E+02  0.16324233383E+03  0.12291901842E+03 0.  0.
          5    1    4    4  502    0  0.63476627678E+02 -0.13042954172E+02  0.85338784654E+02  0.10725762948E+03  0.47000000000E+01 0. -1.
         -5    1    4    4    0  502 -0.58968934363E+02 -0.32903705688E+02  0.12361765024E+03  0.14093758377E+03  0.47000000000E+01 0. -1.
          5    1    5    5  503    0 -0.27508194628E+02 -0.54703384195E+01  0.10257545885E+03  0.10644454017E+03  0.47000000000E+01 0.  1.
         -5    1    5    5    0  503  0.23000501313E+02  0.51416998280E+02 -0.55828838053E+01  0.56797793658E+02  0.47000000000E+01 0.  1.
<mgrwt>
<rscale>  0 0.27509282E+03</rscale>
<asrwt>0</asrwt>
<pdfrwt beam="1">  1        1 0.55183580E-01 0.27509282E+03</pdfrwt>
<pdfrwt beam="2">  1       -1 0.81145031E-02 0.27509282E+03</pdfrwt>
<totfact> 0.58385333E+03</totfact>
</mgrwt>
</event>
<event>
 9    1  0.2065703E-002  0.2759966E+03  0.7818608E-02  0.1097896E+00
         -2   -1    0    0    0  501 -0.00000000000E+00  0.00000000000E+00  0.26837456179E+02  0.26837456179E+02  0.00000000000E+00 0. -1.
          2   -1    0    0  501    0  0.00000000000E+00 -0.00000000000E+00 -0.70958780657E+03  0.70958780657E+03  0.00000000000E+00 0. -1.
         36    2    1    2    0    0  0.00000000000E+00  0.35527136788E-14 -0.68275035040E+03  0.73642526275E+03  0.27599660624E+03 0.  0.
         25    2    3    3    0    0  0.34784555963E+01 -0.24412630258E+02 -0.48223510328E+03  0.49898609435E+03  0.12581077595E+03 0.  0.
         25    2    3    3    0    0 -0.34784555963E+01  0.24412630258E+02 -0.20051524711E+03  0.23743916840E+03  0.12475142564E+03 0.  0.
          5    1    4    4  502    0 -0.20884292075E+01 -0.50258597571E+02 -0.46349511004E+03  0.46624038349E+03  0.47000000000E+01 0.  1.
         -5    1    4    4    0  502  0.55668848039E+01  0.25845967313E+02 -0.18739993237E+02  0.32745710853E+02  0.47000000000E+01 0.  1.
          5    1    5    5  503    0 -0.16555798404E+02  0.43127134678E+02 -0.12640556683E+02  0.48123984452E+02  0.47000000000E+01 0.  1.
         -5    1    5    5    0  503  0.13077342808E+02 -0.18714504420E+02 -0.18787469043E+03  0.18931518395E+03  0.47000000000E+01 0.  1.
<mgrwt>
<rscale>  0 0.27599661E+03</rscale>
<asrwt>0</asrwt>
<pdfrwt beam="1">  1        2 0.10916734E+00 0.27599661E+03</pdfrwt>
<pdfrwt beam="2">  1       -2 0.41288401E-02 0.27599661E+03</pdfrwt>
<totfact> 0.10764798E+04</totfact>
</mgrwt>
</event>
<event>
 9    1  0.2065703E-002  0.2753382E+03  0.7818608E-02  0.1098263E+00
          1   -1    0    0  501    0  0.00000000000E+00  0.00000000000E+00  0.84191031528E+02  0.84191031528E+02  0.00000000000E+00 0.  1.
         -1   -1    0    0    0  501 -0.00000000000E+00 -0.00000000000E+00 -0.22511642959E+03  0.22511642959E+03  0.00000000000E+00 0.  1.
         36    2    1    2    0    0  0.17763568394E-14  0.00000000000E+00 -0.14092539806E+03  0.30930746112E+03  0.27533822416E+03 0.  0.
         25    2    3    3    0    0 -0.84099362151E+01  0.12944748694E+01 -0.62703111251E+00  0.12173103138E+03  0.12143166037E+03 0.  0.
         25    2    3    3    0    0  0.84099362151E+01 -0.12944748694E+01 -0.14029836695E+03  0.18757642974E+03  0.12421305299E+03 0.  0.
          5    1    4    4  502    0 -0.21313266887E+02 -0.33901512386E+02 -0.46994615418E+02  0.61920527822E+02  0.47000000000E+01 0. -1.
         -5    1    4    4    0  502  0.12903330672E+02  0.35195987255E+02  0.46367584306E+02  0.59810503557E+02  0.47000000000E+01 0. -1.
          5    1    5    5  503    0  0.14174195139E+02 -0.55706898722E+02 -0.11157648440E+03  0.12560082900E+03  0.47000000000E+01 0.  1.
         -5    1    5    5    0  503 -0.57642589241E+01  0.54412423852E+02 -0.28721882548E+02  0.61975600743E+02  0.47000000000E+01 0.  1.
<mgrwt>
<rscale>  0 0.27533822E+03</rscale>
<asrwt>0</asrwt>
<pdfrwt beam="1">  1        1 0.12952467E-01 0.27533822E+03</pdfrwt>
<pdfrwt beam="2">  1       -1 0.34633296E-01 0.27533822E+03</pdfrwt>
<totfact> 0.35907052E+03</totfact>
</mgrwt>
</event>
<event>
 9    1  0.2065703E-002  0.2754505E+03  0.7818608E-02  0.1098200E+00
         -1   -1    0    0    0  501 -0.00000000000E+00  0.00000000000E+00  0.18099456995E+02  0.18099456995E+02  0.00000000000E+00 0.  1.
          1   -1    0    0  501    0  0.00000000000E+00 -0.00000000000E+00 -0.10480004448E+04  0.10480004448E+04  0.00000000000E+00 0.  1.
         36    2    1    2    0    0  0.00000000000E+00 -0.14210854715E-13 -0.10299009879E+04  0.10660999018E+04  0.27545046002E+03 0.  0.
         25    2    3    3    0    0 -0.14269289983E+01 -0.36268696972E+02 -0.36674161512E+03  0.39058571536E+03  0.12938444370E+03 0.  0.
         25    2    3    3    0    0  0.14269289983E+01  0.36268696972E+02 -0.66315937273E+03  0.67551418648E+03  0.12337588094E+03 0.  0.
          5    1    4    4  502    0 -0.52666139815E+02 -0.50025811213E+02 -0.27532870368E+03  0.28478814782E+03  0.47000000000E+01 0. -1.
         -5    1    4    4    0  502  0.51239210817E+02  0.13757114241E+02 -0.91412911445E+02  0.10579756753E+03  0.47000000000E+01 0. -1.
          5    1    5    5  503    0 -0.47652788949E+02  0.50995752496E+02 -0.48682850756E+03  0.49182867021E+03  0.47000000000E+01 0.  1.
         -5    1    5    5    0  503  0.49079717948E+02 -0.14727055523E+02 -0.17633086517E+03  0.18368551627E+03  0.47000000000E+01 0.  1.
<mgrwt>
<rscale>  0 0.27545046E+03</rscale>
<asrwt>0</asrwt>
<pdfrwt beam="1">  1        1 0.16123081E+00 0.27545046E+03</pdfrwt>
<pdfrwt beam="2">  1       -1 0.27845323E-02 0.27545046E+03</pdfrwt>
<totfact> 0.61996906E+03</totfact>
</mgrwt>
</event>
<event>
 9    1  0.2065703E-002  0.2734173E+03  0.7818608E-02  0.1099340E+00
          2   -1    0    0  501    0  0.00000000000E+00  0.00000000000E+00  0.14260222656E+02  0.14260222656E+02  0.00000000000E+00 0. -1.
         -2   -1    0    0    0  501 -0.00000000000E+00 -0.00000000000E+00 -0.13105867833E+04  0.13105867833E+04  0.00000000000E+00 0. -1.
         36    2    1    2    0    0 -0.71054273576E-14  0.00000000000E+00 -0.12963265606E+04  0.13248470059E+04  0.27341733185E+03 0.  0.
         25    2    3    3    0    0 -0.37876214925E+02  0.49898258344E+02 -0.65237672896E+03  0.66705231201E+03  0.12425355783E+03 0.  0.
         25    2    3    3    0    0  0.37876214925E+02 -0.49898258344E+02 -0.64394983168E+03  0.65779469393E+03  0.11873512456E+03 0.  0.
          5    1    4    4  502    0 -0.54132001265E+02  0.15308352608E+01 -0.54887980632E+03  0.55156481832E+03  0.47000000000E+01 0.  1.
         -5    1    4    4    0  502  0.16255786340E+02  0.48367423083E+02 -0.10349692264E+03  0.11548749370E+03  0.47000000000E+01 0.  1.
          5    1    5    5  503    0 -0.19256985996E+02  0.21113336916E+02 -0.31780274974E+03  0.31911954225E+03  0.47000000000E+01 0.  1.
         -5    1    5    5    0  503  0.57133200921E+02 -0.71011595260E+02 -0.32614708194E+03  0.33867515168E+03  0.47000000000E+01 0.  1.
<mgrwt>
<rscale>  0 0.27341733E+03</rscale>
<asrwt>0</asrwt>
<pdfrwt beam="1">  1        2 0.21938803E-02 0.27341733E+03</pdfrwt>
<pdfrwt beam="2">  1       -2 0.20162874E+00 0.27341733E+03</pdfrwt>
<totfact> 0.67849069E+02</totfact>
</mgrwt>
</event>
<event>
 9    1  0.2065703E-002  0.2736126E+03  0.7818608E-02  0.1099230E+00
          1   -1    0    0  501    0  0.00000000000E+00  0.00000000000E+00  0.13972338773E+04  0.13972338773E+04  0.00000000000E+00 0.  1.
         -1   -1    0    0    0  501 -0.00000000000E+00 -0.00000000000E+00 -0.13395011219E+02  0.13395011219E+02  0.00000000000E+00 0.  1.
         36    2    1    2    0    0  0.00000000000E+00  0.00000000000E+00  0.13838388661E+04  0.14106288885E+04  0.27361259812E+03 0.  0.
         25    2    3    3    0    0  0.23445101954E+02  0.49754135822E+02  0.57734981643E+03  0.59250404936E+03  0.12125630353E+03 0.  0.
         25    2    3    3    0    0 -0.23445101954E+02 -0.49754135822E+02  0.80648904965E+03  0.81812483915E+03  0.12600999324E+03 0.  0.
          5    1    4    4  502    0 -0.19050651751E+02 -0.20862108131E+02  0.42052478447E+02  0.50878834807E+02  0.47000000000E+01 0. -1.
         -5    1    4    4    0  502  0.42495753705E+02  0.70616243953E+02  0.53529733798E+03  0.54162521456E+03  0.47000000000E+01 0. -1.
          5    1    5    5  503    0 -0.42620911109E+01  0.22871220103E+02  0.31253717474E+02  0.39244655503E+02  0.47000000000E+01 0.  1.
         -5    1    5    5    0  503 -0.19183010843E+02 -0.72625355924E+02  0.77523533217E+03  0.77888018365E+03  0.47000000000E+01 0.  1.
<mgrwt>
<rscale>  0 0.27361260E+03</rscale>
<asrwt>0</asrwt>
<pdfrwt beam="1">  1        1 0.21495894E+00 0.27361260E+03</pdfrwt>
<pdfrwt beam="2">  1       -1 0.20607721E-02 0.27361260E+03</pdfrwt>
<totfact> 0.55002525E+03</totfact>
</mgrwt>
</event>
<event>
 9    1  0.2065703E-002  0.2754476E+03  0.7818608E-02  0.1098202E+00
         -2   -1    0    0    0  501 -0.00000000000E+00  0.00000000000E+00  0.69070103125E+02  0.69070103125E+02  0.00000000000E+00 0. -1.
          2   -1    0    0  501    0  0.00000000000E+00 -0.00000000000E+00 -0.27461727259E+03  0.27461727259E+03  0.00000000000E+00 0. -1.
         36    2    1    2    0    0  0.00000000000E+00  0.00000000000E+00 -0.20554716946E+03  0.34368737571E+03  0.27544758730E+03 0.  0.
         25    2    3    3    0    0 -0.44880562891E+02  0.18923030102E+02 -0.13863232155E+03  0.19136610733E+03  0.12259576038E+03 0.  0.
         25    2    3    3    0    0  0.44880562891E+02 -0.18923030102E+02 -0.66914847909E+02  0.15232126838E+03  0.12787425830E+03 0.  0.
          5    1    4    4  502    0 -0.41570844820E+02  0.45711010886E+02 -0.14954519069E+03  0.16187490761E+03  0.47000000000E+01 0. -1.
         -5    1    4    4    0  502 -0.33097180719E+01 -0.26787980785E+02  0.10912869138E+02  0.29491199722E+02  0.47000000000E+01 0. -1.
          5    1    5    5  503    0 -0.37823347457E+02  0.22446235205E+02 -0.20741396582E+02  0.48854218036E+02  0.47000000000E+01 0. -1.
         -5    1    5    5    0  503  0.82703910349E+02 -0.41369265306E+02 -0.46173451326E+02  0.10346705034E+03  0.47000000000E+01 0. -1.
<mgrwt>
<rscale>  0 0.27544759E+03</rscale>
<asrwt>0</asrwt>
<pdfrwt beam="1">  1        2 0.42248810E-01 0.27544759E+03</pdfrwt>
<pdfrwt beam="2">  1       -2 0.10626170E-01 0.27544759E+03</pdfrwt>
<totfact> 0.71920288E+03</totfact>
</mgrwt>
</event>
<event>
 9    1  0.2065703E-002  0.2758015E+03  0.7818608E-02  0.1098004E+00
          1   -1    0    0  501    0  0.00000000000E+00  0.00000000000E+00  0.80056853294E+03  0.80056853294E+03  0.00000000000E+00 0.  1.
         -1   -1    0    0    0  501 -0.00000000000E+00 -0.00000000000E+00 -0.23753894457E+02  0.23753894457E+02  0.00000000000E+00 0.  1.
         36    2    1    2    0    0  0.00000000000E+00  0.00000000000E+00  0.77681463848E+03  0.82432242739E+03  0.27580152601E+03 0.  0.
         25    2    3    3    0    0 -0.29253029394E+02  0.32952187640E+02  0.30261159294E+03  0.33124032113E+03  0.12729802732E+03 0.  0.
         25    2    3    3    0    0  0.29253029394E+02 -0.32952187640E+02  0.47420304554E+03  0.49308210627E+03  0.12774916330E+03 0.  0.
          5    1    4    4  502    0 -0.25373088903E+02  0.14069972289E+02  0.14512680802E+01  0.29427095333E+02  0.47000000000E+01 0. -1.
         -5    1    4    4    0  502 -0.38799404909E+01  0.18882215351E+02  0.30116032486E+03  0.30181322579E+03  0.47000000000E+01 0. -1.
          5    1    5    5  503    0  0.61949063467E+02 -0.62464428992E+02  0.35912438402E+03  0.36977277422E+03  0.47000000000E+01 0. -1.
         -5    1    5    5    0  503 -0.32696034073E+02  0.29512241352E+02  0.11507866152E+03  0.12330933205E+03  0.47000000000E+01 0. -1.
<mgrwt>
<rscale>  0 0.27580153E+03</rscale>
<asrwt>0</asrwt>
<pdfrwt beam="1">  1        1 0.12316437E+00 0.27580153E+03</pdfrwt>
<pdfrwt beam="2">  1       -1 0.36544459E-02 0.27580153E+03</pdfrwt>
<totfact> 0.64650312E+03</totfact>
</mgrwt>
</event>
<event>
 9    1  0.2065703E-002  0.2750723E+03  0.7818608E-02  0.1098411E+00
          2   -1    0    0  501    0  0.00000000000E+00  0.00000000000E+00  0.21758458800E+04  0.21758458800E+04  0.00000000000E+00 0. -1.
         -2   -1    0    0    0  501 -0.00000000000E+00 -0.00000000000E+00 -0.86937162996E+01  0.86937162996E+01  0.00000000000E+00 0. -1.
         36    2    1    2    0    0  0.00000000000E+00  0.00000000000E+00  0.21671521637E+04  0.21845395963E+04  0.27507225809E+03 0.  0.
         25    2    3    3    0    0 -0.36129930331E+02  0.33717431631E+02  0.12857880058E+04  0.12931994794E+04  0.12911955968E+03 0.  0.
         25    2    3    3    0    0  0.36129930331E+02 -0.33717431631E+02  0.88136415790E+03  0.89134011686E+03  0.12345925659E+03 0.  0.
          5    1    4    4  502    0 -0.58302025119E+02  0.29988459527E+02  0.29880636000E+03  0.30595059178E+03  0.47000000000E+01 0.  1.
         -5    1    4    4    0  502  0.22172094787E+02  0.37289721042E+01  0.98698164579E+03  0.98724888764E+03  0.47000000000E+01 0.  1.
          5    1    5    5  503    0 -0.44462104922E+02 -0.11750655271E+02  0.22785083783E+03  0.23249312027E+03  0.47000000000E+01 0. -1.
         -5    1    5    5    0  503  0.80592035253E+02 -0.21966776361E+02  0.65351332006E+03  0.65884699659E+03  0.47000000000E+01 0. -1.
<mgrwt>
<rscale>  0 0.27507226E+03</rscale>
<asrwt>0</asrwt>
<pdfrwt beam="1">  1        2 0.33474509E+00 0.27507226E+03</pdfrwt>
<pdfrwt beam="2">  1       -2 0.13374965E-02 0.27507226E+03</pdfrwt>
<totfact> 0.83687039E+03</totfact>
</mgrwt>
</event>
<event>
 9    1  0.2065703E-002  0.2754933E+03  0.7818608E-02  0.1098176E+00
         -2   -1    0    0    0  501 -0.00000000000E+00  0.00000000000E+00  0.34809750446E+03  0.34809750446E+03  0.00000000000E+00 0.  1.
          2   -1    0    0  501    0  0.00000000000E+00 -0.00000000000E+00 -0.54508127591E+02  0.54508127591E+02  0.00000000000E+00 0.  1.
         36    2    1    2    0    0  0.00000000000E+00  0.00000000000E+00  0.29358937687E+03  0.40260563205E+03  0.27549332614E+03 0.  0.
         25    2    3    3    0    0  0.28871203724E+02  0.53512787623E+02  0.13597242877E+03  0.19254922099E+03  0.12202268753E+03 0.  0.
         25    2    3    3    0    0 -0.28871203724E+02 -0.53512787623E+02  0.15761694810E+03  0.21005641107E+03  0.12483360388E+03 0.  0.
          5    1    4    4  502    0 -0.21554546131E+02  0.67975680942E+02  0.11594569546E+03  0.13620127001E+03  0.47000000000E+01 0.  1.
         -5    1    4    4    0  502  0.50425749854E+02 -0.14462893319E+02  0.20026733314E+02  0.56347950972E+02  0.47000000000E+01 0.  1.
          5    1    5    5  503    0 -0.18128687983E+02 -0.91244233800E+02  0.13650884802E+03  0.16526014377E+03  0.47000000000E+01 0. -1.
         -5    1    5    5    0  503 -0.10742515740E+02  0.37731446177E+02  0.21108100078E+02  0.44796267300E+02  0.47000000000E+01 0. -1.
<mgrwt>
<rscale>  0 0.27549333E+03</rscale>
<asrwt>0</asrwt>
<pdfrwt beam="1">  1        2 0.83858660E-02 0.27549333E+03</pdfrwt>
<pdfrwt beam="2">  1       -2 0.53553461E-01 0.27549333E+03</pdfrwt>
<totfact> 0.26677633E+03</totfact>
</mgrwt>
</event>
<event>
 9    1  0.2065703E-002  0.2747823E+03  0.7818608E-02  0.1098573E+00
          2   -1    0    0  501    0  0.00000000000E+00  0.00000000000E+00  0.13900113092E+04  0.13900113092E+04  0.00000000000E+00 0.  1.
         -2   -1    0    0    0  501 -0.00000000000E+00 -0.00000000000E+00 -0.13579977125E+02  0.13579977125E+02  0.00000000000E+00 0.  1.
         36    2    1    2    0    0 -0.35527136788E-14  0.00000000000E+00  0.13764313321E+04  0.14035912863E+04  0.27478225403E+03 0.  0.
         25    2    3    3    0    0 -0.28658714814E+02  0.65538434324E+01  0.41835868202E+03  0.43682634457E+03  0.12218426123E+03 0.  0.
         25    2    3    3    0    0  0.28658714814E+02 -0.65538434324E+01  0.95807265007E+03  0.96676494177E+03  0.12596418150E+03 0.  0.
          5    1    4    4  502    0  0.22014340309E+02 -0.17891917492E+02  0.33450024164E+03  0.33573390289E+03  0.47000000000E+01 0.  1.
         -5    1    4    4    0  502 -0.50673055123E+02  0.24445760924E+02  0.83858440378E+02  0.10109244168E+03  0.47000000000E+01 0.  1.
          5    1    5    5  503    0  0.18286270601E+02  0.41633285709E+02  0.79566271615E+03  0.79697488420E+03  0.47000000000E+01 0. -1.
         -5    1    5    5    0  503  0.10372444213E+02 -0.48187129141E+02  0.16240993392E+03  0.16979005757E+03  0.47000000000E+01 0. -1.
<mgrwt>
<rscale>  0 0.27478225E+03</rscale>
<asrwt>0</asrwt>
<pdfrwt beam="1">  1        2 0.21384778E+00 0.27478225E+03</pdfrwt>
<pdfrwt beam="2">  1       -2 0.20892283E-02 0.27478225E+03</pdfrwt>
<totfact> 0.11339573E+04</totfact>
</mgrwt>
</event>
<event>
 9    1  0.2065703E-002  0.2698362E+03  0.7818608E-02  0.1101373E+00
          1   -1    0    0  501    0  0.00000000000E+00  0.00000000000E+00  0.31508718210E+02  0.31508718210E+02  0.00000000000E+00 0. -1.
         -1   -1    0    0    0  501 -0.00000000000E+00 -0.00000000000E+00 -0.57770990870E+03  0.57770990870E+03  0.00000000000E+00 0. -1.
         36    2    1    2    0    0 -0.71054273576E-14 -0.71054273576E-14 -0.54620119049E+03  0.60921862691E+03  0.26983623716E+03 0.  0.
         25    2    3    3    0    0 -0.26718064249E+01  0.54863983878E+02 -0.29505483691E+03  0.32617694966E+03  0.12773742769E+03 0.  0.
         25    2    3    3    0    0  0.26718064249E+01 -0.54863983878E+02 -0.25114635358E+03  0.28304167725E+03  0.11840990189E+03 0.  0.
          5    1    4    4  502    0  0.40441976363E+02  0.34688119629E+02 -0.26349961797E+03  0.26887349770E+03  0.47000000000E+01 0.  1.
         -5    1    4    4    0  502 -0.43113782788E+02  0.20175864249E+02 -0.31555218935E+02  0.57303451961E+02  0.47000000000E+01 0.  1.
          5    1    5    5  503    0  0.46038004958E+02 -0.10050249438E+02 -0.37426939956E+02  0.60360345002E+02  0.47000000000E+01 0.  1.
         -5    1    5    5    0  503 -0.43366198533E+02 -0.44813734440E+02 -0.21371941363E+03  0.22268133225E+03  0.47000000000E+01 0.  1.
<mgrwt>
<rscale>  0 0.26983624E+03</rscale>
<asrwt>0</asrwt>
<pdfrwt beam="1">  1        1 0.48474954E-02 0.26983624E+03</pdfrwt>
<pdfrwt beam="2">  1       -1 0.88878443E-01 0.26983624E+03</pdfrwt>
<totfact> 0.22638108E+03</totfact>
</mgrwt>
</event>
<event>
 9    1  0.2065703E-002  0.2734146E+03  0.7818608E-02  0.1099341E+00
          1   -1    0    0  501    0  0.00000000000E+00  0.00000000000E+00  0.18804066328E+03  0.18804066328E+03  0.00000000000E+00 0.  1.
         -1   -1    0    0    0  501 -0.00000000000E+00 -0.00000000000E+00 -0.99387472545E+02  0.99387472545E+02  0.00000000000E+00 0.  1.
         36    2    1    2    0    0  0.00000000000E+00  0.71054273576E-14  0.88653190735E+02  0.28742813582E+03  0.27341460282E+03 0.  0.
         25    2    3    3    0    0 -0.16982046358E+02 -0.55971659475E+02  0.45345276844E+02  0.14354271413E+03  0.12299227652E+03 0.  0.
         25    2    3    3    0    0  0.16982046358E+02  0.55971659475E+02  0.43307913890E+02  0.14388542169E+03  0.12412180553E+03 0.  0.
          5    1    4    4  502    0 -0.23196393257E+02 -0.92802785593E+02  0.19122093916E+02  0.97663576372E+02  0.47000000000E+01 0.  1.
         -5    1    4    4    0  502  0.62143468993E+01  0.36831126118E+02  0.26223182929E+02  0.45879137758E+02  0.47000000000E+01 0.  1.
          5    1    5    5  503    0 -0.43314779777E+02 -0.43380415441E+01  0.38558430775E+02  0.58342363128E+02  0.47000000000E+01 0. -1.
         -5    1    5    5    0  503  0.60296826135E+02  0.60309701019E+02  0.47494831155E+01  0.85543058566E+02  0.47000000000E+01 0. -1.
<mgrwt>
<rscale>  0 0.27341460E+03</rscale>
<asrwt>0</asrwt>
<pdfrwt beam="1">  1        1 0.28929333E-01 0.27341460E+03</pdfrwt>
<pdfrwt beam="2">  1       -1 0.15290380E-01 0.27341460E+03</pdfrwt>
<totfact> 0.49099679E+03</totfact>
</mgrwt>
</event>
<event>
 9    1  0.2065703E-002  0.2745822E+03  0.7818608E-02  0.1098685E+00
          2   -1    0    0  501    0  0.00000000000E+00  0.00000000000E+00  0.19808127841E+03  0.19808127841E+03  0.00000000000E+00 0. -1.
         -2   -1    0    0    0  501 -0.00000000000E+00 -0.00000000000E+00 -0.95157131567E+02  0.95157131567E+02  0.00000000000E+00 0. -1.
         36    2    1    2    0    0  0.00000000000E+00 -0.71054273576E-14  0.10292414684E+03  0.29323840998E+03  0.27458220096E+03 0.  0.
         25    2    3    3    0    0  0.42921934182E+02 -0.10378211870E+02  0.68804511798E+01  0.13566883505E+03  0.12809641868E+03 0.  0.
         25    2    3    3    0    0 -0.42921934182E+02  0.10378211870E+02  0.96043695663E+02  0.15756957493E+03  0.11684938918E+03 0.  0.
          5    1    4    4  502    0  0.58531196107E+02 -0.17558443931E+02 -0.48077870028E+02  0.77895901416E+02  0.47000000000E+01 0. -1.
         -5    1    4    4    0  502 -0.15609261925E+02  0.71802320612E+01  0.54958321208E+02  0.57772933630E+02  0.47000000000E+01 0. -1.
          5    1    5    5  503    0 -0.32094012007E+02  0.62244231868E+02  0.42280787190E+02  0.81939764297E+02  0.47000000000E+01 0. -1.
         -5    1    5    5    0  503 -0.10827922175E+02 -0.51866019998E+02  0.53762908473E+02  0.75629810634E+02  0.47000000000E+01 0. -1.
<mgrwt>
<rscale>  0 0.27458220E+03</rscale>
<asrwt>0</asrwt>
<pdfrwt beam="1">  1        2 0.30474043E-01 0.27458220E+03</pdfrwt>
<pdfrwt beam="2">  1       -2 0.14639559E-01 0.27458220E+03</pdfrwt>
<totfact> 0.60967714E+03</totfact>
</mgrwt>
</event>
<event>
 9    1  0.2065703E-002  0.2754298E+03  0.7818608E-02  0.1098212E+00
          2   -1    0    0  501    0  0.00000000000E+00  0.00000000000E+00  0.25136234131E+03  0.25136234131E+03  0.00000000000E+00 0.  1.
         -2   -1    0    0    0  501 -0.00000000000E+00 -0.00000000000E+00 -0.75450424679E+02  0.75450424679E+02  0.00000000000E+00 0.  1.
         36    2    1    2    0    0  0.14210854715E-13  0.26645352591E-14  0.17591191663E+03  0.32681276599E+03  0.27542981248E+03 0.  0.
         25    2    3    3    0    0 -0.56189220810E+02  0.73892658325E+01  0.74857463882E+02  0.15579748813E+03  0.12432774278E+03 0.  0.
         25    2    3    3    0    0  0.56189220810E+02 -0.73892658325E+01  0.10105445275E+03  0.17101527786E+03  0.12578709416E+03 0.  0.
          5    1    4    4  502    0 -0.44894732092E+02 -0.52846561542E+01 -0.26708555813E+02  0.52715287288E+02  0.47000000000E+01 0.  1.
         -5    1    4    4    0  502 -0.11294488718E+02  0.12673921987E+02  0.10156601969E+03  0.10308220084E+03  0.47000000000E+01 0.  1.
          5    1    5    5  503    0 -0.26629007958E+02 -0.25943751744E+02 -0.18803160982E+01  0.37520766357E+02  0.47000000000E+01 0.  1.
         -5    1    5    5    0  503  0.82818228767E+02  0.18554485911E+02  0.10293476885E+03  0.13349451150E+03  0.47000000000E+01 0.  1.
<mgrwt>
<rscale>  0 0.27542981E+03</rscale>
<asrwt>0</asrwt>
<pdfrwt beam="1">  1        2 0.38671129E-01 0.27542981E+03</pdfrwt>
<pdfrwt beam="2">  1       -2 0.11607758E-01 0.27542981E+03</pdfrwt>
<totfact> 0.68664599E+03</totfact>
</mgrwt>
</event>
<event>
 9    1  0.2065703E-002  0.2745570E+03  0.7818608E-02  0.1098699E+00
         -1   -1    0    0    0  501 -0.00000000000E+00  0.00000000000E+00  0.45005858381E+03  0.45005858381E+03  0.00000000000E+00 0. -1.
          1   -1    0    0  501    0  0.00000000000E+00 -0.00000000000E+00 -0.41873179236E+02  0.41873179236E+02  0.00000000000E+00 0. -1.
         36    2    1    2    0    0 -0.26645352591E-14 -0.71054273576E-14  0.40818540458E+03  0.49193176305E+03  0.27455697949E+03 0.  0.
         25    2    3    3    0    0 -0.76626122534E+01 -0.52365183816E+02  0.21488535273E+03  0.25510134179E+03  0.12688637304E+03 0.  0.
         25    2    3    3    0    0  0.76626122534E+01  0.52365183816E+02  0.19330005185E+03  0.23683042126E+03  0.12618601463E+03 0.  0.
          5    1    4    4  502    0 -0.56910237408E+01 -0.49991360745E+02  0.11741173587E+02  0.51879370250E+02  0.47000000000E+01 0. -1.
         -5    1    4    4    0  502 -0.19715885126E+01 -0.23738230719E+01  0.20314417914E+03  0.20322197154E+03  0.47000000000E+01 0. -1.
          5    1    5    5  503    0  0.39448237741E+02  0.83225889329E+02  0.13365046019E+03  0.16237994834E+03  0.47000000000E+01 0.  1.
         -5    1    5    5    0  503 -0.31785625488E+02 -0.30860705512E+02  0.59649591660E+02  0.74450472917E+02  0.47000000000E+01 0.  1.
<mgrwt>
<rscale>  0 0.27455698E+03</rscale>
<asrwt>0</asrwt>
<pdfrwt beam="1">  1        1 0.64420279E-02 0.27455698E+03</pdfrwt>
<pdfrwt beam="2">  1       -1 0.69239779E-01 0.27455698E+03</pdfrwt>
<totfact> 0.25603101E+03</totfact>
</mgrwt>
</event>
<event>
 8    1  0.2065703E-002  0.3081584E+03  0.7818608E-02  0.1081232E+00
          4   -1    0    0  501    0  0.00000000000E+00  0.00000000000E+00  0.56077607169E+02  0.56077607169E+02  0.00000000000E+00 0.  1.
         -4   -1    0    0    0  501 -0.00000000000E+00 -0.00000000000E+00 -0.42334904313E+03  0.42334904313E+03  0.00000000000E+00 0.  1.
         25    2    1    2    0    0  0.63054161812E+02  0.46668170970E+02 -0.11231604267E+03  0.18474571740E+03  0.12394491177E+03 0.  0.
         25    2    1    2    0    0 -0.63054161812E+02 -0.46668170970E+02 -0.25495539329E+03  0.29468093290E+03  0.12522321727E+03 0.  0.
          5    1    3    3  502    0  0.36942824477E+02  0.26329585763E+02  0.18877043383E+02  0.49360430850E+02  0.47000000000E+01 0.  1.
         -5    1    3    3    0  502  0.26111337335E+02  0.20338585207E+02 -0.13119308606E+03  0.13538528655E+03  0.47000000000E+01 0.  1.
          5    1    4    4  503    0 -0.49193202890E+02 -0.19588579281E+02 -0.18582795214E+02  0.56312466886E+02  0.47000000000E+01 0. -1.
         -5    1    4    4    0  503 -0.13860958922E+02 -0.27079591689E+02 -0.23637259808E+03  0.23836846601E+03  0.47000000000E+01 0. -1.
<mgrwt>
<rscale>  0 0.30815841E+03</rscale>
<asrwt>0</asrwt>
<pdfrwt beam="1">  1        4 0.86273240E-02 0.30815841E+03</pdfrwt>
<pdfrwt beam="2">  1       -4 0.65130623E-01 0.30815841E+03</pdfrwt>
<totfact> 0.41148701E+02</totfact>
</mgrwt>
</event>
<event>
 9    1  0.2065703E-002  0.2751385E+03  0.7818608E-02  0.1098374E+00
         -1   -1    0    0    0  501 -0.00000000000E+00  0.00000000000E+00  0.56131148933E+02  0.56131148933E+02  0.00000000000E+00 0. -1.
          1   -1    0    0  501    0  0.00000000000E+00 -0.00000000000E+00 -0.33716202479E+03  0.33716202479E+03  0.00000000000E+00 0. -1.
         36    2    1    2    0    0  0.00000000000E+00  0.28421709430E-13 -0.28103087586E+03  0.39329317373E+03  0.27513845117E+03 0.  0.
         25    2    3    3    0    0 -0.20147948574E+02 -0.69683644126E+02 -0.89258721317E+02  0.13817578065E+03  0.76574649448E+02 0.  0.
         25    2    3    3    0    0  0.20147948574E+02  0.69683644126E+02 -0.19177215454E+03  0.25511739307E+03  0.15181098412E+03 0.  0.
          5    1    4    4  502    0  0.21045749808E+02 -0.57945103767E+02 -0.59505227911E+02  0.85810959582E+02  0.47000000000E+01 0. -1.
         -5    1    4    4    0  502 -0.41193698382E+02 -0.11738540358E+02 -0.29753493406E+02  0.52364821073E+02  0.47000000000E+01 0. -1.
          5    1    5    5  503    0 -0.29574701010E+02  0.37636168215E+02  0.61526326252E+01  0.48488029306E+02  0.47000000000E+01 0. -1.
         -5    1    5    5    0  503  0.49722649584E+02  0.32047475910E+02 -0.19792478717E+03  0.20662936376E+03  0.47000000000E+01 0. -1.
<mgrwt>
<rscale>  0 0.27513845E+03</rscale>
<asrwt>0</asrwt>
<pdfrwt beam="1">  1        1 0.51871080E-01 0.27513845E+03</pdfrwt>
<pdfrwt beam="2">  1       -1 0.86355614E-02 0.27513845E+03</pdfrwt>
<totfact> 0.57412984E+03</totfact>
</mgrwt>
</event>
<event>
 9    1  0.2065703E-002  0.2754709E+03  0.7818608E-02  0.1098189E+00
          2   -1    0    0  501    0  0.00000000000E+00  0.00000000000E+00  0.19380190811E+04  0.19380190811E+04  0.00000000000E+00 0.  1.
         -2   -1    0    0    0  501 -0.00000000000E+00 -0.00000000000E+00 -0.97888916784E+01  0.97888916784E+01  0.00000000000E+00 0.  1.
         36    2    1    2    0    0 -0.71054273576E-14  0.00000000000E+00  0.19282301894E+04  0.19478079728E+04  0.27547093390E+03 0.  0.
         25    2    3    3    0    0  0.29827897841E+02  0.36193023322E+02  0.70711803614E+03  0.71915842679E+03  0.12236538466E+03 0.  0.
         25    2    3    3    0    0 -0.29827897841E+02 -0.36193023322E+02  0.12211121533E+04  0.12286495460E+04  0.12753500515E+03 0.  0.
          5    1    4    4  502    0 -0.32836449891E+02  0.55411739683E+02  0.38894601078E+03  0.39427120442E+03  0.47000000000E+01 0.  1.
         -5    1    4    4    0  502  0.62664347732E+02 -0.19218716360E+02  0.31817202536E+03  0.32488722237E+03  0.47000000000E+01 0.  1.
          5    1    5    5  503    0 -0.39339812603E+02  0.39124812873E+02  0.67059773360E+03  0.67290547787E+03  0.47000000000E+01 0. -1.
         -5    1    5    5    0  503  0.95119147616E+01 -0.75317836195E+02  0.55051441970E+03  0.55574406814E+03  0.47000000000E+01 0. -1.
<mgrwt>
<rscale>  0 0.27547093E+03</rscale>
<asrwt>0</asrwt>
<pdfrwt beam="1">  1        2 0.29815648E+00 0.27547093E+03</pdfrwt>
<pdfrwt beam="2">  1       -2 0.15059849E-02 0.27547093E+03</pdfrwt>
<totfact> 0.93938869E+03</totfact>
</mgrwt>
</event>
<event>
 9    1  0.2065703E-002  0.2752152E+03  0.7818608E-02  0.1098331E+00
          1   -1    0    0  501    0  0.00000000000E+00  0.00000000000E+00  0.29623860616E+02  0.29623860616E+02  0.00000000000E+00 0. -1.
         -1   -1    0    0    0  501 -0.00000000000E+00 -0.00000000000E+00 -0.63920943049E+03  0.63920943049E+03  0.00000000000E+00 0. -1.
         36    2    1    2    0    0 -0.39968028887E-14  0.71054273576E-14 -0.60958556988E+03  0.66883329111E+03  0.27521519634E+03 0.  0.
         25    2    3    3    0    0  0.12891850472E+00  0.51519860702E+02 -0.23544789308E+03  0.27126510301E+03  0.12447784176E+03 0.  0.
         25    2    3    3    0    0 -0.12891850472E+00 -0.51519860702E+02 -0.37413767680E+03  0.39756818810E+03  0.12420608005E+03 0.  0.
          5    1    4    4  502    0 -0.38263812760E+01  0.77900131323E+02 -0.23094830160E+03  0.24380787449E+03  0.47000000000E+01 0. -1.
         -5    1    4    4    0  502  0.39552997807E+01 -0.26380270621E+02 -0.44995914819E+01  0.27457228518E+02  0.47000000000E+01 0. -1.
          5    1    5    5  503    0  0.35798936728E+02 -0.79222744227E+02 -0.27475213983E+03  0.28821629970E+03  0.47000000000E+01 0. -1.
         -5    1    5    5    0  503 -0.35927855233E+02  0.27702883525E+02 -0.99385536967E+02  0.10935188839E+03  0.47000000000E+01 0. -1.
<mgrwt>
<rscale>  0 0.27521520E+03</rscale>
<asrwt>0</asrwt>
<pdfrwt beam="1">  1        1 0.45575174E-02 0.27521520E+03</pdfrwt>
<pdfrwt beam="2">  1       -1 0.98339905E-01 0.27521520E+03</pdfrwt>
<totfact> 0.19798285E+03</totfact>
</mgrwt>
</event>
<event>
 9    1  0.2065703E-002  0.2748836E+03  0.7818608E-02  0.1098517E+00
         -2   -1    0    0    0  501 -0.00000000000E+00  0.00000000000E+00  0.70039082719E+02  0.70039082719E+02  0.00000000000E+00 0. -1.
          2   -1    0    0  501    0  0.00000000000E+00 -0.00000000000E+00 -0.26971002061E+03  0.26971002061E+03  0.00000000000E+00 0. -1.
         36    2    1    2    0    0 -0.71054273576E-14  0.14210854715E-13 -0.19967093789E+03  0.33974910333E+03  0.27488355676E+03 0.  0.
         25    2    3    3    0    0 -0.24490762637E+02  0.56958036405E+02 -0.12373422010E+03  0.19096402245E+03  0.13157919776E+03 0.  0.
         25    2    3    3    0    0  0.24490762637E+02 -0.56958036405E+02 -0.75936717799E+02  0.14878508088E+03  0.11192229365E+03 0.  0.
          5    1    4    4  502    0  0.52668407042E+01 -0.81735171564E+01 -0.11852240903E+03  0.11901343385E+03  0.47000000000E+01 0. -1.
         -5    1    4    4    0  502 -0.29757603341E+02  0.65131553562E+02 -0.52118110651E+01  0.71950588605E+02  0.47000000000E+01 0. -1.
          5    1    5    5  503    0  0.34918543806E+02  0.18499883708E+01 -0.81309735819E+02  0.88634588606E+02  0.47000000000E+01 0. -1.
         -5    1    5    5    0  503 -0.10427781169E+02 -0.58808024776E+02  0.53730180204E+01  0.60150492274E+02  0.47000000000E+01 0. -1.
<mgrwt>
<rscale>  0 0.27488356E+03</rscale>
<asrwt>0</asrwt>
<pdfrwt beam="1">  1        2 0.41493849E-01 0.27488356E+03</pdfrwt>
<pdfrwt beam="2">  1       -2 0.10775244E-01 0.27488356E+03</pdfrwt>
<totfact> 0.71709215E+03</totfact>
</mgrwt>
</event>
<event>
 9    1  0.2065703E-002  0.2737476E+03  0.7818608E-02  0.1099154E+00
          2   -1    0    0  501    0  0.00000000000E+00  0.00000000000E+00  0.30962113598E+04  0.30962113598E+04  0.00000000000E+00 0.  1.
         -2   -1    0    0    0  501 -0.00000000000E+00 -0.00000000000E+00 -0.60507608351E+01  0.60507608351E+01  0.00000000000E+00 0.  1.
         36    2    1    2    0    0  0.00000000000E+00  0.71054273576E-14  0.30901605990E+04  0.31022621207E+04  0.27374758032E+03 0.  0.
         25    2    3    3    0    0  0.29606094941E+02 -0.59069346303E+02  0.14497770660E+04  0.14560777335E+04  0.11808097295E+03 0.  0.
         25    2    3    3    0    0 -0.29606094941E+02  0.59069346303E+02  0.16403835330E+04  0.16461843872E+04  0.12124022811E+03 0.  0.
          5    1    4    4  502    0 -0.27616785875E+02 -0.37065514773E+02  0.22441780054E+03  0.22917674063E+03  0.47000000000E+01 0.  1.
         -5    1    4    4    0  502  0.57222880816E+02 -0.22003831530E+02  0.12253592655E+04  0.12269009928E+04  0.47000000000E+01 0.  1.
          5    1    5    5  503    0 -0.23903394218E+02  0.94767672752E+02  0.10037738450E+04  0.10085317575E+04  0.47000000000E+01 0.  1.
         -5    1    5    5    0  503 -0.57027007229E+01 -0.35698326449E+02  0.63660968799E+03  0.63765262969E+03  0.47000000000E+01 0.  1.
<mgrwt>
<rscale>  0 0.27374758E+03</rscale>
<asrwt>0</asrwt>
<pdfrwt beam="1">  1        2 0.47633894E+00 0.27374758E+03</pdfrwt>
<pdfrwt beam="2">  1       -2 0.93088875E-03 0.27374758E+03</pdfrwt>
<totfact> 0.43178667E+03</totfact>
</mgrwt>
</event>
<event>
 9    1  0.2065703E-002  0.2746065E+03  0.7818608E-02  0.1098672E+00
          2   -1    0    0  501    0  0.00000000000E+00  0.00000000000E+00  0.66878177554E+03  0.66878177554E+03  0.00000000000E+00 0. -1.
         -2   -1    0    0    0  501 -0.00000000000E+00 -0.00000000000E+00 -0.28188837970E+02  0.28188837970E+02  0.00000000000E+00 0. -1.
         36    2    1    2    0    0  0.00000000000E+00  0.14210854715E-13  0.64059293757E+03  0.69697061351E+03  0.27460649015E+03 0.  0.
         25    2    3    3    0    0 -0.30242520610E+02 -0.42650417196E+02  0.35886695405E+03  0.38385983615E+03  0.12581420811E+03 0.  0.
         25    2    3    3    0    0  0.30242520610E+02  0.42650417196E+02  0.28172598352E+03  0.31311077736E+03  0.12623454744E+03 0.  0.
          5    1    4    4  502    0  0.17578771417E+02 -0.71754282590E+02  0.14586146249E+03  0.16357061629E+03  0.47000000000E+01 0. -1.
         -5    1    4    4    0  502 -0.47821292026E+02  0.29103865394E+02  0.21300549156E+03  0.22028921986E+03  0.47000000000E+01 0. -1.
          5    1    5    5  503    0  0.47063197013E+02  0.67556000168E+02  0.10364516868E+03  0.13245062727E+03  0.47000000000E+01 0. -1.
         -5    1    5    5    0  503 -0.16820676403E+02 -0.24905582972E+02  0.17808081484E+03  0.18066015009E+03  0.47000000000E+01 0. -1.
<mgrwt>
<rscale>  0 0.27460649E+03</rscale>
<asrwt>0</asrwt>
<pdfrwt beam="1">  1        2 0.10288949E+00 0.27460649E+03</pdfrwt>
<pdfrwt beam="2">  1       -2 0.43367448E-02 0.27460649E+03</pdfrwt>
<totfact> 0.10735266E+04</totfact>
</mgrwt>
</event>
<event>
 9    1  0.2065703E-002  0.2740556E+03  0.7818608E-02  0.1098981E+00
         -2   -1    0    0    0  501 -0.00000000000E+00  0.00000000000E+00  0.38893060773E+02  0.38893060773E+02  0.00000000000E+00 0. -1.
          2   -1    0    0  501    0  0.00000000000E+00 -0.00000000000E+00 -0.48277538174E+03  0.48277538174E+03  0.00000000000E+00 0. -1.
         36    2    1    2    0    0  0.00000000000E+00  0.14210854715E-13 -0.44388232097E+03  0.52166844252E+03  0.27405555832E+03 0.  0.
         25    2    3    3    0    0  0.11616166312E+02 -0.32275343646E+02 -0.31140408744E+03  0.33680323291E+03  0.12364173606E+03 0.  0.
         25    2    3    3    0    0 -0.11616166312E+02  0.32275343646E+02 -0.13247823353E+03  0.18486520961E+03  0.12429010514E+03 0.  0.
          5    1    4    4  502    0 -0.78649151587E+01 -0.75389653676E+02 -0.14426562038E+03  0.16303409458E+03  0.47000000000E+01 0.  1.
         -5    1    4    4    0  502  0.19481081470E+02  0.43114310031E+02 -0.16713846706E+03  0.17376913833E+03  0.47000000000E+01 0.  1.
          5    1    5    5  503    0  0.22656435585E+02  0.31068775271E+02 -0.14342233130E+03  0.14856189951E+03  0.47000000000E+01 0.  1.
         -5    1    5    5    0  503 -0.34272601896E+02  0.12065683747E+01  0.10944097771E+02  0.36303310097E+02  0.47000000000E+01 0.  1.
<mgrwt>
<rscale>  0 0.27405556E+03</rscale>
<asrwt>0</asrwt>
<pdfrwt beam="1">  1        2 0.74273129E-01 0.27405556E+03</pdfrwt>
<pdfrwt beam="2">  1       -2 0.59835484E-02 0.27405556E+03</pdfrwt>
<totfact> 0.95674137E+03</totfact>
</mgrwt>
</event>
<event>
 9    1  0.2065703E-002  0.2747802E+03  0.7818608E-02  0.1098575E+00
          3   -1    0    0  501    0  0.00000000000E+00  0.00000000000E+00  0.13479805507E+03  0.13479805507E+03  0.00000000000E+00 0.  1.
         -3   -1    0    0    0  501 -0.00000000000E+00 -0.00000000000E+00 -0.14003201306E+03  0.14003201306E+03  0.00000000000E+00 0.  1.
         36    2    1    2    0    0 -0.71054273576E-14  0.00000000000E+00 -0.52339579907E+01  0.27483006813E+03  0.27478022496E+03 0.  0.
         25    2    3    3    0    0 -0.35702492201E+02  0.10507755857E+02 -0.35706589797E+02  0.13784532157E+03  0.12783306005E+03 0.  0.
         25    2    3    3    0    0  0.35702492201E+02 -0.10507755857E+02  0.30472631807E+02  0.13698474656E+03  0.12826207007E+03 0.  0.
          5    1    4    4  502    0  0.13863273798E+02 -0.51467225618E+02 -0.11327735060E+02  0.54694362185E+02  0.47000000000E+01 0.  1.
         -5    1    4    4    0  502 -0.49565765999E+02  0.61974981475E+02 -0.24378854738E+02  0.83150959383E+02  0.47000000000E+01 0.  1.
          5    1    5    5  503    0  0.79893127252E+02  0.24203549822E+01 -0.25841570977E+01  0.80109536064E+02  0.47000000000E+01 0. -1.
         -5    1    5    5    0  503 -0.44190635051E+02 -0.12928110840E+02  0.33056788904E+02  0.56875210494E+02  0.47000000000E+01 0. -1.
<mgrwt>
<rscale>  0 0.27478022E+03</rscale>
<asrwt>0</asrwt>
<pdfrwt beam="1">  1        3 0.20738162E-01 0.27478022E+03</pdfrwt>
<pdfrwt beam="2">  1       -3 0.21543387E-01 0.27478022E+03</pdfrwt>
<totfact> 0.10517309E+03</totfact>
</mgrwt>
</event>
<event>
 9    1  0.2065703E-002  0.2752963E+03  0.7818608E-02  0.1098286E+00
          2   -1    0    0  501    0  0.00000000000E+00  0.00000000000E+00  0.13008109440E+03  0.13008109440E+03  0.00000000000E+00 0.  1.
         -2   -1    0    0    0  501 -0.00000000000E+00 -0.00000000000E+00 -0.14565543386E+03  0.14565543386E+03  0.00000000000E+00 0.  1.
         36    2    1    2    0    0  0.00000000000E+00  0.00000000000E+00 -0.15574339454E+02  0.27573652826E+03  0.27529633664E+03 0.  0.
         25    2    3    3    0    0  0.19853855215E+02 -0.77239900887E+01 -0.42904210585E+02  0.13985110118E+03  0.13139148992E+03 0.  0.
         25    2    3    3    0    0 -0.19853855215E+02  0.77239900887E+01  0.27329871131E+02  0.13588542708E+03  0.13139289116E+03 0.  0.
          5    1    4    4  502    0 -0.68939022957E+01 -0.28128273947E+02 -0.82570210465E+02  0.87627936986E+02  0.47000000000E+01 0. -1.
         -5    1    4    4    0  502  0.26747757510E+02  0.20404283858E+02  0.39665999880E+02  0.52223164191E+02  0.47000000000E+01 0. -1.
          5    1    5    5  503    0 -0.23752609869E+02 -0.45955621097E+02 -0.27615282437E+02  0.58828559477E+02  0.47000000000E+01 0. -1.
         -5    1    5    5    0  503  0.38987546546E+01  0.53679611186E+02  0.54945153568E+02  0.77056867608E+02  0.47000000000E+01 0. -1.
<mgrwt>
<rscale>  0 0.27529634E+03</rscale>
<asrwt>0</asrwt>
<pdfrwt beam="1">  1        2 0.20012476E-01 0.27529634E+03</pdfrwt>
<pdfrwt beam="2">  1       -2 0.22408528E-01 0.27529634E+03</pdfrwt>
<totfact> 0.47545497E+03</totfact>
</mgrwt>
</event>
<event>
 9    1  0.2065703E-002  0.2749829E+03  0.7818608E-02  0.1098461E+00
          2   -1    0    0  501    0  0.00000000000E+00  0.00000000000E+00  0.47759139215E+03  0.47759139215E+03  0.00000000000E+00 0.  1.
         -2   -1    0    0    0  501 -0.00000000000E+00 -0.00000000000E+00 -0.39581730692E+02  0.39581730692E+02  0.00000000000E+00 0.  1.
         36    2    1    2    0    0  0.00000000000E+00  0.00000000000E+00  0.43800966146E+03  0.51717312284E+03  0.27498286394E+03 0.  0.
         25    2    3    3    0    0  0.42203435614E+02 -0.90408749778E+01  0.10780453702E+03  0.16250970369E+03  0.11368693062E+03 0.  0.
         25    2    3    3    0    0 -0.42203435614E+02  0.90408749778E+01  0.33020512444E+03  0.35466341915E+03  0.12201577473E+03 0.  0.
          5    1    4    4  502    0  0.50009234752E+02  0.37166341161E+02  0.25104763408E+02  0.67339435857E+02  0.47000000000E+01 0. -1.
         -5    1    4    4    0  502 -0.78057991376E+01 -0.46207216139E+02  0.82699773614E+02  0.95170267833E+02  0.47000000000E+01 0. -1.
          5    1    5    5  503    0 -0.29481844256E+02 -0.54069866535E+02  0.12300738510E+03  0.13764314874E+03  0.47000000000E+01 0.  1.
         -5    1    5    5    0  503 -0.12721591359E+02  0.63110741513E+02  0.20719773934E+03  0.21702027041E+03  0.47000000000E+01 0.  1.
<mgrwt>
<rscale>  0 0.27498286E+03</rscale>
<asrwt>0</asrwt>
<pdfrwt beam="1">  1        2 0.73475595E-01 0.27498286E+03</pdfrwt>
<pdfrwt beam="2">  1       -2 0.60894974E-02 0.27498286E+03</pdfrwt>
<totfact> 0.94268107E+03</totfact>
</mgrwt>
</event>
<event>
 9    1  0.2065703E-002  0.2773292E+03  0.7818608E-02  0.1097157E+00
          2   -1    0    0  501    0  0.00000000000E+00  0.00000000000E+00  0.37137174066E+04  0.37137174066E+04  0.00000000000E+00 0. -1.
         -2   -1    0    0    0  501 -0.00000000000E+00 -0.00000000000E+00 -0.51775284469E+01  0.51775284469E+01  0.00000000000E+00 0. -1.
         36    2    1    2    0    0 -0.71054273576E-14  0.00000000000E+00  0.37085398782E+04  0.37188949351E+04  0.27732924488E+03 0.  0.
         25    2    3    3    0    0  0.39133963841E+02 -0.26473383549E+02  0.15081169922E+04  0.15137796613E+04  0.12198234981E+03 0.  0.
         25    2    3    3    0    0 -0.39133963841E+02  0.26473383549E+02  0.22004228860E+04  0.22051152738E+04  0.13579464749E+03 0.  0.
          5    1    4    4  502    0  0.39544124364E+02 -0.42157876728E+02  0.14807549222E+04  0.14818900951E+04  0.47000000000E+01 0. -1.
         -5    1    4    4    0  502 -0.41016052300E+00  0.15684493179E+02  0.27362069977E+02  0.31889566183E+02  0.47000000000E+01 0. -1.
          5    1    5    5  503    0 -0.17238271509E+02 -0.42018059382E+02  0.15570855765E+04  0.15577548773E+04  0.47000000000E+01 0.  1.
         -5    1    5    5    0  503 -0.21895692332E+02  0.68491442931E+02  0.64333730955E+03  0.64736039650E+03  0.47000000000E+01 0.  1.
<mgrwt>
<rscale>  0 0.27732924E+03</rscale>
<asrwt>0</asrwt>
<pdfrwt beam="1">  1        2 0.57133901E+00 0.27732924E+03</pdfrwt>
<pdfrwt beam="2">  1       -2 0.79654581E-03 0.27732924E+03</pdfrwt>
<totfact> 0.21497837E+03</totfact>
</mgrwt>
</event>
<event>
 9    1  0.2065703E-002  0.2730791E+03  0.7818608E-02  0.1099530E+00
          4   -1    0    0  501    0  0.00000000000E+00  0.00000000000E+00  0.61677826932E+03  0.61677826932E+03  0.00000000000E+00 0.  1.
         -4   -1    0    0    0  501 -0.00000000000E+00 -0.00000000000E+00 -0.30226507055E+02  0.30226507055E+02  0.00000000000E+00 0.  1.
         36    2    1    2    0    0  0.00000000000E+00  0.71054273576E-14  0.58655176227E+03  0.64700477638E+03  0.27307912926E+03 0.  0.
         25    2    3    3    0    0  0.32854700270E+02 -0.16595062061E+02  0.17974957004E+03  0.21989839867E+03  0.12120466326E+03 0.  0.
         25    2    3    3    0    0 -0.32854700270E+02  0.16595062061E+02  0.40680219223E+03  0.42710637771E+03  0.12480787979E+03 0.  0.
          5    1    4    4  502    0  0.37967464371E+02 -0.65207966939E+02  0.89533902161E+02  0.11718368888E+03  0.47000000000E+01 0.  1.
         -5    1    4    4    0  502 -0.51127641013E+01  0.48612904878E+02  0.90215667876E+02  0.10271470979E+03  0.47000000000E+01 0.  1.
          5    1    5    5  503    0 -0.52961464441E+02 -0.39005833327E+02  0.27117094167E+03  0.27907372029E+03  0.47000000000E+01 0.  1.
         -5    1    5    5    0  503  0.20106764171E+02  0.55600895388E+02  0.13563125056E+03  0.14803265742E+03  0.47000000000E+01 0.  1.
<mgrwt>
<rscale>  0 0.27307913E+03</rscale>
<asrwt>0</asrwt>
<pdfrwt beam="1">  1        4 0.94888955E-01 0.27307913E+03</pdfrwt>
<pdfrwt beam="2">  1       -4 0.46502323E-02 0.27307913E+03</pdfrwt>
<totfact> 0.48455557E+02</totfact>
</mgrwt>
</event>
<event>
 9    1  0.2065703E-002  0.2749346E+03  0.7818608E-02  0.1098488E+00
          2   -1    0    0  501    0  0.00000000000E+00  0.00000000000E+00  0.53696324004E+03  0.53696324004E+03  0.00000000000E+00 0.  1.
         -2   -1    0    0    0  501 -0.00000000000E+00 -0.00000000000E+00 -0.35192842096E+02  0.35192842096E+02  0.00000000000E+00 0.  1.
         36    2    1    2    0    0  0.00000000000E+00  0.13322676296E-14  0.50177039794E+03  0.57215608213E+03  0.27493462872E+03 0.  0.
         25    2    3    3    0    0 -0.45417796964E+02 -0.27193630364E+01  0.18403362648E+03  0.22698531366E+03  0.12483503404E+03 0.  0.
         25    2    3    3    0    0  0.45417796964E+02  0.27193630364E+01  0.31773677146E+03  0.34517076848E+03  0.12694893562E+03 0.  0.
          5    1    4    4  502    0 -0.79297253123E+01 -0.61685025028E+02  0.77239910398E+02  0.99277472845E+02  0.47000000000E+01 0.  1.
         -5    1    4    4    0  502 -0.37488071652E+02  0.58965661992E+02  0.10679371608E+03  0.12770784081E+03  0.47000000000E+01 0.  1.
          5    1    5    5  503    0  0.61149421748E+02 -0.20922164866E+01  0.32178920741E+03  0.32758817615E+03  0.47000000000E+01 0. -1.
         -5    1    5    5    0  503 -0.15731624785E+02  0.48115795229E+01 -0.40524359433E+01  0.17582592327E+02  0.47000000000E+01 0. -1.
<mgrwt>
<rscale>  0 0.27493463E+03</rscale>
<asrwt>0</asrwt>
<pdfrwt beam="1">  1        2 0.82609723E-01 0.27493463E+03</pdfrwt>
<pdfrwt beam="2">  1       -2 0.54142838E-02 0.27493463E+03</pdfrwt>
<totfact> 0.98947400E+03</totfact>
</mgrwt>
</event>
<event>
 9    1  0.2065703E-002  0.2784349E+03  0.7818608E-02  0.1096547E+00
          3   -1    0    0  501    0  0.00000000000E+00  0.00000000000E+00  0.15055363111E+03  0.15055363111E+03  0.00000000000E+00 0.  1.
         -3   -1    0    0    0  501 -0.00000000000E+00 -0.00000000000E+00 -0.12873486556E+03  0.12873486556E+03  0.00000000000E+00 0.  1.
         36    2    1    2    0    0  0.00000000000E+00  0.00000000000E+00  0.21818765552E+02  0.27928849666E+03  0.27843492209E+03 0.  0.
         25    2    3    3    0    0  0.15520649668E+02  0.40088862182E+02  0.60971943955E+02  0.14659203788E+03  0.12618890673E+03 0.  0.
         25    2    3    3    0    0 -0.15520649668E+02 -0.40088862182E+02 -0.39153178403E+02  0.13269645879E+03  0.11927854526E+03 0.  0.
          5    1    4    4  502    0 -0.22824743256E+02  0.74191796219E+02  0.53805493586E+02  0.94564859599E+02  0.47000000000E+01 0. -1.
         -5    1    4    4    0  502  0.38345392924E+02 -0.34102934038E+02  0.71664503691E+01  0.52027178276E+02  0.47000000000E+01 0. -1.
          5    1    5    5  503    0  0.39097546211E+02 -0.12444703122E+02 -0.55483098893E+02  0.69166126234E+02  0.47000000000E+01 0.  1.
         -5    1    5    5    0  503 -0.54618195879E+02 -0.27644159060E+02  0.16329920490E+02  0.63530332554E+02  0.47000000000E+01 0.  1.
<mgrwt>
<rscale>  0 0.27843492E+03</rscale>
<asrwt>0</asrwt>
<pdfrwt beam="1">  1        3 0.23162097E-01 0.27843492E+03</pdfrwt>
<pdfrwt beam="2">  1       -3 0.19805364E-01 0.27843492E+03</pdfrwt>
<totfact> 0.10033899E+03</totfact>
</mgrwt>
</event>
<event>
 9    1  0.2065703E-002  0.2800201E+03  0.7818608E-02  0.1095678E+00
         -1   -1    0    0    0  501 -0.00000000000E+00  0.00000000000E+00  0.13611787287E+02  0.13611787287E+02  0.00000000000E+00 0.  1.
          1   -1    0    0  501    0  0.00000000000E+00 -0.00000000000E+00 -0.14401355328E+04  0.14401355328E+04  0.00000000000E+00 0.  1.
         36    2    1    2    0    0  0.00000000000E+00 -0.71054273576E-14 -0.14265237455E+04  0.14537473201E+04  0.28002013168E+03 0.  0.
         25    2    3    3    0    0  0.50532448178E+01  0.44048974004E+02 -0.59766514564E+03  0.61440258746E+03  0.13535533152E+03 0.  0.
         25    2    3    3    0    0 -0.50532448178E+01 -0.44048974004E+02 -0.82885859985E+03  0.83934473260E+03  0.12460800219E+03 0.  0.
          5    1    4    4  502    0  0.64289689436E+02  0.50596958633E+02 -0.31499606233E+03  0.32548091445E+03  0.47000000000E+01 0. -1.
         -5    1    4    4    0  502 -0.59236444618E+02 -0.65479846291E+01 -0.28266908331E+03  0.28892167301E+03  0.47000000000E+01 0. -1.
          5    1    5    5  503    0 -0.42615116086E+02 -0.69126686377E+02 -0.40696970876E+03  0.41501925346E+03  0.47000000000E+01 0.  1.
         -5    1    5    5    0  503  0.37561871269E+02  0.25077712373E+02 -0.42188889109E+03  0.42432547915E+03  0.47000000000E+01 0.  1.
<mgrwt>
<rscale>  0 0.28002013E+03</rscale>
<asrwt>0</asrwt>
<pdfrwt beam="1">  1        1 0.22155936E+00 0.28002013E+03</pdfrwt>
<pdfrwt beam="2">  1       -1 0.20941207E-02 0.28002013E+03</pdfrwt>
<totfact> 0.50295512E+03</totfact>
</mgrwt>
</event>
<event>
 9    1  0.2065703E-002  0.2755040E+03  0.7818608E-02  0.1098170E+00
         -2   -1    0    0    0  501 -0.00000000000E+00  0.00000000000E+00  0.90769401638E+01  0.90769401638E+01  0.00000000000E+00 0. -1.
          2   -1    0    0  501    0  0.00000000000E+00 -0.00000000000E+00 -0.20905293100E+04  0.20905293100E+04  0.00000000000E+00 0. -1.
         36    2    1    2    0    0 -0.35527136788E-14  0.00000000000E+00 -0.20814523698E+04  0.20996062501E+04  0.27550397062E+03 0.  0.
         25    2    3    3    0    0  0.10107770448E+02 -0.33944807232E+02 -0.12419431724E+04  0.12487509795E+04  0.12530661746E+03 0.  0.
         25    2    3    3    0    0 -0.10107770448E+02  0.33944807232E+02 -0.83950919737E+03  0.85085527059E+03  0.13388271758E+03 0.  0.
          5    1    4    4  502    0  0.27366812122E+02  0.45763824251E+01 -0.62502879504E+02  0.68546229861E+02  0.47000000000E+01 0. -1.
         -5    1    4    4    0  502 -0.17259041674E+02 -0.38521189657E+02 -0.11794402929E+04  0.11802047497E+04  0.47000000000E+01 0. -1.
          5    1    5    5  503    0 -0.60502334397E+02  0.32096527916E+02 -0.25252271336E+03  0.26168784904E+03  0.47000000000E+01 0.  1.
         -5    1    5    5    0  503  0.50394563950E+02  0.18482793168E+01 -0.58698648401E+03  0.58916742155E+03  0.47000000000E+01 0.  1.
<mgrwt>
<rscale>  0 0.27550397E+03</rscale>
<asrwt>0</asrwt>
<pdfrwt beam="1">  1        2 0.32161933E+00 0.27550397E+03</pdfrwt>
<pdfrwt beam="2">  1       -2 0.13964548E-02 0.27550397E+03</pdfrwt>
<totfact> 0.87194097E+03</totfact>
</mgrwt>
</event>
<event>
 9    1  0.2065703E-002  0.2754690E+03  0.7818608E-02  0.1098190E+00
          3   -1    0    0  501    0  0.00000000000E+00  0.00000000000E+00  0.86915318774E+02  0.86915318774E+02  0.00000000000E+00 0. -1.
         -3   -1    0    0    0  501 -0.00000000000E+00 -0.00000000000E+00 -0.21826754889E+03  0.21826754889E+03  0.00000000000E+00 0. -1.
         36    2    1    2    0    0  0.00000000000E+00 -0.71054273576E-14 -0.13135223011E+03  0.30518286766E+03  0.27546900798E+03 0.  0.
         25    2    3    3    0    0  0.37041249375E+01 -0.52932266188E+02 -0.45623970396E+02  0.14559045096E+03  0.12766944580E+03 0.  0.
         25    2    3    3    0    0 -0.37041249375E+01  0.52932266188E+02 -0.85728259715E+02  0.15959241669E+03  0.12371281101E+03 0.  0.
          5    1    4    4  502    0  0.61681505630E+02 -0.62103472131E+01 -0.10210919131E+02  0.63004201597E+02  0.47000000000E+01 0.  1.
         -5    1    4    4    0  502 -0.57977380693E+02 -0.46721918974E+02 -0.35413051266E+02  0.82586249368E+02  0.47000000000E+01 0.  1.
          5    1    5    5  503    0  0.40469353993E+02  0.35796629102E+02 -0.96573541218E+02  0.11075967737E+03  0.47000000000E+01 0.  1.
         -5    1    5    5    0  503 -0.44173478930E+02  0.17135637085E+02  0.10845281503E+02  0.48832739325E+02  0.47000000000E+01 0.  1.
<mgrwt>
<rscale>  0 0.27546901E+03</rscale>
<asrwt>0</asrwt>
<pdfrwt beam="1">  1        3 0.13371587E-01 0.27546901E+03</pdfrwt>
<pdfrwt beam="2">  1       -3 0.33579623E-01 0.27546901E+03</pdfrwt>
<totfact> 0.99880248E+02</totfact>
</mgrwt>
</event>
<event>
 9    1  0.2065703E-002  0.2757248E+03  0.7818608E-02  0.1098047E+00
         -2   -1    0    0    0  501 -0.00000000000E+00  0.00000000000E+00  0.58788347451E+01  0.58788347451E+01  0.00000000000E+00 0. -1.
          2   -1    0    0  501    0  0.00000000000E+00 -0.00000000000E+00 -0.32329609512E+04  0.32329609512E+04  0.00000000000E+00 0. -1.
         36    2    1    2    0    0 -0.71054273576E-14 -0.17763568394E-14 -0.32270821165E+04  0.32388397860E+04  0.27572481332E+03 0.  0.
         25    2    3    3    0    0 -0.24808020829E+02 -0.10428173454E+02 -0.21705944058E+04  0.21742165400E+04  0.12252878663E+03 0.  0.
         25    2    3    3    0    0  0.24808020829E+02  0.10428173454E+02 -0.10564877107E+04  0.10646232460E+04  0.12857755782E+03 0.  0.
          5    1    4    4  502    0  0.39310757581E+02 -0.38566445936E+02 -0.95760788425E+03  0.95920157235E+03  0.47000000000E+01 0. -1.
         -5    1    4    4    0  502 -0.64118778410E+02  0.28138272482E+02 -0.12129865216E+04  0.12150149676E+04  0.47000000000E+01 0. -1.
          5    1    5    5  503    0 -0.46131932859E+02  0.19638968312E+02 -0.25427507029E+03  0.25921370657E+03  0.47000000000E+01 0.  1.
         -5    1    5    5    0  503  0.70939953688E+02 -0.92107948576E+01 -0.80221264039E+03  0.80540953941E+03  0.47000000000E+01 0.  1.
<mgrwt>
<rscale>  0 0.27572481E+03</rscale>
<asrwt>0</asrwt>
<pdfrwt beam="1">  1        2 0.49737852E+00 0.27572481E+03</pdfrwt>
<pdfrwt beam="2">  1       -2 0.90443627E-03 0.27572481E+03</pdfrwt>
<totfact> 0.37114580E+03</totfact>
</mgrwt>
</event>
<event>
 9    1  0.2065703E-002  0.2750964E+03  0.7818608E-02  0.1098398E+00
          2   -1    0    0  501    0  0.00000000000E+00  0.00000000000E+00  0.32115447999E+02  0.32115447999E+02  0.00000000000E+00 0.  1.
         -2   -1    0    0    0  501 -0.00000000000E+00 -0.00000000000E+00 -0.58910917436E+03  0.58910917436E+03  0.00000000000E+00 0.  1.
         36    2    1    2    0    0  0.35527136788E-14 -0.35527136788E-14 -0.55699372636E+03  0.62122462236E+03  0.27509638351E+03 0.  0.
         25    2    3    3    0    0  0.29710635570E+02  0.85003576847E+01 -0.38779358201E+03  0.40841448516E+03  0.12435252911E+03 0.  0.
         25    2    3    3    0    0 -0.29710635570E+02 -0.85003576847E+01 -0.16920014436E+03  0.21281013720E+03  0.12531754745E+03 0.  0.
          5    1    4    4  502    0  0.20315412348E+02 -0.57014711569E+02 -0.21179459807E+03  0.22032347829E+03  0.47000000000E+01 0.  1.
         -5    1    4    4    0  502  0.93952232221E+01  0.65515069254E+02 -0.17599898394E+03  0.18809100687E+03  0.47000000000E+01 0.  1.
          5    1    5    5  503    0  0.28099714649E+01  0.20112812374E+02 -0.16793237715E+03  0.16922114069E+03  0.47000000000E+01 0.  1.
         -5    1    5    5    0  503 -0.32520607035E+02 -0.28613170059E+02 -0.12677672017E+01  0.43588996506E+02  0.47000000000E+01 0.  1.
<mgrwt>
<rscale>  0 0.27509638E+03</rscale>
<asrwt>0</asrwt>
<pdfrwt beam="1">  1        2 0.49408385E-02 0.27509638E+03</pdfrwt>
<pdfrwt beam="2">  1       -2 0.90632174E-01 0.27509638E+03</pdfrwt>
<totfact> 0.17162884E+03</totfact>
</mgrwt>
</event>
<event>
 9    1  0.2065703E-002  0.2748686E+03  0.7818608E-02  0.1098525E+00
         -1   -1    0    0    0  501 -0.00000000000E+00  0.00000000000E+00  0.12511893687E+03  0.12511893687E+03  0.00000000000E+00 0. -1.
          1   -1    0    0  501    0  0.00000000000E+00 -0.00000000000E+00 -0.15096189498E+03  0.15096189498E+03  0.00000000000E+00 0. -1.
         36    2    1    2    0    0 -0.35527136788E-14  0.14210854715E-13 -0.25842958116E+02  0.27608083185E+03  0.27486863632E+03 0.  0.
         25    2    3    3    0    0  0.11810028578E+02  0.44953242380E+02  0.14352251212E+02  0.13685567506E+03  0.12791879418E+03 0.  0.
         25    2    3    3    0    0 -0.11810028578E+02 -0.44953242380E+02 -0.40195209329E+02  0.13922515679E+03  0.12493085550E+03 0.  0.
          5    1    4    4  502    0  0.36398833534E+02  0.63345968018E+02 -0.32935529903E+02  0.80277181545E+02  0.47000000000E+01 0. -1.
         -5    1    4    4    0  502 -0.24588804957E+02 -0.18392725637E+02  0.47287781115E+02  0.56578493514E+02  0.47000000000E+01 0. -1.
          5    1    5    5  503    0 -0.12343842215E+02  0.41814804457E+02 -0.26552720506E+02  0.51263878888E+02  0.47000000000E+01 0.  1.
         -5    1    5    5    0  503  0.53381363770E+00 -0.86768046837E+02 -0.13642488823E+02  0.87961277902E+02  0.47000000000E+01 0.  1.
<mgrwt>
<rscale>  0 0.27486864E+03</rscale>
<asrwt>0</asrwt>
<pdfrwt beam="1">  1        1 0.23224907E-01 0.27486864E+03</pdfrwt>
<pdfrwt beam="2">  1       -1 0.19249067E-01 0.27486864E+03</pdfrwt>
<totfact> 0.44871117E+03</totfact>
</mgrwt>
</event>
<event>
 9    1  0.2065703E-002  0.2777264E+03  0.7818608E-02  0.1096937E+00
         -1   -1    0    0    0  501 -0.00000000000E+00  0.00000000000E+00  0.10846186554E+02  0.10846186554E+02  0.00000000000E+00 0.  1.
          1   -1    0    0  501    0  0.00000000000E+00 -0.00000000000E+00 -0.17778585949E+04  0.17778585949E+04  0.00000000000E+00 0.  1.
         36    2    1    2    0    0  0.00000000000E+00 -0.35527136788E-14 -0.17670124084E+04  0.17887047815E+04  0.27772638324E+03 0.  0.
         25    2    3    3    0    0 -0.46095404881E+02 -0.14332472365E+02 -0.55940460210E+03  0.57374769306E+03  0.11799449274E+03 0.  0.
         25    2    3    3    0    0  0.46095404881E+02  0.14332472365E+02 -0.12076078063E+04  0.12149570884E+04  0.12439415916E+03 0.  0.
          5    1    4    4  502    0 -0.46564373105E+02  0.43709236644E+02 -0.37304640738E+03  0.37850290655E+03  0.47000000000E+01 0. -1.
         -5    1    4    4    0  502  0.46896822417E+00 -0.58041709009E+02 -0.18635819472E+03  0.19524478650E+03  0.47000000000E+01 0. -1.
          5    1    5    5  503    0 -0.26252068387E+02 -0.28357217423E+02 -0.19422651002E+03  0.19808919726E+03  0.47000000000E+01 0.  1.
         -5    1    5    5    0  503  0.72347473267E+02  0.42689689787E+02 -0.10133812963E+04  0.10168678912E+04  0.47000000000E+01 0.  1.
<mgrwt>
<rscale>  0 0.27772638E+03</rscale>
<asrwt>0</asrwt>
<pdfrwt beam="1">  1        1 0.27351686E+00 0.27772638E+03</pdfrwt>
<pdfrwt beam="2">  1       -1 0.16686431E-02 0.27772638E+03</pdfrwt>
<totfact> 0.42031494E+03</totfact>
</mgrwt>
</event>
<event>
 9    1  0.2065703E-002  0.2736507E+03  0.7818608E-02  0.1099208E+00
          2   -1    0    0  501    0  0.00000000000E+00  0.00000000000E+00  0.54227192668E+03  0.54227192668E+03  0.00000000000E+00 0.  1.
         -2   -1    0    0    0  501 -0.00000000000E+00 -0.00000000000E+00 -0.34523590462E+02  0.34523590462E+02  0.00000000000E+00 0.  1.
         36    2    1    2    0    0  0.35527136788E-14  0.17763568394E-14  0.50774833622E+03  0.57679551714E+03  0.27365068182E+03 0.  0.
         25    2    3    3    0    0  0.18125118469E+01 -0.42553604878E+01  0.15498442895E+03  0.20277090803E+03  0.13066933318E+03 0.  0.
         25    2    3    3    0    0 -0.18125118469E+01  0.42553604878E+01  0.35276390726E+03  0.37402460911E+03  0.12422012985E+03 0.  0.
          5    1    4    4  502    0 -0.30239129348E+02 -0.44876179903E+02  0.13768245651E+03  0.14800954461E+03  0.47000000000E+01 0. -1.
         -5    1    4    4    0  502  0.32051641195E+02  0.40620819415E+02  0.17301972448E+02  0.54761363422E+02  0.47000000000E+01 0. -1.
          5    1    5    5  503    0 -0.62664299549E+02  0.98149849348E+00  0.19259561197E+03  0.20259056624E+03  0.47000000000E+01 0.  1.
         -5    1    5    5    0  503  0.60851787702E+02  0.32738619943E+01  0.16016829529E+03  0.17143404287E+03  0.47000000000E+01 0.  1.
<mgrwt>
<rscale>  0 0.27365068E+03</rscale>
<asrwt>0</asrwt>
<pdfrwt beam="1">  1        2 0.83426444E-01 0.27365068E+03</pdfrwt>
<pdfrwt beam="2">  1       -2 0.53113220E-02 0.27365068E+03</pdfrwt>
<totfact> 0.10073829E+04</totfact>
</mgrwt>
</event>
<event>
 9    1  0.2065703E-002  0.2757474E+03  0.7818608E-02  0.1098035E+00
         -1   -1    0    0    0  501 -0.00000000000E+00  0.00000000000E+00  0.57549498382E+02  0.57549498382E+02  0.00000000000E+00 0.  1.
          1   -1    0    0  501    0  0.00000000000E+00 -0.00000000000E+00 -0.33030962685E+03  0.33030962685E+03  0.00000000000E+00 0.  1.
         36    2    1    2    0    0  0.00000000000E+00  0.00000000000E+00 -0.27276012847E+03  0.38785912523E+03  0.27574737232E+03 0.  0.
         25    2    3    3    0    0 -0.37651165254E+02 -0.82073842726E+01 -0.75124661352E+02  0.14965266794E+03  0.12356065262E+03 0.  0.
         25    2    3    3    0    0  0.37651165254E+02  0.82073842726E+01 -0.19763546712E+03  0.23820645729E+03  0.12726966265E+03 0.  0.
          5    1    4    4  502    0 -0.82856729890E+01 -0.60619187587E+02 -0.12271040489E+02  0.62578005044E+02  0.47000000000E+01 0. -1.
         -5    1    4    4    0  502 -0.29365492265E+02  0.52411803314E+02 -0.62853620863E+02  0.87074662895E+02  0.47000000000E+01 0. -1.
          5    1    5    5  503    0  0.34093129913E+02 -0.57491127099E+02 -0.98259466376E+02  0.11893100494E+03  0.47000000000E+01 0. -1.
         -5    1    5    5    0  503  0.35580353414E+01  0.65698511372E+02 -0.99376000741E+02  0.11927545236E+03  0.47000000000E+01 0. -1.
<mgrwt>
<rscale>  0 0.27574737E+03</rscale>
<asrwt>0</asrwt>
<pdfrwt beam="1">  1        1 0.50816865E-01 0.27574737E+03</pdfrwt>
<pdfrwt beam="2">  1       -1 0.88537690E-02 0.27574737E+03</pdfrwt>
<totfact> 0.56713597E+03</totfact>
</mgrwt>
</event>
<event>
 9    1  0.2065703E-002  0.2753111E+03  0.7818608E-02  0.1098278E+00
          2   -1    0    0  501    0  0.00000000000E+00  0.00000000000E+00  0.74364830840E+03  0.74364830840E+03  0.00000000000E+00 0.  1.
         -2   -1    0    0    0  501 -0.00000000000E+00 -0.00000000000E+00 -0.25481197686E+02  0.25481197686E+02  0.00000000000E+00 0.  1.
         36    2    1    2    0    0 -0.71054273576E-14  0.00000000000E+00  0.71816711071E+03  0.76912950608E+03  0.27531109353E+03 0.  0.
         25    2    3    3    0    0  0.48425584054E+02  0.27013568237E+02  0.31751259493E+03  0.34609293074E+03  0.12606069455E+03 0.  0.
         25    2    3    3    0    0 -0.48425584054E+02 -0.27013568237E+02  0.40065451579E+03  0.42303657534E+03  0.12394003792E+03 0.  0.
          5    1    4    4  502    0  0.31358214526E+02  0.14531866877E+02  0.79511775280E+01  0.35774627842E+02  0.47000000000E+01 0. -1.
         -5    1    4    4    0  502  0.17067369528E+02  0.12481701360E+02  0.30956141740E+03  0.31031830290E+03  0.47000000000E+01 0. -1.
          5    1    5    5  503    0  0.13439628209E+02  0.14725380781E+02  0.59760544581E+01  0.21336908690E+02  0.47000000000E+01 0. -1.
         -5    1    5    5    0  503 -0.61865212263E+02 -0.41738949018E+02  0.39467846133E+03  0.40169966665E+03  0.47000000000E+01 0. -1.
<mgrwt>
<rscale>  0 0.27531109E+03</rscale>
<asrwt>0</asrwt>
<pdfrwt beam="1">  1        2 0.11440742E+00 0.27531109E+03</pdfrwt>
<pdfrwt beam="2">  1       -2 0.39201848E-02 0.27531109E+03</pdfrwt>
<totfact> 0.10985929E+04</totfact>
</mgrwt>
</event>
<event>
 9    1  0.2065703E-002  0.2748462E+03  0.7818608E-02  0.1098538E+00
          2   -1    0    0  501    0  0.00000000000E+00  0.00000000000E+00  0.15197121735E+04  0.15197121735E+04  0.00000000000E+00 0.  1.
         -2   -1    0    0    0  501 -0.00000000000E+00 -0.00000000000E+00 -0.12426765925E+02  0.12426765925E+02  0.00000000000E+00 0.  1.
         36    2    1    2    0    0  0.14210854715E-13  0.00000000000E+00  0.15072854076E+04  0.15321389395E+04  0.27484619302E+03 0.  0.
         25    2    3    3    0    0  0.40512399757E+02  0.16844077691E+00  0.92869932129E+03  0.93909376592E+03  0.13331687406E+03 0.  0.
         25    2    3    3    0    0 -0.40512399757E+02 -0.16844077691E+00  0.57858608631E+03  0.59304517354E+03  0.12369088760E+03 0.  0.
          5    1    4    4  502    0 -0.32897550894E+02  0.32122183141E+02  0.17012143535E+03  0.17628804914E+03  0.47000000000E+01 0.  1.
         -5    1    4    4    0  502  0.73409950650E+02 -0.31953742364E+02  0.75857788595E+03  0.76280571678E+03  0.47000000000E+01 0.  1.
          5    1    5    5  503    0 -0.28883818671E+02 -0.24580437120E+02  0.55651573558E+03  0.55782643073E+03  0.47000000000E+01 0.  1.
         -5    1    5    5    0  503 -0.11628581085E+02  0.24411996343E+02  0.22070350725E+02  0.35218742803E+02  0.47000000000E+01 0.  1.
<mgrwt>
<rscale>  0 0.27484619E+03</rscale>
<asrwt>0</asrwt>
<pdfrwt beam="1">  1        2 0.23380173E+00 0.27484619E+03</pdfrwt>
<pdfrwt beam="2">  1       -2 0.19118113E-02 0.27484619E+03</pdfrwt>
<totfact> 0.11001201E+04</totfact>
</mgrwt>
</event>
<event>
 9    1  0.2065703E-002  0.2744377E+03  0.7818608E-02  0.1098766E+00
          1   -1    0    0  501    0  0.00000000000E+00  0.00000000000E+00  0.11902878198E+04  0.11902878198E+04  0.00000000000E+00 0. -1.
         -1   -1    0    0    0  501 -0.00000000000E+00 -0.00000000000E+00 -0.15818872474E+02  0.15818872474E+02  0.00000000000E+00 0. -1.
         36    2    1    2    0    0  0.00000000000E+00  0.00000000000E+00  0.11744689474E+04  0.12061066923E+04  0.27443768859E+03 0.  0.
         25    2    3    3    0    0 -0.40108646425E+02 -0.26326657301E+02  0.67257972390E+03  0.68595830631E+03  0.12599014483E+03 0.  0.
         25    2    3    3    0    0  0.40108646425E+02  0.26326657301E+02  0.50188922348E+03  0.52014838601E+03  0.12790525567E+03 0.  0.
          5    1    4    4  502    0 -0.26876713017E+02 -0.71196751199E+02  0.26733618109E+03  0.27799650862E+03  0.47000000000E+01 0.  1.
         -5    1    4    4    0  502 -0.13231933408E+02  0.44870093897E+02  0.40524354281E+03  0.40796179769E+03  0.47000000000E+01 0.  1.
          5    1    5    5  503    0  0.41836736148E+02  0.65070871532E+02  0.18106955765E+03  0.19695889297E+03  0.47000000000E+01 0. -1.
         -5    1    5    5    0  503 -0.17280897228E+01 -0.38744214231E+02  0.32081966583E+03  0.32318949304E+03  0.47000000000E+01 0. -1.
<mgrwt>
<rscale>  0 0.27443769E+03</rscale>
<asrwt>0</asrwt>
<pdfrwt beam="1">  1        1 0.18312113E+00 0.27443769E+03</pdfrwt>
<pdfrwt beam="2">  1       -1 0.24336736E-02 0.27443769E+03</pdfrwt>
<totfact> 0.59751609E+03</totfact>
</mgrwt>
</event>
<event>
 9    1  0.2065703E-002  0.2748155E+03  0.7818608E-02  0.1098555E+00
          2   -1    0    0  501    0  0.00000000000E+00  0.00000000000E+00  0.17909117573E+04  0.17909117573E+04  0.00000000000E+00 0. -1.
         -2   -1    0    0    0  501 -0.00000000000E+00 -0.00000000000E+00 -0.10542610413E+02  0.10542610413E+02  0.00000000000E+00 0. -1.
         36    2    1    2    0    0 -0.71054273576E-14  0.00000000000E+00  0.17803691469E+04  0.18014543677E+04  0.27481546493E+03 0.  0.
         25    2    3    3    0    0 -0.32606719988E+02 -0.78586093817E+02  0.94451704725E+03  0.95727561523E+03  0.13048056805E+03 0.  0.
         25    2    3    3    0    0  0.32606719988E+02  0.78586093817E+02  0.83585209967E+03  0.84417875251E+03  0.82158756970E+02 0.  0.
          5    1    4    4  502    0  0.27810136845E+02  0.42260810021E+01  0.55915743911E+02  0.62768813029E+02  0.47000000000E+01 0.  1.
         -5    1    4    4    0  502 -0.60416856833E+02 -0.82812174819E+02  0.88860130334E+03  0.89450680220E+03  0.47000000000E+01 0.  1.
          5    1    5    5  503    0  0.40948857377E+02  0.69261596769E+02  0.81756519278E+03  0.82152840009E+03  0.47000000000E+01 0. -1.
         -5    1    5    5    0  503 -0.83421373891E+01  0.93244970476E+01  0.18286906884E+02  0.22650352421E+02  0.47000000000E+01 0. -1.
<mgrwt>
<rscale>  0 0.27481546E+03</rscale>
<asrwt>0</asrwt>
<pdfrwt beam="1">  1        2 0.27552464E+00 0.27481546E+03</pdfrwt>
<pdfrwt beam="2">  1       -2 0.16219415E-02 0.27481546E+03</pdfrwt>
<totfact> 0.10066929E+04</totfact>
</mgrwt>
</event>
<event>
 9    1  0.2065703E-002  0.2733727E+03  0.7818608E-02  0.1099365E+00
          2   -1    0    0  501    0  0.00000000000E+00  0.00000000000E+00  0.25285132382E+04  0.25285132382E+04  0.00000000000E+00 0. -1.
         -2   -1    0    0    0  501 -0.00000000000E+00 -0.00000000000E+00 -0.73889875407E+01  0.73889875407E+01  0.00000000000E+00 0. -1.
         36    2    1    2    0    0  0.00000000000E+00 -0.35527136788E-14  0.25211242506E+04  0.25359022257E+04  0.27337266003E+03 0.  0.
         25    2    3    3    0    0  0.44454048574E+02 -0.28558815417E+02  0.11022981767E+04  0.11106147333E+04  0.12494817714E+03 0.  0.
         25    2    3    3    0    0 -0.44454048574E+02  0.28558815417E+02  0.14188260739E+04  0.14252874924E+04  0.12484085768E+03 0.  0.
          5    1    4    4  502    0  0.49808034450E+02  0.39511437504E+02  0.40788374574E+03  0.41283560169E+03  0.47000000000E+01 0.  1.
         -5    1    4    4    0  502 -0.53539858760E+01 -0.68070252922E+02  0.69441443101E+03  0.69777913159E+03  0.47000000000E+01 0.  1.
          5    1    5    5  503    0 -0.28645089527E+02  0.11723914269E+02  0.13763924844E+04  0.13767484710E+04  0.47000000000E+01 0. -1.
         -5    1    5    5    0  503 -0.15808959048E+02  0.16834901149E+02  0.42433589478E+02  0.48539021404E+02  0.47000000000E+01 0. -1.
<mgrwt>
<rscale>  0 0.27337266E+03</rscale>
<asrwt>0</asrwt>
<pdfrwt beam="1">  1        2 0.38900135E+00 0.27337266E+03</pdfrwt>
<pdfrwt beam="2">  1       -2 0.11367693E-02 0.27337266E+03</pdfrwt>
<totfact> 0.68442570E+03</totfact>
</mgrwt>
</event>
<event>
 9    1  0.2065703E-002  0.2753884E+03  0.7818608E-02  0.1098235E+00
          2   -1    0    0  501    0  0.00000000000E+00  0.00000000000E+00  0.18060975322E+04  0.18060975322E+04  0.00000000000E+00 0. -1.
         -2   -1    0    0    0  501 -0.00000000000E+00 -0.00000000000E+00 -0.10497605391E+02  0.10497605391E+02  0.00000000000E+00 0. -1.
         36    2    1    2    0    0  0.71054273576E-14  0.00000000000E+00  0.17955999268E+04  0.18165951376E+04  0.27538844704E+03 0.  0.
         25    2    3    3    0    0  0.11868486451E+02 -0.40491010391E+02  0.92327539439E+03  0.93321683541E+03  0.12913491051E+03 0.  0.
         25    2    3    3    0    0 -0.11868486451E+02  0.40491010391E+02  0.87232453243E+03  0.88337830219E+03  0.13276577878E+03 0.  0.
          5    1    4    4  502    0  0.48334012898E+02 -0.12718120740E+02  0.14251212973E+03  0.15109508436E+03  0.47000000000E+01 0.  1.
         -5    1    4    4    0  502 -0.36465526447E+02 -0.27772889652E+02  0.78076326467E+03  0.78212175105E+03  0.47000000000E+01 0.  1.
          5    1    5    5  503    0  0.19070266401E+02  0.35810918953E+02  0.82751916261E+03  0.82852649412E+03  0.47000000000E+01 0.  1.
         -5    1    5    5    0  503 -0.30938752852E+02  0.46800914385E+01  0.44805369819E+02  0.54851808070E+02  0.47000000000E+01 0.  1.
<mgrwt>
<rscale>  0 0.27538845E+03</rscale>
<asrwt>0</asrwt>
<pdfrwt beam="1">  1        2 0.27786091E+00 0.27538845E+03</pdfrwt>
<pdfrwt beam="2">  1       -2 0.16150177E-02 0.27538845E+03</pdfrwt>
<totfact> 0.99462112E+03</totfact>
</mgrwt>
</event>
<event>
 9    1  0.2065703E-002  0.2748393E+03  0.7818608E-02  0.1098541E+00
          2   -1    0    0  501    0  0.00000000000E+00  0.00000000000E+00  0.32373164721E+04  0.32373164721E+04  0.00000000000E+00 0.  1.
         -2   -1    0    0    0  501 -0.00000000000E+00 -0.00000000000E+00 -0.58332745085E+01  0.58332745085E+01  0.00000000000E+00 0.  1.
         36    2    1    2    0    0  0.00000000000E+00 -0.14210854715E-13  0.32314831976E+04  0.32431497466E+04  0.27483926687E+03 0.  0.
         25    2    3    3    0    0  0.10358048372E+02  0.37622406211E+02  0.95506817099E+03  0.96292969230E+03  0.11642871834E+03 0.  0.
         25    2    3    3    0    0 -0.10358048372E+02 -0.37622406211E+02  0.22764150266E+04  0.22802200543E+04  0.12575924671E+03 0.  0.
          5    1    4    4  502    0 -0.23163859888E+02  0.51862235285E+02  0.23086783124E+03  0.23779886744E+03  0.47000000000E+01 0. -1.
         -5    1    4    4    0  502  0.33521908260E+02 -0.14239829075E+02  0.72420033975E+03  0.72513082486E+03  0.47000000000E+01 0. -1.
          5    1    5    5  503    0  0.57362849460E+02 -0.13231324808E+02  0.11228896159E+04  0.11244415253E+04  0.47000000000E+01 0. -1.
         -5    1    5    5    0  503 -0.67720897833E+02 -0.24391081403E+02  0.11535254108E+04  0.11557785290E+04  0.47000000000E+01 0. -1.
<mgrwt>
<rscale>  0 0.27483927E+03</rscale>
<asrwt>0</asrwt>
<pdfrwt beam="1">  1        2 0.49804725E+00 0.27483927E+03</pdfrwt>
<pdfrwt beam="2">  1       -2 0.89742943E-03 0.27483927E+03</pdfrwt>
<totfact> 0.37306197E+03</totfact>
</mgrwt>
</event>
<event>
 9    1  0.2065703E-002  0.2750910E+03  0.7818608E-02  0.1098401E+00
         -1   -1    0    0    0  501 -0.00000000000E+00  0.00000000000E+00  0.25733633253E+02  0.25733633253E+02  0.00000000000E+00 0. -1.
          1   -1    0    0  501    0  0.00000000000E+00 -0.00000000000E+00 -0.73517649081E+03  0.73517649081E+03  0.00000000000E+00 0. -1.
         36    2    1    2    0    0  0.71054273576E-14  0.00000000000E+00 -0.70944285756E+03  0.76091012407E+03  0.27509098270E+03 0.  0.
         25    2    3    3    0    0  0.18546522000E+01 -0.40019991688E+01 -0.50482353861E+03  0.51955332684E+03  0.12275747865E+03 0.  0.
         25    2    3    3    0    0 -0.18546522000E+01  0.40019991688E+01 -0.20461931895E+03  0.24135679723E+03  0.12792412653E+03 0.  0.
          5    1    4    4  502    0  0.53452869769E+02 -0.32785899897E+02 -0.23243324127E+03  0.24078917369E+03  0.47000000000E+01 0. -1.
         -5    1    4    4    0  502 -0.51598217569E+02  0.28783900728E+02 -0.27239029734E+03  0.27876415315E+03  0.47000000000E+01 0. -1.
          5    1    5    5  503    0  0.32521920384E+02  0.54351346749E+02 -0.13153946430E+03  0.14607006835E+03  0.47000000000E+01 0. -1.
         -5    1    5    5    0  503 -0.34376572584E+02 -0.50349347581E+02 -0.73079854649E+02  0.95286728876E+02  0.47000000000E+01 0. -1.
<mgrwt>
<rscale>  0 0.27509098E+03</rscale>
<asrwt>0</asrwt>
<pdfrwt beam="1">  1        1 0.11310406E+00 0.27509098E+03</pdfrwt>
<pdfrwt beam="2">  1       -1 0.39590210E-02 0.27509098E+03</pdfrwt>
<totfact> 0.65296824E+03</totfact>
</mgrwt>
</event>
<event>
 9    1  0.2065703E-002  0.2744098E+03  0.7818608E-02  0.1098782E+00
          2   -1    0    0  501    0  0.00000000000E+00  0.00000000000E+00  0.45677257994E+03  0.45677257994E+03  0.00000000000E+00 0.  1.
         -2   -1    0    0    0  501 -0.00000000000E+00 -0.00000000000E+00 -0.41213463683E+02  0.41213463683E+02  0.00000000000E+00 0.  1.
         36    2    1    2    0    0  0.00000000000E+00  0.35527136788E-14  0.41555911626E+03  0.49798604363E+03  0.27440976757E+03 0.  0.
         25    2    3    3    0    0 -0.27829153001E+02  0.27435728474E+02  0.28916211045E+03  0.31653906329E+03  0.12269910968E+03 0.  0.
         25    2    3    3    0    0  0.27829153001E+02 -0.27435728474E+02  0.12639700581E+03  0.18144698033E+03  0.12417577316E+03 0.  0.
          5    1    4    4  502    0 -0.54223627145E+02 -0.23157136278E+02  0.21416950061E+03  0.22218712765E+03  0.47000000000E+01 0.  1.
         -5    1    4    4    0  502  0.26394474144E+02  0.50592864752E+02  0.74992609846E+02  0.94351935649E+02  0.47000000000E+01 0.  1.
          5    1    5    5  503    0  0.58531477525E+02 -0.41010156767E+02  0.12889565693E+03  0.14745828968E+03  0.47000000000E+01 0. -1.
         -5    1    5    5    0  503 -0.30702324524E+02  0.13574428293E+02 -0.24986511269E+01  0.33988690650E+02  0.47000000000E+01 0. -1.
<mgrwt>
<rscale>  0 0.27440977E+03</rscale>
<asrwt>0</asrwt>
<pdfrwt beam="1">  1        2 0.70272701E-01 0.27440977E+03</pdfrwt>
<pdfrwt beam="2">  1       -2 0.63405332E-02 0.27440977E+03</pdfrwt>
<totfact> 0.93063708E+03</totfact>
</mgrwt>
</event>
<event>
 9    1  0.2065703E-002  0.2744912E+03  0.7818608E-02  0.1098736E+00
         -1   -1    0    0    0  501 -0.00000000000E+00  0.00000000000E+00  0.89830320290E+02  0.89830320290E+02  0.00000000000E+00 0.  1.
          1   -1    0    0  501    0  0.00000000000E+00 -0.00000000000E+00 -0.20968822978E+03  0.20968822978E+03  0.00000000000E+00 0.  1.
         36    2    1    2    0    0  0.00000000000E+00  0.00000000000E+00 -0.11985790949E+03  0.29951855007E+03  0.27449124461E+03 0.  0.
         25    2    3    3    0    0  0.53496340100E+02 -0.25557452888E+02 -0.63013284898E+02  0.15020581162E+03  0.12278464875E+03 0.  0.
         25    2    3    3    0    0 -0.53496340100E+02  0.25557452888E+02 -0.56844624592E+02  0.14931273845E+03  0.12469138188E+03 0.  0.
          5    1    4    4  502    0  0.93054659143E+02 -0.22812912586E+02 -0.50215528398E+02  0.10827413293E+03  0.47000000000E+01 0.  1.
         -5    1    4    4    0  502 -0.39558319042E+02 -0.27445403017E+01 -0.12797756500E+02  0.41931678697E+02  0.47000000000E+01 0.  1.
          5    1    5    5  503    0  0.20758321482E+02 -0.28153131529E+02  0.89360435727E+01  0.36406724658E+02  0.47000000000E+01 0. -1.
         -5    1    5    5    0  503 -0.74254661582E+02  0.53710584417E+02 -0.65780668165E+02  0.11290601379E+03  0.47000000000E+01 0. -1.
<mgrwt>
<rscale>  0 0.27449124E+03</rscale>
<asrwt>0</asrwt>
<pdfrwt beam="1">  1        1 0.32259728E-01 0.27449124E+03</pdfrwt>
<pdfrwt beam="2">  1       -1 0.13820049E-01 0.27449124E+03</pdfrwt>
<totfact> 0.50230496E+03</totfact>
</mgrwt>
</event>
<event>
 9    1  0.2065703E-002  0.2744714E+03  0.7818608E-02  0.1098747E+00
          1   -1    0    0  501    0  0.00000000000E+00  0.00000000000E+00  0.23019928161E+04  0.23019928161E+04  0.00000000000E+00 0.  1.
         -1   -1    0    0    0  501 -0.00000000000E+00 -0.00000000000E+00 -0.81814472410E+01  0.81814472410E+01  0.00000000000E+00 0.  1.
         36    2    1    2    0    0 -0.71054273576E-14  0.00000000000E+00  0.22938113689E+04  0.23101742634E+04  0.27447136663E+03 0.  0.
         25    2    3    3    0    0 -0.35633433928E+02  0.19365470956E+02  0.92910116322E+03  0.93905790501E+03  0.13021526175E+03 0.  0.
         25    2    3    3    0    0  0.35633433928E+02 -0.19365470956E+02  0.13647102057E+04  0.13711163584E+04  0.12602126654E+03 0.  0.
          5    1    4    4  502    0  0.41434465447E+02  0.36963344471E+02  0.31777041654E+03  0.32261932891E+03  0.47000000000E+01 0.  1.
         -5    1    4    4    0  502 -0.77067899374E+02 -0.17597873515E+02  0.61133074668E+03  0.61643857610E+03  0.47000000000E+01 0.  1.
          5    1    5    5  503    0  0.68161160423E+01  0.74171711820E+01  0.76871971776E+01  0.13515060736E+02  0.47000000000E+01 0. -1.
         -5    1    5    5    0  503  0.28817317885E+02 -0.26782642138E+02  0.13570230085E+04  0.13576012976E+04  0.47000000000E+01 0. -1.
<mgrwt>
<rscale>  0 0.27447137E+03</rscale>
<asrwt>0</asrwt>
<pdfrwt beam="1">  1        1 0.35415223E+00 0.27447137E+03</pdfrwt>
<pdfrwt beam="2">  1       -1 0.12586860E-02 0.27447137E+03</pdfrwt>
<totfact> 0.28874421E+03</totfact>
</mgrwt>
</event>
<event>
 9    1  0.2065703E-002  0.2733497E+03  0.7818608E-02  0.1099378E+00
         -2   -1    0    0    0  501 -0.00000000000E+00  0.00000000000E+00  0.52489388349E+01  0.52489388349E+01  0.00000000000E+00 0. -1.
          2   -1    0    0  501    0  0.00000000000E+00 -0.00000000000E+00 -0.35588169365E+04  0.35588169365E+04  0.00000000000E+00 0. -1.
         36    2    1    2    0    0  0.00000000000E+00  0.00000000000E+00 -0.35535679977E+04  0.35640658753E+04  0.27334968392E+03 0.  0.
         25    2    3    3    0    0  0.41685062108E+02 -0.29691711736E+01 -0.22902611280E+04  0.22940267340E+04  0.12456388537E+03 0.  0.
         25    2    3    3    0    0 -0.41685062108E+02  0.29691711736E+01 -0.12633068697E+04  0.12700391414E+04  0.12372838469E+03 0.  0.
          5    1    4    4  502    0  0.37109172242E+02 -0.44421508188E+02 -0.19899603009E+04  0.19908074870E+04  0.47000000000E+01 0. -1.
         -5    1    4    4    0  502  0.45758898663E+01  0.41452337014E+02 -0.30030082704E+03  0.30321924697E+03  0.47000000000E+01 0. -1.
          5    1    5    5  503    0  0.30159299369E+02  0.26168279217E+02 -0.76174286094E+03  0.76280314523E+03  0.47000000000E+01 0.  1.
         -5    1    5    5    0  503 -0.71844361477E+02 -0.23199108043E+02 -0.50156400876E+03  0.50723599613E+03  0.47000000000E+01 0.  1.
<mgrwt>
<rscale>  0 0.27334968E+03</rscale>
<asrwt>0</asrwt>
<pdfrwt beam="1">  1        2 0.54750771E+00 0.27334968E+03</pdfrwt>
<pdfrwt beam="2">  1       -2 0.80753287E-03 0.27334968E+03</pdfrwt>
<totfact> 0.26945239E+03</totfact>
</mgrwt>
</event>
<event>
 9    1  0.2065703E-002  0.2759025E+03  0.7818608E-02  0.1097948E+00
          1   -1    0    0  501    0  0.00000000000E+00  0.00000000000E+00  0.58000220454E+02  0.58000220454E+02  0.00000000000E+00 0.  1.
         -1   -1    0    0    0  501 -0.00000000000E+00 -0.00000000000E+00 -0.32811154729E+03  0.32811154729E+03  0.00000000000E+00 0.  1.
         36    2    1    2    0    0  0.71054273576E-14  0.71054273576E-14 -0.27011132683E+03  0.38611176774E+03  0.27590246158E+03 0.  0.
         25    2    3    3    0    0 -0.23481156062E+02  0.61985098077E+02 -0.13864105432E+03  0.19454558321E+03  0.11930266103E+03 0.  0.
         25    2    3    3    0    0  0.23481156062E+02 -0.61985098077E+02 -0.13147027251E+03  0.19156618453E+03  0.12255469566E+03 0.  0.
          5    1    4    4  502    0 -0.35168834169E+02 -0.14956190823E+02 -0.36764991185E+01  0.38679984313E+02  0.47000000000E+01 0.  1.
         -5    1    4    4    0  502  0.11687678106E+02  0.76941288899E+02 -0.13496455521E+03  0.15586559889E+03  0.47000000000E+01 0.  1.
          5    1    5    5  503    0 -0.41356616093E+02 -0.50212524986E+00 -0.74948004843E+02  0.85731646750E+02  0.47000000000E+01 0.  1.
         -5    1    5    5    0  503  0.64837772156E+02 -0.61482972827E+02 -0.56522267667E+02  0.10583453778E+03  0.47000000000E+01 0.  1.
<mgrwt>
<rscale>  0 0.27590246E+03</rscale>
<asrwt>0</asrwt>
<pdfrwt beam="1">  1        1 0.89231106E-02 0.27590246E+03</pdfrwt>
<pdfrwt beam="2">  1       -1 0.50478701E-01 0.27590246E+03</pdfrwt>
<totfact> 0.30122624E+03</totfact>
</mgrwt>
</event>
<event>
 9    1  0.2065703E-002  0.2763482E+03  0.7818608E-02  0.1097700E+00
          2   -1    0    0  501    0  0.00000000000E+00  0.00000000000E+00  0.10435059664E+03  0.10435059664E+03  0.00000000000E+00 0. -1.
         -2   -1    0    0    0  501 -0.00000000000E+00 -0.00000000000E+00 -0.18296095869E+03  0.18296095869E+03  0.00000000000E+00 0. -1.
         36    2    1    2    0    0  0.71054273576E-14  0.00000000000E+00 -0.78610362041E+02  0.28731155533E+03  0.27634822382E+03 0.  0.
         25    2    3    3    0    0  0.15187715024E+02  0.38801926455E+02 -0.92797251766E+02  0.15777371914E+03  0.12060248892E+03 0.  0.
         25    2    3    3    0    0 -0.15187715024E+02 -0.38801926455E+02  0.14186889725E+02  0.12953783619E+03  0.12182991004E+03 0.  0.
          5    1    4    4  502    0 -0.44301630794E+02  0.14817926575E+02 -0.79150511943E+02  0.92027707674E+02  0.47000000000E+01 0. -1.
         -5    1    4    4    0  502  0.59489345819E+02  0.23983999881E+02 -0.13646739823E+02  0.65746011469E+02  0.47000000000E+01 0. -1.
          5    1    5    5  503    0  0.11533978356E+02 -0.42473056142E+02  0.60963976437E+02  0.75337172616E+02  0.47000000000E+01 0.  1.
         -5    1    5    5    0  503 -0.26721693381E+02  0.36711296869E+01 -0.46777086712E+02  0.54200663571E+02  0.47000000000E+01 0.  1.
<mgrwt>
<rscale>  0 0.27634822E+03</rscale>
<asrwt>0</asrwt>
<pdfrwt beam="1">  1        2 0.16053938E-01 0.27634822E+03</pdfrwt>
<pdfrwt beam="2">  1       -2 0.28147840E-01 0.27634822E+03</pdfrwt>
<totfact> 0.41051840E+03</totfact>
</mgrwt>
</event>
<event>
 9    1  0.2065703E-002  0.2760080E+03  0.7818608E-02  0.1097890E+00
         -1   -1    0    0    0  501 -0.00000000000E+00  0.00000000000E+00  0.58881948484E+02  0.58881948484E+02  0.00000000000E+00 0. -1.
          1   -1    0    0  501    0  0.00000000000E+00 -0.00000000000E+00 -0.32344544255E+03  0.32344544255E+03  0.00000000000E+00 0. -1.
         36    2    1    2    0    0 -0.35527136788E-14  0.71054273576E-14 -0.26456349407E+03  0.38232739104E+03  0.27600795558E+03 0.  0.
         25    2    3    3    0    0  0.28099724354E+02  0.21908295943E+02 -0.67555431559E+02  0.14578831841E+03  0.12418103523E+03 0.  0.
         25    2    3    3    0    0 -0.28099724354E+02 -0.21908295943E+02 -0.19700806251E+03  0.23653907263E+03  0.12597217251E+03 0.  0.
          5    1    4    4  502    0 -0.23284424265E+02 -0.32281064206E+02 -0.57790115669E+02  0.70327938891E+02  0.47000000000E+01 0.  1.
         -5    1    4    4    0  502  0.51384148619E+02  0.54189360148E+02 -0.97653158893E+01  0.75460379518E+02  0.47000000000E+01 0.  1.
          5    1    5    5  503    0 -0.59251052642E+02 -0.27849335291E+02 -0.19345087528E+03  0.20428314629E+03  0.47000000000E+01 0. -1.
         -5    1    5    5    0  503  0.31151328288E+02  0.59410393483E+01 -0.35571872357E+01  0.32255926334E+02  0.47000000000E+01 0. -1.
<mgrwt>
<rscale>  0 0.27600796E+03</rscale>
<asrwt>0</asrwt>
<pdfrwt beam="1">  1        1 0.49760838E-01 0.27600796E+03</pdfrwt>
<pdfrwt beam="2">  1       -1 0.90587611E-02 0.27600796E+03</pdfrwt>
<totfact> 0.56226870E+03</totfact>
</mgrwt>
</event>
<event>
 9    1  0.2065703E-002  0.2711257E+03  0.7818608E-02  0.1100637E+00
         -2   -1    0    0    0  501 -0.00000000000E+00  0.00000000000E+00  0.62801791905E+02  0.62801791905E+02  0.00000000000E+00 0.  1.
          2   -1    0    0  501    0  0.00000000000E+00 -0.00000000000E+00 -0.29262357467E+03  0.29262357467E+03  0.00000000000E+00 0.  1.
         36    2    1    2    0    0 -0.71054273576E-14  0.00000000000E+00 -0.22982178277E+03  0.35542536658E+03  0.27112568925E+03 0.  0.
         25    2    3    3    0    0  0.18861365253E+02 -0.32906117282E+02 -0.75448496275E+02  0.15091219484E+03  0.12507378345E+03 0.  0.
         25    2    3    3    0    0 -0.18861365253E+02  0.32906117282E+02 -0.15437328650E+03  0.20451317174E+03  0.12866997388E+03 0.  0.
          5    1    4    4  502    0  0.21641492409E+02  0.40549462657E+02 -0.59869447426E+02  0.75624426283E+02  0.47000000000E+01 0.  1.
         -5    1    4    4    0  502 -0.27801271558E+01 -0.73455579940E+02 -0.15579048848E+02  0.75287768557E+02  0.47000000000E+01 0.  1.
          5    1    5    5  503    0 -0.54768620379E+02  0.40639438723E+01 -0.14781196808E+03  0.15775482663E+03  0.47000000000E+01 0.  1.
         -5    1    5    5    0  503  0.35907255126E+02  0.28842173410E+02 -0.65613184128E+01  0.46758345106E+02  0.47000000000E+01 0.  1.
<mgrwt>
<rscale>  0 0.27112569E+03</rscale>
<asrwt>0</asrwt>
<pdfrwt beam="1">  1        2 0.45019012E-01 0.27112569E+03</pdfrwt>
<pdfrwt beam="2">  1       -2 0.96618140E-02 0.27112569E+03</pdfrwt>
<totfact> 0.78101418E+03</totfact>
</mgrwt>
</event>
<event>
 9    1  0.2065703E-002  0.2748299E+03  0.7818608E-02  0.1098547E+00
         -3   -1    0    0    0  501 -0.00000000000E+00  0.00000000000E+00  0.30985737139E+02  0.30985737139E+02  0.00000000000E+00 0.  1.
          3   -1    0    0  501    0  0.00000000000E+00 -0.00000000000E+00 -0.60940538397E+03  0.60940538397E+03  0.00000000000E+00 0.  1.
         36    2    1    2    0    0  0.00000000000E+00 -0.71054273576E-14 -0.57841964683E+03  0.64039112110E+03  0.27482994770E+03 0.  0.
         25    2    3    3    0    0  0.32061095141E+02  0.41488290795E+02 -0.23964449952E+03  0.27515869135E+03  0.12463397282E+03 0.  0.
         25    2    3    3    0    0 -0.32061095141E+02 -0.41488290795E+02 -0.33877514730E+03  0.36523242975E+03  0.12600371112E+03 0.  0.
          5    1    4    4  502    0  0.44903747467E+02 -0.35046697948E+02 -0.11084293971E+03  0.12471112564E+03  0.47000000000E+01 0. -1.
         -5    1    4    4    0  502 -0.12842652326E+02  0.76534988742E+02 -0.12880155981E+03  0.15044756571E+03  0.47000000000E+01 0. -1.
          5    1    5    5  503    0 -0.49990281078E+02 -0.73780611440E+02 -0.29264503167E+03  0.30595066823E+03  0.47000000000E+01 0.  1.
         -5    1    5    5    0  503  0.17929185937E+02  0.32292320646E+02 -0.46130115631E+02  0.59281761522E+02  0.47000000000E+01 0.  1.
<mgrwt>
<rscale>  0 0.27482995E+03</rscale>
<asrwt>0</asrwt>
<pdfrwt beam="1">  1        3 0.93754668E-01 0.27482995E+03</pdfrwt>
<pdfrwt beam="2">  1       -3 0.47670368E-02 0.27482995E+03</pdfrwt>
<totfact> 0.65539576E+02</totfact>
</mgrwt>
</event>
<event>
 9    1  0.2065703E-002  0.2753018E+03  0.7818608E-02  0.1098283E+00
          1   -1    0    0  501    0  0.00000000000E+00  0.00000000000E+00  0.40802289983E+03  0.40802289983E+03  0.00000000000E+00 0. -1.
         -1   -1    0    0    0  501 -0.00000000000E+00 -0.00000000000E+00 -0.46438016844E+02  0.46438016844E+02  0.00000000000E+00 0. -1.
         36    2    1    2    0    0  0.00000000000E+00 -0.28421709430E-13  0.36158488299E+03  0.45446091667E+03  0.27530182924E+03 0.  0.
         25    2    3    3    0    0 -0.59406281950E+01 -0.66016244684E+02  0.14689472862E+03  0.19784007952E+03  0.11475713548E+03 0.  0.
         25    2    3    3    0    0  0.59406281950E+01  0.66016244684E+02  0.21469015437E+03  0.25662083715E+03  0.12397159374E+03 0.  0.
          5    1    4    4  502    0  0.27960476664E+02 -0.13970208859E+01 -0.54036266083E+01  0.28896870128E+02  0.47000000000E+01 0. -1.
         -5    1    4    4    0  502 -0.33901104859E+02 -0.64619223799E+02  0.15229835523E+03  0.16894320939E+03  0.47000000000E+01 0. -1.
          5    1    5    5  503    0  0.26305192233E+02  0.93623096173E+02  0.19184785608E+03  0.21513934359E+03  0.47000000000E+01 0.  1.
         -5    1    5    5    0  503 -0.20364564038E+02 -0.27606851489E+02  0.22842298283E+02  0.41481493565E+02  0.47000000000E+01 0.  1.
<mgrwt>
<rscale>  0 0.27530183E+03</rscale>
<asrwt>0</asrwt>
<pdfrwt beam="1">  1        1 0.62772751E-01 0.27530183E+03</pdfrwt>
<pdfrwt beam="2">  1       -1 0.71443106E-02 0.27530183E+03</pdfrwt>
<totfact> 0.60132276E+03</totfact>
</mgrwt>
</event>
<event>
 9    1  0.2065703E-002  0.2757206E+03  0.7818608E-02  0.1098049E+00
          2   -1    0    0  501    0  0.00000000000E+00  0.00000000000E+00  0.20572833343E+03  0.20572833343E+03  0.00000000000E+00 0. -1.
         -2   -1    0    0    0  501 -0.00000000000E+00 -0.00000000000E+00 -0.92381329053E+02  0.92381329053E+02  0.00000000000E+00 0. -1.
         36    2    1    2    0    0  0.17763568394E-14 -0.10658141036E-13  0.11334700438E+03  0.29810966248E+03  0.27572056047E+03 0.  0.
         25    2    3    3    0    0 -0.85101851222E+01  0.21690878502E+02  0.12086821101E+03  0.17688954670E+03  0.12703491582E+03 0.  0.
         25    2    3    3    0    0  0.85101851222E+01 -0.21690878502E+02 -0.75212066322E+01  0.12122011579E+03  0.11872165119E+03 0.  0.
          5    1    4    4  502    0  0.13813866045E+02  0.61717966541E+02  0.20830890700E+02  0.66752874818E+02  0.47000000000E+01 0.  1.
         -5    1    4    4    0  502 -0.22324051167E+02 -0.40027088039E+02  0.10003732031E+03  0.11013667188E+03  0.47000000000E+01 0.  1.
          5    1    5    5  503    0 -0.54464821944E+02 -0.17551719224E+02 -0.77324760500E+01  0.57934107941E+02  0.47000000000E+01 0. -1.
         -5    1    5    5    0  503  0.62975007066E+02 -0.41391592780E+01  0.21126941777E+00  0.63286007847E+02  0.47000000000E+01 0. -1.
<mgrwt>
<rscale>  0 0.27572056E+03</rscale>
<asrwt>0</asrwt>
<pdfrwt beam="1">  1        2 0.31650513E-01 0.27572056E+03</pdfrwt>
<pdfrwt beam="2">  1       -2 0.14212512E-01 0.27572056E+03</pdfrwt>
<totfact> 0.61420372E+03</totfact>
</mgrwt>
</event>
<event>
 9    1  0.2065703E-002  0.2757111E+03  0.7818608E-02  0.1098055E+00
          1   -1    0    0  501    0  0.00000000000E+00  0.00000000000E+00  0.74108493711E+01  0.74108493711E+01  0.00000000000E+00 0. -1.
         -1   -1    0    0    0  501 -0.00000000000E+00 -0.00000000000E+00 -0.25643696874E+04  0.25643696874E+04  0.00000000000E+00 0. -1.
         36    2    1    2    0    0 -0.71054273576E-14  0.14210854715E-13 -0.25569588380E+04  0.25717805368E+04  0.27571113496E+03 0.  0.
         25    2    3    3    0    0  0.30301859995E+02 -0.37204056970E+02 -0.16305172605E+04  0.16360034021E+04  0.12497299860E+03 0.  0.
         25    2    3    3    0    0 -0.30301859995E+02  0.37204056970E+02 -0.92644157756E+03  0.93577713469E+03  0.12281084884E+03 0.  0.
          5    1    4    4  502    0 -0.11259919579E+02  0.26972987477E+02 -0.12193017769E+03  0.12547265070E+03  0.47000000000E+01 0. -1.
         -5    1    4    4    0  502  0.41561779574E+02 -0.64177044447E+02 -0.15085870828E+04  0.15105307514E+04  0.47000000000E+01 0. -1.
          5    1    5    5  503    0 -0.65293238380E+02 -0.16542340247E+02 -0.48387712967E+03  0.48856526956E+03  0.47000000000E+01 0. -1.
         -5    1    5    5    0  503  0.34991378386E+02  0.53746397217E+02 -0.44256444789E+03  0.44721186513E+03  0.47000000000E+01 0. -1.
<mgrwt>
<rscale>  0 0.27571113E+03</rscale>
<asrwt>0</asrwt>
<pdfrwt beam="1">  1        1 0.11401318E-02 0.27571113E+03</pdfrwt>
<pdfrwt beam="2">  1       -1 0.39451802E+00 0.27571113E+03</pdfrwt>
<totfact> 0.12840791E+02</totfact>
</mgrwt>
</event>
<event>
 9    1  0.2065703E-002  0.2753717E+03  0.7818608E-02  0.1098244E+00
          1   -1    0    0  501    0  0.00000000000E+00  0.00000000000E+00  0.91624400320E+03  0.91624400320E+03  0.00000000000E+00 0.  1.
         -1   -1    0    0    0  501 -0.00000000000E+00 -0.00000000000E+00 -0.20690331410E+02  0.20690331410E+02  0.00000000000E+00 0.  1.
         36    2    1    2    0    0 -0.71054273576E-14 -0.14210854715E-13  0.89555367179E+03  0.93693433461E+03  0.27537169120E+03 0.  0.
         25    2    3    3    0    0  0.22365718698E+02 -0.47818200621E+02  0.60137037911E+03  0.61315673684E+03  0.10736873552E+03 0.  0.
         25    2    3    3    0    0 -0.22365718698E+02  0.47818200621E+02  0.29418329268E+03  0.32377759778E+03  0.12450428687E+03 0.  0.
          5    1    4    4  502    0  0.65637519868E+02 -0.24447601386E+02  0.36082252202E+03  0.36758801888E+03  0.47000000000E+01 0. -1.
         -5    1    4    4    0  502 -0.43271801170E+02 -0.23370599235E+02  0.24054785710E+03  0.24556871796E+03  0.47000000000E+01 0. -1.
          5    1    5    5  503    0 -0.43953073770E+02  0.82223295969E+02  0.18568340724E+03  0.20782916258E+03  0.47000000000E+01 0.  1.
         -5    1    5    5    0  503  0.21587355072E+02 -0.34405095348E+02  0.10849988543E+03  0.11594843519E+03  0.47000000000E+01 0.  1.
<mgrwt>
<rscale>  0 0.27537169E+03</rscale>
<asrwt>0</asrwt>
<pdfrwt beam="1">  1        1 0.14096058E+00 0.27537169E+03</pdfrwt>
<pdfrwt beam="2">  1       -1 0.31831286E-02 0.27537169E+03</pdfrwt>
<totfact> 0.63996213E+03</totfact>
</mgrwt>
</event>
<event>
 9    1  0.2065703E-002  0.2623259E+03  0.7818608E-02  0.1105754E+00
         -2   -1    0    0    0  501 -0.00000000000E+00  0.00000000000E+00  0.15463879094E+02  0.15463879094E+02  0.00000000000E+00 0. -1.
          2   -1    0    0  501    0  0.00000000000E+00 -0.00000000000E+00 -0.11125098313E+04  0.11125098313E+04  0.00000000000E+00 0. -1.
         36    2    1    2    0    0  0.00000000000E+00  0.35527136788E-14 -0.10970459523E+04  0.11279737104E+04  0.26232588529E+03 0.  0.
         25    2    3    3    0    0  0.36601085615E+02 -0.16442690564E+02 -0.43117525893E+03  0.44956756316E+03  0.12078447082E+03 0.  0.
         25    2    3    3    0    0 -0.36601085615E+02  0.16442690564E+02 -0.66587069332E+03  0.67840614728E+03  0.12345492660E+03 0.  0.
          5    1    4    4  502    0  0.48251155591E+02  0.21484477450E+02 -0.79081008784E+02  0.95213721371E+02  0.47000000000E+01 0.  1.
         -5    1    4    4    0  502 -0.11650069976E+02 -0.37927168014E+02 -0.35209425015E+03  0.35435384179E+03  0.47000000000E+01 0.  1.
          5    1    5    5  503    0 -0.32858017148E+01 -0.44832956932E+02 -0.43071569601E+03  0.43308069838E+03  0.47000000000E+01 0. -1.
         -5    1    5    5    0  503 -0.33315283900E+02  0.61275647496E+02 -0.23515499731E+03  0.24532544890E+03  0.47000000000E+01 0. -1.
<mgrwt>
<rscale>  0 0.26232589E+03</rscale>
<asrwt>0</asrwt>
<pdfrwt beam="1">  1        2 0.17115545E+00 0.26232589E+03</pdfrwt>
<pdfrwt beam="2">  1       -2 0.23790571E-02 0.26232589E+03</pdfrwt>
<totfact> 0.13382953E+04</totfact>
</mgrwt>
</event>
<event>
 9    1  0.2065703E-002  0.2743371E+03  0.7818608E-02  0.1098823E+00
         -2   -1    0    0    0  501 -0.00000000000E+00  0.00000000000E+00  0.78639652727E+02  0.78639652727E+02  0.00000000000E+00 0.  1.
          2   -1    0    0  501    0  0.00000000000E+00 -0.00000000000E+00 -0.23925865561E+03  0.23925865561E+03  0.00000000000E+00 0.  1.
         36    2    1    2    0    0 -0.35527136788E-14  0.00000000000E+00 -0.16061900288E+03  0.31789830833E+03  0.27433714724E+03 0.  0.
         25    2    3    3    0    0 -0.24882631922E+02 -0.21591696615E+02 -0.13029588383E+03  0.18424176997E+03  0.12602644851E+03 0.  0.
         25    2    3    3    0    0  0.24882631922E+02  0.21591696615E+02 -0.30323119051E+02  0.13365653836E+03  0.12593344260E+03 0.  0.
          5    1    4    4  502    0  0.22856749621E+02  0.43394023634E+02 -0.44249601376E+02  0.66223783584E+02  0.47000000000E+01 0. -1.
         -5    1    4    4    0  502 -0.47739381543E+02 -0.64985720249E+02 -0.86046282453E+02  0.11801798639E+03  0.47000000000E+01 0. -1.
          5    1    5    5  503    0 -0.34282496991E+02 -0.24381083941E+02 -0.39657380242E+02  0.58004522769E+02  0.47000000000E+01 0. -1.
         -5    1    5    5    0  503  0.59165128913E+02  0.45972780557E+02  0.93342611913E+01  0.75652015594E+02  0.47000000000E+01 0. -1.
<mgrwt>
<rscale>  0 0.27433715E+03</rscale>
<asrwt>0</asrwt>
<pdfrwt beam="1">  1        2 0.36809024E-01 0.27433715E+03</pdfrwt>
<pdfrwt beam="2">  1       -2 0.12098408E-01 0.27433715E+03</pdfrwt>
<totfact> 0.67741406E+03</totfact>
</mgrwt>
</event>
<event>
 9    1  0.2065703E-002  0.2744999E+03  0.7818608E-02  0.1098731E+00
          2   -1    0    0  501    0  0.00000000000E+00  0.00000000000E+00  0.22946542250E+02  0.22946542250E+02  0.00000000000E+00 0.  1.
         -2   -1    0    0    0  501 -0.00000000000E+00 -0.00000000000E+00 -0.82093168925E+03  0.82093168925E+03  0.00000000000E+00 0.  1.
         36    2    1    2    0    0 -0.71054273576E-14  0.35527136788E-14 -0.79798514700E+03  0.84387823150E+03  0.27449986296E+03 0.  0.
         25    2    3    3    0    0  0.35757193089E+02  0.28601056195E+02 -0.34339987745E+03  0.36711841582E+03  0.12147369317E+03 0.  0.
         25    2    3    3    0    0 -0.35757193089E+02 -0.28601056195E+02 -0.45458526955E+03  0.47675981568E+03  0.13621878460E+03 0.  0.
          5    1    4    4  502    0  0.60892511191E+02  0.41098108990E+02 -0.32498753003E+03  0.33322055332E+03  0.47000000000E+01 0. -1.
         -5    1    4    4    0  502 -0.25135318102E+02 -0.12497052795E+02 -0.18412347420E+02  0.33897862502E+02  0.47000000000E+01 0. -1.
          5    1    5    5  503    0 -0.57173428910E+02  0.40580241628E+02 -0.19752073883E+03  0.20964753577E+03  0.47000000000E+01 0. -1.
         -5    1    5    5    0  503  0.21416235822E+02 -0.69181297823E+02 -0.25706453072E+03  0.26711227991E+03  0.47000000000E+01 0. -1.
<mgrwt>
<rscale>  0 0.27449986E+03</rscale>
<asrwt>0</asrwt>
<pdfrwt beam="1">  1        2 0.35302370E-02 0.27449986E+03</pdfrwt>
<pdfrwt beam="2">  1       -2 0.12629719E+00 0.27449986E+03</pdfrwt>
<totfact> 0.12291196E+03</totfact>
</mgrwt>
</event>
<event>
 9    1  0.2065703E-002  0.2744599E+03  0.7818608E-02  0.1098754E+00
          2   -1    0    0  501    0  0.00000000000E+00  0.00000000000E+00  0.22670700844E+03  0.22670700844E+03  0.00000000000E+00 0.  1.
         -2   -1    0    0    0  501 -0.00000000000E+00 -0.00000000000E+00 -0.83067851197E+02  0.83067851197E+02  0.00000000000E+00 0.  1.
         36    2    1    2    0    0 -0.71054273576E-14  0.71054273576E-14  0.14363915724E+03  0.30977485964E+03  0.27445993545E+03 0.  0.
         25    2    3    3    0    0  0.51723310972E+02 -0.24177213750E+02  0.10698438041E+03  0.17182642266E+03  0.12173258935E+03 0.  0.
         25    2    3    3    0    0 -0.51723310972E+02  0.24177213750E+02  0.36654776835E+02  0.13794843698E+03  0.12010978327E+03 0.  0.
          5    1    4    4  502    0  0.55810754087E+02 -0.68717754655E+02  0.79784397863E+02  0.11926697036E+03  0.47000000000E+01 0.  1.
         -5    1    4    4    0  502 -0.40874431147E+01  0.44540540905E+02  0.27199982544E+02  0.52559452297E+02  0.47000000000E+01 0.  1.
          5    1    5    5  503    0  0.31978317409E+02 -0.11119082558E+01  0.38605492861E+02  0.50361922157E+02  0.47000000000E+01 0.  1.
         -5    1    5    5    0  503 -0.83701628381E+02  0.25289122006E+02 -0.19507160261E+01  0.87586514821E+02  0.47000000000E+01 0.  1.
<mgrwt>
<rscale>  0 0.27445994E+03</rscale>
<asrwt>0</asrwt>
<pdfrwt beam="1">  1        2 0.34878001E-01 0.27445994E+03</pdfrwt>
<pdfrwt beam="2">  1       -2 0.12779670E-01 0.27445994E+03</pdfrwt>
<totfact> 0.65719767E+03</totfact>
</mgrwt>
</event>
<event>
 9    1  0.2065703E-002  0.2748075E+03  0.7818608E-02  0.1098559E+00
         -1   -1    0    0    0  501 -0.00000000000E+00  0.00000000000E+00  0.30424981137E+03  0.30424981137E+03  0.00000000000E+00 0. -1.
          1   -1    0    0  501    0  0.00000000000E+00 -0.00000000000E+00 -0.62053583053E+02  0.62053583053E+02  0.00000000000E+00 0. -1.
         36    2    1    2    0    0  0.00000000000E+00  0.35527136788E-14  0.24219622831E+03  0.36630339442E+03  0.27480750309E+03 0.  0.
         25    2    3    3    0    0  0.52887064842E+02 -0.28036561963E+02  0.12122105238E+03  0.18304777358E+03  0.12340524071E+03 0.  0.
         25    2    3    3    0    0 -0.52887064842E+02  0.28036561963E+02  0.12097517593E+03  0.18325562084E+03  0.12395377746E+03 0.  0.
          5    1    4    4  502    0 -0.30403580787E+02 -0.23817209438E+02  0.40020206066E+01  0.39111933716E+02  0.47000000000E+01 0. -1.
         -5    1    4    4    0  502  0.83290645629E+02 -0.42193525250E+01  0.11721903178E+03  0.14393583986E+03  0.47000000000E+01 0. -1.
          5    1    5    5  503    0 -0.17462488904E+01 -0.33542870758E+02 -0.46383785533E+01  0.34231244784E+02  0.47000000000E+01 0. -1.
         -5    1    5    5    0  503 -0.51140815951E+02  0.61579432721E+02  0.12561355448E+03  0.14902437606E+03  0.47000000000E+01 0. -1.
<mgrwt>
<rscale>  0 0.27480750E+03</rscale>
<asrwt>0</asrwt>
<pdfrwt beam="1">  1        1 0.95467052E-02 0.27480750E+03</pdfrwt>
<pdfrwt beam="2">  1       -1 0.46807663E-01 0.27480750E+03</pdfrwt>
<totfact> 0.31589623E+03</totfact>
</mgrwt>
</event>
<event>
 9    1  0.2065703E-002  0.2738502E+03  0.7818608E-02  0.1099096E+00
          2   -1    0    0  501    0  0.00000000000E+00  0.00000000000E+00  0.20756267666E+04  0.20756267666E+04  0.00000000000E+00 0. -1.
         -2   -1    0    0    0  501 -0.00000000000E+00 -0.00000000000E+00 -0.90326824975E+01  0.90326824975E+01  0.00000000000E+00 0. -1.
         36    2    1    2    0    0  0.00000000000E+00 -0.71054273576E-14  0.20665940841E+04  0.20846594491E+04  0.27385016024E+03 0.  0.
         25    2    3    3    0    0  0.25702723167E+02  0.47044621750E+02  0.11752066551E+04  0.11829550317E+04  0.12408907486E+03 0.  0.
         25    2    3    3    0    0 -0.25702723167E+02 -0.47044621750E+02  0.89138742905E+03  0.90170441742E+03  0.12500192517E+03 0.  0.
          5    1    4    4  502    0  0.12210904804E+02  0.86524329734E+02  0.93692680046E+03  0.94100450862E+03  0.47000000000E+01 0. -1.
         -5    1    4    4    0  502  0.13491818364E+02 -0.39479707984E+02  0.23827985462E+03  0.24195052309E+03  0.47000000000E+01 0. -1.
          5    1    5    5  503    0 -0.23600337000E+02 -0.75046527626E+02  0.83326072068E+03  0.83697937599E+03  0.47000000000E+01 0. -1.
         -5    1    5    5    0  503 -0.21023861671E+01  0.28001905876E+02  0.58126708376E+02  0.64725041421E+02  0.47000000000E+01 0. -1.
<mgrwt>
<rscale>  0 0.27385016E+03</rscale>
<asrwt>0</asrwt>
<pdfrwt beam="1">  1        2 0.31932681E+00 0.27385016E+03</pdfrwt>
<pdfrwt beam="2">  1       -2 0.13896451E-02 0.27385016E+03</pdfrwt>
<totfact> 0.89420640E+03</totfact>
</mgrwt>
</event>
<event>
 9    1  0.2065703E-002  0.2752342E+03  0.7818608E-02  0.1098321E+00
         -2   -1    0    0    0  501 -0.00000000000E+00  0.00000000000E+00  0.41530436896E+02  0.41530436896E+02  0.00000000000E+00 0.  1.
          2   -1    0    0  501    0  0.00000000000E+00 -0.00000000000E+00 -0.45601424935E+03  0.45601424935E+03  0.00000000000E+00 0.  1.
         36    2    1    2    0    0 -0.71054273576E-14 -0.35527136788E-14 -0.41448381245E+03  0.49754468624E+03  0.27523423483E+03 0.  0.
         25    2    3    3    0    0 -0.26801330401E+02 -0.13977420896E+02 -0.20776235692E+03  0.25249103587E+03  0.14025992527E+03 0.  0.
         25    2    3    3    0    0  0.26801330401E+02  0.13977420896E+02 -0.20672145554E+03  0.24505365038E+03  0.12807752253E+03 0.  0.
          5    1    4    4  502    0  0.51908356054E+02  0.22174632461E+02 -0.77592961430E+02  0.96067421203E+02  0.47000000000E+01 0.  1.
         -5    1    4    4    0  502 -0.78709686455E+02 -0.36152053357E+02 -0.13016939549E+03  0.15642361467E+03  0.47000000000E+01 0.  1.
          5    1    5    5  503    0 -0.39099852629E+02 -0.11522197589E+02 -0.20597467530E+02  0.45911928532E+02  0.47000000000E+01 0.  1.
         -5    1    5    5    0  503  0.65901183030E+02  0.25499618485E+02 -0.18612398801E+03  0.19914172184E+03  0.47000000000E+01 0.  1.
<mgrwt>
<rscale>  0 0.27523423E+03</rscale>
<asrwt>0</asrwt>
<pdfrwt beam="1">  1        2 0.70156040E-01 0.27523423E+03</pdfrwt>
<pdfrwt beam="2">  1       -2 0.63892978E-02 0.27523423E+03</pdfrwt>
<totfact> 0.92151789E+03</totfact>
</mgrwt>
</event>
<event>
 9    1  0.2065703E-002  0.2748983E+03  0.7818608E-02  0.1098508E+00
          2   -1    0    0  501    0  0.00000000000E+00  0.00000000000E+00  0.22601447124E+03  0.22601447124E+03  0.00000000000E+00 0. -1.
         -2   -1    0    0    0  501 -0.00000000000E+00 -0.00000000000E+00 -0.83588756359E+02  0.83588756359E+02  0.00000000000E+00 0. -1.
         36    2    1    2    0    0  0.00000000000E+00  0.00000000000E+00  0.14242571489E+03  0.30960322760E+03  0.27489829807E+03 0.  0.
         25    2    3    3    0    0  0.47470981386E+02  0.23163043565E+02  0.52514462347E+02  0.14507199851E+03  0.12449134642E+03 0.  0.
         25    2    3    3    0    0 -0.47470981386E+02 -0.23163043565E+02  0.89911252539E+02  0.16453122910E+03  0.12726535803E+03 0.  0.
          5    1    4    4  502    0  0.87212461748E+02  0.27935056381E+02  0.50582577385E+02  0.10472376996E+03  0.47000000000E+01 0.  1.
         -5    1    4    4    0  502 -0.39741480361E+02 -0.47720128160E+01  0.19318849621E+01  0.40348228550E+02  0.47000000000E+01 0.  1.
          5    1    5    5  503    0 -0.64985825544E+02  0.34479462117E+02  0.67891575195E+02  0.10021649970E+03  0.47000000000E+01 0. -1.
         -5    1    5    5    0  503  0.17514844158E+02 -0.57642505682E+02  0.22019677344E+02  0.64314729397E+02  0.47000000000E+01 0. -1.
<mgrwt>
<rscale>  0 0.27489830E+03</rscale>
<asrwt>0</asrwt>
<pdfrwt beam="1">  1        2 0.34771457E-01 0.27489830E+03</pdfrwt>
<pdfrwt beam="2">  1       -2 0.12859809E-01 0.27489830E+03</pdfrwt>
<totfact> 0.65276009E+03</totfact>
</mgrwt>
</event>
<event>
 9    1  0.2065703E-002  0.2750665E+03  0.7818608E-02  0.1098414E+00
          3   -1    0    0  501    0  0.00000000000E+00  0.00000000000E+00  0.11242451866E+04  0.11242451866E+04  0.00000000000E+00 0.  1.
         -3   -1    0    0    0  501 -0.00000000000E+00 -0.00000000000E+00 -0.16824968611E+02  0.16824968611E+02  0.00000000000E+00 0.  1.
         36    2    1    2    0    0  0.71054273576E-14  0.00000000000E+00  0.11074202180E+04  0.11410701552E+04  0.27506646451E+03 0.  0.
         25    2    3    3    0    0  0.38907004653E+02  0.23910272800E+02  0.72224863290E+03  0.73461123427E+03  0.12619477658E+03 0.  0.
         25    2    3    3    0    0 -0.38907004653E+02 -0.23910272800E+02  0.38517158507E+03  0.40645892092E+03  0.12151645277E+03 0.  0.
          5    1    4    4  502    0  0.36669804796E+02 -0.47671608854E+02  0.39538687205E+03  0.39996265509E+03  0.47000000000E+01 0. -1.
         -5    1    4    4    0  502  0.22371998567E+01  0.71581881653E+02  0.32686176084E+03  0.33464857918E+03  0.47000000000E+01 0. -1.
          5    1    5    5  503    0 -0.51165954045E+02 -0.38698666692E+02  0.89990198882E+02  0.11061585579E+03  0.47000000000E+01 0.  1.
         -5    1    5    5    0  503  0.12258949392E+02  0.14788393893E+02  0.29518138619E+03  0.29584306513E+03  0.47000000000E+01 0.  1.
<mgrwt>
<rscale>  0 0.27506646E+03</rscale>
<asrwt>0</asrwt>
<pdfrwt beam="1">  1        3 0.17296074E+00 0.27506646E+03</pdfrwt>
<pdfrwt beam="2">  1       -3 0.25884576E-02 0.27506646E+03</pdfrwt>
<totfact> 0.38619754E+02</totfact>
</mgrwt>
</event>
<event>
 9    1  0.2065703E-002  0.2740495E+03  0.7818608E-02  0.1098984E+00
          1   -1    0    0  501    0  0.00000000000E+00  0.00000000000E+00  0.95613711785E+03  0.95613711785E+03  0.00000000000E+00 0. -1.
         -1   -1    0    0    0  501 -0.00000000000E+00 -0.00000000000E+00 -0.19637117747E+02  0.19637117747E+02  0.00000000000E+00 0. -1.
         36    2    1    2    0    0 -0.71054273576E-14  0.71054273576E-14  0.93650000010E+03  0.97577423560E+03  0.27404946390E+03 0.  0.
         25    2    3    3    0    0  0.31323085644E+02 -0.26168194701E+02  0.59304609207E+03  0.60770780105E+03  0.12625052092E+03 0.  0.
         25    2    3    3    0    0 -0.31323085644E+02  0.26168194701E+02  0.34345390804E+03  0.36806643455E+03  0.12588249754E+03 0.  0.
          5    1    4    4  502    0  0.68284114808E+02 -0.15542890322E+02  0.52275660423E+03  0.52744749411E+03  0.47000000000E+01 0. -1.
         -5    1    4    4    0  502 -0.36961029165E+02 -0.10625304380E+02  0.70289487833E+02  0.80260306939E+02  0.47000000000E+01 0. -1.
          5    1    5    5  503    0 -0.10481626357E+02 -0.42745549111E+02  0.54337870643E+02  0.70083811582E+02  0.47000000000E+01 0. -1.
         -5    1    5    5    0  503 -0.20841459287E+02  0.68913743812E+02  0.28911603739E+03  0.29798262297E+03  0.47000000000E+01 0. -1.
<mgrwt>
<rscale>  0 0.27404946E+03</rscale>
<asrwt>0</asrwt>
<pdfrwt beam="1">  1        1 0.14709798E+00 0.27404946E+03</pdfrwt>
<pdfrwt beam="2">  1       -1 0.30210958E-02 0.27404946E+03</pdfrwt>
<totfact> 0.64395397E+03</totfact>
</mgrwt>
</event>
<event>
 9    1  0.2065703E-002  0.2741332E+03  0.7818608E-02  0.1098937E+00
          2   -1    0    0  501    0  0.00000000000E+00  0.00000000000E+00  0.45096108286E+02  0.45096108286E+02  0.00000000000E+00 0.  1.
         -2   -1    0    0    0  501 -0.00000000000E+00 -0.00000000000E+00 -0.41660469972E+03  0.41660469972E+03  0.00000000000E+00 0.  1.
         36    2    1    2    0    0  0.00000000000E+00  0.00000000000E+00 -0.37150859143E+03  0.46170080801E+03  0.27413318406E+03 0.  0.
         25    2    3    3    0    0 -0.37423990294E+02  0.50852919985E+02 -0.13053312508E+03  0.18197145175E+03  0.10994606853E+03 0.  0.
         25    2    3    3    0    0  0.37423990294E+02 -0.50852919985E+02 -0.24097546635E+03  0.27972935626E+03  0.12725078723E+03 0.  0.
          5    1    4    4  502    0 -0.70916365574E+02  0.70648832016E+01 -0.71411532347E+02  0.10099871501E+03  0.47000000000E+01 0. -1.
         -5    1    4    4    0  502  0.33492375280E+02  0.43788036784E+02 -0.59121592738E+02  0.80972736740E+02  0.47000000000E+01 0. -1.
          5    1    5    5  503    0  0.80530736965E+02 -0.14302373167E+02 -0.11135411254E+03  0.13824465941E+03  0.47000000000E+01 0.  1.
         -5    1    5    5    0  503 -0.43106746671E+02 -0.36550546818E+02 -0.12962135380E+03  0.14148469685E+03  0.47000000000E+01 0.  1.
<mgrwt>
<rscale>  0 0.27413318E+03</rscale>
<asrwt>0</asrwt>
<pdfrwt beam="1">  1        2 0.69378628E-02 0.27413318E+03</pdfrwt>
<pdfrwt beam="2">  1       -2 0.64093031E-01 0.27413318E+03</pdfrwt>
<totfact> 0.23462811E+03</totfact>
</mgrwt>
</event>
<event>
 9    1  0.2065703E-002  0.2750849E+03  0.7818608E-02  0.1098404E+00
          1   -1    0    0  501    0  0.00000000000E+00  0.00000000000E+00  0.76237309146E+02  0.76237309146E+02  0.00000000000E+00 0.  1.
         -1   -1    0    0    0  501 -0.00000000000E+00 -0.00000000000E+00 -0.24814516443E+03  0.24814516443E+03  0.00000000000E+00 0.  1.
         36    2    1    2    0    0  0.71054273576E-14  0.00000000000E+00 -0.17190785529E+03  0.32438247358E+03  0.27508485683E+03 0.  0.
         25    2    3    3    0    0  0.25875490627E+02 -0.11514521043E+02 -0.14014955666E+03  0.19123043102E+03  0.12698446482E+03 0.  0.
         25    2    3    3    0    0 -0.25875490627E+02  0.11514521043E+02 -0.31758298628E+02  0.13315204256E+03  0.12616953553E+03 0.  0.
          5    1    4    4  502    0  0.77485173288E+02 -0.39738789369E+01 -0.84654331913E+02  0.11492688852E+03  0.47000000000E+01 0. -1.
         -5    1    4    4    0  502 -0.51609682661E+02 -0.75406421061E+01 -0.55495224746E+02  0.76303542496E+02  0.47000000000E+01 0. -1.
          5    1    5    5  503    0  0.31211937387E+02 -0.27859807174E+02 -0.45831696814E+02  0.62233337722E+02  0.47000000000E+01 0.  1.
         -5    1    5    5    0  503 -0.57087428014E+02  0.39374328217E+02  0.14073398185E+02  0.70918704841E+02  0.47000000000E+01 0.  1.
<mgrwt>
<rscale>  0 0.27508486E+03</rscale>
<asrwt>0</asrwt>
<pdfrwt beam="1">  1        1 0.11728817E-01 0.27508486E+03</pdfrwt>
<pdfrwt beam="2">  1       -1 0.38176179E-01 0.27508486E+03</pdfrwt>
<totfact> 0.34551968E+03</totfact>
</mgrwt>
</event>
<event>
 9    1  0.2065703E-002  0.2755754E+03  0.7818608E-02  0.1098130E+00
         -1   -1    0    0    0  501 -0.00000000000E+00  0.00000000000E+00  0.23850013857E+02  0.23850013857E+02  0.00000000000E+00 0.  1.
          1   -1    0    0  501    0  0.00000000000E+00 -0.00000000000E+00 -0.79603491497E+03  0.79603491497E+03  0.00000000000E+00 0.  1.
         36    2    1    2    0    0 -0.35527136788E-14  0.00000000000E+00 -0.77218490111E+03  0.81988492882E+03  0.27557535269E+03 0.  0.
         25    2    3    3    0    0 -0.90771064022E+01 -0.56668562312E+02 -0.43307211599E+03  0.45405093379E+03  0.12376216310E+03 0.  0.
         25    2    3    3    0    0  0.90771064022E+01  0.56668562312E+02 -0.33911278512E+03  0.36583399503E+03  0.12467281609E+03 0.  0.
          5    1    4    4  502    0 -0.15918345343E+02 -0.39385992884E+02 -0.34255896432E+02  0.54774141657E+02  0.47000000000E+01 0.  1.
         -5    1    4    4    0  502  0.68412389404E+01 -0.17282569428E+02 -0.39881621956E+03  0.39927679214E+03  0.47000000000E+01 0.  1.
          5    1    5    5  503    0  0.35539264989E+02  0.23910768778E+02 -0.26985157104E+02  0.50843415734E+02  0.47000000000E+01 0. -1.
         -5    1    5    5    0  503 -0.26462158587E+02  0.32757793534E+02 -0.31212762802E+03  0.31499057930E+03  0.47000000000E+01 0. -1.
<mgrwt>
<rscale>  0 0.27557535E+03</rscale>
<asrwt>0</asrwt>
<pdfrwt beam="1">  1        1 0.12246691E+00 0.27557535E+03</pdfrwt>
<pdfrwt beam="2">  1       -1 0.36692330E-02 0.27557535E+03</pdfrwt>
<totfact> 0.64826898E+03</totfact>
</mgrwt>
</event>
<event>
 9    1  0.2065703E-002  0.2753504E+03  0.7818608E-02  0.1098256E+00
          2   -1    0    0  501    0  0.00000000000E+00  0.00000000000E+00  0.10260538713E+04  0.10260538713E+04  0.00000000000E+00 0. -1.
         -2   -1    0    0    0  501 -0.00000000000E+00 -0.00000000000E+00 -0.18473162057E+02  0.18473162057E+02  0.00000000000E+00 0. -1.
         36    2    1    2    0    0  0.71054273576E-14 -0.35527136788E-14  0.10075807093E+04  0.10445270334E+04  0.27535039091E+03 0.  0.
         25    2    3    3    0    0 -0.40323812221E+02 -0.16883648255E+02  0.63054350106E+03  0.64447330004E+03  0.12589543411E+03 0.  0.
         25    2    3    3    0    0  0.40323812221E+02  0.16883648255E+02  0.37703720823E+03  0.40005373336E+03  0.12639171561E+03 0.  0.
          5    1    4    4  502    0 -0.83512068283E+02 -0.17953095621E+02  0.48838191783E+03  0.49581807839E+03  0.47000000000E+01 0. -1.
         -5    1    4    4    0  502  0.43188256062E+02  0.10694473654E+01  0.14216158323E+03  0.14865522166E+03  0.47000000000E+01 0. -1.
          5    1    5    5  503    0 -0.81744973856E+01 -0.20634434519E+02  0.53441371888E+01  0.23307769042E+02  0.47000000000E+01 0.  1.
         -5    1    5    5    0  503  0.48498309606E+02  0.37518082775E+02  0.37169307104E+03  0.37674596431E+03  0.47000000000E+01 0.  1.
<mgrwt>
<rscale>  0 0.27535039E+03</rscale>
<asrwt>0</asrwt>
<pdfrwt beam="1">  1        2 0.15785440E+00 0.27535039E+03</pdfrwt>
<pdfrwt beam="2">  1       -2 0.28420257E-02 0.27535039E+03</pdfrwt>
<totfact> 0.11594163E+04</totfact>
</mgrwt>
</event>
<event>
 9    1  0.2065703E-002  0.2758405E+03  0.7818608E-02  0.1097983E+00
          2   -1    0    0  501    0  0.00000000000E+00  0.00000000000E+00  0.42110357738E+03  0.42110357738E+03  0.00000000000E+00 0. -1.
         -2   -1    0    0    0  501 -0.00000000000E+00 -0.00000000000E+00 -0.45171759000E+02  0.45171759000E+02  0.00000000000E+00 0. -1.
         36    2    1    2    0    0  0.00000000000E+00  0.71054273576E-14  0.37593181838E+03  0.46627533638E+03  0.27584045614E+03 0.  0.
         25    2    3    3    0    0 -0.24022765663E+01  0.19481053864E+02  0.10048707168E+03  0.16235030046E+03  0.12599478597E+03 0.  0.
         25    2    3    3    0    0  0.24022765663E+01 -0.19481053864E+02  0.27544474670E+03  0.30392503592E+03  0.12694619561E+03 0.  0.
          5    1    4    4  502    0  0.31897287882E+02  0.40260504321E+02 -0.25926679527E+01  0.51644526424E+02  0.47000000000E+01 0.  1.
         -5    1    4    4    0  502 -0.34299564448E+02 -0.20779450457E+02  0.10307973963E+03  0.11070577404E+03  0.47000000000E+01 0.  1.
          5    1    5    5  503    0 -0.26076756140E+02  0.28195500496E+02  0.22640773562E+03  0.22969008730E+03  0.47000000000E+01 0. -1.
         -5    1    5    5    0  503  0.28479032706E+02 -0.47676554360E+02  0.49037011083E+02  0.74234948613E+02  0.47000000000E+01 0. -1.
<mgrwt>
<rscale>  0 0.27584046E+03</rscale>
<asrwt>0</asrwt>
<pdfrwt beam="1">  1        2 0.64785163E-01 0.27584046E+03</pdfrwt>
<pdfrwt beam="2">  1       -2 0.69495017E-02 0.27584046E+03</pdfrwt>
<totfact> 0.88338518E+03</totfact>
</mgrwt>
</event>
<event>
 9    1  0.2065703E-002  0.2746525E+03  0.7818608E-02  0.1098646E+00
          2   -1    0    0  501    0  0.00000000000E+00  0.00000000000E+00  0.34171525427E+03  0.34171525427E+03  0.00000000000E+00 0.  1.
         -2   -1    0    0    0  501 -0.00000000000E+00 -0.00000000000E+00 -0.55187750495E+02  0.55187750495E+02  0.00000000000E+00 0.  1.
         36    2    1    2    0    0 -0.35527136788E-14 -0.14210854715E-13  0.28652750378E+03  0.39690300477E+03  0.27465248001E+03 0.  0.
         25    2    3    3    0    0  0.31451763052E+02  0.43390210167E+02  0.12584998496E+03  0.18585734267E+03  0.12582849190E+03 0.  0.
         25    2    3    3    0    0 -0.31451763052E+02 -0.43390210167E+02  0.16067751882E+03  0.21104566210E+03  0.12590108300E+03 0.  0.
          5    1    4    4  502    0  0.24086630887E+01 -0.16903116214E+02 -0.19153674279E+02  0.26085824388E+02  0.47000000000E+01 0. -1.
         -5    1    4    4    0  502  0.29043099963E+02  0.60293326380E+02  0.14500365924E+03  0.15977151828E+03  0.47000000000E+01 0. -1.
          5    1    5    5  503    0 -0.54567093311E+02  0.25359029023E+02  0.48726162538E+02  0.77569175199E+02  0.47000000000E+01 0.  1.
         -5    1    5    5    0  503  0.23115330259E+02 -0.68749239190E+02  0.11195135628E+03  0.13347648690E+03  0.47000000000E+01 0.  1.
<mgrwt>
<rscale>  0 0.27465248E+03</rscale>
<asrwt>0</asrwt>
<pdfrwt beam="1">  1        2 0.52571576E-01 0.27465248E+03</pdfrwt>
<pdfrwt beam="2">  1       -2 0.84904233E-02 0.27465248E+03</pdfrwt>
<totfact> 0.81076857E+03</totfact>
</mgrwt>
</event>
<event>
 9    1  0.2065703E-002  0.2747822E+03  0.7818608E-02  0.1098573E+00
          2   -1    0    0  501    0  0.00000000000E+00  0.00000000000E+00  0.19615695592E+04  0.19615695592E+04  0.00000000000E+00 0. -1.
         -2   -1    0    0    0  501 -0.00000000000E+00 -0.00000000000E+00 -0.96230688738E+01  0.96230688738E+01  0.00000000000E+00 0. -1.
         36    2    1    2    0    0  0.00000000000E+00 -0.71054273576E-14  0.19519464904E+04  0.19711926281E+04  0.27478223356E+03 0.  0.
         25    2    3    3    0    0 -0.23542737287E+02  0.50568731324E+02  0.79272561765E+03  0.80420891291E+03  0.12339616552E+03 0.  0.
         25    2    3    3    0    0  0.23542737287E+02 -0.50568731324E+02  0.11592208727E+04  0.11669837152E+04  0.12225589039E+03 0.  0.
          5    1    4    4  502    0 -0.60495578391E+02  0.17831782793E+02  0.20846079108E+03  0.21784324387E+03  0.47000000000E+01 0.  1.
         -5    1    4    4    0  502  0.36952841104E+02  0.32736948531E+02  0.58426482656E+03  0.58636566904E+03  0.47000000000E+01 0.  1.
          5    1    5    5  503    0  0.57921749015E+02 -0.67219941992E+02  0.61274689392E+03  0.61915611571E+03  0.47000000000E+01 0.  1.
         -5    1    5    5    0  503 -0.34379011728E+02  0.16651210667E+02  0.54647397880E+03  0.54782759950E+03  0.47000000000E+01 0.  1.
<mgrwt>
<rscale>  0 0.27478223E+03</rscale>
<asrwt>0</asrwt>
<pdfrwt beam="1">  1        2 0.30177961E+00 0.27478223E+03</pdfrwt>
<pdfrwt beam="2">  1       -2 0.14804737E-02 0.27478223E+03</pdfrwt>
<totfact> 0.93608130E+03</totfact>
</mgrwt>
</event>
<event>
 9    1  0.2065703E-002  0.2750607E+03  0.7818608E-02  0.1098418E+00
         -2   -1    0    0    0  501 -0.00000000000E+00  0.00000000000E+00  0.81802157931E+01  0.81802157931E+01  0.00000000000E+00 0.  1.
          2   -1    0    0  501    0  0.00000000000E+00 -0.00000000000E+00 -0.23122374855E+04  0.23122374855E+04  0.00000000000E+00 0.  1.
         36    2    1    2    0    0  0.00000000000E+00 -0.35527136788E-14 -0.23040572697E+04  0.23204177013E+04  0.27506073218E+03 0.  0.
         25    2    3    3    0    0  0.31039845791E+02 -0.24125760878E+02 -0.68632904291E+03  0.69743945617E+03  0.11759555911E+03 0.  0.
         25    2    3    3    0    0 -0.31039845791E+02  0.24125760878E+02 -0.16177282268E+04  0.16229782452E+04  0.12437139538E+03 0.  0.
          5    1    4    4  502    0 -0.84790699451E+01  0.16718004398E+02 -0.17159030958E+02  0.25843928524E+02  0.47000000000E+01 0. -1.
         -5    1    4    4    0  502  0.39518915736E+02 -0.40843765276E+02 -0.66917001195E+03  0.67159552765E+03  0.47000000000E+01 0. -1.
          5    1    5    5  503    0 -0.52811178142E+02 -0.61524341089E+01 -0.14544618020E+04  0.14554408599E+04  0.47000000000E+01 0.  1.
         -5    1    5    5    0  503  0.21771332351E+02  0.30278194987E+02 -0.16326642481E+03  0.16753738530E+03  0.47000000000E+01 0.  1.
<mgrwt>
<rscale>  0 0.27506073E+03</rscale>
<asrwt>0</asrwt>
<pdfrwt beam="1">  1        2 0.35572950E+00 0.27506073E+03</pdfrwt>
<pdfrwt beam="2">  1       -2 0.12584924E-02 0.27506073E+03</pdfrwt>
<totfact> 0.77342021E+03</totfact>
</mgrwt>
</event>
<event>
 9    1  0.2065703E-002  0.2745578E+03  0.7818608E-02  0.1098699E+00
         -2   -1    0    0    0  501 -0.00000000000E+00  0.00000000000E+00  0.46545877734E+02  0.46545877734E+02  0.00000000000E+00 0.  1.
          2   -1    0    0  501    0  0.00000000000E+00 -0.00000000000E+00 -0.40487993946E+03  0.40487993946E+03  0.00000000000E+00 0.  1.
         36    2    1    2    0    0  0.00000000000E+00  0.00000000000E+00 -0.35833406173E+03  0.45142581720E+03  0.27455776921E+03 0.  0.
         25    2    3    3    0    0 -0.18384400756E+02  0.58106879756E+02 -0.18327028487E+03  0.22737492930E+03  0.11998735556E+03 0.  0.
         25    2    3    3    0    0  0.18384400756E+02 -0.58106879756E+02 -0.17506377686E+03  0.22405088789E+03  0.12584545574E+03 0.  0.
          5    1    4    4  502    0 -0.35658324385E+02  0.87834575160E+02 -0.15847954112E+03  0.18472759308E+03  0.47000000000E+01 0. -1.
         -5    1    4    4    0  502  0.17273923629E+02 -0.29727695404E+02 -0.24790743745E+02  0.42647336224E+02  0.47000000000E+01 0. -1.
          5    1    5    5  503    0  0.65218682698E+02 -0.47562550318E+02 -0.64527770382E+02  0.10344851819E+03  0.47000000000E+01 0.  1.
         -5    1    5    5    0  503 -0.46834281942E+02 -0.10544329438E+02 -0.11053600648E+03  0.12060236970E+03  0.47000000000E+01 0.  1.
<mgrwt>
<rscale>  0 0.27455777E+03</rscale>
<asrwt>0</asrwt>
<pdfrwt beam="1">  1        2 0.62289219E-01 0.27455777E+03</pdfrwt>
<pdfrwt beam="2">  1       -2 0.71609045E-02 0.27455777E+03</pdfrwt>
<totfact> 0.88005782E+03</totfact>
</mgrwt>
</event>
<event>
 9    1  0.2065703E-002  0.2744384E+03  0.7818608E-02  0.1098766E+00
         -2   -1    0    0    0  501 -0.00000000000E+00  0.00000000000E+00  0.90159789297E+01  0.90159789297E+01  0.00000000000E+00 0. -1.
          2   -1    0    0  501    0  0.00000000000E+00 -0.00000000000E+00 -0.20884153248E+04  0.20884153248E+04  0.00000000000E+00 0. -1.
         36    2    1    2    0    0  0.10658141036E-13  0.00000000000E+00 -0.20793993459E+04  0.20974313037E+04  0.27443839793E+03 0.  0.
         25    2    3    3    0    0  0.28574004605E+02  0.35126624264E+02 -0.68753219513E+03  0.69930974070E+03  0.11951251240E+03 0.  0.
         25    2    3    3    0    0 -0.28574004605E+02 -0.35126624264E+02 -0.13918671507E+04  0.13981215630E+04  0.12409426353E+03 0.  0.
          5    1    4    4  502    0 -0.41182739196E+02 -0.11063167908E+02 -0.19121575423E+03  0.19596929953E+03  0.47000000000E+01 0. -1.
         -5    1    4    4    0  502  0.69756743801E+02  0.46189792172E+02 -0.49631644090E+03  0.50334044117E+03  0.47000000000E+01 0. -1.
          5    1    5    5  503    0  0.14450098636E+02 -0.72207156073E+02 -0.68589383857E+03  0.68985152499E+03  0.47000000000E+01 0. -1.
         -5    1    5    5    0  503 -0.43024103241E+02  0.37080531808E+02 -0.70597331215E+03  0.70827003803E+03  0.47000000000E+01 0. -1.
<mgrwt>
<rscale>  0 0.27443840E+03</rscale>
<asrwt>0</asrwt>
<pdfrwt beam="1">  1        2 0.32129517E+00 0.27443840E+03</pdfrwt>
<pdfrwt beam="2">  1       -2 0.13870715E-02 0.27443840E+03</pdfrwt>
<totfact> 0.88280736E+03</totfact>
</mgrwt>
</event>
<event>
 9    1  0.2065703E-002  0.2753061E+03  0.7818608E-02  0.1098281E+00
          2   -1    0    0  501    0  0.00000000000E+00  0.00000000000E+00  0.15680001302E+04  0.15680001302E+04  0.00000000000E+00 0. -1.
         -2   -1    0    0    0  501 -0.00000000000E+00 -0.00000000000E+00 -0.12084413085E+02  0.12084413085E+02  0.00000000000E+00 0. -1.
         36    2    1    2    0    0  0.00000000000E+00  0.00000000000E+00  0.15559157171E+04  0.15800845433E+04  0.27530609358E+03 0.  0.
         25    2    3    3    0    0 -0.22333700089E+02  0.59697183246E+02  0.75040169818E+03  0.76277903413E+03  0.12110573242E+03 0.  0.
         25    2    3    3    0    0  0.22333700089E+02 -0.59697183246E+02  0.80551401891E+03  0.81730550913E+03  0.12277179136E+03 0.  0.
          5    1    4    4  502    0  0.24847179838E+02 -0.27643693935E+02  0.20922043012E+03  0.21254842869E+03  0.47000000000E+01 0. -1.
         -5    1    4    4    0  502 -0.47180879928E+02  0.87340877181E+02  0.54118126806E+03  0.55023060544E+03  0.47000000000E+01 0. -1.
          5    1    5    5  503    0 -0.25409150979E+02 -0.51132071529E+02  0.68383516540E+03  0.68623081914E+03  0.47000000000E+01 0.  1.
         -5    1    5    5    0  503  0.47742851068E+02 -0.85651117171E+01  0.12167885351E+03  0.13107469000E+03  0.47000000000E+01 0.  1.
<mgrwt>
<rscale>  0 0.27530609E+03</rscale>
<asrwt>0</asrwt>
<pdfrwt beam="1">  1        2 0.24123063E+00 0.27530609E+03</pdfrwt>
<pdfrwt beam="2">  1       -2 0.18591417E-02 0.27530609E+03</pdfrwt>
<totfact> 0.10803319E+04</totfact>
</mgrwt>
</event>
<event>
 9    1  0.2065703E-002  0.2813536E+03  0.7818608E-02  0.1094952E+00
          2   -1    0    0  501    0  0.00000000000E+00  0.00000000000E+00  0.31594202611E+04  0.31594202611E+04  0.00000000000E+00 0.  1.
         -2   -1    0    0    0  501 -0.00000000000E+00 -0.00000000000E+00 -0.62637944017E+01  0.62637944017E+01  0.00000000000E+00 0.  1.
         36    2    1    2    0    0  0.00000000000E+00  0.00000000000E+00  0.31531564667E+04  0.31656840555E+04  0.28135357786E+03 0.  0.
         25    2    3    3    0    0  0.84198570968E+01  0.52443416960E+02  0.19760085925E+04  0.19805914071E+04  0.12373826523E+03 0.  0.
         25    2    3    3    0    0 -0.84198570968E+01 -0.52443416960E+02  0.11771478742E+04  0.11850926484E+04  0.12627850800E+03 0.  0.
          5    1    4    4  502    0  0.59503959707E+02  0.21520001412E+02  0.14089463071E+04  0.14103742829E+04  0.47000000000E+01 0. -1.
         -5    1    4    4    0  502 -0.51084102611E+02  0.30923415547E+02  0.56706228548E+03  0.57021712425E+03  0.47000000000E+01 0. -1.
          5    1    5    5  503    0  0.47958763988E+02 -0.10717973730E+02  0.22493293355E+03  0.23028641428E+03  0.47000000000E+01 0. -1.
         -5    1    5    5    0  503 -0.56378621085E+02 -0.41725443230E+02  0.95221494063E+03  0.95480623410E+03  0.47000000000E+01 0. -1.
<mgrwt>
<rscale>  0 0.28135358E+03</rscale>
<asrwt>0</asrwt>
<pdfrwt beam="1">  1        2 0.48606338E+00 0.28135358E+03</pdfrwt>
<pdfrwt beam="2">  1       -2 0.96366320E-03 0.28135358E+03</pdfrwt>
<totfact> 0.37556630E+03</totfact>
</mgrwt>
</event>
<event>
 9    1  0.2065703E-002  0.2749430E+03  0.7818608E-02  0.1098483E+00
          1   -1    0    0  501    0  0.00000000000E+00  0.00000000000E+00  0.43725938821E+03  0.43725938821E+03  0.00000000000E+00 0. -1.
         -1   -1    0    0    0  501 -0.00000000000E+00 -0.00000000000E+00 -0.43220131763E+02  0.43220131763E+02  0.00000000000E+00 0. -1.
         36    2    1    2    0    0 -0.71054273576E-14 -0.35527136788E-14  0.39403925645E+03  0.48047951997E+03  0.27494296407E+03 0.  0.
         25    2    3    3    0    0  0.18125007508E+02  0.24947934548E+02  0.28127096843E+03  0.30863147260E+03  0.12324411898E+03 0.  0.
         25    2    3    3    0    0 -0.18125007508E+02 -0.24947934548E+02  0.11276828802E+03  0.17184804738E+03  0.12595296451E+03 0.  0.
          5    1    4    4  502    0 -0.39385577445E+02 -0.12534622349E+02  0.39885462937E+02  0.57630552850E+02  0.47000000000E+01 0. -1.
         -5    1    4    4    0  502  0.57510584953E+02  0.37482556897E+02  0.24138550549E+03  0.25100091975E+03  0.47000000000E+01 0. -1.
          5    1    5    5  503    0 -0.44480549295E+02 -0.66225044849E+02  0.61935742300E+02  0.10110589501E+03  0.47000000000E+01 0. -1.
         -5    1    5    5    0  503  0.26355541786E+02  0.41277110301E+02  0.50832545720E+02  0.70742152371E+02  0.47000000000E+01 0. -1.
<mgrwt>
<rscale>  0 0.27494296E+03</rscale>
<asrwt>0</asrwt>
<pdfrwt beam="1">  1        1 0.67270672E-01 0.27494296E+03</pdfrwt>
<pdfrwt beam="2">  1       -1 0.66492513E-02 0.27494296E+03</pdfrwt>
<totfact> 0.61317553E+03</totfact>
</mgrwt>
</event>
<event>
 9    1  0.2065703E-002  0.2762154E+03  0.7818608E-02  0.1097774E+00
         -1   -1    0    0    0  501 -0.00000000000E+00  0.00000000000E+00  0.11453837004E+02  0.11453837004E+02  0.00000000000E+00 0. -1.
          1   -1    0    0  501    0  0.00000000000E+00 -0.00000000000E+00 -0.16652705831E+04  0.16652705831E+04  0.00000000000E+00 0. -1.
         36    2    1    2    0    0  0.00000000000E+00 -0.35527136788E-14 -0.16538167461E+04  0.16767244201E+04  0.27621540744E+03 0.  0.
         25    2    3    3    0    0 -0.28752747712E+02  0.10961311120E+02 -0.48437122568E+03  0.50027611641E+03  0.12130060818E+03 0.  0.
         25    2    3    3    0    0  0.28752747712E+02 -0.10961311120E+02 -0.11694455204E+04  0.11764483037E+04  0.12442232595E+03 0.  0.
          5    1    4    4  502    0  0.14100714268E+02 -0.25599562821E+02 -0.38354599868E+03  0.38468661383E+03  0.47000000000E+01 0. -1.
         -5    1    4    4    0  502 -0.42853461980E+02  0.36560873941E+02 -0.10082522700E+03  0.11558950258E+03  0.47000000000E+01 0. -1.
          5    1    5    5  503    0  0.61951672052E+02 -0.29536104064E+02 -0.38716315243E+03  0.39322739949E+03  0.47000000000E+01 0. -1.
         -5    1    5    5    0  503 -0.33198924340E+02  0.18574792944E+02 -0.78228236801E+03  0.78322090423E+03  0.47000000000E+01 0. -1.
<mgrwt>
<rscale>  0 0.27621541E+03</rscale>
<asrwt>0</asrwt>
<pdfrwt beam="1">  1        1 0.25619553E+00 0.27621541E+03</pdfrwt>
<pdfrwt beam="2">  1       -1 0.17621284E-02 0.27621541E+03</pdfrwt>
<totfact> 0.45967931E+03</totfact>
</mgrwt>
</event>
<event>
 9    1  0.2065703E-002  0.2780378E+03  0.7818608E-02  0.1096766E+00
          2   -1    0    0  501    0  0.00000000000E+00  0.00000000000E+00  0.13200972198E+03  0.13200972198E+03  0.00000000000E+00 0. -1.
         -2   -1    0    0    0  501 -0.00000000000E+00 -0.00000000000E+00 -0.14640020910E+03  0.14640020910E+03  0.00000000000E+00 0. -1.
         36    2    1    2    0    0  0.71054273576E-14  0.00000000000E+00 -0.14390487117E+02  0.27840993108E+03  0.27803777370E+03 0.  0.
         25    2    3    3    0    0 -0.29974906048E+02  0.39987591052E+02 -0.34851007413E+02  0.13924432661E+03  0.12520737735E+03 0.  0.
         25    2    3    3    0    0  0.29974906048E+02 -0.39987591052E+02  0.20460520296E+02  0.13916560447E+03  0.12826117942E+03 0.  0.
          5    1    4    4  502    0 -0.18118511352E+02  0.53271727683E+02  0.35383859257E+02  0.66635312859E+02  0.47000000000E+01 0. -1.
         -5    1    4    4    0  502 -0.11856394696E+02 -0.13284136631E+02 -0.70234866670E+02  0.72609013748E+02  0.47000000000E+01 0. -1.
          5    1    5    5  503    0  0.16506048693E+02  0.39227325202E+02 -0.22026879534E+02  0.48150868196E+02  0.47000000000E+01 0. -1.
         -5    1    5    5    0  503  0.13468857355E+02 -0.79214916254E+02  0.42487399830E+02  0.91014736279E+02  0.47000000000E+01 0. -1.
<mgrwt>
<rscale>  0 0.27803777E+03</rscale>
<asrwt>0</asrwt>
<pdfrwt beam="1">  1        2 0.20309188E-01 0.27803777E+03</pdfrwt>
<pdfrwt beam="2">  1       -2 0.22523109E-01 0.27803777E+03</pdfrwt>
<totfact> 0.46354622E+03</totfact>
</mgrwt>
</event>
<event>
 9    1  0.2065703E-002  0.2743162E+03  0.7818608E-02  0.1098834E+00
          2   -1    0    0  501    0  0.00000000000E+00  0.00000000000E+00  0.17562965965E+04  0.17562965965E+04  0.00000000000E+00 0. -1.
         -2   -1    0    0    0  501 -0.00000000000E+00 -0.00000000000E+00 -0.10711368220E+02  0.10711368220E+02  0.00000000000E+00 0. -1.
         36    2    1    2    0    0 -0.17763568394E-14  0.00000000000E+00  0.17455852283E+04  0.17670079648E+04  0.27431616467E+03 0.  0.
         25    2    3    3    0    0 -0.15974110566E+02 -0.20379928215E+02  0.11893335058E+04  0.11961665941E+04  0.12501927458E+03 0.  0.
         25    2    3    3    0    0  0.15974110566E+02  0.20379928215E+02  0.55625172249E+03  0.57084137069E+03  0.12559210973E+03 0.  0.
          5    1    4    4  502    0 -0.62312306700E+02 -0.35744601804E+02  0.50874822448E+03  0.51381645169E+03  0.47000000000E+01 0. -1.
         -5    1    4    4    0  502  0.46338196134E+02  0.15364673588E+02  0.68058528135E+03  0.68235014238E+03  0.47000000000E+01 0. -1.
          5    1    5    5  503    0  0.15131958271E+02 -0.43945885927E+02  0.10396394529E+03  0.11397723005E+03  0.47000000000E+01 0.  1.
         -5    1    5    5    0  503  0.84215229482E+00  0.64325814142E+02  0.45228777720E+03  0.45686414063E+03  0.47000000000E+01 0.  1.
<mgrwt>
<rscale>  0 0.27431616E+03</rscale>
<asrwt>0</asrwt>
<pdfrwt beam="1">  1        2 0.27019925E+00 0.27431616E+03</pdfrwt>
<pdfrwt beam="2">  1       -2 0.16479042E-02 0.27431616E+03</pdfrwt>
<totfact> 0.10255668E+04</totfact>
</mgrwt>
</event>
<event>
 9    1  0.2065703E-002  0.2765091E+03  0.7818608E-02  0.1097611E+00
          2   -1    0    0  501    0  0.00000000000E+00  0.00000000000E+00  0.41657207341E+02  0.41657207341E+02  0.00000000000E+00 0.  1.
         -2   -1    0    0    0  501 -0.00000000000E+00 -0.00000000000E+00 -0.45884797023E+03  0.45884797023E+03  0.00000000000E+00 0.  1.
         36    2    1    2    0    0  0.00000000000E+00 -0.35527136788E-14 -0.41719076289E+03  0.50050517757E+03  0.27650913210E+03 0.  0.
         25    2    3    3    0    0 -0.25991413312E+02 -0.31031167115E+02 -0.23326371734E+03  0.27184128689E+03  0.13359354975E+03 0.  0.
         25    2    3    3    0    0  0.25991413312E+02  0.31031167115E+02 -0.18392704556E+03  0.22866389068E+03  0.12969013037E+03 0.  0.
          5    1    4    4  502    0 -0.31896903306E+02 -0.52386936206E+02 -0.32060025763E+02  0.69366697899E+02  0.47000000000E+01 0. -1.
         -5    1    4    4    0  502  0.59054899933E+01  0.21355769091E+02 -0.20120369157E+03  0.20247458899E+03  0.47000000000E+01 0. -1.
          5    1    5    5  503    0  0.77167469516E+02  0.31620794365E+01 -0.10687065017E+03  0.13194030077E+03  0.47000000000E+01 0.  1.
         -5    1    5    5    0  503 -0.51176056204E+02  0.27869087679E+02 -0.77056395383E+02  0.96723589915E+02  0.47000000000E+01 0.  1.
<mgrwt>
<rscale>  0 0.27650913E+03</rscale>
<asrwt>0</asrwt>
<pdfrwt beam="1">  1        2 0.64088008E-02 0.27650913E+03</pdfrwt>
<pdfrwt beam="2">  1       -2 0.70591999E-01 0.27650913E+03</pdfrwt>
<totfact> 0.21182255E+03</totfact>
</mgrwt>
</event>
<event>
 9    1  0.2065703E-002  0.2748995E+03  0.7818608E-02  0.1098508E+00
         -2   -1    0    0    0  501 -0.00000000000E+00  0.00000000000E+00  0.23318152562E+02  0.23318152562E+02  0.00000000000E+00 0.  1.
          2   -1    0    0  501    0  0.00000000000E+00 -0.00000000000E+00 -0.81020257339E+03  0.81020257339E+03  0.00000000000E+00 0.  1.
         36    2    1    2    0    0  0.35527136788E-14  0.00000000000E+00 -0.78688442083E+03  0.83352072595E+03  0.27489945225E+03 0.  0.
         25    2    3    3    0    0 -0.15711735042E+02 -0.37186908956E+02 -0.30845458581E+03  0.33704138698E+03  0.12970327758E+03 0.  0.
         25    2    3    3    0    0  0.15711735042E+02  0.37186908956E+02 -0.47842983501E+03  0.49647933897E+03  0.12636020804E+03 0.  0.
          5    1    4    4  502    0  0.54907078980E+02  0.11229330655E+01 -0.11558882700E+03  0.12805824936E+03  0.47000000000E+01 0. -1.
         -5    1    4    4    0  502 -0.70618814022E+02 -0.38309842022E+02 -0.19286575881E+03  0.20898313762E+03  0.47000000000E+01 0. -1.
          5    1    5    5  503    0 -0.10926735049E+02  0.42271158681E+02 -0.47564277798E+02  0.64735576907E+02  0.47000000000E+01 0. -1.
         -5    1    5    5    0  503  0.26638470090E+02 -0.50842497244E+01 -0.43086555721E+03  0.43174376206E+03  0.47000000000E+01 0. -1.
<mgrwt>
<rscale>  0 0.27489945E+03</rscale>
<asrwt>0</asrwt>
<pdfrwt beam="1">  1        2 0.12464656E+00 0.27489945E+03</pdfrwt>
<pdfrwt beam="2">  1       -2 0.35874079E-02 0.27489945E+03</pdfrwt>
<totfact> 0.11265985E+04</totfact>
</mgrwt>
</event>
<event>
 9    1  0.2065703E-002  0.2750018E+03  0.7818608E-02  0.1098451E+00
         -1   -1    0    0    0  501 -0.00000000000E+00  0.00000000000E+00  0.31955050196E+02  0.31955050196E+02  0.00000000000E+00 0. -1.
          1   -1    0    0  501    0  0.00000000000E+00 -0.00000000000E+00 -0.59165894855E+03  0.59165894855E+03  0.00000000000E+00 0. -1.
         36    2    1    2    0    0  0.00000000000E+00 -0.71054273576E-14 -0.55970389836E+03  0.62361399875E+03  0.27500175563E+03 0.  0.
         25    2    3    3    0    0  0.20401842112E+02  0.46864745127E+02 -0.24639527533E+03  0.28245093768E+03  0.12827845101E+03 0.  0.
         25    2    3    3    0    0 -0.20401842112E+02 -0.46864745127E+02 -0.31330862303E+03  0.34116306107E+03  0.12496960221E+03 0.  0.
          5    1    4    4  502    0  0.23801218896E+02  0.13141074924E+02 -0.24669259761E+03  0.24823076680E+03  0.47000000000E+01 0. -1.
         -5    1    4    4    0  502 -0.33993767839E+01  0.33723670203E+02  0.29732227992E+00  0.34220170879E+02  0.47000000000E+01 0. -1.
          5    1    5    5  503    0 -0.45940170309E+02 -0.31182748879E+02 -0.30452612091E+03  0.30958215613E+03  0.47000000000E+01 0.  1.
         -5    1    5    5    0  503  0.25538328196E+02 -0.15681996248E+02 -0.87825021149E+01  0.31580904939E+02  0.47000000000E+01 0.  1.
<mgrwt>
<rscale>  0 0.27500176E+03</rscale>
<asrwt>0</asrwt>
<pdfrwt beam="1">  1        1 0.91024446E-01 0.27500176E+03</pdfrwt>
<pdfrwt beam="2">  1       -1 0.49161620E-02 0.27500176E+03</pdfrwt>
<totfact> 0.64508028E+03</totfact>
</mgrwt>
</event>
<event>
 9    1  0.2065703E-002  0.2738140E+03  0.7818608E-02  0.1099116E+00
          2   -1    0    0  501    0  0.00000000000E+00  0.00000000000E+00  0.96531704591E+03  0.96531704591E+03  0.00000000000E+00 0.  1.
         -2   -1    0    0    0  501 -0.00000000000E+00 -0.00000000000E+00 -0.19416958607E+02  0.19416958607E+02  0.00000000000E+00 0.  1.
         36    2    1    2    0    0  0.00000000000E+00 -0.71054273576E-14  0.94590008731E+03  0.98473400452E+03  0.27381395964E+03 0.  0.
         25    2    3    3    0    0  0.42165636292E+02  0.29181558529E+02  0.53193261501E+03  0.54982867228E+03  0.12934356462E+03 0.  0.
         25    2    3    3    0    0 -0.42165636292E+02 -0.29181558529E+02  0.41396747229E+03  0.43490533224E+03  0.12306126786E+03 0.  0.
          5    1    4    4  502    0 -0.25063246086E+01 -0.48819664962E+02  0.19199841750E+03  0.19817952384E+03  0.47000000000E+01 0. -1.
         -5    1    4    4    0  502  0.44671960900E+02  0.78001223492E+02  0.33993419752E+03  0.35164914844E+03  0.47000000000E+01 0. -1.
          5    1    5    5  503    0  0.42727200555E+02  0.82137302076E+00  0.14391201179E+03  0.15019668924E+03  0.47000000000E+01 0.  1.
         -5    1    5    5    0  503 -0.84892836847E+02 -0.30002931550E+02  0.27005546050E+03  0.28470864300E+03  0.47000000000E+01 0.  1.
<mgrwt>
<rscale>  0 0.27381396E+03</rscale>
<asrwt>0</asrwt>
<pdfrwt beam="1">  1        2 0.14851028E+00 0.27381396E+03</pdfrwt>
<pdfrwt beam="2">  1       -2 0.29872252E-02 0.27381396E+03</pdfrwt>
<totfact> 0.11729400E+04</totfact>
</mgrwt>
</event>
<event>
 9    1  0.2065703E-002  0.2722144E+03  0.7818608E-02  0.1100019E+00
         -3   -1    0    0    0  501 -0.00000000000E+00  0.00000000000E+00  0.93511456114E+03  0.93511456114E+03  0.00000000000E+00 0.  1.
          3   -1    0    0  501    0  0.00000000000E+00 -0.00000000000E+00 -0.19810594742E+02  0.19810594742E+02  0.00000000000E+00 0.  1.
         36    2    1    2    0    0  0.00000000000E+00  0.00000000000E+00  0.91530396640E+03  0.95492515588E+03  0.27221444200E+03 0.  0.
         25    2    3    3    0    0 -0.13097594755E+02  0.16457949739E+02  0.28016546047E+03  0.30764951360E+03  0.12535201188E+03 0.  0.
         25    2    3    3    0    0  0.13097594755E+02 -0.16457949739E+02  0.63513850593E+03  0.64727564229E+03  0.12297326652E+03 0.  0.
          5    1    4    4  502    0  0.37534010144E+02  0.24002251480E+01  0.21331100840E+02  0.43493319732E+02  0.47000000000E+01 0.  1.
         -5    1    4    4    0  502 -0.50631604899E+02  0.14057724591E+02  0.25883435963E+03  0.26415619387E+03  0.47000000000E+01 0.  1.
          5    1    5    5  503    0 -0.47676924791E+02 -0.16479530675E+02  0.15004826799E+03  0.15837056802E+03  0.47000000000E+01 0. -1.
         -5    1    5    5    0  503  0.60774519546E+02  0.21580935839E-01  0.48509023795E+03  0.48890507427E+03  0.47000000000E+01 0. -1.
<mgrwt>
<rscale>  0 0.27221444E+03</rscale>
<asrwt>0</asrwt>
<pdfrwt beam="1">  1        3 0.30477845E-02 0.27221444E+03</pdfrwt>
<pdfrwt beam="2">  1       -3 0.14386374E+00 0.27221444E+03</pdfrwt>
<totfact> 0.47825582E+02</totfact>
</mgrwt>
</event>
<event>
 9    1  0.2065703E-002  0.2730894E+03  0.7818608E-02  0.1099524E+00
          1   -1    0    0  501    0  0.00000000000E+00  0.00000000000E+00  0.23548689184E+03  0.23548689184E+03  0.00000000000E+00 0.  1.
         -1   -1    0    0    0  501 -0.00000000000E+00 -0.00000000000E+00 -0.79174072104E+02  0.79174072104E+02  0.00000000000E+00 0.  1.
         36    2    1    2    0    0  0.00000000000E+00  0.71054273576E-14  0.15631281974E+03  0.31466096395E+03  0.27308940774E+03 0.  0.
         25    2    3    3    0    0  0.36127137377E+02 -0.23729691329E+02  0.69411627495E+02  0.15158420611E+03  0.12763827485E+03 0.  0.
         25    2    3    3    0    0 -0.36127137377E+02  0.23729691329E+02  0.86901192244E+02  0.16307675783E+03  0.13104939308E+03 0.  0.
          5    1    4    4  502    0 -0.41443174850E+02  0.16117437641E+02  0.38299836065E+02  0.58875087943E+02  0.47000000000E+01 0. -1.
         -5    1    4    4    0  502  0.77570312227E+02 -0.39847128970E+02  0.31111791431E+02  0.92709118171E+02  0.47000000000E+01 0. -1.
          5    1    5    5  503    0  0.61959360932E+00 -0.38173427268E+02  0.82231934620E+02  0.90784225045E+02  0.47000000000E+01 0.  1.
         -5    1    5    5    0  503 -0.36746730986E+02  0.61903118597E+02  0.46692576246E+01  0.72292532789E+02  0.47000000000E+01 0.  1.
<mgrwt>
<rscale>  0 0.27308941E+03</rscale>
<asrwt>0</asrwt>
<pdfrwt beam="1">  1        1 0.36228752E-01 0.27308941E+03</pdfrwt>
<pdfrwt beam="2">  1       -1 0.12180627E-01 0.27308941E+03</pdfrwt>
<totfact> 0.52923853E+03</totfact>
</mgrwt>
</event>
<event>
 9    1  0.2065703E-002  0.2804583E+03  0.7818608E-02  0.1095439E+00
          2   -1    0    0  501    0  0.00000000000E+00  0.00000000000E+00  0.33355994046E+03  0.33355994046E+03  0.00000000000E+00 0.  1.
         -2   -1    0    0    0  501 -0.00000000000E+00 -0.00000000000E+00 -0.58952584777E+02  0.58952584777E+02  0.00000000000E+00 0.  1.
         36    2    1    2    0    0 -0.71054273576E-14 -0.17763568394E-14  0.27460735569E+03  0.39251252524E+03  0.28045834392E+03 0.  0.
         25    2    3    3    0    0 -0.33754952802E+02 -0.13780538797E+02  0.20960833039E+03  0.24774794341E+03  0.12694129039E+03 0.  0.
         25    2    3    3    0    0  0.33754952802E+02  0.13780538797E+02  0.64999025291E+02  0.14476458183E+03  0.12410725512E+03 0.  0.
          5    1    4    4  502    0 -0.47641690367E+02 -0.26290369734E+02  0.21942444636E+03  0.22611964059E+03  0.47000000000E+01 0. -1.
         -5    1    4    4    0  502  0.13886737565E+02  0.12509830938E+02 -0.98161159637E+01  0.21628302821E+02  0.47000000000E+01 0. -1.
          5    1    5    5  503    0  0.30408666364E+02  0.41850742405E+02 -0.19541634589E+02  0.55498982985E+02  0.47000000000E+01 0. -1.
         -5    1    5    5    0  503  0.33462864377E+01 -0.28070203608E+02  0.84540659880E+02  0.89265598841E+02  0.47000000000E+01 0. -1.
<mgrwt>
<rscale>  0 0.28045834E+03</rscale>
<asrwt>0</asrwt>
<pdfrwt beam="1">  1        2 0.51316913E-01 0.28045834E+03</pdfrwt>
<pdfrwt beam="2">  1       -2 0.90696286E-02 0.28045834E+03</pdfrwt>
<totfact> 0.75069517E+03</totfact>
</mgrwt>
</event>
<event>
 9    1  0.2065703E-002  0.2762379E+03  0.7818608E-02  0.1097762E+00
         -2   -1    0    0    0  501 -0.00000000000E+00  0.00000000000E+00  0.95213285759E+03  0.95213285759E+03  0.00000000000E+00 0. -1.
          2   -1    0    0  501    0  0.00000000000E+00 -0.00000000000E+00 -0.20035909347E+02  0.20035909347E+02  0.00000000000E+00 0. -1.
         36    2    1    2    0    0  0.00000000000E+00  0.00000000000E+00  0.93209694824E+03  0.97216876693E+03  0.27623792369E+03 0.  0.
         25    2    3    3    0    0  0.81456243373E+01  0.44913151929E+02  0.53247828612E+03  0.54899486829E+03  0.12561328675E+03 0.  0.
         25    2    3    3    0    0 -0.81456243373E+01 -0.44913151929E+02  0.39961866212E+03  0.42317389864E+03  0.13152007819E+03 0.  0.
          5    1    4    4  502    0 -0.54495982114E+02  0.29226011084E+02  0.17412395038E+03  0.18483833987E+03  0.47000000000E+01 0. -1.
         -5    1    4    4    0  502  0.62641606451E+02  0.15687140844E+02  0.35835433574E+03  0.36415652842E+03  0.47000000000E+01 0. -1.
          5    1    5    5  503    0 -0.22281770913E+02 -0.87193328900E+02  0.31199186904E+03  0.32474631678E+03  0.47000000000E+01 0.  1.
         -5    1    5    5    0  503  0.14136146576E+02  0.42280176971E+02  0.87626793080E+02  0.98427581857E+02  0.47000000000E+01 0.  1.
<mgrwt>
<rscale>  0 0.27623792E+03</rscale>
<asrwt>0</asrwt>
<pdfrwt beam="1">  1        2 0.30824483E-02 0.27623792E+03</pdfrwt>
<pdfrwt beam="2">  1       -2 0.14648194E+00 0.27623792E+03</pdfrwt>
<totfact> 0.10181779E+03</totfact>
</mgrwt>
</event>
<event>
 9    1  0.2065703E-002  0.2748097E+03  0.7818608E-02  0.1098558E+00
          1   -1    0    0  501    0  0.00000000000E+00  0.00000000000E+00  0.73196189819E+03  0.73196189819E+03  0.00000000000E+00 0.  1.
         -1   -1    0    0    0  501 -0.00000000000E+00 -0.00000000000E+00 -0.25793821883E+02  0.25793821883E+02  0.00000000000E+00 0.  1.
         36    2    1    2    0    0 -0.71054273576E-14 -0.71054273576E-14  0.70616807631E+03  0.75775572007E+03  0.27480971473E+03 0.  0.
         25    2    3    3    0    0  0.15651456275E+02  0.54882330134E+02  0.31202081900E+03  0.33976244567E+03  0.12175586126E+03 0.  0.
         25    2    3    3    0    0 -0.15651456275E+02 -0.54882330134E+02  0.39414725731E+03  0.41799327440E+03  0.12692233358E+03 0.  0.
          5    1    4    4  502    0  0.29300462854E+02  0.22710225004E+02  0.30028110903E+03  0.30259726681E+03  0.47000000000E+01 0. -1.
         -5    1    4    4    0  502 -0.13649006579E+02  0.32172105130E+02  0.11739709971E+02  0.37165178855E+02  0.47000000000E+01 0. -1.
          5    1    5    5  503    0 -0.64630287789E+02 -0.68597757637E+01  0.24899980558E+03  0.25738516624E+03  0.47000000000E+01 0.  1.
         -5    1    5    5    0  503  0.48978831514E+02 -0.48022554370E+02  0.14514745172E+03  0.16060810816E+03  0.47000000000E+01 0.  1.
<mgrwt>
<rscale>  0 0.27480971E+03</rscale>
<asrwt>0</asrwt>
<pdfrwt beam="1">  1        1 0.11260951E+00 0.27480971E+03</pdfrwt>
<pdfrwt beam="2">  1       -1 0.39682808E-02 0.27480971E+03</pdfrwt>
<totfact> 0.65493446E+03</totfact>
</mgrwt>
</event>
<event>
 9    1  0.2065703E-002  0.2763273E+03  0.7818608E-02  0.1097712E+00
         -2   -1    0    0    0  501 -0.00000000000E+00  0.00000000000E+00  0.63912169125E+03  0.63912169125E+03  0.00000000000E+00 0.  1.
          2   -1    0    0  501    0  0.00000000000E+00 -0.00000000000E+00 -0.29867851288E+02  0.29867851288E+02  0.00000000000E+00 0.  1.
         36    2    1    2    0    0  0.00000000000E+00  0.00000000000E+00  0.60925383996E+03  0.66898954254E+03  0.27632728153E+03 0.  0.
         25    2    3    3    0    0 -0.29093215852E+02  0.57062671717E+01  0.18014918971E+03  0.22078807102E+03  0.12415580960E+03 0.  0.
         25    2    3    3    0    0  0.29093215852E+02 -0.57062671717E+01  0.42910465026E+03  0.44820147152E+03  0.12599516463E+03 0.  0.
          5    1    4    4  502    0 -0.21402388106E+02 -0.43394736840E+02  0.15953612558E+03  0.16677838819E+03  0.47000000000E+01 0.  1.
         -5    1    4    4    0  502 -0.76908277461E+01  0.49101004012E+02  0.20613064128E+02  0.54009682828E+02  0.47000000000E+01 0.  1.
          5    1    5    5  503    0 -0.14780563223E+02 -0.57257836420E+02  0.15906404142E+03  0.16976567425E+03  0.47000000000E+01 0. -1.
         -5    1    5    5    0  503  0.43873779075E+02  0.51551569248E+02  0.27004060884E+03  0.27843579727E+03  0.47000000000E+01 0. -1.
<mgrwt>
<rscale>  0 0.27632728E+03</rscale>
<asrwt>0</asrwt>
<pdfrwt beam="1">  1        2 0.45950545E-02 0.27632728E+03</pdfrwt>
<pdfrwt beam="2">  1       -2 0.98326404E-01 0.27632728E+03</pdfrwt>
<totfact> 0.15683341E+03</totfact>
</mgrwt>
</event>
<event>
 9    1  0.2065703E-002  0.2827186E+03  0.7818608E-02  0.1094213E+00
          2   -1    0    0  501    0  0.00000000000E+00  0.00000000000E+00  0.10879661108E+04  0.10879661108E+04  0.00000000000E+00 0.  1.
         -2   -1    0    0    0  501 -0.00000000000E+00 -0.00000000000E+00 -0.18366797351E+02  0.18366797351E+02  0.00000000000E+00 0.  1.
         36    2    1    2    0    0 -0.17763568394E-14  0.71054273576E-14  0.10695993134E+04  0.11063329081E+04  0.28271860980E+03 0.  0.
         25    2    3    3    0    0 -0.79127145906E+01  0.51987306259E+02  0.38818408035E+03  0.41171533444E+03  0.12671758091E+03 0.  0.
         25    2    3    3    0    0  0.79127145906E+01 -0.51987306259E+02  0.68141523310E+03  0.69461757371E+03  0.12410303278E+03 0.  0.
          5    1    4    4  502    0 -0.22477585080E+02  0.48757819721E+02  0.51101067209E+02  0.74269616162E+02  0.47000000000E+01 0. -1.
         -5    1    4    4    0  502  0.14564870489E+02  0.32294865380E+01  0.33708301314E+03  0.33744571828E+03  0.47000000000E+01 0. -1.
          5    1    5    5  503    0  0.58107907190E+02 -0.57806700846E+02  0.36176821357E+03  0.37096694447E+03  0.47000000000E+01 0. -1.
         -5    1    5    5    0  503 -0.50195192600E+02  0.58193945876E+01  0.31964701953E+03  0.32365062924E+03  0.47000000000E+01 0. -1.
<mgrwt>
<rscale>  0 0.28271861E+03</rscale>
<asrwt>0</asrwt>
<pdfrwt beam="1">  1        2 0.16737935E+00 0.28271861E+03</pdfrwt>
<pdfrwt beam="2">  1       -2 0.28256620E-02 0.28271861E+03</pdfrwt>
<totfact> 0.10747015E+04</totfact>
</mgrwt>
</event>
<event>
 9    1  0.2065703E-002  0.2759178E+03  0.7818608E-02  0.1097940E+00
          1   -1    0    0  501    0  0.00000000000E+00  0.00000000000E+00  0.24265206922E+03  0.24265206922E+03  0.00000000000E+00 0.  1.
         -1   -1    0    0    0  501 -0.00000000000E+00 -0.00000000000E+00 -0.78436020164E+02  0.78436020164E+02  0.00000000000E+00 0.  1.
         36    2    1    2    0    0  0.35527136788E-14 -0.71054273576E-14  0.16421604906E+03  0.32108808938E+03  0.27591783265E+03 0.  0.
         25    2    3    3    0    0  0.13803435401E+02  0.53776942330E+02  0.67790768283E+02  0.15279434045E+03  0.12517199309E+03 0.  0.
         25    2    3    3    0    0 -0.13803435401E+02 -0.53776942330E+02  0.96425280772E+02  0.16829374893E+03  0.12626344206E+03 0.  0.
          5    1    4    4  502    0 -0.31599529027E+02  0.77308796460E+02  0.29360750104E+02  0.88652827882E+02  0.47000000000E+01 0. -1.
         -5    1    4    4    0  502  0.45402964428E+02 -0.23531854130E+02  0.38430018179E+02  0.64141512571E+02  0.47000000000E+01 0. -1.
          5    1    5    5  503    0  0.50344524597E+01 -0.46505513352E+02 -0.19230960617E+02  0.50793979269E+02  0.47000000000E+01 0. -1.
         -5    1    5    5    0  503 -0.18837887861E+02 -0.72714289775E+01  0.11565624139E+03  0.11749976966E+03  0.47000000000E+01 0. -1.
<mgrwt>
<rscale>  0 0.27591783E+03</rscale>
<asrwt>0</asrwt>
<pdfrwt beam="1">  1        1 0.37331087E-01 0.27591783E+03</pdfrwt>
<pdfrwt beam="2">  1       -1 0.12067080E-01 0.27591783E+03</pdfrwt>
<totfact> 0.51737712E+03</totfact>
</mgrwt>
</event>
<event>
 9    1  0.2065703E-002  0.2740647E+03  0.7818608E-02  0.1098976E+00
          2   -1    0    0  501    0  0.00000000000E+00  0.00000000000E+00  0.13515347640E+03  0.13515347640E+03  0.00000000000E+00 0. -1.
         -2   -1    0    0    0  501 -0.00000000000E+00 -0.00000000000E+00 -0.13893732554E+03  0.13893732554E+03  0.00000000000E+00 0. -1.
         36    2    1    2    0    0 -0.71054273576E-14  0.00000000000E+00 -0.37838491327E+01  0.27409080194E+03  0.27406468250E+03 0.  0.
         25    2    3    3    0    0  0.30340713956E+02  0.37214807321E+02  0.27672746325E+02  0.13896057566E+03  0.12743139288E+03 0.  0.
         25    2    3    3    0    0 -0.30340713956E+02 -0.37214807321E+02 -0.31456595458E+02  0.13513022628E+03  0.12233217013E+03 0.  0.
          5    1    4    4  502    0  0.34089698409E+02  0.10022312630E+02  0.75522806259E+02  0.83596283130E+02  0.47000000000E+01 0.  1.
         -5    1    4    4    0  502 -0.37489844529E+01  0.27192494692E+02 -0.47850059934E+02  0.55364292533E+02  0.47000000000E+01 0.  1.
          5    1    5    5  503    0 -0.73266061233E+02 -0.39069447225E+02 -0.26857945702E+01  0.83208418609E+02  0.47000000000E+01 0.  1.
         -5    1    5    5    0  503  0.42925347277E+02  0.18546399040E+01 -0.28770800888E+02  0.51921807670E+02  0.47000000000E+01 0.  1.
<mgrwt>
<rscale>  0 0.27406468E+03</rscale>
<asrwt>0</asrwt>
<pdfrwt beam="1">  1        2 0.20792843E-01 0.27406468E+03</pdfrwt>
<pdfrwt beam="2">  1       -2 0.21374973E-01 0.27406468E+03</pdfrwt>
<totfact> 0.49382008E+03</totfact>
</mgrwt>
</event>
<event>
 9    1  0.2065703E-002  0.2767794E+03  0.7818608E-02  0.1097461E+00
          1   -1    0    0  501    0  0.00000000000E+00  0.00000000000E+00  0.40268442972E+02  0.40268442972E+02  0.00000000000E+00 0.  1.
         -1   -1    0    0    0  501 -0.00000000000E+00 -0.00000000000E+00 -0.47560109466E+03  0.47560109466E+03  0.00000000000E+00 0.  1.
         36    2    1    2    0    0 -0.35527136788E-14  0.00000000000E+00 -0.43533265169E+03  0.51586953763E+03  0.27677944691E+03 0.  0.
         25    2    3    3    0    0  0.27463010221E+02 -0.41348265338E+02 -0.20088847485E+03  0.24332491226E+03  0.12801147456E+03 0.  0.
         25    2    3    3    0    0 -0.27463010221E+02  0.41348265338E+02 -0.23444417684E+03  0.27254462538E+03  0.12981758275E+03 0.  0.
          5    1    4    4  502    0  0.18141473451E+02 -0.72634618129E+02 -0.53111432993E+02  0.91911996629E+02  0.47000000000E+01 0.  1.
         -5    1    4    4    0  502  0.93215367707E+01  0.31286352791E+02 -0.14777704186E+03  0.15141291563E+03  0.47000000000E+01 0.  1.
          5    1    5    5  503    0 -0.53395885048E+02 -0.73840887129E+01 -0.20026814482E+03  0.20744894585E+03  0.47000000000E+01 0. -1.
         -5    1    5    5    0  503  0.25932874826E+02  0.48732354051E+02 -0.34176032021E+02  0.65095679525E+02  0.47000000000E+01 0. -1.
<mgrwt>
<rscale>  0 0.27677945E+03</rscale>
<asrwt>0</asrwt>
<pdfrwt beam="1">  1        1 0.61951450E-02 0.27677945E+03</pdfrwt>
<pdfrwt beam="2">  1       -1 0.73169399E-01 0.27677945E+03</pdfrwt>
<totfact> 0.24186088E+03</totfact>
</mgrwt>
</event>
<event>
 9    1  0.2065703E-002  0.2741014E+03  0.7818608E-02  0.1098955E+00
         -2   -1    0    0    0  501 -0.00000000000E+00  0.00000000000E+00  0.35220256744E+02  0.35220256744E+02  0.00000000000E+00 0. -1.
          2   -1    0    0  501    0  0.00000000000E+00 -0.00000000000E+00 -0.53329812825E+03  0.53329812825E+03  0.00000000000E+00 0. -1.
         36    2    1    2    0    0 -0.53290705182E-14  0.00000000000E+00 -0.49807787151E+03  0.56851838499E+03  0.27410141917E+03 0.  0.
         25    2    3    3    0    0 -0.13780309431E+02  0.16610320795E+02 -0.35267194804E+03  0.37472896163E+03  0.12481382964E+03 0.  0.
         25    2    3    3    0    0  0.13780309431E+02 -0.16610320795E+02 -0.14540592347E+03  0.19378942336E+03  0.12627611944E+03 0.  0.
          5    1    4    4  502    0  0.18335332316E+02  0.41722148951E+02 -0.44610510789E+02  0.63946147633E+02  0.47000000000E+01 0. -1.
         -5    1    4    4    0  502 -0.32115641747E+02 -0.25111828156E+02 -0.30806143725E+03  0.31078281400E+03  0.47000000000E+01 0. -1.
          5    1    5    5  503    0  0.82492462104E+01  0.30046342504E+02 -0.14308600669E+03  0.14651460020E+03  0.47000000000E+01 0. -1.
         -5    1    5    5    0  503  0.55310632211E+01 -0.46656663300E+02 -0.23199167715E+01  0.47274823156E+02  0.47000000000E+01 0. -1.
<mgrwt>
<rscale>  0 0.27410142E+03</rscale>
<asrwt>0</asrwt>
<pdfrwt beam="1">  1        2 0.82045859E-01 0.27410142E+03</pdfrwt>
<pdfrwt beam="2">  1       -2 0.54185015E-02 0.27410142E+03</pdfrwt>
<totfact> 0.99588026E+03</totfact>
</mgrwt>
</event>
<event>
 9    1  0.2065703E-002  0.2747216E+03  0.7818608E-02  0.1098607E+00
          1   -1    0    0  501    0  0.00000000000E+00  0.00000000000E+00  0.15468244802E+03  0.15468244802E+03  0.00000000000E+00 0.  1.
         -1   -1    0    0    0  501 -0.00000000000E+00 -0.00000000000E+00 -0.12197886820E+03  0.12197886820E+03  0.00000000000E+00 0.  1.
         36    2    1    2    0    0  0.00000000000E+00  0.00000000000E+00  0.32703579822E+02  0.27666131622E+03  0.27472160410E+03 0.  0.
         25    2    3    3    0    0 -0.38470503618E+02  0.46277279490E+01 -0.25459884228E+02  0.13178116591E+03  0.12335588542E+03 0.  0.
         25    2    3    3    0    0  0.38470503618E+02 -0.46277279490E+01  0.58163464050E+02  0.14488015031E+03  0.12690891966E+03 0.  0.
          5    1    4    4  502    0 -0.97218707963E+00 -0.56576106576E+02 -0.50131137127E+01  0.57000195544E+02  0.47000000000E+01 0. -1.
         -5    1    4    4    0  502 -0.37498316538E+02  0.61203834525E+02 -0.20446770515E+02  0.74780970361E+02  0.47000000000E+01 0. -1.
          5    1    5    5  503    0 -0.45402245955E+02 -0.91719592163E+01  0.33013058636E+02  0.57073994202E+02  0.47000000000E+01 0. -1.
         -5    1    5    5    0  503  0.83872749573E+02  0.45442312673E+01  0.25150405413E+02  0.87806156112E+02  0.47000000000E+01 0. -1.
<mgrwt>
<rscale>  0 0.27472160E+03</rscale>
<asrwt>0</asrwt>
<pdfrwt beam="1">  1        1 0.23797300E-01 0.27472160E+03</pdfrwt>
<pdfrwt beam="2">  1       -1 0.18765980E-01 0.27472160E+03</pdfrwt>
<totfact> 0.45323256E+03</totfact>
</mgrwt>
</event>
<event>
 9    1  0.2065703E-002  0.2750584E+03  0.7818608E-02  0.1098419E+00
         -2   -1    0    0    0  501 -0.00000000000E+00  0.00000000000E+00  0.15675872426E+02  0.15675872426E+02  0.00000000000E+00 0.  1.
          2   -1    0    0  501    0  0.00000000000E+00 -0.00000000000E+00 -0.12065855577E+04  0.12065855577E+04  0.00000000000E+00 0.  1.
         36    2    1    2    0    0  0.00000000000E+00  0.00000000000E+00 -0.11909096852E+04  0.12222614301E+04  0.27505840306E+03 0.  0.
         25    2    3    3    0    0  0.62067145833E+02  0.12793950222E+02 -0.63009294184E+03  0.64448914490E+03  0.11972103732E+03 0.  0.
         25    2    3    3    0    0 -0.62067145833E+02 -0.12793950222E+02 -0.56081674340E+03  0.57777228520E+03  0.12365022488E+03 0.  0.
          5    1    4    4  502    0 -0.17611686272E+02  0.23320791688E+02 -0.44864022870E+02  0.53748501062E+02  0.47000000000E+01 0. -1.
         -5    1    4    4    0  502  0.79678832105E+02 -0.10526841466E+02 -0.58522891897E+03  0.59074064384E+03  0.47000000000E+01 0. -1.
          5    1    5    5  503    0 -0.69319602892E+02 -0.95443851296E+01 -0.56374158767E+03  0.56808711506E+03  0.47000000000E+01 0. -1.
         -5    1    5    5    0  503  0.72524570598E+01 -0.32495650926E+01  0.29248442637E+01  0.96851701411E+01  0.47000000000E+01 0. -1.
<mgrwt>
<rscale>  0 0.27505840E+03</rscale>
<asrwt>0</asrwt>
<pdfrwt beam="1">  1        2 0.18562851E+00 0.27505840E+03</pdfrwt>
<pdfrwt beam="2">  1       -2 0.24116731E-02 0.27505840E+03</pdfrwt>
<totfact> 0.11597021E+04</totfact>
</mgrwt>
</event>
<event>
 9    1  0.2065703E-002  0.2748968E+03  0.7818608E-02  0.1098509E+00
         -2   -1    0    0    0  501 -0.00000000000E+00  0.00000000000E+00  0.27512179956E+02  0.27512179956E+02  0.00000000000E+00 0. -1.
          2   -1    0    0  501    0  0.00000000000E+00 -0.00000000000E+00 -0.68667974960E+03  0.68667974960E+03  0.00000000000E+00 0. -1.
         36    2    1    2    0    0  0.00000000000E+00  0.00000000000E+00 -0.65916756965E+03  0.71419192956E+03  0.27489675766E+03 0.  0.
         25    2    3    3    0    0  0.46606666745E+02 -0.27313138383E+02 -0.33875954645E+03  0.36534209414E+03  0.12569258738E+03 0.  0.
         25    2    3    3    0    0 -0.46606666745E+02  0.27313138383E+02 -0.32040802319E+03  0.34884983542E+03  0.12695163423E+03 0.  0.
          5    1    4    4  502    0  0.51422113350E+01 -0.49451412387E+02 -0.43201803164E+02  0.66033100194E+02  0.47000000000E+01 0.  1.
         -5    1    4    4    0  502  0.41464455410E+02  0.22138274004E+02 -0.29555774329E+03  0.29930899394E+03  0.47000000000E+01 0.  1.
          5    1    5    5  503    0  0.12002553283E+02 -0.16480371817E+02 -0.79678683065E+00  0.20937736501E+02  0.47000000000E+01 0.  1.
         -5    1    5    5    0  503 -0.58609220028E+02  0.43793510200E+02 -0.31961123636E+03  0.32791209892E+03  0.47000000000E+01 0.  1.
<mgrwt>
<rscale>  0 0.27489676E+03</rscale>
<asrwt>0</asrwt>
<pdfrwt beam="1">  1        2 0.10564306E+00 0.27489676E+03</pdfrwt>
<pdfrwt beam="2">  1       -2 0.42326423E-02 0.27489676E+03</pdfrwt>
<totfact> 0.10788787E+04</totfact>
</mgrwt>
</event>
<event>
 9    1  0.2065703E-002  0.2742810E+03  0.7818608E-02  0.1098854E+00
          1   -1    0    0  501    0  0.00000000000E+00  0.00000000000E+00  0.11812696293E+04  0.11812696293E+04  0.00000000000E+00 0.  1.
         -1   -1    0    0    0  501 -0.00000000000E+00 -0.00000000000E+00 -0.15921437286E+02  0.15921437286E+02  0.00000000000E+00 0.  1.
         36    2    1    2    0    0 -0.35527136788E-14  0.00000000000E+00  0.11653481920E+04  0.11971910666E+04  0.27428095319E+03 0.  0.
         25    2    3    3    0    0 -0.23625100652E+02  0.57935601674E+02  0.51678085937E+03  0.53565883362E+03  0.12630617600E+03 0.  0.
         25    2    3    3    0    0  0.23625100652E+02 -0.57935601674E+02  0.64856733263E+03  0.66153223296E+03  0.11432686021E+03 0.  0.
          5    1    4    4  502    0  0.49413991195E+02  0.18813898739E+02  0.13718510724E+03  0.14709707325E+03  0.47000000000E+01 0.  1.
         -5    1    4    4    0  502 -0.73039091846E+02  0.39121702935E+02  0.37959575214E+03  0.38856176037E+03  0.47000000000E+01 0.  1.
          5    1    5    5  503    0 -0.10699864971E+02 -0.85194533717E+02  0.44782748398E+03  0.45600892655E+03  0.47000000000E+01 0.  1.
         -5    1    5    5    0  503  0.34324965622E+02  0.27258932043E+02  0.20073984866E+03  0.20552330641E+03  0.47000000000E+01 0.  1.
<mgrwt>
<rscale>  0 0.27428095E+03</rscale>
<asrwt>0</asrwt>
<pdfrwt beam="1">  1        1 0.18173372E+00 0.27428095E+03</pdfrwt>
<pdfrwt beam="2">  1       -1 0.24494528E-02 0.27428095E+03</pdfrwt>
<totfact> 0.60056249E+03</totfact>
</mgrwt>
</event>
<event>
 9    1  0.2065703E-002  0.2775222E+03  0.7818608E-02  0.1097050E+00
          1   -1    0    0  501    0  0.00000000000E+00  0.00000000000E+00  0.10295229801E+04  0.10295229801E+04  0.00000000000E+00 0. -1.
         -1   -1    0    0    0  501 -0.00000000000E+00 -0.00000000000E+00 -0.18702488892E+02  0.18702488892E+02  0.00000000000E+00 0. -1.
         36    2    1    2    0    0  0.00000000000E+00  0.00000000000E+00  0.10108204913E+04  0.10482254690E+04  0.27752219443E+03 0.  0.
         25    2    3    3    0    0  0.44478177798E+02 -0.25773577426E+02  0.66358426530E+03  0.67718284231E+03  0.12485967794E+03 0.  0.
         25    2    3    3    0    0 -0.44478177798E+02  0.25773577426E+02  0.34723622596E+03  0.37104262673E+03  0.12023746770E+03 0.  0.
          5    1    4    4  502    0 -0.44759526046E+01  0.46525435736E+02  0.20209437633E+03  0.20748223361E+03  0.47000000000E+01 0. -1.
         -5    1    4    4    0  502  0.48954130402E+02 -0.72299013162E+02  0.46148988897E+03  0.46970060870E+03  0.47000000000E+01 0. -1.
          5    1    5    5  503    0 -0.23957557381E+02 -0.47962395325E+02  0.15493770194E+03  0.16401871053E+03  0.47000000000E+01 0.  1.
         -5    1    5    5    0  503 -0.20520620417E+02  0.73735972751E+02  0.19229852401E+03  0.20702391620E+03  0.47000000000E+01 0.  1.
<mgrwt>
<rscale>  0 0.27752219E+03</rscale>
<asrwt>0</asrwt>
<pdfrwt beam="1">  1        1 0.15838811E+00 0.27752219E+03</pdfrwt>
<pdfrwt beam="2">  1       -1 0.28773068E-02 0.27752219E+03</pdfrwt>
<totfact> 0.60964956E+03</totfact>
</mgrwt>
</event>
<event>
 9    1  0.2065703E-002  0.2740725E+03  0.7818608E-02  0.1098971E+00
         -1   -1    0    0    0  501 -0.00000000000E+00  0.00000000000E+00  0.19169609696E+03  0.19169609696E+03  0.00000000000E+00 0. -1.
          1   -1    0    0  501    0  0.00000000000E+00 -0.00000000000E+00 -0.97961980368E+02  0.97961980368E+02  0.00000000000E+00 0. -1.
         36    2    1    2    0    0  0.71054273576E-14  0.00000000000E+00  0.93734116595E+02  0.28965807733E+03  0.27407246697E+03 0.  0.
         25    2    3    3    0    0  0.39975257665E+02  0.11839627099E+02  0.83831879814E+02  0.15515802057E+03  0.12372562094E+03 0.  0.
         25    2    3    3    0    0 -0.39975257665E+02 -0.11839627099E+02  0.99022367811E+01  0.13450005676E+03  0.12749122707E+03 0.  0.
          5    1    4    4  502    0 -0.22574064739E+02 -0.40491408717E+02  0.16954486050E+02  0.49585150760E+02  0.47000000000E+01 0.  1.
         -5    1    4    4    0  502  0.62549322404E+02  0.52331035816E+02  0.66877393764E+02  0.10557286981E+03  0.47000000000E+01 0.  1.
          5    1    5    5  503    0  0.30160123639E+02  0.27772005673E+02 -0.23138335053E+02  0.47311625485E+02  0.47000000000E+01 0.  1.
         -5    1    5    5    0  503 -0.70135381304E+02 -0.39611632772E+02  0.33040571834E+02  0.87188431277E+02  0.47000000000E+01 0.  1.
<mgrwt>
<rscale>  0 0.27407247E+03</rscale>
<asrwt>0</asrwt>
<pdfrwt beam="1">  1        1 0.15071074E-01 0.27407247E+03</pdfrwt>
<pdfrwt beam="2">  1       -1 0.29491707E-01 0.27407247E+03</pdfrwt>
<totfact> 0.38740766E+03</totfact>
</mgrwt>
</event>
<event>
 9    1  0.2065703E-002  0.2750393E+03  0.7818608E-02  0.1098430E+00
          1   -1    0    0  501    0  0.00000000000E+00  0.00000000000E+00  0.87472725150E+03  0.87472725150E+03  0.00000000000E+00 0. -1.
         -1   -1    0    0    0  501 -0.00000000000E+00 -0.00000000000E+00 -0.21620058503E+02  0.21620058503E+02  0.00000000000E+00 0. -1.
         36    2    1    2    0    0  0.71054273576E-14  0.00000000000E+00  0.85310719299E+03  0.89634731000E+03  0.27503930157E+03 0.  0.
         25    2    3    3    0    0  0.51625881800E+02 -0.20684150514E+02  0.47156542752E+03  0.49185740591E+03  0.12828362939E+03 0.  0.
         25    2    3    3    0    0 -0.51625881800E+02  0.20684150514E+02  0.38154176547E+03  0.40448990408E+03  0.12224932699E+03 0.  0.
          5    1    4    4  502    0  0.34973324903E+02  0.48936741520E+02  0.29807915730E+03  0.30412367902E+03  0.47000000000E+01 0.  1.
         -5    1    4    4    0  502  0.16652556896E+02 -0.69620892033E+02  0.17348627022E+03  0.18773372689E+03  0.47000000000E+01 0.  1.
          5    1    5    5  503    0 -0.71500560095E+02  0.57420493319E+02  0.24588661641E+03  0.26247240098E+03  0.47000000000E+01 0. -1.
         -5    1    5    5    0  503  0.19874678296E+02 -0.36736342805E+02  0.13565514907E+03  0.14201750311E+03  0.47000000000E+01 0. -1.
<mgrwt>
<rscale>  0 0.27503930E+03</rscale>
<asrwt>0</asrwt>
<pdfrwt beam="1">  1        1 0.13457340E+00 0.27503930E+03</pdfrwt>
<pdfrwt beam="2">  1       -1 0.33261635E-02 0.27503930E+03</pdfrwt>
<totfact> 0.64657682E+03</totfact>
</mgrwt>
</event>
<event>
 9    1  0.2065703E-002  0.2754848E+03  0.7818608E-02  0.1098181E+00
          1   -1    0    0  501    0  0.00000000000E+00  0.00000000000E+00  0.73796773179E+02  0.73796773179E+02  0.00000000000E+00 0.  1.
         -1   -1    0    0    0  501 -0.00000000000E+00 -0.00000000000E+00 -0.25709744948E+03  0.25709744948E+03  0.00000000000E+00 0.  1.
         36    2    1    2    0    0  0.00000000000E+00  0.14210854715E-13 -0.18330067631E+03  0.33089422266E+03  0.27548475213E+03 0.  0.
         25    2    3    3    0    0 -0.48038906799E+02  0.11158140701E+02 -0.48948680128E+02  0.14165390302E+03  0.12344073187E+03 0.  0.
         25    2    3    3    0    0  0.48038906799E+02 -0.11158140701E+02 -0.13435199618E+03  0.18924031965E+03  0.12381114260E+03 0.  0.
          5    1    4    4  502    0 -0.46113632916E+02  0.64454007767E+02 -0.29199527875E+02  0.84590121681E+02  0.47000000000E+01 0.  1.
         -5    1    4    4    0  502 -0.19252738835E+01 -0.53295867066E+02 -0.19749152254E+02  0.57063781338E+02  0.47000000000E+01 0.  1.
          5    1    5    5  503    0  0.20911820340E+02  0.33896862738E+02 -0.13024542608E+03  0.13628008860E+03  0.47000000000E+01 0.  1.
         -5    1    5    5    0  503  0.27127086459E+02 -0.45055003439E+02 -0.41065700976E+01  0.52960231048E+02  0.47000000000E+01 0.  1.
<mgrwt>
<rscale>  0 0.27548475E+03</rscale>
<asrwt>0</asrwt>
<pdfrwt beam="1">  1        1 0.11353350E-01 0.27548475E+03</pdfrwt>
<pdfrwt beam="2">  1       -1 0.39553454E-01 0.27548475E+03</pdfrwt>
<totfact> 0.33895681E+03</totfact>
</mgrwt>
</event>
<event>
 9    1  0.2065703E-002  0.2752565E+03  0.7818608E-02  0.1098308E+00
          2   -1    0    0  501    0  0.00000000000E+00  0.00000000000E+00  0.35703159564E+03  0.35703159564E+03  0.00000000000E+00 0.  1.
         -2   -1    0    0    0  501 -0.00000000000E+00 -0.00000000000E+00 -0.53052812184E+02  0.53052812184E+02  0.00000000000E+00 0.  1.
         36    2    1    2    0    0  0.71054273576E-14 -0.35527136788E-14  0.30397878346E+03  0.41008440783E+03  0.27525646359E+03 0.  0.
         25    2    3    3    0    0 -0.41463357529E+02  0.12238941965E+00  0.10099585899E+03  0.16791052117E+03  0.12757176250E+03 0.  0.
         25    2    3    3    0    0  0.41463357529E+02 -0.12238941965E+00  0.20298292447E+03  0.24217388666E+03  0.12540693266E+03 0.  0.
          5    1    4    4  502    0  0.43648563639E+02  0.16181462711E+02  0.43170902847E+02  0.63662027110E+02  0.47000000000E+01 0. -1.
         -5    1    4    4    0  502 -0.85111921167E+02 -0.16059073291E+02  0.57824956144E+02  0.10424849406E+03  0.47000000000E+01 0. -1.
          5    1    5    5  503    0 -0.53696449698E+01 -0.55613616384E+02  0.62499066079E+02  0.83963865294E+02  0.47000000000E+01 0. -1.
         -5    1    5    5    0  503  0.46833002499E+02  0.55491226964E+02  0.14048385839E+03  0.15821002137E+03  0.47000000000E+01 0. -1.
<mgrwt>
<rscale>  0 0.27525646E+03</rscale>
<asrwt>0</asrwt>
<pdfrwt beam="1">  1        2 0.54927936E-01 0.27525646E+03</pdfrwt>
<pdfrwt beam="2">  1       -2 0.81619713E-02 0.27525646E+03</pdfrwt>
<totfact> 0.82266759E+03</totfact>
</mgrwt>
</event>
<event>
 9    1  0.2065703E-002  0.2749731E+03  0.7818608E-02  0.1098467E+00
          1   -1    0    0  501    0  0.00000000000E+00  0.00000000000E+00  0.12308902528E+04  0.12308902528E+04  0.00000000000E+00 0.  1.
         -1   -1    0    0    0  501 -0.00000000000E+00 -0.00000000000E+00 -0.15356813967E+02  0.15356813967E+02  0.00000000000E+00 0.  1.
         36    2    1    2    0    0 -0.35527136788E-14  0.00000000000E+00  0.12155334389E+04  0.12462470668E+04  0.27497310870E+03 0.  0.
         25    2    3    3    0    0 -0.82001855359E+01  0.37294343840E+02  0.38003445560E+03  0.40073306086E+03  0.12125463909E+03 0.  0.
         25    2    3    3    0    0  0.82001855359E+01 -0.37294343840E+02  0.83549898325E+03  0.84551400592E+03  0.12400512921E+03 0.  0.
          5    1    4    4  502    0 -0.28299000012E+01  0.80883447343E+02  0.21144523731E+03  0.22645378947E+03  0.47000000000E+01 0. -1.
         -5    1    4    4    0  502 -0.53702855347E+01 -0.43589103503E+02  0.16858921829E+03  0.17427927139E+03  0.47000000000E+01 0. -1.
          5    1    5    5  503    0 -0.46787386964E+02 -0.34650973137E+02  0.63049952382E+03  0.63319940702E+03  0.47000000000E+01 0. -1.
         -5    1    5    5    0  503  0.54987572500E+02 -0.26433707023E+01  0.20499945944E+03  0.21231459890E+03  0.47000000000E+01 0. -1.
<mgrwt>
<rscale>  0 0.27497311E+03</rscale>
<asrwt>0</asrwt>
<pdfrwt beam="1">  1        1 0.18936765E+00 0.27497311E+03</pdfrwt>
<pdfrwt beam="2">  1       -1 0.23625877E-02 0.27497311E+03</pdfrwt>
<totfact> 0.58469001E+03</totfact>
</mgrwt>
</event>
<event>
 9    1  0.2065703E-002  0.2746460E+03  0.7818608E-02  0.1098650E+00
          1   -1    0    0  501    0  0.00000000000E+00  0.00000000000E+00  0.44775433882E+02  0.44775433882E+02  0.00000000000E+00 0.  1.
         -1   -1    0    0    0  501 -0.00000000000E+00 -0.00000000000E+00 -0.42115965201E+03  0.42115965201E+03  0.00000000000E+00 0.  1.
         36    2    1    2    0    0 -0.53290705182E-14  0.44408920985E-14 -0.37638421813E+03  0.46593508589E+03  0.27464599871E+03 0.  0.
         25    2    3    3    0    0 -0.96377787298E+01 -0.73015234463E+01 -0.28838925482E+03  0.31394080927E+03  0.12346768972E+03 0.  0.
         25    2    3    3    0    0  0.96377787298E+01  0.73015234463E+01 -0.87994963309E+02  0.15199427662E+03  0.12334077807E+03 0.  0.
          5    1    4    4  502    0  0.56741234850E+02 -0.56754014796E+01 -0.12292775719E+03  0.13559167158E+03  0.47000000000E+01 0.  1.
         -5    1    4    4    0  502 -0.66379013579E+02 -0.16261219668E+01 -0.16546149762E+03  0.17834913768E+03  0.47000000000E+01 0.  1.
          5    1    5    5  503    0 -0.36048782380E+01 -0.37185245439E+02 -0.97379986000E+02  0.10440636618E+03  0.47000000000E+01 0. -1.
         -5    1    5    5    0  503  0.13242656968E+02  0.44486768885E+02  0.93850226911E+01  0.47587910443E+02  0.47000000000E+01 0. -1.
<mgrwt>
<rscale>  0 0.27464600E+03</rscale>
<asrwt>0</asrwt>
<pdfrwt beam="1">  1        1 0.68885285E-02 0.27464600E+03</pdfrwt>
<pdfrwt beam="2">  1       -1 0.64793791E-01 0.27464600E+03</pdfrwt>
<totfact> 0.26629128E+03</totfact>
</mgrwt>
</event>
<event>
 9    1  0.2065703E-002  0.2778544E+03  0.7818608E-02  0.1096867E+00
         -3   -1    0    0    0  501 -0.00000000000E+00  0.00000000000E+00  0.21707959621E+03  0.21707959621E+03  0.00000000000E+00 0. -1.
          3   -1    0    0  501    0  0.00000000000E+00 -0.00000000000E+00 -0.88910983481E+02  0.88910983481E+02  0.00000000000E+00 0. -1.
         36    2    1    2    0    0  0.00000000000E+00  0.00000000000E+00  0.12816861273E+03  0.30599057969E+03  0.27785435316E+03 0.  0.
         25    2    3    3    0    0 -0.27154898965E+02  0.33290560681E+02  0.33358459834E+02  0.13730670821E+03  0.12607416591E+03 0.  0.
         25    2    3    3    0    0  0.27154898965E+02 -0.33290560681E+02  0.94810152892E+02  0.16868387148E+03  0.13273896729E+03 0.  0.
          5    1    4    4  502    0  0.10347829254E+02  0.30899113626E+02  0.74462232413E+02  0.81415888186E+02  0.47000000000E+01 0. -1.
         -5    1    4    4    0  502 -0.37502728220E+02  0.23914470544E+01 -0.41103772580E+02  0.55890820026E+02  0.47000000000E+01 0. -1.
          5    1    5    5  503    0 -0.42038291136E+02  0.20365514345E+02  0.12889074730E+02  0.48684600682E+02  0.47000000000E+01 0.  1.
         -5    1    5    5    0  503  0.69193190101E+02 -0.53656075026E+02  0.81921078163E+02  0.11999927079E+03  0.47000000000E+01 0.  1.
<mgrwt>
<rscale>  0 0.27785435E+03</rscale>
<asrwt>0</asrwt>
<pdfrwt beam="1">  1        3 0.13678613E-01 0.27785435E+03</pdfrwt>
<pdfrwt beam="2">  1       -3 0.33396861E-01 0.27785435E+03</pdfrwt>
<totfact> 0.97162942E+02</totfact>
</mgrwt>
</event>
<event>
 9    1  0.2065703E-002  0.2737613E+03  0.7818608E-02  0.1099146E+00
         -4   -1    0    0    0  501 -0.00000000000E+00  0.00000000000E+00  0.40768634723E+02  0.40768634723E+02  0.00000000000E+00 0.  1.
          4   -1    0    0  501    0  0.00000000000E+00 -0.00000000000E+00 -0.45957680315E+03  0.45957680315E+03  0.00000000000E+00 0.  1.
         36    2    1    2    0    0  0.00000000000E+00  0.71054273576E-14 -0.41880816842E+03  0.50034543787E+03  0.27376134727E+03 0.  0.
         25    2    3    3    0    0  0.38569894673E+02  0.34086409476E+02 -0.23820510264E+03  0.27357901924E+03  0.12431527965E+03 0.  0.
         25    2    3    3    0    0 -0.38569894673E+02 -0.34086409476E+02 -0.18060306578E+03  0.22676641863E+03  0.12710633802E+03 0.  0.
          5    1    4    4  502    0  0.14866665207E+02  0.80323720331E+02 -0.13312130967E+03  0.15625713063E+03  0.47000000000E+01 0. -1.
         -5    1    4    4    0  502  0.23703229466E+02 -0.46237310855E+02 -0.10508379297E+03  0.11732188861E+03  0.47000000000E+01 0. -1.
          5    1    5    5  503    0 -0.48503627919E+01 -0.79817517042E+02 -0.10731443387E+03  0.13391355332E+03  0.47000000000E+01 0.  1.
         -5    1    5    5    0  503 -0.33719531881E+02  0.45731107566E+02 -0.73288631910E+02  0.92852865313E+02  0.47000000000E+01 0.  1.
<mgrwt>
<rscale>  0 0.27376135E+03</rscale>
<asrwt>0</asrwt>
<pdfrwt beam="1">  1        4 0.70704121E-01 0.27376135E+03</pdfrwt>
<pdfrwt beam="2">  1       -4 0.62720979E-02 0.27376135E+03</pdfrwt>
<totfact> 0.57655327E+02</totfact>
</mgrwt>
</event>
<event>
 9    1  0.2065703E-002  0.2747804E+03  0.7818608E-02  0.1098574E+00
          1   -1    0    0  501    0  0.00000000000E+00  0.00000000000E+00  0.70214836178E+02  0.70214836178E+02  0.00000000000E+00 0. -1.
         -1   -1    0    0    0  501 -0.00000000000E+00 -0.00000000000E+00 -0.26883298559E+03  0.26883298559E+03  0.00000000000E+00 0. -1.
         36    2    1    2    0    0  0.71054273576E-14  0.35527136788E-14 -0.19861814941E+03  0.33904782177E+03  0.27478037807E+03 0.  0.
         25    2    3    3    0    0 -0.24723323523E+02 -0.18282177464E+02 -0.75597610841E+02  0.16294862585E+03  0.14103820462E+03 0.  0.
         25    2    3    3    0    0  0.24723323523E+02  0.18282177464E+02 -0.12302053857E+03  0.17609919592E+03  0.12219407987E+03 0.  0.
          5    1    4    4  502    0 -0.22197117293E+02 -0.12470780544E+02  0.39691864614E+02  0.47389518883E+02  0.47000000000E+01 0.  1.
         -5    1    4    4    0  502 -0.25262062301E+01 -0.58113969201E+01 -0.11528947545E+03  0.11555910697E+03  0.47000000000E+01 0.  1.
          5    1    5    5  503    0 -0.39558060863E+02 -0.17254803363E+02 -0.16114036129E+02  0.46306809204E+02  0.47000000000E+01 0. -1.
         -5    1    5    5    0  503  0.64281384386E+02  0.35536980827E+02 -0.10690650244E+03  0.12979238672E+03  0.47000000000E+01 0. -1.
<mgrwt>
<rscale>  0 0.27478038E+03</rscale>
<asrwt>0</asrwt>
<pdfrwt beam="1">  1        1 0.10802282E-01 0.27478038E+03</pdfrwt>
<pdfrwt beam="2">  1       -1 0.41358921E-01 0.27478038E+03</pdfrwt>
<totfact> 0.33458512E+03</totfact>
</mgrwt>
</event>
<event>
 9    1  0.2065703E-002  0.2736294E+03  0.7818608E-02  0.1099220E+00
          2   -1    0    0  501    0  0.00000000000E+00  0.00000000000E+00  0.95778343780E+02  0.95778343780E+02  0.00000000000E+00 0. -1.
         -2   -1    0    0    0  501 -0.00000000000E+00 -0.00000000000E+00 -0.19543315044E+03  0.19543315044E+03  0.00000000000E+00 0. -1.
         36    2    1    2    0    0  0.00000000000E+00 -0.71054273576E-14 -0.99654806657E+02  0.29121149422E+03  0.27362940974E+03 0.  0.
         25    2    3    3    0    0 -0.38101648470E+02  0.40074477347E+02 -0.49461692172E+02  0.14647022941E+03  0.12629081424E+03 0.  0.
         25    2    3    3    0    0  0.38101648470E+02 -0.40074477347E+02 -0.50193114485E+02  0.14474126481E+03  0.12398784475E+03 0.  0.
          5    1    4    4  502    0 -0.28691329841E+02 -0.38927915429E+02  0.65934811804E+01  0.49032020168E+02  0.47000000000E+01 0. -1.
         -5    1    4    4    0  502 -0.94103186294E+01  0.79002392776E+02 -0.56055173352E+02  0.97438209243E+02  0.47000000000E+01 0. -1.
          5    1    5    5  503    0 -0.21948990962E+02  0.19501673343E+02  0.19058845377E+02  0.35318593609E+02  0.47000000000E+01 0.  1.
         -5    1    5    5    0  503  0.60050639432E+02 -0.59576150689E+02 -0.69251959862E+02  0.10942267120E+03  0.47000000000E+01 0.  1.
<mgrwt>
<rscale>  0 0.27362941E+03</rscale>
<asrwt>0</asrwt>
<pdfrwt beam="1">  1        2 0.14735130E-01 0.27362941E+03</pdfrwt>
<pdfrwt beam="2">  1       -2 0.30066638E-01 0.27362941E+03</pdfrwt>
<totfact> 0.40312093E+03</totfact>
</mgrwt>
</event>
<event>
 9    1  0.2065703E-002  0.2746542E+03  0.7818608E-02  0.1098645E+00
         -3   -1    0    0    0  501 -0.00000000000E+00  0.00000000000E+00  0.39716523064E+03  0.39716523064E+03  0.00000000000E+00 0.  1.
          3   -1    0    0  501    0  0.00000000000E+00 -0.00000000000E+00 -0.47483355283E+02  0.47483355283E+02  0.00000000000E+00 0.  1.
         36    2    1    2    0    0 -0.35527136788E-14  0.00000000000E+00  0.34968187535E+03  0.44464858592E+03  0.27465423902E+03 0.  0.
         25    2    3    3    0    0 -0.17746260591E+01  0.56621977152E+02  0.16076968327E+03  0.21015854869E+03  0.12292488331E+03 0.  0.
         25    2    3    3    0    0  0.17746260591E+01 -0.56621977152E+02  0.18891219209E+03  0.23449003723E+03  0.12684070185E+03 0.  0.
          5    1    4    4  502    0  0.29105520835E+02 -0.23957843744E+01  0.13561529936E+03  0.13880371229E+03  0.47000000000E+01 0. -1.
         -5    1    4    4    0  502 -0.30880146894E+02  0.59017761526E+02  0.25154383907E+02  0.71354836399E+02  0.47000000000E+01 0. -1.
          5    1    5    5  503    0 -0.60547391825E+02 -0.25463912544E+02  0.11693327740E+03  0.13420088995E+03  0.47000000000E+01 0. -1.
         -5    1    5    5    0  503  0.62322017884E+02 -0.31158064607E+02  0.71978914687E+02  0.10028914728E+03  0.47000000000E+01 0. -1.
<mgrwt>
<rscale>  0 0.27465424E+03</rscale>
<asrwt>0</asrwt>
<pdfrwt beam="1">  1        3 0.73051318E-02 0.27465424E+03</pdfrwt>
<pdfrwt beam="2">  1       -3 0.61102341E-01 0.27465424E+03</pdfrwt>
<totfact> 0.83342073E+02</totfact>
</mgrwt>
</event>
<event>
 9    1  0.2065703E-002  0.2745858E+03  0.7818608E-02  0.1098683E+00
          2   -1    0    0  501    0  0.00000000000E+00  0.00000000000E+00  0.14462480217E+04  0.14462480217E+04  0.00000000000E+00 0. -1.
         -2   -1    0    0    0  501 -0.00000000000E+00 -0.00000000000E+00 -0.13033271666E+02  0.13033271666E+02  0.00000000000E+00 0. -1.
         36    2    1    2    0    0 -0.35527136788E-14  0.35527136788E-14  0.14332147501E+04  0.14592812934E+04  0.27458582166E+03 0.  0.
         25    2    3    3    0    0  0.27462120463E+02  0.62486113211E+01  0.51912756410E+03  0.53588240139E+03  0.12993578070E+03 0.  0.
         25    2    3    3    0    0 -0.27462120463E+02 -0.62486113211E+01  0.91408718597E+03  0.92339889201E+03  0.12773768831E+03 0.  0.
          5    1    4    4  502    0 -0.21391618645E+02  0.50621059157E+02  0.34918323973E+03  0.35351254276E+03  0.47000000000E+01 0. -1.
         -5    1    4    4    0  502  0.48853739108E+02 -0.44372447836E+02  0.16994432438E+03  0.18236985864E+03  0.47000000000E+01 0. -1.
          5    1    5    5  503    0 -0.24691774685E+02 -0.37897142966E+02  0.85449180132E+03  0.85570100252E+03  0.47000000000E+01 0.  1.
         -5    1    5    5    0  503 -0.27703457779E+01  0.31648531645E+02  0.59595384650E+02  0.67697889498E+02  0.47000000000E+01 0.  1.
<mgrwt>
<rscale>  0 0.27458582E+03</rscale>
<asrwt>0</asrwt>
<pdfrwt beam="1">  1        2 0.22249957E+00 0.27458582E+03</pdfrwt>
<pdfrwt beam="2">  1       -2 0.20051199E-02 0.27458582E+03</pdfrwt>
<totfact> 0.11230815E+04</totfact>
</mgrwt>
</event>
<event>
 9    1  0.2065703E-002  0.2755097E+03  0.7818608E-02  0.1098167E+00
         -1   -1    0    0    0  501 -0.00000000000E+00  0.00000000000E+00  0.16176810890E+03  0.16176810890E+03  0.00000000000E+00 0. -1.
          1   -1    0    0  501    0  0.00000000000E+00 -0.00000000000E+00 -0.11730615159E+03  0.11730615159E+03  0.00000000000E+00 0. -1.
         36    2    1    2    0    0  0.00000000000E+00  0.71054273576E-14  0.44461957312E+02  0.27907426048E+03  0.27550966810E+03 0.  0.
         25    2    3    3    0    0 -0.54830498213E+01 -0.50549471830E+02 -0.26027414521E+01  0.13608659048E+03  0.12620409227E+03 0.  0.
         25    2    3    3    0    0  0.54830498213E+01  0.50549471830E+02  0.47064698764E+02  0.14298767001E+03  0.12508027409E+03 0.  0.
          5    1    4    4  502    0  0.31501584940E+02  0.28341798063E+02 -0.20031771900E+02  0.47105936533E+02  0.47000000000E+01 0. -1.
         -5    1    4    4    0  502 -0.36984634761E+02 -0.78891269893E+02  0.17429030448E+02  0.88980653943E+02  0.47000000000E+01 0. -1.
          5    1    5    5  503    0 -0.18338152574E+02  0.31206090907E+02 -0.37846841776E+02  0.52579286625E+02  0.47000000000E+01 0.  1.
         -5    1    5    5    0  503  0.23821202396E+02  0.19343380923E+02  0.84911540540E+02  0.90408383383E+02  0.47000000000E+01 0.  1.
<mgrwt>
<rscale>  0 0.27550967E+03</rscale>
<asrwt>0</asrwt>
<pdfrwt beam="1">  1        1 0.18047100E-01 0.27550967E+03</pdfrwt>
<pdfrwt beam="2">  1       -1 0.24887401E-01 0.27550967E+03</pdfrwt>
<totfact> 0.40733970E+03</totfact>
</mgrwt>
</event>
<event>
 9    1  0.2065703E-002  0.2726883E+03  0.7818608E-02  0.1099751E+00
          1   -1    0    0  501    0  0.00000000000E+00  0.00000000000E+00  0.43109974133E+03  0.43109974133E+03  0.00000000000E+00 0. -1.
         -1   -1    0    0    0  501 -0.00000000000E+00 -0.00000000000E+00 -0.43121633287E+02  0.43121633287E+02  0.00000000000E+00 0. -1.
         36    2    1    2    0    0  0.35527136788E-14  0.00000000000E+00  0.38797810804E+03  0.47422137462E+03  0.27268828325E+03 0.  0.
         25    2    3    3    0    0 -0.27928163955E+02 -0.34599712187E+02  0.24545386996E+03  0.27837002499E+03  0.12355219994E+03 0.  0.
         25    2    3    3    0    0  0.27928163955E+02  0.34599712187E+02  0.14252423808E+03  0.19585134963E+03  0.12675752555E+03 0.  0.
          5    1    4    4  502    0  0.12903128993E+02 -0.27411516031E+02  0.23274082752E+03  0.23475149572E+03  0.47000000000E+01 0.  1.
         -5    1    4    4    0  502 -0.40831292948E+02 -0.71881961562E+01  0.12713042444E+02  0.43618529274E+02  0.47000000000E+01 0.  1.
          5    1    5    5  503    0 -0.46915055554E+02  0.26277849604E+02  0.86159635935E+02  0.10167163165E+03  0.47000000000E+01 0. -1.
         -5    1    5    5    0  503  0.74843219509E+02  0.83218625836E+01  0.56364602149E+02  0.94179717980E+02  0.47000000000E+01 0. -1.
<mgrwt>
<rscale>  0 0.27268828E+03</rscale>
<asrwt>0</asrwt>
<pdfrwt beam="1">  1        1 0.66323034E-01 0.27268828E+03</pdfrwt>
<pdfrwt beam="2">  1       -1 0.66340977E-02 0.27268828E+03</pdfrwt>
<totfact> 0.62655573E+03</totfact>
</mgrwt>
</event>
<event>
 9    1  0.2065703E-002  0.2753798E+03  0.7818608E-02  0.1098239E+00
          3   -1    0    0  501    0  0.00000000000E+00  0.00000000000E+00  0.24008071044E+03  0.24008071044E+03  0.00000000000E+00 0.  1.
         -3   -1    0    0    0  501 -0.00000000000E+00 -0.00000000000E+00 -0.78967255911E+02  0.78967255911E+02  0.00000000000E+00 0.  1.
         36    2    1    2    0    0  0.00000000000E+00 -0.71054273576E-14  0.16111345453E+03  0.31904796635E+03  0.27537984603E+03 0.  0.
         25    2    3    3    0    0  0.41352936618E+01 -0.59373264152E+02  0.83781734085E+02  0.16180868974E+03  0.12498155047E+03 0.  0.
         25    2    3    3    0    0 -0.41352936618E+01  0.59373264152E+02  0.77331720441E+02  0.15723927661E+03  0.12329521472E+03 0.  0.
          5    1    4    4  502    0  0.46548115206E+01  0.33875737364E+02 -0.25954052644E+01  0.34612988613E+02  0.47000000000E+01 0.  1.
         -5    1    4    4    0  502 -0.51951785886E+00 -0.93249001516E+02  0.86377139349E+02  0.12719570113E+03  0.47000000000E+01 0.  1.
          5    1    5    5  503    0 -0.11992998259E+02  0.24767932257E+02  0.10710247924E+03  0.11068113450E+03  0.47000000000E+01 0.  1.
         -5    1    5    5    0  503  0.78577045972E+01  0.34605331895E+02 -0.29770758799E+02  0.46558142108E+02  0.47000000000E+01 0.  1.
<mgrwt>
<rscale>  0 0.27537985E+03</rscale>
<asrwt>0</asrwt>
<pdfrwt beam="1">  1        3 0.36935494E-01 0.27537985E+03</pdfrwt>
<pdfrwt beam="2">  1       -3 0.12148809E-01 0.27537985E+03</pdfrwt>
<totfact> 0.98052512E+02</totfact>
</mgrwt>
</event>
<event>
 9    1  0.2065703E-002  0.2755762E+03  0.7818608E-02  0.1098130E+00
         -1   -1    0    0    0  501 -0.00000000000E+00  0.00000000000E+00  0.33210936514E+02  0.33210936514E+02  0.00000000000E+00 0.  1.
          1   -1    0    0  501    0  0.00000000000E+00 -0.00000000000E+00 -0.57166604150E+03  0.57166604150E+03  0.00000000000E+00 0.  1.
         36    2    1    2    0    0 -0.71054273576E-14  0.35527136788E-14 -0.53845510498E+03  0.60487697801E+03  0.27557622983E+03 0.  0.
         25    2    3    3    0    0  0.49675889192E+02 -0.18437193477E+02 -0.31913683382E+03  0.34940932433E+03  0.13202625936E+03 0.  0.
         25    2    3    3    0    0 -0.49675889192E+02  0.18437193477E+02 -0.21931827117E+03  0.25546765368E+03  0.11981483188E+03 0.  0.
          5    1    4    4  502    0  0.38559454429E+02 -0.33200137860E+02 -0.29216009109E+02  0.58862091944E+02  0.47000000000E+01 0.  1.
         -5    1    4    4    0  502  0.11116434762E+02  0.14762944383E+02 -0.28992082471E+03  0.29054723239E+03  0.47000000000E+01 0.  1.
          5    1    5    5  503    0 -0.23810381335E+02  0.44010683915E+02 -0.21224695121E+03  0.21811632873E+03  0.47000000000E+01 0. -1.
         -5    1    5    5    0  503 -0.25865507856E+02 -0.25573490438E+02 -0.70713199534E+01  0.37351324953E+02  0.47000000000E+01 0. -1.
<mgrwt>
<rscale>  0 0.27557623E+03</rscale>
<asrwt>0</asrwt>
<pdfrwt beam="1">  1        1 0.87948613E-01 0.27557623E+03</pdfrwt>
<pdfrwt beam="2">  1       -1 0.51093754E-02 0.27557623E+03</pdfrwt>
<totfact> 0.63843105E+03</totfact>
</mgrwt>
</event>
<event>
 9    1  0.2065703E-002  0.2740573E+03  0.7818608E-02  0.1098980E+00
          1   -1    0    0  501    0  0.00000000000E+00  0.00000000000E+00  0.11559737229E+04  0.11559737229E+04  0.00000000000E+00 0. -1.
         -1   -1    0    0    0  501 -0.00000000000E+00 -0.00000000000E+00 -0.16243317769E+02  0.16243317769E+02  0.00000000000E+00 0. -1.
         36    2    1    2    0    0  0.00000000000E+00  0.00000000000E+00  0.11397304052E+04  0.11722170407E+04  0.27405728244E+03 0.  0.
         25    2    3    3    0    0  0.78773893529E+01  0.23979949400E+02  0.34961519208E+03  0.37201137318E+03  0.12459770465E+03 0.  0.
         25    2    3    3    0    0 -0.78773893529E+01 -0.23979949400E+02  0.79011521309E+03  0.80020566753E+03  0.12413689684E+03 0.  0.
          5    1    4    4  502    0 -0.19101249985E+02 -0.31062251171E+02  0.26434468842E+03  0.26688935065E+03  0.47000000000E+01 0.  1.
         -5    1    4    4    0  502  0.26978639338E+02  0.55042200570E+02  0.85270503665E+02  0.10512202252E+03  0.47000000000E+01 0.  1.
          5    1    5    5  503    0 -0.58383820575E+02  0.15767043372E+02  0.32049531234E+03  0.32618492515E+03  0.47000000000E+01 0.  1.
         -5    1    5    5    0  503  0.50506431222E+02 -0.39746992772E+02  0.46961990074E+03  0.47402074238E+03  0.47000000000E+01 0.  1.
<mgrwt>
<rscale>  0 0.27405728E+03</rscale>
<asrwt>0</asrwt>
<pdfrwt beam="1">  1        1 0.17784205E+00 0.27405728E+03</pdfrwt>
<pdfrwt beam="2">  1       -1 0.24989729E-02 0.27405728E+03</pdfrwt>
<totfact> 0.60762616E+03</totfact>
</mgrwt>
</event>
<event>
 9    1  0.2065703E-002  0.2755517E+03  0.7818608E-02  0.1098144E+00
          2   -1    0    0  501    0  0.00000000000E+00  0.00000000000E+00  0.12507423047E+04  0.12507423047E+04  0.00000000000E+00 0. -1.
         -2   -1    0    0    0  501 -0.00000000000E+00 -0.00000000000E+00 -0.15176739177E+02  0.15176739177E+02  0.00000000000E+00 0. -1.
         36    2    1    2    0    0  0.17763568394E-14  0.71054273576E-14  0.12355655655E+04  0.12659190439E+04  0.27555173551E+03 0.  0.
         25    2    3    3    0    0  0.55430705047E+01 -0.58044242566E+02  0.49179144790E+03  0.51028756793E+03  0.12302322557E+03 0.  0.
         25    2    3    3    0    0 -0.55430705047E+01  0.58044242566E+02  0.74377411761E+03  0.75563147593E+03  0.11991300876E+03 0.  0.
          5    1    4    4  502    0  0.37995673567E+02 -0.85283764088E+02  0.33280531850E+03  0.34568549528E+03  0.47000000000E+01 0.  1.
         -5    1    4    4    0  502 -0.32452603062E+02  0.27239521522E+02  0.15898612940E+03  0.16460207265E+03  0.47000000000E+01 0.  1.
          5    1    5    5  503    0 -0.18809612420E+02 -0.25929596744E+02  0.40607973288E+03  0.40736836520E+03  0.47000000000E+01 0.  1.
         -5    1    5    5    0  503  0.13266541915E+02  0.83973839310E+02  0.33769438473E+03  0.34826311074E+03  0.47000000000E+01 0.  1.
<mgrwt>
<rscale>  0 0.27555174E+03</rscale>
<asrwt>0</asrwt>
<pdfrwt beam="1">  1        2 0.19242181E+00 0.27555174E+03</pdfrwt>
<pdfrwt beam="2">  1       -2 0.23348839E-02 0.27555174E+03</pdfrwt>
<totfact> 0.11487914E+04</totfact>
</mgrwt>
</event>
<event>
 9    1  0.2065703E-002  0.2736907E+03  0.7818608E-02  0.1099186E+00
         -2   -1    0    0    0  501 -0.00000000000E+00  0.00000000000E+00  0.14886053038E+02  0.14886053038E+02  0.00000000000E+00 0. -1.
          2   -1    0    0  501    0  0.00000000000E+00 -0.00000000000E+00 -0.12579999295E+04  0.12579999295E+04  0.00000000000E+00 0. -1.
         36    2    1    2    0    0  0.00000000000E+00 -0.71054273576E-14 -0.12431138765E+04  0.12728859826E+04  0.27369072817E+03 0.  0.
         25    2    3    3    0    0 -0.18764550706E+02 -0.74248650951E+01 -0.38850081689E+03  0.40892724762E+03  0.12602131622E+03 0.  0.
         25    2    3    3    0    0  0.18764550706E+02  0.74248650951E+01 -0.85461305959E+03  0.86395873493E+03  0.12511585453E+03 0.  0.
          5    1    4    4  502    0 -0.17470203047E+02  0.57749270887E+02 -0.15322985506E+03  0.16474727544E+03  0.47000000000E+01 0. -1.
         -5    1    4    4    0  502 -0.12943476589E+01 -0.65174135983E+02 -0.23527096183E+03  0.24417997218E+03  0.47000000000E+01 0. -1.
          5    1    5    5  503    0  0.33199815082E+02 -0.49547480864E+02 -0.27949959853E+03  0.28583088734E+03  0.47000000000E+01 0.  1.
         -5    1    5    5    0  503 -0.14435264376E+02  0.56972345959E+02 -0.57511346107E+03  0.57812784759E+03  0.47000000000E+01 0.  1.
<mgrwt>
<rscale>  0 0.27369073E+03</rscale>
<asrwt>0</asrwt>
<pdfrwt beam="1">  1        2 0.19353841E+00 0.27369073E+03</pdfrwt>
<pdfrwt beam="2">  1       -2 0.22901625E-02 0.27369073E+03</pdfrwt>
<totfact> 0.11708535E+04</totfact>
</mgrwt>
</event>
<event>
 9    1  0.2065703E-002  0.2733365E+03  0.7818608E-02  0.1099385E+00
         -2   -1    0    0    0  501 -0.00000000000E+00  0.00000000000E+00  0.52764637636E+02  0.52764637636E+02  0.00000000000E+00 0. -1.
          2   -1    0    0  501    0  0.00000000000E+00 -0.00000000000E+00 -0.35399111591E+03  0.35399111591E+03  0.00000000000E+00 0. -1.
         36    2    1    2    0    0  0.00000000000E+00 -0.71054273576E-14 -0.30122647827E+03  0.40675575354E+03  0.27333651755E+03 0.  0.
         25    2    3    3    0    0  0.38952858289E+01  0.59707031586E+02 -0.13552204697E+03  0.19290626282E+03  0.12355767135E+03 0.  0.
         25    2    3    3    0    0 -0.38952858289E+01 -0.59707031586E+02 -0.16570443130E+03  0.21384949072E+03  0.12121692644E+03 0.  0.
          5    1    4    4  502    0  0.27045153064E+02  0.90884048685E+02 -0.75669234588E+02  0.12140541039E+03  0.47000000000E+01 0. -1.
         -5    1    4    4    0  502 -0.23149867235E+02 -0.31177017099E+02 -0.59852812383E+02  0.71500852431E+02  0.47000000000E+01 0. -1.
          5    1    5    5  503    0  0.37652379460E+02  0.71693349781E+01 -0.10922765152E+02  0.40131008480E+02  0.47000000000E+01 0. -1.
         -5    1    5    5    0  503 -0.41547665289E+02 -0.66876366564E+02 -0.15478166615E+03  0.17371848224E+03  0.47000000000E+01 0. -1.
<mgrwt>
<rscale>  0 0.27333652E+03</rscale>
<asrwt>0</asrwt>
<pdfrwt beam="1">  1        2 0.54460170E-01 0.27333652E+03</pdfrwt>
<pdfrwt beam="2">  1       -2 0.81176367E-02 0.27333652E+03</pdfrwt>
<totfact> 0.83717857E+03</totfact>
</mgrwt>
</event>
<event>
 9    1  0.2065703E-002  0.2736939E+03  0.7818608E-02  0.1099184E+00
         -2   -1    0    0    0  501 -0.00000000000E+00  0.00000000000E+00  0.32064120506E+02  0.32064120506E+02  0.00000000000E+00 0.  1.
          2   -1    0    0  501    0  0.00000000000E+00 -0.00000000000E+00 -0.58405122639E+03  0.58405122639E+03  0.00000000000E+00 0.  1.
         36    2    1    2    0    0 -0.71054273576E-14  0.00000000000E+00 -0.55198710588E+03  0.61611534689E+03  0.27369390862E+03 0.  0.
         25    2    3    3    0    0 -0.49469657892E+02  0.24610324811E+02 -0.22866549905E+03  0.26676236187E+03  0.12578287687E+03 0.  0.
         25    2    3    3    0    0  0.49469657892E+02 -0.24610324811E+02 -0.32332160683E+03  0.34935298503E+03  0.12024030756E+03 0.  0.
          5    1    4    4  502    0  0.90912768981E+01 -0.74847802732E+01 -0.18801553957E+03  0.18844258110E+03  0.47000000000E+01 0.  1.
         -5    1    4    4    0  502 -0.58560934790E+02  0.32095105084E+02 -0.40649959479E+02  0.78319780768E+02  0.47000000000E+01 0.  1.
          5    1    5    5  503    0  0.85553363434E+02 -0.17661058840E+02 -0.27426546104E+03  0.28788005160E+03  0.47000000000E+01 0.  1.
         -5    1    5    5    0  503 -0.36083705543E+02 -0.69492659712E+01 -0.49056145798E+02  0.61472933424E+02  0.47000000000E+01 0.  1.
<mgrwt>
<rscale>  0 0.27369391E+03</rscale>
<asrwt>0</asrwt>
<pdfrwt beam="1">  1        2 0.89854031E-01 0.27369391E+03</pdfrwt>
<pdfrwt beam="2">  1       -2 0.49329418E-02 0.27369391E+03</pdfrwt>
<totfact> 0.10354855E+04</totfact>
</mgrwt>
</event>
<event>
 9    1  0.2065703E-002  0.2745230E+03  0.7818608E-02  0.1098719E+00
          1   -1    0    0  501    0  0.00000000000E+00  0.00000000000E+00  0.38935898807E+03  0.38935898807E+03  0.00000000000E+00 0. -1.
         -1   -1    0    0    0  501 -0.00000000000E+00 -0.00000000000E+00 -0.48389066598E+02  0.48389066598E+02  0.00000000000E+00 0. -1.
         36    2    1    2    0    0  0.00000000000E+00  0.71054273576E-14  0.34096992147E+03  0.43774805467E+03  0.27452298996E+03 0.  0.
         25    2    3    3    0    0  0.23922969897E+02  0.49611473828E+02  0.12159062170E+03  0.18146276721E+03  0.12292619646E+03 0.  0.
         25    2    3    3    0    0 -0.23922969897E+02 -0.49611473828E+02  0.21937929978E+03  0.25628528746E+03  0.12050420977E+03 0.  0.
          5    1    4    4  502    0  0.46515639365E+02  0.71545269952E+02  0.12278663190E+03  0.14960306592E+03  0.47000000000E+01 0. -1.
         -5    1    4    4    0  502 -0.22592669468E+02 -0.21933796124E+02 -0.11960102076E+01  0.31859701293E+02  0.47000000000E+01 0. -1.
          5    1    5    5  503    0  0.48110769316E+02 -0.10118145197E+02  0.68807752275E+02  0.84697224037E+02  0.47000000000E+01 0. -1.
         -5    1    5    5    0  503 -0.72033739213E+02 -0.39493328632E+02  0.15057154750E+03  0.17158806342E+03  0.47000000000E+01 0. -1.
<mgrwt>
<rscale>  0 0.27452299E+03</rscale>
<asrwt>0</asrwt>
<pdfrwt beam="1">  1        1 0.59901381E-01 0.27452299E+03</pdfrwt>
<pdfrwt beam="2">  1       -1 0.74444720E-02 0.27452299E+03</pdfrwt>
<totfact> 0.59973566E+03</totfact>
</mgrwt>
</event>
<event>
 8    1  0.2065703E-002  0.3492827E+03  0.7818608E-02  0.1062910E+00
         -2   -1    0    0    0  501 -0.00000000000E+00  0.00000000000E+00  0.16412776104E+02  0.16412776104E+02  0.00000000000E+00 0. -1.
          2   -1    0    0  501    0  0.00000000000E+00 -0.00000000000E+00 -0.18582838400E+04  0.18582838400E+04  0.00000000000E+00 0. -1.
         25    2    1    2    0    0  0.10759256960E+03  0.32776990774E+02 -0.10503579569E+04  0.10636140771E+04  0.12398618953E+03 0.  0.
         25    2    1    2    0    0 -0.10759256960E+03 -0.32776990774E+02 -0.79151310696E+03  0.81108253898E+03  0.13678959900E+03 0.  0.
          5    1    3    3  502    0  0.98023061436E+02  0.48628486952E+02 -0.45670784109E+03  0.46965667506E+03  0.47000000000E+01 0.  1.
         -5    1    3    3    0  502  0.95695081660E+01 -0.15851496178E+02 -0.59365011586E+03  0.59395740207E+03  0.47000000000E+01 0.  1.
          5    1    4    4  503    0 -0.23229897996E+01  0.31702057792E+02 -0.50596404025E+02  0.59937491190E+02  0.47000000000E+01 0.  1.
         -5    1    4    4    0  503 -0.10526957980E+03 -0.64479048566E+02 -0.74091670294E+03  0.75114504779E+03  0.47000000000E+01 0.  1.
<mgrwt>
<rscale>  0 0.34928267E+03</rscale>
<asrwt>0</asrwt>
<pdfrwt beam="1">  1        2 0.28588969E+00 0.34928267E+03</pdfrwt>
<pdfrwt beam="2">  1       -2 0.25250437E-02 0.34928267E+03</pdfrwt>
<totfact> 0.48292241E+03</totfact>
</mgrwt>
</event>
<event>
 9    1  0.2065703E-002  0.2756149E+03  0.7818608E-02  0.1098108E+00
          2   -1    0    0  501    0  0.00000000000E+00  0.00000000000E+00  0.15588060846E+04  0.15588060846E+04  0.00000000000E+00 0. -1.
         -2   -1    0    0    0  501 -0.00000000000E+00 -0.00000000000E+00 -0.12182977236E+02  0.12182977236E+02  0.00000000000E+00 0. -1.
         36    2    1    2    0    0  0.00000000000E+00 -0.35527136788E-14  0.15466231073E+04  0.15709890618E+04  0.27561494186E+03 0.  0.
         25    2    3    3    0    0 -0.36711245180E+02  0.74298825625E+01  0.10820298685E+04  0.10900820853E+04  0.12683610537E+03 0.  0.
         25    2    3    3    0    0  0.36711245180E+02 -0.74298825625E+01  0.46459323880E+03  0.48090697651E+03  0.11841336002E+03 0.  0.
          5    1    4    4  502    0 -0.34602906389E+02 -0.18745547365E+02  0.98282957281E+02  0.10597351730E+03  0.47000000000E+01 0. -1.
         -5    1    4    4    0  502 -0.21083387908E+01  0.26175429927E+02  0.98374691123E+03  0.98410856798E+03  0.47000000000E+01 0. -1.
          5    1    5    5  503    0 -0.23192719648E+02  0.28953227780E+01  0.17246784313E+02  0.29424933438E+02  0.47000000000E+01 0. -1.
         -5    1    5    5    0  503  0.59903964828E+02 -0.10325205341E+02  0.44734645449E+03  0.45148204307E+03  0.47000000000E+01 0. -1.
<mgrwt>
<rscale>  0 0.27561494E+03</rscale>
<asrwt>0</asrwt>
<pdfrwt beam="1">  1        2 0.23981616E+00 0.27561494E+03</pdfrwt>
<pdfrwt beam="2">  1       -2 0.18743054E-02 0.27561494E+03</pdfrwt>
<totfact> 0.10796243E+04</totfact>
</mgrwt>
</event>
<event>
 9    1  0.2065703E-002  0.2736566E+03  0.7818608E-02  0.1099205E+00
         -1   -1    0    0    0  501 -0.00000000000E+00  0.00000000000E+00  0.49911685862E+03  0.49911685862E+03  0.00000000000E+00 0. -1.
          1   -1    0    0  501    0  0.00000000000E+00 -0.00000000000E+00 -0.37510222024E+02  0.37510222024E+02  0.00000000000E+00 0. -1.
         36    2    1    2    0    0 -0.14210854715E-13  0.00000000000E+00  0.46160663660E+03  0.53662708065E+03  0.27365660367E+03 0.  0.
         25    2    3    3    0    0  0.39483238859E+02  0.36759138072E+02  0.18918007577E+03  0.23297880271E+03  0.12481931365E+03 0.  0.
         25    2    3    3    0    0 -0.39483238859E+02 -0.36759138072E+02  0.27242656083E+03  0.30364827794E+03  0.12278389661E+03 0.  0.
          5    1    4    4  502    0  0.84306237186E+02  0.31012487756E+02  0.11516262919E+03  0.14612952195E+03  0.47000000000E+01 0. -1.
         -5    1    4    4    0  502 -0.44822998326E+02  0.57466503162E+01  0.74017446584E+02  0.86849280755E+02  0.47000000000E+01 0. -1.
          5    1    5    5  503    0 -0.64848551792E+02  0.73331510769E+01  0.74123807220E+02  0.98871323300E+02  0.47000000000E+01 0. -1.
         -5    1    5    5    0  503  0.25365312933E+02 -0.44092289149E+02  0.19830275361E+03  0.20477695464E+03  0.47000000000E+01 0. -1.
<mgrwt>
<rscale>  0 0.27365660E+03</rscale>
<asrwt>0</asrwt>
<pdfrwt beam="1">  1        1 0.57708037E-02 0.27365660E+03</pdfrwt>
<pdfrwt beam="2">  1       -1 0.76787204E-01 0.27365660E+03</pdfrwt>
<totfact> 0.24166671E+03</totfact>
</mgrwt>
</event>
<event>
 9    1  0.2065703E-002  0.2740029E+03  0.7818608E-02  0.1099010E+00
         -2   -1    0    0    0  501 -0.00000000000E+00  0.00000000000E+00  0.11973707883E+02  0.11973707883E+02  0.00000000000E+00 0. -1.
          2   -1    0    0  501    0  0.00000000000E+00 -0.00000000000E+00 -0.15675504965E+04  0.15675504965E+04  0.00000000000E+00 0. -1.
         36    2    1    2    0    0  0.71054273576E-14  0.00000000000E+00 -0.15555767886E+04  0.15795242044E+04  0.27400285938E+03 0.  0.
         25    2    3    3    0    0 -0.36910769607E+02 -0.39340575742E+02 -0.68113453715E+03  0.69464530634E+03  0.12521085460E+03 0.  0.
         25    2    3    3    0    0  0.36910769607E+02  0.39340575742E+02 -0.87444225147E+03  0.88487889805E+03  0.12430336776E+03 0.  0.
          5    1    4    4  502    0 -0.55058850175E+02 -0.27925717569E+01 -0.60999266772E+03  0.61249687355E+03  0.47000000000E+01 0.  1.
         -5    1    4    4    0  502  0.18148080568E+02 -0.36548003985E+02 -0.71141869431E+02  0.82148432789E+02  0.47000000000E+01 0.  1.
          5    1    5    5  503    0 -0.30782670353E+02 -0.25974093064E+02 -0.22187571549E+03  0.22555076907E+03  0.47000000000E+01 0.  1.
         -5    1    5    5    0  503  0.67693439961E+02  0.65314668806E+02 -0.65256653598E+03  0.65932812898E+03  0.47000000000E+01 0.  1.
<mgrwt>
<rscale>  0 0.27400286E+03</rscale>
<asrwt>0</asrwt>
<pdfrwt beam="1">  1        2 0.24116159E+00 0.27400286E+03</pdfrwt>
<pdfrwt beam="2">  1       -2 0.18421091E-02 0.27400286E+03</pdfrwt>
<totfact> 0.10955335E+04</totfact>
</mgrwt>
</event>
<event>
 9    1  0.2065703E-002  0.2762615E+03  0.7818608E-02  0.1097748E+00
         -2   -1    0    0    0  501 -0.00000000000E+00  0.00000000000E+00  0.31992476977E+02  0.31992476977E+02  0.00000000000E+00 0.  1.
          2   -1    0    0  501    0  0.00000000000E+00 -0.00000000000E+00 -0.59639364522E+03  0.59639364522E+03  0.00000000000E+00 0.  1.
         36    2    1    2    0    0  0.00000000000E+00  0.71054273576E-14 -0.56440116824E+03  0.62838612220E+03  0.27626154248E+03 0.  0.
         25    2    3    3    0    0  0.19845879170E+02 -0.25574601015E+02 -0.18389041239E+03  0.22684125130E+03  0.12881517917E+03 0.  0.
         25    2    3    3    0    0 -0.19845879170E+02  0.25574601015E+02 -0.38051075586E+03  0.40154487090E+03  0.12410450792E+03 0.  0.
          5    1    4    4  502    0 -0.19233946130E+02 -0.10588534159E+02 -0.18335032193E+03  0.18472003760E+03  0.47000000000E+01 0. -1.
         -5    1    4    4    0  502  0.39079825301E+02 -0.14986066856E+02 -0.54009045310E+00  0.42121213694E+02  0.47000000000E+01 0. -1.
          5    1    5    5  503    0 -0.39826229655E+02  0.57108033082E+02 -0.33642568122E+03  0.34358664845E+03  0.47000000000E+01 0.  1.
         -5    1    5    5    0  503  0.19980350484E+02 -0.31533432067E+02 -0.44085074641E+02  0.57958222449E+02  0.47000000000E+01 0.  1.
<mgrwt>
<rscale>  0 0.27626154E+03</rscale>
<asrwt>0</asrwt>
<pdfrwt beam="1">  1        2 0.91752861E-01 0.27626154E+03</pdfrwt>
<pdfrwt beam="2">  1       -2 0.49219199E-02 0.27626154E+03</pdfrwt>
<totfact> 0.10145333E+04</totfact>
</mgrwt>
</event>
<event>
 9    1  0.2065703E-002  0.2754107E+03  0.7818608E-02  0.1098222E+00
         -2   -1    0    0    0  501 -0.00000000000E+00  0.00000000000E+00  0.74177445492E+01  0.74177445492E+01  0.00000000000E+00 0. -1.
          2   -1    0    0  501    0  0.00000000000E+00 -0.00000000000E+00 -0.25564055517E+04  0.25564055517E+04  0.00000000000E+00 0. -1.
         36    2    1    2    0    0 -0.71054273576E-14 -0.71054273576E-14 -0.25489878072E+04  0.25638232963E+04  0.27541069948E+03 0.  0.
         25    2    3    3    0    0  0.21679670335E+02  0.44005358736E+02 -0.14177168007E+04  0.14242938372E+04  0.12761476341E+03 0.  0.
         25    2    3    3    0    0 -0.21679670335E+02 -0.44005358736E+02 -0.11312710064E+04  0.11395294591E+04  0.12785467698E+03 0.  0.
          5    1    4    4  502    0  0.30384481808E+02  0.13871411244E+02 -0.88672441025E+02  0.94871094555E+02  0.47000000000E+01 0.  1.
         -5    1    4    4    0  502 -0.87048114728E+01  0.30133947492E+02 -0.13290443597E+04  0.13294227426E+04  0.47000000000E+01 0.  1.
          5    1    5    5  503    0  0.32761574693E+02  0.46400138895E+01 -0.78025724162E+03  0.78097266508E+03  0.47000000000E+01 0. -1.
         -5    1    5    5    0  503 -0.54441245028E+02 -0.48645372625E+02 -0.35101376482E+03  0.35855679401E+03  0.47000000000E+01 0. -1.
<mgrwt>
<rscale>  0 0.27541070E+03</rscale>
<asrwt>0</asrwt>
<pdfrwt beam="1">  1        2 0.39329338E+00 0.27541070E+03</pdfrwt>
<pdfrwt beam="2">  1       -2 0.11411908E-02 0.27541070E+03</pdfrwt>
<totfact> 0.65687170E+03</totfact>
</mgrwt>
</event>
<event>
 9    1  0.2065703E-002  0.2828665E+03  0.7818608E-02  0.1094134E+00
          1   -1    0    0  501    0  0.00000000000E+00  0.00000000000E+00  0.14165702047E+03  0.14165702047E+03  0.00000000000E+00 0.  1.
         -1   -1    0    0    0  501 -0.00000000000E+00 -0.00000000000E+00 -0.14120983569E+03  0.14120983569E+03  0.00000000000E+00 0.  1.
         36    2    1    2    0    0  0.00000000000E+00  0.00000000000E+00  0.44718478035E+00  0.28286685617E+03  0.28286650269E+03 0.  0.
         25    2    3    3    0    0 -0.40781793753E+02  0.50606133539E+02  0.16891429127E+02  0.14151127142E+03  0.12456317316E+03 0.  0.
         25    2    3    3    0    0  0.40781793753E+02 -0.50606133539E+02 -0.16444244347E+02  0.14135558475E+03  0.12444618401E+03 0.  0.
          5    1    4    4  502    0  0.33141385738E+02 -0.24377037851E+01 -0.24390594204E+02  0.41488371070E+02  0.47000000000E+01 0. -1.
         -5    1    4    4    0  502 -0.73923179491E+02  0.53043837324E+02  0.41282023331E+02  0.10002290035E+03  0.47000000000E+01 0. -1.
          5    1    5    5  503    0  0.17085344908E+02 -0.49008082825E+02  0.49027599339E+02  0.71550658206E+02  0.47000000000E+01 0. -1.
         -5    1    5    5    0  503  0.23696448846E+02 -0.15980507142E+01 -0.65471843686E+02  0.69804926542E+02  0.47000000000E+01 0. -1.
<mgrwt>
<rscale>  0 0.28286650E+03</rscale>
<asrwt>0</asrwt>
<pdfrwt beam="1">  1        1 0.21793388E-01 0.28286650E+03</pdfrwt>
<pdfrwt beam="2">  1       -1 0.21724590E-01 0.28286650E+03</pdfrwt>
<totfact> 0.40001283E+03</totfact>
</mgrwt>
</event>
<event>
 9    1  0.2065703E-002  0.2738078E+03  0.7818608E-02  0.1099120E+00
         -2   -1    0    0    0  501 -0.00000000000E+00  0.00000000000E+00  0.18235527488E+03  0.18235527488E+03  0.00000000000E+00 0. -1.
          2   -1    0    0  501    0  0.00000000000E+00 -0.00000000000E+00 -0.10278108584E+03  0.10278108584E+03  0.00000000000E+00 0. -1.
         36    2    1    2    0    0  0.00000000000E+00  0.00000000000E+00  0.79574189041E+02  0.28513636072E+03  0.27380776585E+03 0.  0.
         25    2    3    3    0    0 -0.42265929062E+02  0.36445125133E+02  0.47732235522E+02  0.14515639406E+03  0.12520925095E+03 0.  0.
         25    2    3    3    0    0  0.42265929062E+02 -0.36445125133E+02  0.31841953520E+02  0.13997996666E+03  0.12436167077E+03 0.  0.
          5    1    4    4  502    0 -0.56119394986E+02  0.11339402130E+02  0.82067946509E+02  0.10017587723E+03  0.47000000000E+01 0. -1.
         -5    1    4    4    0  502  0.13853465924E+02  0.25105723003E+02 -0.34335710987E+02  0.44980516833E+02  0.47000000000E+01 0. -1.
          5    1    5    5  503    0  0.76719188982E+02 -0.19182364228E+02  0.53434987915E+02  0.95557234101E+02  0.47000000000E+01 0. -1.
         -5    1    5    5    0  503 -0.34453259921E+02 -0.17262760905E+02 -0.21593034395E+02  0.44422732555E+02  0.47000000000E+01 0. -1.
<mgrwt>
<rscale>  0 0.27380777E+03</rscale>
<asrwt>0</asrwt>
<pdfrwt beam="1">  1        2 0.15812475E-01 0.27380777E+03</pdfrwt>
<pdfrwt beam="2">  1       -2 0.28054658E-01 0.27380777E+03</pdfrwt>
<totfact> 0.42027700E+03</totfact>
</mgrwt>
</event>
<event>
 9    1  0.2065703E-002  0.2752433E+03  0.7818608E-02  0.1098316E+00
          2   -1    0    0  501    0  0.00000000000E+00  0.00000000000E+00  0.81100607771E+03  0.81100607771E+03  0.00000000000E+00 0.  1.
         -2   -1    0    0    0  501 -0.00000000000E+00 -0.00000000000E+00 -0.23353356662E+02  0.23353356662E+02  0.00000000000E+00 0.  1.
         36    2    1    2    0    0  0.00000000000E+00 -0.14210854715E-13  0.78765272104E+03  0.83435943437E+03  0.27524326831E+03 0.  0.
         25    2    3    3    0    0  0.33482261608E+02  0.47779959348E+02  0.41557533295E+03  0.43699558863E+03  0.12189462978E+03 0.  0.
         25    2    3    3    0    0 -0.33482261608E+02 -0.47779959348E+02  0.37207738810E+03  0.39736384574E+03  0.12669829048E+03 0.  0.
          5    1    4    4  502    0 -0.21046368184E+02  0.71890855395E+02  0.21731460508E+03  0.22991079201E+03  0.47000000000E+01 0.  1.
         -5    1    4    4    0  502  0.54528629792E+02 -0.24110896047E+02  0.19826072787E+03  0.20708479662E+03  0.47000000000E+01 0.  1.
          5    1    5    5  503    0  0.34854597271E+02 -0.28873840138E+02  0.26483292826E+03  0.26871380963E+03  0.47000000000E+01 0.  1.
         -5    1    5    5    0  503 -0.68336858879E+02 -0.18906119210E+02  0.10724445983E+03  0.12865003610E+03  0.47000000000E+01 0.  1.
<mgrwt>
<rscale>  0 0.27524327E+03</rscale>
<asrwt>0</asrwt>
<pdfrwt beam="1">  1        2 0.12477014E+00 0.27524327E+03</pdfrwt>
<pdfrwt beam="2">  1       -2 0.35928247E-02 0.27524327E+03</pdfrwt>
<totfact> 0.11226797E+04</totfact>
</mgrwt>
</event>
<event>
 9    1  0.2065703E-002  0.2747902E+03  0.7818608E-02  0.1098569E+00
          2   -1    0    0  501    0  0.00000000000E+00  0.00000000000E+00  0.14138408153E+04  0.14138408153E+04  0.00000000000E+00 0. -1.
         -2   -1    0    0    0  501 -0.00000000000E+00 -0.00000000000E+00 -0.13351866949E+02  0.13351866949E+02  0.00000000000E+00 0. -1.
         36    2    1    2    0    0  0.00000000000E+00  0.00000000000E+00  0.14004889483E+04  0.14271926822E+04  0.27479020690E+03 0.  0.
         25    2    3    3    0    0  0.44107981746E+02 -0.49895005455E+02  0.64124233121E+03  0.65524634047E+03  0.11713673098E+03 0.  0.
         25    2    3    3    0    0 -0.44107981746E+02  0.49895005455E+02  0.75924661710E+03  0.77194634173E+03  0.12251817545E+03 0.  0.
          5    1    4    4  502    0  0.39840527338E+01 -0.79461415499E+02  0.47464345517E+03  0.48128836342E+03  0.47000000000E+01 0. -1.
         -5    1    4    4    0  502  0.40123929012E+02  0.29566410043E+02  0.16659887604E+03  0.17395797705E+03  0.47000000000E+01 0. -1.
          5    1    5    5  503    0  0.29842806824E+02  0.52566576742E+02  0.44264155379E+03  0.44677452172E+03  0.47000000000E+01 0. -1.
         -5    1    5    5    0  503 -0.73950788570E+02 -0.26715712867E+01  0.31660506330E+03  0.32517182001E+03  0.47000000000E+01 0. -1.
<mgrwt>
<rscale>  0 0.27479021E+03</rscale>
<asrwt>0</asrwt>
<pdfrwt beam="1">  1        2 0.21751385E+00 0.27479021E+03</pdfrwt>
<pdfrwt beam="2">  1       -2 0.20541345E-02 0.27479021E+03</pdfrwt>
<totfact> 0.11284825E+04</totfact>
</mgrwt>
</event>
<event>
 9    1  0.2065703E-002  0.2754185E+03  0.7818608E-02  0.1098218E+00
          2   -1    0    0  501    0  0.00000000000E+00  0.00000000000E+00  0.19772456502E+03  0.19772456502E+03  0.00000000000E+00 0. -1.
         -2   -1    0    0    0  501 -0.00000000000E+00 -0.00000000000E+00 -0.95910363779E+02  0.95910363779E+02  0.00000000000E+00 0. -1.
         36    2    1    2    0    0  0.00000000000E+00 -0.35527136788E-14  0.10181420124E+03  0.29363492880E+03  0.27541848129E+03 0.  0.
         25    2    3    3    0    0 -0.47412030657E+02  0.46638982785E+01  0.20928105928E+01  0.13256140827E+03  0.12368708303E+03 0.  0.
         25    2    3    3    0    0  0.47412030657E+02 -0.46638982785E+01  0.99721390645E+02  0.16107352052E+03  0.11717794444E+03 0.  0.
          5    1    4    4  502    0 -0.13202332197E+01  0.57477479420E+02 -0.16290753635E+02  0.59940656571E+02  0.47000000000E+01 0. -1.
         -5    1    4    4    0  502 -0.46091797437E+02 -0.52813581142E+02  0.18383564227E+02  0.72620751701E+02  0.47000000000E+01 0. -1.
          5    1    5    5  503    0 -0.19031525610E+02  0.22258533528E+02 -0.87885225933E+01  0.30934922195E+02  0.47000000000E+01 0. -1.
         -5    1    5    5    0  503  0.66443556267E+02 -0.26922431807E+02  0.10850991324E+03  0.13013859833E+03  0.47000000000E+01 0. -1.
<mgrwt>
<rscale>  0 0.27541848E+03</rscale>
<asrwt>0</asrwt>
<pdfrwt beam="1">  1        2 0.30419164E-01 0.27541848E+03</pdfrwt>
<pdfrwt beam="2">  1       -2 0.14755441E-01 0.27541848E+03</pdfrwt>
<totfact> 0.60306126E+03</totfact>
</mgrwt>
</event>
<event>
 9    1  0.2065703E-002  0.2752612E+03  0.7818608E-02  0.1098306E+00
          1   -1    0    0  501    0  0.00000000000E+00  0.00000000000E+00  0.12174834067E+04  0.12174834067E+04  0.00000000000E+00 0. -1.
         -1   -1    0    0    0  501 -0.00000000000E+00 -0.00000000000E+00 -0.15558473224E+02  0.15558473224E+02  0.00000000000E+00 0. -1.
         36    2    1    2    0    0  0.00000000000E+00 -0.14210854715E-13  0.12019249335E+04  0.12330418799E+04  0.27526120674E+03 0.  0.
         25    2    3    3    0    0 -0.19942965733E+02  0.55812728803E+02  0.53071617327E+03  0.55009567232E+03  0.13203336531E+03 0.  0.
         25    2    3    3    0    0  0.19942965733E+02 -0.55812728803E+02  0.67120876019E+03  0.68294620759E+03  0.11127236911E+03 0.  0.
          5    1    4    4  502    0 -0.29111097259E+02  0.72424884262E+02  0.15255028646E+03  0.17142490993E+03  0.47000000000E+01 0. -1.
         -5    1    4    4    0  502  0.91681315259E+01 -0.16612155458E+02  0.37816588681E+03  0.37867076239E+03  0.47000000000E+01 0. -1.
          5    1    5    5  503    0 -0.13417703293E+02 -0.71604813103E+02  0.25990532589E+03  0.26996324277E+03  0.47000000000E+01 0.  1.
         -5    1    5    5    0  503  0.33360669026E+02  0.15792084300E+02  0.41130343430E+03  0.41298296482E+03  0.47000000000E+01 0.  1.
<mgrwt>
<rscale>  0 0.27526121E+03</rscale>
<asrwt>0</asrwt>
<pdfrwt beam="1">  1        1 0.18730507E+00 0.27526121E+03</pdfrwt>
<pdfrwt beam="2">  1       -1 0.23936122E-02 0.27526121E+03</pdfrwt>
<totfact> 0.58605964E+03</totfact>
</mgrwt>
</event>
<event>
 9    1  0.2065703E-002  0.2760750E+03  0.7818608E-02  0.1097852E+00
          2   -1    0    0  501    0  0.00000000000E+00  0.00000000000E+00  0.92923980124E+03  0.92923980124E+03  0.00000000000E+00 0. -1.
         -2   -1    0    0    0  501 -0.00000000000E+00 -0.00000000000E+00 -0.20505309190E+02  0.20505309190E+02  0.00000000000E+00 0. -1.
         36    2    1    2    0    0  0.00000000000E+00  0.35527136788E-14  0.90873449205E+03  0.94974511043E+03  0.27607498573E+03 0.  0.
         25    2    3    3    0    0 -0.57683142921E+02 -0.17477124741E+02  0.42756715211E+03  0.44948564929E+03  0.12486346339E+03 0.  0.
         25    2    3    3    0    0  0.57683142921E+02  0.17477124741E+02  0.48116733994E+03  0.50025946114E+03  0.12290127976E+03 0.  0.
          5    1    4    4  502    0 -0.34628878266E+02 -0.68437303658E+00  0.18781990793E+02  0.39679727249E+02  0.47000000000E+01 0. -1.
         -5    1    4    4    0  502 -0.23054264655E+02 -0.16792751704E+02  0.40878516131E+03  0.40980592204E+03  0.47000000000E+01 0. -1.
          5    1    5    5  503    0 -0.10147254013E+02  0.23864577407E+02  0.36163307847E+03  0.36259213762E+03  0.47000000000E+01 0. -1.
         -5    1    5    5    0  503  0.67830396934E+02 -0.63874526665E+01  0.11953426147E+03  0.13766732352E+03  0.47000000000E+01 0. -1.
<mgrwt>
<rscale>  0 0.27607499E+03</rscale>
<asrwt>0</asrwt>
<pdfrwt beam="1">  1        2 0.14295994E+00 0.27607499E+03</pdfrwt>
<pdfrwt beam="2">  1       -2 0.31546637E-02 0.27607499E+03</pdfrwt>
<totfact> 0.11397443E+04</totfact>
</mgrwt>
</event>
<event>
 8    1  0.2065703E-002  0.2924241E+03  0.7818608E-02  0.1089090E+00
          1   -1    0    0  501    0  0.00000000000E+00  0.00000000000E+00  0.68262358594E+03  0.68262358594E+03  0.00000000000E+00 0.  1.
         -1   -1    0    0    0  501 -0.00000000000E+00 -0.00000000000E+00 -0.31317362450E+02  0.31317362450E+02  0.00000000000E+00 0.  1.
         25    2    1    2    0    0  0.27392760465E+02 -0.35072304059E+02  0.18069063744E+03  0.22433237639E+03  0.12528159800E+03 0.  0.
         25    2    1    2    0    0 -0.27392760465E+02  0.35072304059E+02  0.47061558604E+03  0.48960857200E+03  0.12750331019E+03 0.  0.
          5    1    3    3  502    0  0.60280679382E+02  0.11845034628E+02  0.43034168155E+02  0.75153807494E+02  0.47000000000E+01 0.  1.
         -5    1    3    3    0  502 -0.32887918917E+02 -0.46917338687E+02  0.13765646929E+03  0.14917856889E+03  0.47000000000E+01 0.  1.
          5    1    4    4  503    0  0.45951464796E+01  0.24091883886E+02  0.44790488661E+03  0.44860050345E+03  0.47000000000E+01 0. -1.
         -5    1    4    4    0  503 -0.31987906945E+02  0.10980420173E+02  0.22710699431E+02  0.41008068554E+02  0.47000000000E+01 0. -1.
<mgrwt>
<rscale>  0 0.29242415E+03</rscale>
<asrwt>0</asrwt>
<pdfrwt beam="1">  1        1 0.10501900E+00 0.29242415E+03</pdfrwt>
<pdfrwt beam="2">  1       -1 0.48180563E-02 0.29242415E+03</pdfrwt>
<totfact> 0.54387590E+03</totfact>
</mgrwt>
</event>
<event>
 9    1  0.2065703E-002  0.2742757E+03  0.7818608E-02  0.1098857E+00
          3   -1    0    0  501    0  0.00000000000E+00  0.00000000000E+00  0.20565460908E+03  0.20565460908E+03  0.00000000000E+00 0. -1.
         -3   -1    0    0    0  501 -0.00000000000E+00 -0.00000000000E+00 -0.91448437554E+02  0.91448437554E+02  0.00000000000E+00 0. -1.
         36    2    1    2    0    0  0.00000000000E+00 -0.71054273576E-14  0.11420617153E+03  0.29710304663E+03  0.27427572022E+03 0.  0.
         25    2    3    3    0    0  0.16830476722E+02 -0.26749201055E+02  0.10358065833E+02  0.13116113828E+03  0.12687462300E+03 0.  0.
         25    2    3    3    0    0 -0.16830476722E+02  0.26749201055E+02  0.10384810569E+03  0.16594190836E+03  0.12551296024E+03 0.  0.
          5    1    4    4  502    0  0.45411274516E+02 -0.13479188936E+02  0.57259416028E+02  0.74462091774E+02  0.47000000000E+01 0. -1.
         -5    1    4    4    0  502 -0.28580797794E+02 -0.13270012119E+02 -0.46901350195E+02  0.56699046503E+02  0.47000000000E+01 0. -1.
          5    1    5    5  503    0 -0.44216729677E-01 -0.41783828189E+02  0.21861900726E+01  0.42104152767E+02  0.47000000000E+01 0. -1.
         -5    1    5    5    0  503 -0.16786259992E+02  0.68533029243E+02  0.10166191562E+03  0.12383775559E+03  0.47000000000E+01 0. -1.
<mgrwt>
<rscale>  0 0.27427572E+03</rscale>
<asrwt>0</asrwt>
<pdfrwt beam="1">  1        3 0.31639171E-01 0.27427572E+03</pdfrwt>
<pdfrwt beam="2">  1       -3 0.14068990E-01 0.27427572E+03</pdfrwt>
<totfact> 0.10241528E+03</totfact>
</mgrwt>
</event>
<event>
 9    1  0.2065703E-002  0.2748801E+03  0.7818608E-02  0.1098519E+00
          2   -1    0    0  501    0  0.00000000000E+00  0.00000000000E+00  0.17701021517E+04  0.17701021517E+04  0.00000000000E+00 0. -1.
         -2   -1    0    0    0  501 -0.00000000000E+00 -0.00000000000E+00 -0.10671567105E+02  0.10671567105E+02  0.00000000000E+00 0. -1.
         36    2    1    2    0    0  0.00000000000E+00  0.00000000000E+00  0.17594305846E+04  0.17807737188E+04  0.27488007490E+03 0.  0.
         25    2    3    3    0    0 -0.22635768882E+02 -0.27794480864E+02  0.63406269532E+03  0.64763826060E+03  0.12694449098E+03 0.  0.
         25    2    3    3    0    0  0.22635768882E+02  0.27794480864E+02  0.11253678892E+04  0.11331354582E+04  0.12750752621E+03 0.  0.
          5    1    4    4  502    0  0.14601321325E+02  0.12357445557E+02  0.11817935259E+02  0.22970821467E+02  0.47000000000E+01 0.  1.
         -5    1    4    4    0  502 -0.37237090207E+02 -0.40151926421E+02  0.62224476006E+03  0.62466743913E+03  0.47000000000E+01 0.  1.
          5    1    5    5  503    0  0.53670480887E+02  0.38101197166E+02  0.30290398312E+03  0.31000828172E+03  0.47000000000E+01 0.  1.
         -5    1    5    5    0  503 -0.31034712005E+02 -0.10306716302E+02  0.82246390611E+03  0.82312717645E+03  0.47000000000E+01 0.  1.
<mgrwt>
<rscale>  0 0.27488007E+03</rscale>
<asrwt>0</asrwt>
<pdfrwt beam="1">  1        2 0.27232317E+00 0.27488007E+03</pdfrwt>
<pdfrwt beam="2">  1       -2 0.16417810E-02 0.27488007E+03</pdfrwt>
<totfact> 0.10141280E+04</totfact>
</mgrwt>
</event>
<event>
 9    1  0.2065703E-002  0.2757540E+03  0.7818608E-02  0.1098031E+00
          2   -1    0    0  501    0  0.00000000000E+00  0.00000000000E+00  0.10207221329E+04  0.10207221329E+04  0.00000000000E+00 0. -1.
         -2   -1    0    0    0  501 -0.00000000000E+00 -0.00000000000E+00 -0.18624130063E+02  0.18624130063E+02  0.00000000000E+00 0. -1.
         36    2    1    2    0    0  0.14210854715E-13 -0.53290705182E-14  0.10020980028E+04  0.10393462630E+04  0.27575396107E+03 0.  0.
         25    2    3    3    0    0  0.51144761585E+02 -0.15628302869E+02  0.56995731196E+03  0.58615718390E+03  0.12597172811E+03 0.  0.
         25    2    3    3    0    0 -0.51144761585E+02  0.15628302869E+02  0.43214069087E+03  0.45318907906E+03  0.12559750869E+03 0.  0.
          5    1    4    4  502    0 -0.19144081160E+02  0.25568030618E+02  0.35108021409E+03  0.35256152194E+03  0.47000000000E+01 0.  1.
         -5    1    4    4    0  502  0.70288842745E+02 -0.41196333487E+02  0.21887709788E+03  0.23359566195E+03  0.47000000000E+01 0.  1.
          5    1    5    5  503    0 -0.41060869663E+02 -0.31273025570E+01  0.31763943794E+02  0.52218896619E+02  0.47000000000E+01 0.  1.
         -5    1    5    5    0  503 -0.10083891922E+02  0.18755605426E+02  0.40037674708E+03  0.40097018245E+03  0.47000000000E+01 0.  1.
<mgrwt>
<rscale>  0 0.27575396E+03</rscale>
<asrwt>0</asrwt>
<pdfrwt beam="1">  1        2 0.15703413E+00 0.27575396E+03</pdfrwt>
<pdfrwt beam="2">  1       -2 0.28652516E-02 0.27575396E+03</pdfrwt>
<totfact> 0.11540873E+04</totfact>
</mgrwt>
</event>
<event>
 9    1  0.2065703E-002  0.2748911E+03  0.7818608E-02  0.1098512E+00
         -2   -1    0    0    0  501 -0.00000000000E+00  0.00000000000E+00  0.24135908847E+02  0.24135908847E+02  0.00000000000E+00 0.  1.
          2   -1    0    0  501    0  0.00000000000E+00 -0.00000000000E+00 -0.78270451409E+03  0.78270451409E+03  0.00000000000E+00 0.  1.
         36    2    1    2    0    0  0.35527136788E-14 -0.35527136788E-14 -0.75856860524E+03  0.80684042294E+03  0.27489114068E+03 0.  0.
         25    2    3    3    0    0  0.24854972601E+02  0.28547020435E+02 -0.49052344584E+03  0.50854831269E+03  0.12874561501E+03 0.  0.
         25    2    3    3    0    0 -0.24854972601E+02 -0.28547020435E+02 -0.26804515940E+03  0.29829211024E+03  0.12528876053E+03 0.  0.
          5    1    4    4  502    0 -0.17362561259E+02  0.59328914816E+02 -0.12771414513E+03  0.14196609290E+03  0.47000000000E+01 0.  1.
         -5    1    4    4    0  502  0.42217533860E+02 -0.30781894381E+02 -0.36280930071E+03  0.36658221979E+03  0.47000000000E+01 0.  1.
          5    1    5    5  503    0 -0.29898688308E+02 -0.49774598948E+01 -0.27173385556E+03  0.27345947584E+03  0.47000000000E+01 0.  1.
         -5    1    5    5    0  503  0.50437157069E+01 -0.23569560540E+02  0.36886961557E+01  0.24832634405E+02  0.47000000000E+01 0.  1.
<mgrwt>
<rscale>  0 0.27489114E+03</rscale>
<asrwt>0</asrwt>
<pdfrwt beam="1">  1        2 0.12041607E+00 0.27489114E+03</pdfrwt>
<pdfrwt beam="2">  1       -2 0.37132170E-02 0.27489114E+03</pdfrwt>
<totfact> 0.11178630E+04</totfact>
</mgrwt>
</event>
<event>
 9    1  0.2065703E-002  0.2751777E+03  0.7818608E-02  0.1098352E+00
          1   -1    0    0  501    0  0.00000000000E+00  0.00000000000E+00  0.25177931350E+03  0.25177931350E+03  0.00000000000E+00 0.  1.
         -1   -1    0    0    0  501 -0.00000000000E+00 -0.00000000000E+00 -0.75187612182E+02  0.75187612182E+02  0.00000000000E+00 0.  1.
         36    2    1    2    0    0  0.00000000000E+00 -0.14210854715E-13  0.17659170132E+03  0.32696692568E+03  0.27517765446E+03 0.  0.
         25    2    3    3    0    0  0.28794980720E+02  0.41016204059E+02  0.54524473378E+02  0.14491557878E+03  0.12456374620E+03 0.  0.
         25    2    3    3    0    0 -0.28794980720E+02 -0.41016204059E+02  0.12206722794E+03  0.18205134690E+03  0.12542250540E+03 0.  0.
          5    1    4    4  502    0  0.27473379337E+02  0.82414228031E+02  0.55542938330E+02  0.10321821328E+03  0.47000000000E+01 0. -1.
         -5    1    4    4    0  502  0.13216013834E+01 -0.41398023972E+02 -0.10184649524E+01  0.41697365503E+02  0.47000000000E+01 0. -1.
          5    1    5    5  503    0 -0.75799179116E+02 -0.38642586587E+02  0.94755130346E+02  0.12743386434E+03  0.47000000000E+01 0.  1.
         -5    1    5    5    0  503  0.47004198395E+02 -0.23736174721E+01  0.27312097595E+02  0.54617482565E+02  0.47000000000E+01 0.  1.
<mgrwt>
<rscale>  0 0.27517765E+03</rscale>
<asrwt>0</asrwt>
<pdfrwt beam="1">  1        1 0.38735279E-01 0.27517765E+03</pdfrwt>
<pdfrwt beam="2">  1       -1 0.11567325E-01 0.27517765E+03</pdfrwt>
<totfact> 0.52759606E+03</totfact>
</mgrwt>
</event>
<event>
 9    1  0.2065703E-002  0.2746595E+03  0.7818608E-02  0.1098642E+00
          2   -1    0    0  501    0  0.00000000000E+00  0.00000000000E+00  0.38522970346E+04  0.38522970346E+04  0.00000000000E+00 0. -1.
         -2   -1    0    0    0  501 -0.00000000000E+00 -0.00000000000E+00 -0.48956401407E+01  0.48956401407E+01  0.00000000000E+00 0. -1.
         36    2    1    2    0    0  0.71054273576E-14  0.00000000000E+00  0.38474013945E+04  0.38571926747E+04  0.27465949826E+03 0.  0.
         25    2    3    3    0    0  0.78678100269E+01  0.55632591755E+02  0.19311654933E+04  0.19360109756E+04  0.12482566849E+03 0.  0.
         25    2    3    3    0    0 -0.78678100269E+01 -0.55632591755E+02  0.19162359011E+04  0.19211816991E+04  0.12578634441E+03 0.  0.
          5    1    4    4  502    0 -0.24817667001E+02 -0.32423915165E+02  0.73885026434E+03  0.73999258779E+03  0.47000000000E+01 0. -1.
         -5    1    4    4    0  502  0.32685477028E+02  0.88056506919E+02  0.11923152290E+04  0.11960183878E+04  0.47000000000E+01 0. -1.
          5    1    5    5  503    0 -0.47594280992E+02 -0.77565829234E+02  0.11622324634E+04  0.11657993234E+04  0.47000000000E+01 0.  1.
         -5    1    5    5    0  503  0.39726470965E+02  0.21933237480E+02  0.75400343776E+03  0.75538237572E+03  0.47000000000E+01 0.  1.
<mgrwt>
<rscale>  0 0.27465950E+03</rscale>
<asrwt>0</asrwt>
<pdfrwt beam="1">  1        2 0.59265866E+00 0.27465950E+03</pdfrwt>
<pdfrwt beam="2">  1       -2 0.75317849E-03 0.27465950E+03</pdfrwt>
<totfact> 0.18557698E+03</totfact>
</mgrwt>
</event>
<event>
 9    1  0.2065703E-002  0.2757911E+03  0.7818608E-02  0.1098010E+00
         -2   -1    0    0    0  501 -0.00000000000E+00  0.00000000000E+00  0.11440929644E+02  0.11440929644E+02  0.00000000000E+00 0. -1.
          2   -1    0    0  501    0  0.00000000000E+00 -0.00000000000E+00 -0.16620307771E+04  0.16620307771E+04  0.00000000000E+00 0. -1.
         36    2    1    2    0    0 -0.71054273576E-14  0.00000000000E+00 -0.16505898475E+04  0.16734717068E+04  0.27579105995E+03 0.  0.
         25    2    3    3    0    0  0.19349521836E+02  0.55301411128E+02 -0.67537015145E+03  0.68850246751E+03  0.12032521029E+03 0.  0.
         25    2    3    3    0    0 -0.19349521836E+02 -0.55301411128E+02 -0.97521969606E+03  0.98496923928E+03  0.12521300528E+03 0.  0.
          5    1    4    4  502    0  0.70225000504E+02  0.28646194757E+02 -0.36459556912E+03  0.37243009302E+03  0.47000000000E+01 0.  1.
         -5    1    4    4    0  502 -0.50875478668E+02  0.26655216372E+02 -0.31077458233E+03  0.31607237448E+03  0.47000000000E+01 0.  1.
          5    1    5    5  503    0  0.44021709325E+02  0.11741964181E+02 -0.33780936118E+03  0.34090033604E+03  0.47000000000E+01 0.  1.
         -5    1    5    5    0  503 -0.63371231162E+02 -0.67043375309E+02 -0.63741033488E+03  0.64406890324E+03  0.47000000000E+01 0.  1.
<mgrwt>
<rscale>  0 0.27579106E+03</rscale>
<asrwt>0</asrwt>
<pdfrwt beam="1">  1        2 0.25569711E+00 0.27579106E+03</pdfrwt>
<pdfrwt beam="2">  1       -2 0.17601426E-02 0.27579106E+03</pdfrwt>
<totfact> 0.10439357E+04</totfact>
</mgrwt>
</event>
<event>
 9    1  0.2065703E-002  0.2748592E+03  0.7818608E-02  0.1098530E+00
          2   -1    0    0  501    0  0.00000000000E+00  0.00000000000E+00  0.77725033253E+03  0.77725033253E+03  0.00000000000E+00 0. -1.
         -2   -1    0    0    0  501 -0.00000000000E+00 -0.00000000000E+00 -0.24299624184E+02  0.24299624184E+02  0.00000000000E+00 0. -1.
         36    2    1    2    0    0 -0.35527136788E-14 -0.71054273576E-14  0.75295070835E+03  0.80154995671E+03  0.27485917105E+03 0.  0.
         25    2    3    3    0    0  0.15492905435E+02  0.18360253472E+02  0.53283436024E+03  0.54786884121E+03  0.12518259742E+03 0.  0.
         25    2    3    3    0    0 -0.15492905435E+02 -0.18360253472E+02  0.22011634811E+03  0.25368111550E+03  0.12379730462E+03 0.  0.
          5    1    4    4  502    0  0.42461167102E+02 -0.40310084751E+02  0.32216834109E+03  0.32747882930E+03  0.47000000000E+01 0. -1.
         -5    1    4    4    0  502 -0.26968261667E+02  0.58670338223E+02  0.21066601915E+03  0.22039001191E+03  0.47000000000E+01 0. -1.
          5    1    5    5  503    0 -0.25683616645E+02  0.43741594054E+02  0.15432734320E+03  0.16251767311E+03  0.47000000000E+01 0.  1.
         -5    1    5    5    0  503  0.10190711210E+02 -0.62101847526E+02  0.65789004906E+02  0.91163442386E+02  0.47000000000E+01 0.  1.
<mgrwt>
<rscale>  0 0.27485917E+03</rscale>
<asrwt>0</asrwt>
<pdfrwt beam="1">  1        2 0.11957696E+00 0.27485917E+03</pdfrwt>
<pdfrwt beam="2">  1       -2 0.37384043E-02 0.27485917E+03</pdfrwt>
<totfact> 0.11163782E+04</totfact>
</mgrwt>
</event>
<event>
 9    1  0.2065703E-002  0.2744876E+03  0.7818608E-02  0.1098738E+00
         -1   -1    0    0    0  501 -0.00000000000E+00  0.00000000000E+00  0.13655543002E+02  0.13655543002E+02  0.00000000000E+00 0. -1.
          1   -1    0    0  501    0  0.00000000000E+00 -0.00000000000E+00 -0.13793568183E+04  0.13793568183E+04  0.00000000000E+00 0. -1.
         36    2    1    2    0    0  0.71054273576E-14  0.00000000000E+00 -0.13657012753E+04  0.13930123613E+04  0.27448764160E+03 0.  0.
         25    2    3    3    0    0 -0.36227832937E+02  0.32578658111E+02 -0.78443110784E+03  0.79602800737E+03  0.12631152254E+03 0.  0.
         25    2    3    3    0    0  0.36227832937E+02 -0.32578658111E+02 -0.58127016750E+03  0.59698435398E+03  0.12704914962E+03 0.  0.
          5    1    4    4  502    0  0.42144104639E+02  0.37410893863E+02 -0.34803445912E+03  0.35259860361E+03  0.47000000000E+01 0. -1.
         -5    1    4    4    0  502 -0.78371937577E+02 -0.48322357520E+01 -0.43639664873E+03  0.44342940376E+03  0.47000000000E+01 0. -1.
          5    1    5    5  503    0 -0.98357518985E+01  0.44148673789E+02 -0.23086515006E+03  0.23530120043E+03  0.47000000000E+01 0.  1.
         -5    1    5    5    0  503  0.46063584836E+02 -0.76727331899E+02 -0.35040501744E+03  0.36168315354E+03  0.47000000000E+01 0.  1.
<mgrwt>
<rscale>  0 0.27448764E+03</rscale>
<asrwt>0</asrwt>
<pdfrwt beam="1">  1        1 0.21220885E+00 0.27448764E+03</pdfrwt>
<pdfrwt beam="2">  1       -1 0.21008517E-02 0.27448764E+03</pdfrwt>
<totfact> 0.54977470E+03</totfact>
</mgrwt>
</event>
<event>
 9    1  0.2065703E-002  0.2718165E+03  0.7818608E-02  0.1100244E+00
         -3   -1    0    0    0  501 -0.00000000000E+00  0.00000000000E+00  0.16315378356E+03  0.16315378356E+03  0.00000000000E+00 0. -1.
          3   -1    0    0  501    0  0.00000000000E+00 -0.00000000000E+00 -0.11321253107E+03  0.11321253107E+03  0.00000000000E+00 0. -1.
         36    2    1    2    0    0  0.00000000000E+00  0.35527136788E-14  0.49941252485E+02  0.27636631463E+03  0.27181650274E+03 0.  0.
         25    2    3    3    0    0  0.44364869813E+02  0.18411603100E+02  0.23304235397E+02  0.13632410306E+03  0.12543502256E+03 0.  0.
         25    2    3    3    0    0 -0.44364869813E+02 -0.18411603100E+02  0.26637017088E+02  0.14004221157E+03  0.12882182090E+03 0.  0.
          5    1    4    4  502    0 -0.17590989018E+02  0.10265375461E+00  0.59429445313E+02  0.62156274041E+02  0.47000000000E+01 0. -1.
         -5    1    4    4    0  502  0.61955858831E+02  0.18308949345E+02 -0.36125209916E+02  0.74167829017E+02  0.47000000000E+01 0. -1.
          5    1    5    5  503    0  0.42045207552E+02 -0.25362294089E+02  0.33158029948E+00  0.49327937166E+02  0.47000000000E+01 0. -1.
         -5    1    5    5    0  503 -0.86410077365E+02  0.69506909895E+01  0.26305436789E+02  0.90714274401E+02  0.47000000000E+01 0. -1.
<mgrwt>
<rscale>  0 0.27181650E+03</rscale>
<asrwt>0</asrwt>
<pdfrwt beam="1">  1        3 0.17417312E-01 0.27181650E+03</pdfrwt>
<pdfrwt beam="2">  1       -3 0.25100582E-01 0.27181650E+03</pdfrwt>
<totfact> 0.10848376E+03</totfact>
</mgrwt>
</event>
<event>
 9    1  0.2065703E-002  0.2746724E+03  0.7818608E-02  0.1098635E+00
          2   -1    0    0  501    0  0.00000000000E+00  0.00000000000E+00  0.43640508853E+03  0.43640508853E+03  0.00000000000E+00 0. -1.
         -2   -1    0    0    0  501 -0.00000000000E+00 -0.00000000000E+00 -0.43219563228E+02  0.43219563228E+02  0.00000000000E+00 0. -1.
         36    2    1    2    0    0 -0.17763568394E-14 -0.71054273576E-14  0.39318552530E+03  0.47962465176E+03  0.27467243995E+03 0.  0.
         25    2    3    3    0    0 -0.15985965702E+02 -0.57657013268E+02  0.19434437639E+03  0.24130570141E+03  0.12991852301E+03 0.  0.
         25    2    3    3    0    0  0.15985965702E+02  0.57657013268E+02  0.19884114891E+03  0.23831895035E+03  0.11695399658E+03 0.  0.
          5    1    4    4  502    0  0.14648588393E+02  0.37219896977E+02  0.35396467488E+02  0.53618110593E+02  0.47000000000E+01 0. -1.
         -5    1    4    4    0  502 -0.30634554095E+02 -0.94876910245E+02  0.15894790890E+03  0.18768759082E+03  0.47000000000E+01 0. -1.
          5    1    5    5  503    0 -0.52736042148E+01  0.90848752372E+02  0.14821349498E+03  0.17398458783E+03  0.47000000000E+01 0.  1.
         -5    1    5    5    0  503  0.21259569917E+02 -0.33191739104E+02  0.50627653927E+02  0.64334362513E+02  0.47000000000E+01 0.  1.
<mgrwt>
<rscale>  0 0.27467244E+03</rscale>
<asrwt>0</asrwt>
<pdfrwt beam="1">  1        2 0.67139241E-01 0.27467244E+03</pdfrwt>
<pdfrwt beam="2">  1       -2 0.66491639E-02 0.27467244E+03</pdfrwt>
<totfact> 0.90943107E+03</totfact>
</mgrwt>
</event>
<event>
 9    1  0.2065703E-002  0.2754736E+03  0.7818608E-02  0.1098187E+00
         -1   -1    0    0    0  501 -0.00000000000E+00  0.00000000000E+00  0.19123081351E+04  0.19123081351E+04  0.00000000000E+00 0.  1.
          1   -1    0    0  501    0  0.00000000000E+00 -0.00000000000E+00 -0.99206935845E+01  0.99206935845E+01  0.00000000000E+00 0.  1.
         36    2    1    2    0    0  0.53290705182E-14  0.71054273576E-14  0.19023874415E+04  0.19222288287E+04  0.27547357803E+03 0.  0.
         25    2    3    3    0    0 -0.15191685128E+02 -0.54270048659E+02  0.97221168362E+03  0.98218825088E+03  0.12775827534E+03 0.  0.
         25    2    3    3    0    0  0.15191685128E+02  0.54270048659E+02  0.93017575792E+03  0.94004057783E+03  0.12358528176E+03 0.  0.
          5    1    4    4  502    0  0.43958262245E+02  0.99436905778E+01  0.49199749068E+03  0.49407977761E+03  0.47000000000E+01 0.  1.
         -5    1    4    4    0  502 -0.59149947373E+02 -0.64213739237E+02  0.48021419294E+03  0.48810847327E+03  0.47000000000E+01 0.  1.
          5    1    5    5  503    0 -0.44134804931E+01  0.67975698883E+02  0.24241124572E+03  0.25184415121E+03  0.47000000000E+01 0.  1.
         -5    1    5    5    0  503  0.19605165621E+02 -0.13705650224E+02  0.68776451220E+03  0.68819642662E+03  0.47000000000E+01 0.  1.
<mgrwt>
<rscale>  0 0.27547358E+03</rscale>
<asrwt>0</asrwt>
<pdfrwt beam="1">  1        1 0.15262621E-02 0.27547358E+03</pdfrwt>
<pdfrwt beam="2">  1       -1 0.29420096E+00 0.27547358E+03</pdfrwt>
<totfact> 0.37265330E+02</totfact>
</mgrwt>
</event>
<event>
 9    1  0.2065703E-002  0.2663371E+03  0.7818608E-02  0.1103394E+00
          2   -1    0    0  501    0  0.00000000000E+00  0.00000000000E+00  0.10832954201E+04  0.10832954201E+04  0.00000000000E+00 0. -1.
         -2   -1    0    0    0  501 -0.00000000000E+00 -0.00000000000E+00 -0.16370292412E+02  0.16370292412E+02  0.00000000000E+00 0. -1.
         36    2    1    2    0    0  0.00000000000E+00  0.71054273576E-14  0.10669251277E+04  0.10996657126E+04  0.26633710066E+03 0.  0.
         25    2    3    3    0    0  0.25336542743E+02 -0.34306045258E+02  0.43235769028E+03  0.45135239948E+03  0.12233957260E+03 0.  0.
         25    2    3    3    0    0 -0.25336542743E+02  0.34306045258E+02  0.63456743745E+03  0.64831331308E+03  0.12575958854E+03 0.  0.
          5    1    4    4  502    0 -0.28430344096E+02  0.32576790147E+02  0.13609506806E+03  0.14287578266E+03  0.47000000000E+01 0.  1.
         -5    1    4    4    0  502  0.53766886839E+02 -0.66882835405E+02  0.29626262223E+03  0.30847661681E+03  0.47000000000E+01 0.  1.
          5    1    5    5  503    0  0.13400712303E+02  0.26866113322E+02  0.30895497848E+02  0.43335769550E+02  0.47000000000E+01 0.  1.
         -5    1    5    5    0  503 -0.38737255046E+02  0.74399319362E+01  0.60367193960E+03  0.60497754353E+03  0.47000000000E+01 0.  1.
<mgrwt>
<rscale>  0 0.26633710E+03</rscale>
<asrwt>0</asrwt>
<pdfrwt beam="1">  1        2 0.16666078E+00 0.26633710E+03</pdfrwt>
<pdfrwt beam="2">  1       -2 0.25185074E-02 0.26633710E+03</pdfrwt>
<totfact> 0.12804551E+04</totfact>
</mgrwt>
</event>
<event>
 9    1  0.2065703E-002  0.2726459E+03  0.7818608E-02  0.1099775E+00
         -1   -1    0    0    0  501 -0.00000000000E+00  0.00000000000E+00  0.24408373419E+03  0.24408373419E+03  0.00000000000E+00 0. -1.
          1   -1    0    0  501    0  0.00000000000E+00 -0.00000000000E+00 -0.76137604817E+02  0.76137604817E+02  0.00000000000E+00 0. -1.
         36    2    1    2    0    0  0.35527136788E-14  0.00000000000E+00  0.16794612938E+03  0.32022133901E+03  0.27264593081E+03 0.  0.
         25    2    3    3    0    0 -0.81130997301E+01 -0.23076654684E+02  0.23377095751E+02  0.12717544140E+03  0.12259180197E+03 0.  0.
         25    2    3    3    0    0  0.81130997301E+01  0.23076654684E+02  0.14456903363E+03  0.19304589761E+03  0.12557132922E+03 0.  0.
          5    1    4    4  502    0  0.62408452275E+01  0.35081966512E+02  0.49898350985E+02  0.61494942512E+02  0.47000000000E+01 0.  1.
         -5    1    4    4    0  502 -0.14353944958E+02 -0.58158621196E+02 -0.26521255233E+02  0.65680498890E+02  0.47000000000E+01 0.  1.
          5    1    5    5  503    0 -0.42947907370E+02  0.52806693248E+02  0.69433332209E+02  0.97345504369E+02  0.47000000000E+01 0. -1.
         -5    1    5    5    0  503  0.51061007100E+02 -0.29730038564E+02  0.75135701417E+02  0.95700393241E+02  0.47000000000E+01 0. -1.
<mgrwt>
<rscale>  0 0.27264593E+03</rscale>
<asrwt>0</asrwt>
<pdfrwt beam="1">  1        1 0.11713478E-01 0.27264593E+03</pdfrwt>
<pdfrwt beam="2">  1       -1 0.37551343E-01 0.27264593E+03</pdfrwt>
<totfact> 0.35622470E+03</totfact>
</mgrwt>
</event>
<event>
 9    1  0.2065703E-002  0.2740801E+03  0.7818608E-02  0.1098967E+00
         -2   -1    0    0    0  501 -0.00000000000E+00  0.00000000000E+00  0.29749263355E+02  0.29749263355E+02  0.00000000000E+00 0. -1.
          2   -1    0    0  501    0  0.00000000000E+00 -0.00000000000E+00 -0.63127545800E+03  0.63127545800E+03  0.00000000000E+00 0. -1.
         36    2    1    2    0    0  0.00000000000E+00  0.00000000000E+00 -0.60152619465E+03  0.66102472136E+03  0.27408013317E+03 0.  0.
         25    2    3    3    0    0 -0.12471195376E+02 -0.14052345588E+02 -0.17749136691E+03  0.21794976142E+03  0.12508362820E+03 0.  0.
         25    2    3    3    0    0  0.12471195376E+02  0.14052345588E+02 -0.42403482774E+03  0.44307495994E+03  0.12710973944E+03 0.  0.
          5    1    4    4  502    0  0.39835771129E+02  0.33895989455E+02 -0.53210327728E+02  0.74761325159E+02  0.47000000000E+01 0. -1.
         -5    1    4    4    0  502 -0.52306966504E+02 -0.47948335043E+02 -0.12428103918E+03  0.14318843626E+03  0.47000000000E+01 0. -1.
          5    1    5    5  503    0  0.10577150225E+02 -0.51881318794E+02 -0.11022265357E+03  0.12237103704E+03  0.47000000000E+01 0.  1.
         -5    1    5    5    0  503  0.18940451504E+01  0.65933664383E+02 -0.31381217417E+03  0.32070392290E+03  0.47000000000E+01 0.  1.
<mgrwt>
<rscale>  0 0.27408013E+03</rscale>
<asrwt>0</asrwt>
<pdfrwt beam="1">  1        2 0.97119304E-01 0.27408013E+03</pdfrwt>
<pdfrwt beam="2">  1       -2 0.45768096E-02 0.27408013E+03</pdfrwt>
<totfact> 0.10596362E+04</totfact>
</mgrwt>
</event>
<event>
 9    1  0.2065703E-002  0.2746698E+03  0.7818608E-02  0.1098636E+00
          1   -1    0    0  501    0  0.00000000000E+00  0.00000000000E+00  0.85185090870E+03  0.85185090870E+03  0.00000000000E+00 0. -1.
         -1   -1    0    0    0  501 -0.00000000000E+00 -0.00000000000E+00 -0.22141048763E+02  0.22141048763E+02  0.00000000000E+00 0. -1.
         36    2    1    2    0    0 -0.71054273576E-14  0.00000000000E+00  0.82970985994E+03  0.87399195746E+03  0.27466978362E+03 0.  0.
         25    2    3    3    0    0 -0.51340653812E+02 -0.40883483640E+01  0.35489448265E+03  0.37946224391E+03  0.12405209959E+03 0.  0.
         25    2    3    3    0    0  0.51340653812E+02  0.40883483640E+01  0.47481537729E+03  0.49452971355E+03  0.12828646753E+03 0.  0.
          5    1    4    4  502    0 -0.82838525918E+02  0.13301420279E+02  0.15511184118E+03  0.17641123103E+03  0.47000000000E+01 0. -1.
         -5    1    4    4    0  502  0.31497872106E+02 -0.17389768643E+02  0.19978264147E+03  0.20305101288E+03  0.47000000000E+01 0. -1.
          5    1    5    5  503    0  0.20153700024E+01 -0.54344154343E+02  0.27842420804E+03  0.28372430007E+03  0.47000000000E+01 0. -1.
         -5    1    5    5    0  503  0.49325283810E+02  0.58432502707E+02  0.19639116925E+03  0.21080541348E+03  0.47000000000E+01 0. -1.
<mgrwt>
<rscale>  0 0.27466978E+03</rscale>
<asrwt>0</asrwt>
<pdfrwt beam="1">  1        1 0.13105396E+00 0.27466978E+03</pdfrwt>
<pdfrwt beam="2">  1       -1 0.34063159E-02 0.27466978E+03</pdfrwt>
<totfact> 0.65110859E+03</totfact>
</mgrwt>
</event>
<event>
 9    1  0.2065703E-002  0.2742479E+03  0.7818608E-02  0.1098873E+00
          4   -1    0    0  501    0  0.00000000000E+00  0.00000000000E+00  0.29556000492E+03  0.29556000492E+03  0.00000000000E+00 0. -1.
         -4   -1    0    0    0  501 -0.00000000000E+00 -0.00000000000E+00 -0.63618157528E+02  0.63618157528E+02  0.00000000000E+00 0. -1.
         36    2    1    2    0    0  0.00000000000E+00 -0.44408920985E-15  0.23194184739E+03  0.35917816245E+03  0.27424793857E+03 0.  0.
         25    2    3    3    0    0  0.11831855543E+02 -0.39587664981E+01  0.19541036149E+03  0.22387996370E+03  0.10854199247E+03 0.  0.
         25    2    3    3    0    0 -0.11831855543E+02  0.39587664981E+01  0.36531485900E+02  0.13529819875E+03  0.12967416275E+03 0.  0.
          5    1    4    4  502    0 -0.39404780674E+02  0.18709706901E+02  0.43008935695E+02  0.61438167469E+02  0.47000000000E+01 0. -1.
         -5    1    4    4    0  502  0.51236636216E+02 -0.22668473399E+02  0.15240142580E+03  0.16244179623E+03  0.47000000000E+01 0. -1.
          5    1    5    5  503    0 -0.70730567668E+02 -0.17437980785E+01  0.19324110908E+02  0.73493981364E+02  0.47000000000E+01 0.  1.
         -5    1    5    5    0  503  0.58898712125E+02  0.57025645766E+01  0.17207374992E+02  0.61804217387E+02  0.47000000000E+01 0.  1.
<mgrwt>
<rscale>  0 0.27424794E+03</rscale>
<asrwt>0</asrwt>
<pdfrwt beam="1">  1        4 0.45470769E-01 0.27424794E+03</pdfrwt>
<pdfrwt beam="2">  1       -4 0.97874091E-02 0.27424794E+03</pdfrwt>
<totfact> 0.69402533E+02</totfact>
</mgrwt>
</event>
<event>
 9    1  0.2065703E-002  0.2760170E+03  0.7818608E-02  0.1097884E+00
          2   -1    0    0  501    0  0.00000000000E+00  0.00000000000E+00  0.86286398661E+03  0.86286398661E+03  0.00000000000E+00 0.  1.
         -2   -1    0    0    0  501 -0.00000000000E+00 -0.00000000000E+00 -0.22073407801E+02  0.22073407801E+02  0.00000000000E+00 0.  1.
         36    2    1    2    0    0  0.00000000000E+00  0.71054273576E-14  0.84079057881E+03  0.88493739441E+03  0.27601701870E+03 0.  0.
         25    2    3    3    0    0 -0.50008327077E+02  0.19486393780E+02  0.33934068334E+03  0.36589987964E+03  0.12589706205E+03 0.  0.
         25    2    3    3    0    0  0.50008327077E+02 -0.19486393780E+02  0.50144989547E+03  0.51903751477E+03  0.12274930449E+03 0.  0.
          5    1    4    4  502    0 -0.41182805614E+02  0.71860027161E+02  0.22272020457E+03  0.23766839611E+03  0.47000000000E+01 0.  1.
         -5    1    4    4    0  502 -0.88255214624E+01 -0.52373633381E+02  0.11662047876E+03  0.12823148354E+03  0.47000000000E+01 0.  1.
          5    1    5    5  503    0  0.11832128628E+02  0.32775199401E+02  0.37745584038E+03  0.37908998193E+03  0.47000000000E+01 0. -1.
         -5    1    5    5    0  503  0.38176198449E+02 -0.52261593181E+02  0.12399405509E+03  0.13994753284E+03  0.47000000000E+01 0. -1.
<mgrwt>
<rscale>  0 0.27601702E+03</rscale>
<asrwt>0</asrwt>
<pdfrwt beam="1">  1        2 0.13274828E+00 0.27601702E+03</pdfrwt>
<pdfrwt beam="2">  1       -2 0.33959096E-02 0.27601702E+03</pdfrwt>
<totfact> 0.11272703E+04</totfact>
</mgrwt>
</event>
<event>
 9    1  0.2065703E-002  0.2759401E+03  0.7818608E-02  0.1097927E+00
         -1   -1    0    0    0  501 -0.00000000000E+00  0.00000000000E+00  0.21551283838E+03  0.21551283838E+03  0.00000000000E+00 0.  1.
          1   -1    0    0  501    0  0.00000000000E+00 -0.00000000000E+00 -0.88327583920E+02  0.88327583920E+02  0.00000000000E+00 0.  1.
         36    2    1    2    0    0 -0.71054273576E-14 -0.17763568394E-14  0.12718525446E+03  0.30384042230E+03  0.27594005376E+03 0.  0.
         25    2    3    3    0    0  0.53461001509E+02 -0.10731588667E+02  0.56455933490E+02  0.14779647356E+03  0.12523290100E+03 0.  0.
         25    2    3    3    0    0 -0.53461001509E+02  0.10731588667E+02  0.70729320967E+02  0.15604394873E+03  0.12796027280E+03 0.  0.
          5    1    4    4  502    0 -0.23176096225E+02 -0.39426142690E+02 -0.37003252107E+01  0.46123037305E+02  0.47000000000E+01 0.  1.
         -5    1    4    4    0  502  0.76637097734E+02  0.28694554023E+02  0.60156258700E+02  0.10167343626E+03  0.47000000000E+01 0.  1.
          5    1    5    5  503    0 -0.77713093069E+02  0.13932659665E+02 -0.20513038308E+01  0.79118529354E+02  0.47000000000E+01 0.  1.
         -5    1    5    5    0  503  0.24252091560E+02 -0.32010709986E+01  0.72780624798E+02  0.76925419379E+02  0.47000000000E+01 0.  1.
<mgrwt>
<rscale>  0 0.27594005E+03</rscale>
<asrwt>0</asrwt>
<pdfrwt beam="1">  1        1 0.13588859E-01 0.27594005E+03</pdfrwt>
<pdfrwt beam="2">  1       -1 0.33155821E-01 0.27594005E+03</pdfrwt>
<totfact> 0.36342760E+03</totfact>
</mgrwt>
</event>
<event>
 9    1  0.2065703E-002  0.2799186E+03  0.7818608E-02  0.1095733E+00
          2   -1    0    0  501    0  0.00000000000E+00  0.00000000000E+00  0.13337929510E+04  0.13337929510E+04  0.00000000000E+00 0.  1.
         -2   -1    0    0    0  501 -0.00000000000E+00 -0.00000000000E+00 -0.14686387001E+02  0.14686387001E+02  0.00000000000E+00 0.  1.
         36    2    1    2    0    0  0.71054273576E-14  0.00000000000E+00  0.13191065640E+04  0.13484793380E+04  0.27991855571E+03 0.  0.
         25    2    3    3    0    0  0.13818911182E+02  0.54846251912E+02  0.53721827322E+03  0.55511096248E+03  0.12785004471E+03 0.  0.
         25    2    3    3    0    0 -0.13818911182E+02 -0.54846251912E+02  0.78188829074E+03  0.79336837548E+03  0.12200412436E+03 0.  0.
          5    1    4    4  502    0 -0.78311179814E+01  0.93463560606E+02  0.32627034204E+03  0.33951611105E+03  0.47000000000E+01 0.  1.
         -5    1    4    4    0  502  0.21650029164E+02 -0.38617308693E+02  0.21094793118E+03  0.21559485143E+03  0.47000000000E+01 0.  1.
          5    1    5    5  503    0 -0.49214201747E+02 -0.71607632639E+02  0.39480527564E+03  0.40428082613E+03  0.47000000000E+01 0.  1.
         -5    1    5    5    0  503  0.35395290565E+02  0.16761380727E+02  0.38708301510E+03  0.38908754935E+03  0.47000000000E+01 0.  1.
<mgrwt>
<rscale>  0 0.27991856E+03</rscale>
<asrwt>0</asrwt>
<pdfrwt beam="1">  1        2 0.20519882E+00 0.27991856E+03</pdfrwt>
<pdfrwt beam="2">  1       -2 0.22594452E-02 0.27991856E+03</pdfrwt>
<totfact> 0.10848577E+04</totfact>
</mgrwt>
</event>
<event>
 9    1  0.2065703E-002  0.2726701E+03  0.7818608E-02  0.1099761E+00
         -2   -1    0    0    0  501 -0.00000000000E+00  0.00000000000E+00  0.12687707092E+04  0.12687707092E+04  0.00000000000E+00 0. -1.
          2   -1    0    0  501    0  0.00000000000E+00 -0.00000000000E+00 -0.14649810444E+02  0.14649810444E+02  0.00000000000E+00 0. -1.
         36    2    1    2    0    0 -0.71054273576E-14  0.00000000000E+00  0.12541208987E+04  0.12834205196E+04  0.27267013321E+03 0.  0.
         25    2    3    3    0    0 -0.49207123579E+02  0.30111436141E+01  0.74356061550E+03  0.75538384349E+03  0.12366064082E+03 0.  0.
         25    2    3    3    0    0  0.49207123579E+02 -0.30111436141E+01  0.51056028324E+03  0.52803667614E+03  0.12538149994E+03 0.  0.
          5    1    4    4  502    0 -0.52004696095E+02  0.78965990667E-01  0.10970689306E+03  0.12149974089E+03  0.47000000000E+01 0. -1.
         -5    1    4    4    0  502  0.27975725161E+01  0.29321776234E+01  0.63385372245E+03  0.63388410261E+03  0.47000000000E+01 0. -1.
          5    1    5    5  503    0  0.87550341632E+02 -0.77843312066E+01  0.26059785025E+03  0.27506178885E+03  0.47000000000E+01 0. -1.
         -5    1    5    5    0  503 -0.38343218053E+02  0.47731875925E+01  0.24996243299E+03  0.25297488729E+03  0.47000000000E+01 0. -1.
<mgrwt>
<rscale>  0 0.27267013E+03</rscale>
<asrwt>0</asrwt>
<pdfrwt beam="1">  1        2 0.22538180E-02 0.27267013E+03</pdfrwt>
<pdfrwt beam="2">  1       -2 0.19519541E+00 0.27267013E+03</pdfrwt>
<totfact> 0.71826899E+02</totfact>
</mgrwt>
</event>
<event>
 9    1  0.2065703E-002  0.2749754E+03  0.7818608E-02  0.1098465E+00
         -1   -1    0    0    0  501 -0.00000000000E+00  0.00000000000E+00  0.98441594700E+01  0.98441594700E+01  0.00000000000E+00 0. -1.
          1   -1    0    0  501    0  0.00000000000E+00 -0.00000000000E+00 -0.19202109582E+04  0.19202109582E+04  0.00000000000E+00 0. -1.
         36    2    1    2    0    0  0.00000000000E+00  0.14210854715E-13 -0.19103667987E+04  0.19300551176E+04  0.27497536536E+03 0.  0.
         25    2    3    3    0    0 -0.42879590717E+02  0.47003665357E+02 -0.10220485855E+04  0.10312734310E+04  0.12203923407E+03 0.  0.
         25    2    3    3    0    0  0.42879590717E+02 -0.47003665357E+02 -0.88831821323E+03  0.89878168660E+03  0.12104242377E+03 0.  0.
          5    1    4    4  502    0 -0.18594605908E+02  0.68373045625E+02 -0.94385262602E+03  0.94652020706E+03  0.47000000000E+01 0.  1.
         -5    1    4    4    0  502 -0.24284984809E+02 -0.21369380268E+02 -0.78195959457E+02  0.84753223983E+02  0.47000000000E+01 0.  1.
          5    1    5    5  503    0  0.50378849874E+01  0.99141074966E+01 -0.54277856498E+01  0.13237094457E+02  0.47000000000E+01 0.  1.
         -5    1    5    5    0  503  0.37841705729E+02 -0.56917772854E+02 -0.88289042758E+03  0.88554459215E+03  0.47000000000E+01 0.  1.
<mgrwt>
<rscale>  0 0.27497537E+03</rscale>
<asrwt>0</asrwt>
<pdfrwt beam="1">  1        1 0.29541710E+00 0.27497537E+03</pdfrwt>
<pdfrwt beam="2">  1       -1 0.15144859E-02 0.27497537E+03</pdfrwt>
<totfact> 0.39123419E+03</totfact>
</mgrwt>
</event>
<event>
 9    1  0.2065703E-002  0.2736917E+03  0.7818608E-02  0.1099185E+00
         -1   -1    0    0    0  501 -0.00000000000E+00  0.00000000000E+00  0.29481395623E+02  0.29481395623E+02  0.00000000000E+00 0. -1.
          1   -1    0    0  501    0  0.00000000000E+00 -0.00000000000E+00 -0.63520701930E+03  0.63520701930E+03  0.00000000000E+00 0. -1.
         36    2    1    2    0    0 -0.28421709430E-13  0.53290705182E-14 -0.60572562368E+03  0.66468841493E+03  0.27369172029E+03 0.  0.
         25    2    3    3    0    0 -0.95411746470E+02 -0.13258434722E+02 -0.31986414565E+03  0.35555667767E+03  0.12177147410E+03 0.  0.
         25    2    3    3    0    0  0.95411746470E+02  0.13258434722E+02 -0.28586147803E+03  0.30913173726E+03  0.67575579202E+02 0.  0.
          5    1    4    4  502    0 -0.27626320981E+02  0.42990141640E+02 -0.50024093317E+02  0.71664955183E+02  0.47000000000E+01 0. -1.
         -5    1    4    4    0  502 -0.67785425489E+02 -0.56248576362E+02 -0.26984005233E+03  0.28389172248E+03  0.47000000000E+01 0. -1.
          5    1    5    5  503    0  0.93332317928E+02  0.96884045392E+01 -0.28766555477E+03  0.30261914703E+03  0.47000000000E+01 0.  1.
         -5    1    5    5    0  503  0.20794285425E+01  0.35700301827E+01  0.18040767381E+01  0.65125902256E+01  0.47000000000E+01 0.  1.
<mgrwt>
<rscale>  0 0.27369172E+03</rscale>
<asrwt>0</asrwt>
<pdfrwt beam="1">  1        1 0.97724153E-01 0.27369172E+03</pdfrwt>
<pdfrwt beam="2">  1       -1 0.45355995E-02 0.27369172E+03</pdfrwt>
<totfact> 0.65882280E+03</totfact>
</mgrwt>
</event>
<event>
 9    1  0.2065703E-002  0.2753118E+03  0.7818608E-02  0.1098277E+00
         -1   -1    0    0    0  501 -0.00000000000E+00  0.00000000000E+00  0.10596588868E+03  0.10596588868E+03  0.00000000000E+00 0. -1.
          1   -1    0    0  501    0  0.00000000000E+00 -0.00000000000E+00 -0.17882308057E+03  0.17882308057E+03  0.00000000000E+00 0. -1.
         36    2    1    2    0    0  0.00000000000E+00 -0.35527136788E-14 -0.72857191887E+02  0.28478896925E+03  0.27531179887E+03 0.  0.
         25    2    3    3    0    0 -0.27516435797E+02 -0.19029614848E+02  0.12911699789E+02  0.12918166303E+03  0.12410443019E+03 0.  0.
         25    2    3    3    0    0  0.27516435797E+02  0.19029614848E+02 -0.85768891677E+02  0.15560730621E+03  0.12545138695E+03 0.  0.
          5    1    4    4  502    0 -0.28328994622E+02  0.37765020558E+02 -0.31481800964E+02  0.56937882872E+02  0.47000000000E+01 0. -1.
         -5    1    4    4    0  502  0.81255882482E+00 -0.56794635405E+02  0.44393500754E+02  0.72243780160E+02  0.47000000000E+01 0. -1.
          5    1    5    5  503    0  0.65035402862E+02  0.32510324484E+02 -0.15214083506E+02  0.74431734901E+02  0.47000000000E+01 0.  1.
         -5    1    5    5    0  503 -0.37518967065E+02 -0.13480709636E+02 -0.70554808171E+02  0.81175571313E+02  0.47000000000E+01 0.  1.
<mgrwt>
<rscale>  0 0.27531180E+03</rscale>
<asrwt>0</asrwt>
<pdfrwt beam="1">  1        1 0.27511243E-01 0.27531180E+03</pdfrwt>
<pdfrwt beam="2">  1       -1 0.16302444E-01 0.27531180E+03</pdfrwt>
<totfact> 0.47254822E+03</totfact>
</mgrwt>
</event>
<event>
 9    1  0.2065703E-002  0.2751914E+03  0.7818608E-02  0.1098345E+00
          1   -1    0    0  501    0  0.00000000000E+00  0.00000000000E+00  0.36245036295E+03  0.36245036295E+03  0.00000000000E+00 0.  1.
         -1   -1    0    0    0  501 -0.00000000000E+00 -0.00000000000E+00 -0.52234934249E+02  0.52234934249E+02  0.00000000000E+00 0.  1.
         36    2    1    2    0    0 -0.71054273576E-14  0.00000000000E+00  0.31021542870E+03  0.41468529719E+03  0.27519135798E+03 0.  0.
         25    2    3    3    0    0 -0.40873296242E+02  0.31757825922E+02  0.11147561125E+03  0.17501435257E+03  0.12459544875E+03 0.  0.
         25    2    3    3    0    0  0.40873296242E+02 -0.31757825922E+02  0.19873981744E+03  0.23967094462E+03  0.12355347346E+03 0.  0.
          5    1    4    4  502    0 -0.60723168416E+02 -0.12271304820E+02  0.10534729437E+02  0.63015542756E+02  0.47000000000E+01 0.  1.
         -5    1    4    4    0  502  0.19849872175E+02  0.44029130742E+02  0.10094088182E+03  0.11199880982E+03  0.47000000000E+01 0.  1.
          5    1    5    5  503    0  0.14299764060E+01 -0.60364821753E+02  0.37662582430E+02  0.71319819497E+02  0.47000000000E+01 0. -1.
         -5    1    5    5    0  503  0.39443319836E+02  0.28606995831E+02  0.16107723501E+03  0.16835112512E+03  0.47000000000E+01 0. -1.
<mgrwt>
<rscale>  0 0.27519136E+03</rscale>
<asrwt>0</asrwt>
<pdfrwt beam="1">  1        1 0.55761593E-01 0.27519136E+03</pdfrwt>
<pdfrwt beam="2">  1       -1 0.80361440E-02 0.27519136E+03</pdfrwt>
<totfact> 0.58478528E+03</totfact>
</mgrwt>
</event>
<event>
 9    1  0.2065703E-002  0.2752021E+03  0.7818608E-02  0.1098339E+00
          2   -1    0    0  501    0  0.00000000000E+00  0.00000000000E+00  0.60272743679E+03  0.60272743679E+03  0.00000000000E+00 0. -1.
         -2   -1    0    0    0  501 -0.00000000000E+00 -0.00000000000E+00 -0.31413947663E+02  0.31413947663E+02  0.00000000000E+00 0. -1.
         36    2    1    2    0    0 -0.14210854715E-13 -0.71054273576E-14  0.57131348912E+03  0.63414138445E+03  0.27520209414E+03 0.  0.
         25    2    3    3    0    0 -0.57008608134E+02 -0.34410077090E+02  0.27657367670E+03  0.31073355260E+03  0.12501322835E+03 0.  0.
         25    2    3    3    0    0  0.57008608134E+02  0.34410077090E+02  0.29473981243E+03  0.32340783185E+03  0.11526939692E+03 0.  0.
          5    1    4    4  502    0  0.57009626506E+01  0.24727980467E+02  0.17733570755E+03  0.17920384250E+03  0.47000000000E+01 0. -1.
         -5    1    4    4    0  502 -0.62709570784E+02 -0.59138057557E+02  0.99237969147E+02  0.13152971010E+03  0.47000000000E+01 0. -1.
          5    1    5    5  503    0  0.92762316475E+01 -0.61250772524E+01 -0.78324251224E+01  0.14387561580E+02  0.47000000000E+01 0.  1.
         -5    1    5    5    0  503  0.47732376486E+02  0.40535154343E+02  0.30257223755E+03  0.30902027027E+03  0.47000000000E+01 0.  1.
<mgrwt>
<rscale>  0 0.27520209E+03</rscale>
<asrwt>0</asrwt>
<pdfrwt beam="1">  1        2 0.92727290E-01 0.27520209E+03</pdfrwt>
<pdfrwt beam="2">  1       -2 0.48329155E-02 0.27520209E+03</pdfrwt>
<totfact> 0.10301608E+04</totfact>
</mgrwt>
</event>
<event>
 9    1  0.2065703E-002  0.2825954E+03  0.7818608E-02  0.1094280E+00
          1   -1    0    0  501    0  0.00000000000E+00  0.00000000000E+00  0.12589828443E+02  0.12589828443E+02  0.00000000000E+00 0. -1.
         -1   -1    0    0    0  501 -0.00000000000E+00 -0.00000000000E+00 -0.15858066566E+04  0.15858066566E+04  0.00000000000E+00 0. -1.
         36    2    1    2    0    0  0.35527136788E-14  0.00000000000E+00 -0.15732168282E+04  0.15983964851E+04  0.28259535559E+03 0.  0.
         25    2    3    3    0    0 -0.19845908672E+02 -0.37422385244E+02 -0.52441688453E+03  0.54148434107E+03  0.12805439406E+03 0.  0.
         25    2    3    3    0    0  0.19845908672E+02  0.37422385244E+02 -0.10487999436E+04  0.10569121440E+04  0.12364329061E+03 0.  0.
          5    1    4    4  502    0 -0.42550384335E+02  0.70535418549E+01 -0.58277459224E+02  0.72654249107E+02  0.47000000000E+01 0.  1.
         -5    1    4    4    0  502  0.22704475663E+02 -0.44475927099E+02 -0.46613942531E+03  0.46883009197E+03  0.47000000000E+01 0.  1.
          5    1    5    5  503    0 -0.63637214177E+00 -0.25012188954E+02 -0.51597458694E+02  0.57536095709E+02  0.47000000000E+01 0.  1.
         -5    1    5    5    0  503  0.20482280814E+02  0.62434574198E+02 -0.99720248494E+03  0.99937604827E+03  0.47000000000E+01 0.  1.
<mgrwt>
<rscale>  0 0.28259536E+03</rscale>
<asrwt>0</asrwt>
<pdfrwt beam="1">  1        1 0.19368970E-02 0.28259536E+03</pdfrwt>
<pdfrwt beam="2">  1       -1 0.24397022E+00 0.28259536E+03</pdfrwt>
<totfact> 0.54837273E+02</totfact>
</mgrwt>
</event>
<event>
 9    1  0.2065703E-002  0.2777950E+03  0.7818608E-02  0.1096899E+00
          1   -1    0    0  501    0  0.00000000000E+00  0.00000000000E+00  0.34878052627E+03  0.34878052627E+03  0.00000000000E+00 0.  1.
         -1   -1    0    0    0  501 -0.00000000000E+00 -0.00000000000E+00 -0.55314187349E+02  0.55314187349E+02  0.00000000000E+00 0.  1.
         36    2    1    2    0    0  0.00000000000E+00  0.71054273576E-14  0.29346633892E+03  0.40409471362E+03  0.27779497025E+03 0.  0.
         25    2    3    3    0    0  0.20200607040E+02  0.44966900182E+02  0.13050190574E+03  0.19336338122E+03  0.13389758458E+03 0.  0.
         25    2    3    3    0    0 -0.20200607040E+02 -0.44966900182E+02  0.16296443318E+03  0.21073133240E+03  0.12417810330E+03 0.  0.
          5    1    4    4  502    0 -0.19160866028E+02 -0.23035700479E+02  0.10700159142E+03  0.11121696296E+03  0.47000000000E+01 0. -1.
         -5    1    4    4    0  502  0.39361473068E+02  0.68002600661E+02  0.23500314321E+02  0.82146418254E+02  0.47000000000E+01 0. -1.
          5    1    5    5  503    0  0.94099874648E+01 -0.34761736882E+02  0.17357251235E+03  0.17733142209E+03  0.47000000000E+01 0. -1.
         -5    1    5    5    0  503 -0.29610594505E+02 -0.10205163300E+02 -0.10608079179E+02  0.33399910311E+02  0.47000000000E+01 0. -1.
<mgrwt>
<rscale>  0 0.27779497E+03</rscale>
<asrwt>0</asrwt>
<pdfrwt beam="1">  1        1 0.53658541E-01 0.27779497E+03</pdfrwt>
<pdfrwt beam="2">  1       -1 0.85098752E-02 0.27779497E+03</pdfrwt>
<totfact> 0.56268904E+03</totfact>
</mgrwt>
</event>
<event>
 9    1  0.2065703E-002  0.2746068E+03  0.7818608E-02  0.1098672E+00
          2   -1    0    0  501    0  0.00000000000E+00  0.00000000000E+00  0.56380048707E+03  0.56380048707E+03  0.00000000000E+00 0.  1.
         -2   -1    0    0    0  501 -0.00000000000E+00 -0.00000000000E+00 -0.33437754035E+02  0.33437754035E+02  0.00000000000E+00 0.  1.
         36    2    1    2    0    0 -0.71054273576E-14  0.00000000000E+00  0.53036273303E+03  0.59723824110E+03  0.27460678805E+03 0.  0.
         25    2    3    3    0    0  0.62013676253E+02  0.12467988244E+02  0.32953628541E+03  0.35319020040E+03  0.11021799981E+03 0.  0.
         25    2    3    3    0    0 -0.62013676253E+02 -0.12467988244E+02  0.20082644762E+03  0.24404804071E+03  0.12339788221E+03 0.  0.
          5    1    4    4  502    0  0.52721781599E+00 -0.33934726754E+02  0.36082798944E+02  0.49758436653E+02  0.47000000000E+01 0.  1.
         -5    1    4    4    0  502  0.61486458437E+02  0.46402714997E+02  0.29345348647E+03  0.30343176375E+03  0.47000000000E+01 0.  1.
          5    1    5    5  503    0 -0.58218518874E+02 -0.14974894992E+02  0.21772910195E+03  0.22592409180E+03  0.47000000000E+01 0.  1.
         -5    1    5    5    0  503 -0.37951573782E+01  0.25069067483E+01 -0.16902654322E+02  0.18123948910E+02  0.47000000000E+01 0.  1.
<mgrwt>
<rscale>  0 0.27460679E+03</rscale>
<asrwt>0</asrwt>
<pdfrwt beam="1">  1        2 0.86738530E-01 0.27460679E+03</pdfrwt>
<pdfrwt beam="2">  1       -2 0.51442703E-02 0.27460679E+03</pdfrwt>
<totfact> 0.10118533E+04</totfact>
</mgrwt>
</event>
<event>
 9    1  0.2065703E-002  0.2843159E+03  0.7818608E-02  0.1093355E+00
          2   -1    0    0  501    0  0.00000000000E+00  0.00000000000E+00  0.91477092585E+03  0.91477092585E+03  0.00000000000E+00 0. -1.
         -2   -1    0    0    0  501 -0.00000000000E+00 -0.00000000000E+00 -0.22091739506E+02  0.22091739506E+02  0.00000000000E+00 0. -1.
         36    2    1    2    0    0  0.14210854715E-13  0.14210854715E-13  0.89267918634E+03  0.93686266535E+03  0.28431588771E+03 0.  0.
         25    2    3    3    0    0 -0.31119909564E+02 -0.45985741561E+02  0.57404542464E+03  0.59037662564E+03  0.12622707060E+03 0.  0.
         25    2    3    3    0    0  0.31119909564E+02  0.45985741561E+02  0.31863376170E+03  0.34648603971E+03  0.12426570091E+03 0.  0.
          5    1    4    4  502    0 -0.77896376382E+02 -0.37719168162E+02  0.30271091931E+03  0.31487548614E+03  0.47000000000E+01 0. -1.
         -5    1    4    4    0  502  0.46776466818E+02 -0.82665733990E+01  0.27133450533E+03  0.27550113950E+03  0.47000000000E+01 0. -1.
          5    1    5    5  503    0  0.17448529711E+02 -0.34748357800E+02  0.39798199477E+02  0.55838035787E+02  0.47000000000E+01 0.  1.
         -5    1    5    5    0  503  0.13671379853E+02  0.80734099362E+02  0.27883556222E+03  0.29064800393E+03  0.47000000000E+01 0.  1.
<mgrwt>
<rscale>  0 0.28431589E+03</rscale>
<asrwt>0</asrwt>
<pdfrwt beam="1">  1        2 0.14073396E+00 0.28431589E+03</pdfrwt>
<pdfrwt beam="2">  1       -2 0.33987299E-02 0.28431589E+03</pdfrwt>
<totfact> 0.10425651E+04</totfact>
</mgrwt>
</event>
<event>
 9    1  0.2065703E-002  0.2750024E+03  0.7818608E-02  0.1098450E+00
          2   -1    0    0  501    0  0.00000000000E+00  0.00000000000E+00  0.81609801082E+03  0.81609801082E+03  0.00000000000E+00 0.  1.
         -2   -1    0    0    0  501 -0.00000000000E+00 -0.00000000000E+00 -0.23167038478E+02  0.23167038478E+02  0.00000000000E+00 0.  1.
         36    2    1    2    0    0 -0.71054273576E-14  0.71054273576E-14  0.79293097234E+03  0.83926504929E+03  0.27500235649E+03 0.  0.
         25    2    3    3    0    0  0.31188640284E+02 -0.18540576199E+02  0.42646671685E+03  0.45042290214E+03  0.14032264942E+03 0.  0.
         25    2    3    3    0    0 -0.31188640284E+02  0.18540576199E+02  0.36646425548E+03  0.38884214715E+03  0.12484262336E+03 0.  0.
          5    1    4    4  502    0  0.52452952826E+02 -0.69609248786E+02  0.22171932786E+03  0.23828199706E+03  0.47000000000E+01 0. -1.
         -5    1    4    4    0  502 -0.21264312542E+02  0.51068672587E+02  0.20474738899E+03  0.21214090508E+03  0.47000000000E+01 0. -1.
          5    1    5    5  503    0  0.46140800138E+02  0.20098258683E+02  0.17885303252E+03  0.18585857710E+03  0.47000000000E+01 0.  1.
         -5    1    5    5    0  503 -0.77329440422E+02 -0.15576824842E+01  0.18761122296E+03  0.20298357006E+03  0.47000000000E+01 0.  1.
<mgrwt>
<rscale>  0 0.27500236E+03</rscale>
<asrwt>0</asrwt>
<pdfrwt beam="1">  1        2 0.12555352E+00 0.27500236E+03</pdfrwt>
<pdfrwt beam="2">  1       -2 0.35641604E-02 0.27500236E+03</pdfrwt>
<totfact> 0.11271173E+04</totfact>
</mgrwt>
</event>
<event>
 9    1  0.2065703E-002  0.2753002E+03  0.7818608E-02  0.1098284E+00
          2   -1    0    0  501    0  0.00000000000E+00  0.00000000000E+00  0.48228975962E+03  0.48228975962E+03  0.00000000000E+00 0.  1.
         -2   -1    0    0    0  501 -0.00000000000E+00 -0.00000000000E+00 -0.39286644883E+02  0.39286644883E+02  0.00000000000E+00 0.  1.
         36    2    1    2    0    0  0.00000000000E+00  0.00000000000E+00  0.44300311474E+03  0.52157640450E+03  0.27530017448E+03 0.  0.
         25    2    3    3    0    0  0.60851500087E+02  0.58662471998E+01  0.23734546511E+03  0.28559965494E+03  0.14661846806E+03 0.  0.
         25    2    3    3    0    0 -0.60851500087E+02 -0.58662471998E+01  0.20565764963E+03  0.23597674956E+03  0.98247847635E+02 0.  0.
          5    1    4    4  502    0 -0.15270484671E+02 -0.37219078710E+01 -0.14740495506E+02  0.22054761573E+02  0.47000000000E+01 0.  1.
         -5    1    4    4    0  502  0.76121984757E+02  0.95881550708E+01  0.25208596062E+03  0.26354489337E+03  0.47000000000E+01 0.  1.
          5    1    5    5  503    0 -0.48303846703E+02 -0.22663905185E+02  0.35028495273E+02  0.63999997544E+02  0.47000000000E+01 0. -1.
         -5    1    5    5    0  503 -0.12547653384E+02  0.16797657985E+02  0.17062915435E+03  0.17197675202E+03  0.47000000000E+01 0. -1.
<mgrwt>
<rscale>  0 0.27530017E+03</rscale>
<asrwt>0</asrwt>
<pdfrwt beam="1">  1        2 0.74198420E-01 0.27530017E+03</pdfrwt>
<pdfrwt beam="2">  1       -2 0.60440996E-02 0.27530017E+03</pdfrwt>
<totfact> 0.94329554E+03</totfact>
</mgrwt>
</event>
<event>
 9    1  0.2065703E-002  0.2748926E+03  0.7818608E-02  0.1098512E+00
          2   -1    0    0  501    0  0.00000000000E+00  0.00000000000E+00  0.11707213257E+03  0.11707213257E+03  0.00000000000E+00 0. -1.
         -2   -1    0    0    0  501 -0.00000000000E+00 -0.00000000000E+00 -0.16136615936E+03  0.16136615936E+03  0.00000000000E+00 0. -1.
         36    2    1    2    0    0  0.71054273576E-14  0.35527136788E-14 -0.44294026790E+02  0.27843829194E+03  0.27489256375E+03 0.  0.
         25    2    3    3    0    0  0.39737718680E+02  0.17069634608E+02 -0.65029866836E+02  0.14690842864E+03  0.12442967537E+03 0.  0.
         25    2    3    3    0    0 -0.39737718680E+02 -0.17069634608E+02  0.20735840046E+02  0.13152986330E+03  0.12247314467E+03 0.  0.
          5    1    4    4  502    0  0.32456781841E+01 -0.44105896453E+02 -0.60887626868E+02  0.75400647440E+02  0.47000000000E+01 0.  1.
         -5    1    4    4    0  502  0.36492040496E+02  0.61175531060E+02 -0.41422399673E+01  0.71507781199E+02  0.47000000000E+01 0.  1.
          5    1    5    5  503    0  0.35673355702E+02 -0.15807234242E+02 -0.21667515401E+02  0.44877925365E+02  0.47000000000E+01 0. -1.
         -5    1    5    5    0  503 -0.75411074382E+02 -0.12624003650E+01  0.42403355446E+02  0.86651937931E+02  0.47000000000E+01 0. -1.
<mgrwt>
<rscale>  0 0.27489256E+03</rscale>
<asrwt>0</asrwt>
<pdfrwt beam="1">  1        2 0.18011097E-01 0.27489256E+03</pdfrwt>
<pdfrwt beam="2">  1       -2 0.24825563E-01 0.27489256E+03</pdfrwt>
<totfact> 0.44872876E+03</totfact>
</mgrwt>
</event>
<event>
 9    1  0.2065703E-002  0.2778033E+03  0.7818608E-02  0.1096895E+00
          1   -1    0    0  501    0  0.00000000000E+00  0.00000000000E+00  0.86749804137E+03  0.86749804137E+03  0.00000000000E+00 0. -1.
         -1   -1    0    0    0  501 -0.00000000000E+00 -0.00000000000E+00 -0.22240590520E+02  0.22240590520E+02  0.00000000000E+00 0. -1.
         36    2    1    2    0    0  0.00000000000E+00  0.35527136788E-14  0.84525745085E+03  0.88973863189E+03  0.27780330247E+03 0.  0.
         25    2    3    3    0    0 -0.37713456065E+02  0.13128739629E+02  0.55726663259E+03  0.57252794995E+03  0.12508990811E+03 0.  0.
         25    2    3    3    0    0  0.37713456065E+02 -0.13128739629E+02  0.28799081826E+03  0.31721068194E+03  0.12684335520E+03 0.  0.
          5    1    4    4  502    0 -0.10488029569E+02 -0.36178683945E+02  0.53491426546E+02  0.65592062402E+02  0.47000000000E+01 0.  1.
         -5    1    4    4    0  502 -0.27225426496E+02  0.49307423574E+02  0.50377520604E+03  0.50693588755E+03  0.47000000000E+01 0.  1.
          5    1    5    5  503    0  0.56333540365E+02 -0.22563453466E+02  0.28943488371E+03  0.29576547992E+03  0.47000000000E+01 0.  1.
         -5    1    5    5    0  503 -0.18620084300E+02  0.94347138368E+01 -0.14440654487E+01  0.21445202017E+02  0.47000000000E+01 0.  1.
<mgrwt>
<rscale>  0 0.27780330E+03</rscale>
<asrwt>0</asrwt>
<pdfrwt beam="1">  1        1 0.13346121E+00 0.27780330E+03</pdfrwt>
<pdfrwt beam="2">  1       -1 0.34216300E-02 0.27780330E+03</pdfrwt>
<totfact> 0.62849756E+03</totfact>
</mgrwt>
</event>
<event>
 9    1  0.2065703E-002  0.2752569E+03  0.7818608E-02  0.1098308E+00
         -2   -1    0    0    0  501 -0.00000000000E+00  0.00000000000E+00  0.76798387253E+01  0.76798387253E+01  0.00000000000E+00 0.  1.
          2   -1    0    0  501    0  0.00000000000E+00 -0.00000000000E+00 -0.24664052032E+04  0.24664052032E+04  0.00000000000E+00 0.  1.
         36    2    1    2    0    0  0.00000000000E+00 -0.35527136788E-14 -0.24587253644E+04  0.24740850419E+04  0.27525692864E+03 0.  0.
         25    2    3    3    0    0  0.19621090104E+02  0.10721761559E+02 -0.74797451198E+03  0.75850891680E+03  0.12397565466E+03 0.  0.
         25    2    3    3    0    0 -0.19621090104E+02 -0.10721761559E+02 -0.17107508525E+04  0.17155761251E+04  0.12662155596E+03 0.  0.
          5    1    4    4  502    0  0.59423387670E+02  0.31473817061E+01 -0.64491262118E+03  0.64766922420E+03  0.47000000000E+01 0.  1.
         -5    1    4    4    0  502 -0.39802297566E+02  0.75743798526E+01 -0.10306189080E+03  0.11083969260E+03  0.47000000000E+01 0.  1.
          5    1    5    5  503    0 -0.46637778125E+02 -0.40954654818E+02 -0.14753726339E+04  0.14766850933E+04  0.47000000000E+01 0.  1.
         -5    1    5    5    0  503  0.27016688021E+02  0.30232893259E+02 -0.23537821858E+03  0.23889103175E+03  0.47000000000E+01 0.  1.
<mgrwt>
<rscale>  0 0.27525693E+03</rscale>
<asrwt>0</asrwt>
<pdfrwt beam="1">  1        2 0.37944665E+00 0.27525693E+03</pdfrwt>
<pdfrwt beam="2">  1       -2 0.11815146E-02 0.27525693E+03</pdfrwt>
<totfact> 0.69971852E+03</totfact>
</mgrwt>
</event>
<event>
 9    1  0.2065703E-002  0.2742484E+03  0.7818608E-02  0.1098872E+00
          2   -1    0    0  501    0  0.00000000000E+00  0.00000000000E+00  0.91354573822E+03  0.91354573822E+03  0.00000000000E+00 0.  1.
         -2   -1    0    0    0  501 -0.00000000000E+00 -0.00000000000E+00 -0.20582494435E+02  0.20582494435E+02  0.00000000000E+00 0.  1.
         36    2    1    2    0    0 -0.35527136788E-14  0.00000000000E+00  0.89296324378E+03  0.93412823265E+03  0.27424842806E+03 0.  0.
         25    2    3    3    0    0 -0.14951075948E+02  0.29694569464E+02  0.37860734277E+03  0.39983017583E+03  0.12415855740E+03 0.  0.
         25    2    3    3    0    0  0.14951075948E+02 -0.29694569464E+02  0.51435590101E+03  0.53429805683E+03  0.14073776499E+03 0.  0.
          5    1    4    4  502    0 -0.27506847178E+02 -0.17642391836E+02  0.21609334395E+02  0.39458002539E+02  0.47000000000E+01 0. -1.
         -5    1    4    4    0  502  0.12555771231E+02  0.47336961300E+02  0.35699800837E+03  0.36037217329E+03  0.47000000000E+01 0. -1.
          5    1    5    5  503    0 -0.23551901521E+02  0.45713027183E+02  0.11535050840E+03  0.12638118019E+03  0.47000000000E+01 0. -1.
         -5    1    5    5    0  503  0.38502977468E+02 -0.75407596647E+02  0.39900539261E+03  0.40791687663E+03  0.47000000000E+01 0. -1.
<mgrwt>
<rscale>  0 0.27424843E+03</rscale>
<asrwt>0</asrwt>
<pdfrwt beam="1">  1        2 0.14054547E+00 0.27424843E+03</pdfrwt>
<pdfrwt beam="2">  1       -2 0.31665383E-02 0.27424843E+03</pdfrwt>
<totfact> 0.11595600E+04</totfact>
</mgrwt>
</event>
<event>
 9    1  0.2065703E-002  0.2758377E+03  0.7818608E-02  0.1097984E+00
         -2   -1    0    0    0  501 -0.00000000000E+00  0.00000000000E+00  0.56143484577E+01  0.56143484577E+01  0.00000000000E+00 0.  1.
          2   -1    0    0  501    0  0.00000000000E+00 -0.00000000000E+00 -0.33880361218E+04  0.33880361218E+04  0.00000000000E+00 0.  1.
         36    2    1    2    0    0  0.00000000000E+00  0.00000000000E+00 -0.33824217733E+04  0.33936504702E+04  0.27583774488E+03 0.  0.
         25    2    3    3    0    0 -0.22148676875E+02 -0.62675975993E+02 -0.14865715223E+04  0.14927071091E+04  0.11773181718E+03 0.  0.
         25    2    3    3    0    0  0.22148676875E+02  0.62675975993E+02 -0.18958502510E+04  0.19009433611E+04  0.12214190975E+03 0.  0.
          5    1    4    4  502    0 -0.56111088398E+02 -0.38846559146E+02 -0.12868898601E+04  0.12887067593E+04  0.47000000000E+01 0. -1.
         -5    1    4    4    0  502  0.33962411523E+02 -0.23829416847E+02 -0.19968166222E+03  0.20400034983E+03  0.47000000000E+01 0. -1.
          5    1    5    5  503    0 -0.41811954910E+02  0.50559572280E+02 -0.63318147985E+03  0.63658886760E+03  0.47000000000E+01 0.  1.
         -5    1    5    5    0  503  0.63960631785E+02  0.12116403713E+02 -0.12626687711E+04  0.12643544935E+04  0.47000000000E+01 0.  1.
<mgrwt>
<rscale>  0 0.27583774E+03</rscale>
<asrwt>0</asrwt>
<pdfrwt beam="1">  1        2 0.52123748E+00 0.27583774E+03</pdfrwt>
<pdfrwt beam="2">  1       -2 0.86374400E-03 0.27583774E+03</pdfrwt>
<totfact> 0.31650160E+03</totfact>
</mgrwt>
</event>
<event>
 9    1  0.2065703E-002  0.2757739E+03  0.7818608E-02  0.1098020E+00
         -2   -1    0    0    0  501 -0.00000000000E+00  0.00000000000E+00  0.61989329941E+02  0.61989329941E+02  0.00000000000E+00 0. -1.
          2   -1    0    0  501    0  0.00000000000E+00 -0.00000000000E+00 -0.30671093840E+03  0.30671093840E+03  0.00000000000E+00 0. -1.
         36    2    1    2    0    0  0.00000000000E+00  0.71054273576E-14 -0.24472160846E+03  0.36870026834E+03  0.27577386067E+03 0.  0.
         25    2    3    3    0    0  0.50989028363E+02  0.43636776165E+02 -0.16290497839E+02  0.99861399633E+02  0.72130919649E+02 0.  0.
         25    2    3    3    0    0 -0.50989028363E+02 -0.43636776165E+02 -0.22843111062E+03  0.26883886871E+03  0.12485798245E+03 0.  0.
          5    1    4    4  502    0  0.17363806253E+02  0.47095458765E+01 -0.39176085078E+02  0.43365161500E+02  0.47000000000E+01 0.  1.
         -5    1    4    4    0  502  0.33625222110E+02  0.38927230288E+02  0.22885587239E+02  0.56496238132E+02  0.47000000000E+01 0.  1.
          5    1    5    5  503    0 -0.40243437398E+02 -0.78360243263E+02 -0.91546849817E+02  0.12713291348E+03  0.47000000000E+01 0.  1.
         -5    1    5    5    0  503 -0.10745590964E+02  0.34723467098E+02 -0.13688426080E+03  0.14170595523E+03  0.47000000000E+01 0.  1.
<mgrwt>
<rscale>  0 0.27577386E+03</rscale>
<asrwt>0</asrwt>
<pdfrwt beam="1">  1        2 0.47186298E-01 0.27577386E+03</pdfrwt>
<pdfrwt beam="2">  1       -2 0.95368200E-02 0.27577386E+03</pdfrwt>
<totfact> 0.75848422E+03</totfact>
</mgrwt>
</event>
<event>
 9    1  0.2065703E-002  0.2759523E+03  0.7818608E-02  0.1097920E+00
         -1   -1    0    0    0  501 -0.00000000000E+00  0.00000000000E+00  0.83814608452E+02  0.83814608452E+02  0.00000000000E+00 0.  1.
          1   -1    0    0  501    0  0.00000000000E+00 -0.00000000000E+00 -0.22713727486E+03  0.22713727486E+03  0.00000000000E+00 0.  1.
         36    2    1    2    0    0  0.00000000000E+00  0.00000000000E+00 -0.14332266641E+03  0.31095188332E+03  0.27595232746E+03 0.  0.
         25    2    3    3    0    0 -0.17330515922E+02 -0.53065307545E+02 -0.91341549589E+02  0.16305365224E+03  0.12299163053E+03 0.  0.
         25    2    3    3    0    0  0.17330515922E+02  0.53065307545E+02 -0.51981116823E+02  0.14789823108E+03  0.12671060178E+03 0.  0.
          5    1    4    4  502    0 -0.40294081531E+02 -0.60111305277E+02 -0.11036202617E+03  0.13205623366E+03  0.47000000000E+01 0. -1.
         -5    1    4    4    0  502  0.22963565608E+02  0.70459977321E+01  0.19020476577E+02  0.30997418581E+02  0.47000000000E+01 0. -1.
          5    1    5    5  503    0 -0.42229047924E+02 -0.16736123775E+02 -0.25382382341E+02  0.52246967959E+02  0.47000000000E+01 0.  1.
         -5    1    5    5    0  503  0.59559563847E+02  0.69801431320E+02 -0.26598734482E+02  0.95651263117E+02  0.47000000000E+01 0.  1.
<mgrwt>
<rscale>  0 0.27595233E+03</rscale>
<asrwt>0</asrwt>
<pdfrwt beam="1">  1        1 0.34944196E-01 0.27595233E+03</pdfrwt>
<pdfrwt beam="2">  1       -1 0.12894555E-01 0.27595233E+03</pdfrwt>
<totfact> 0.50669599E+03</totfact>
</mgrwt>
</event>
<event>
 9    1  0.2065703E-002  0.2751203E+03  0.7818608E-02  0.1098384E+00
         -2   -1    0    0    0  501 -0.00000000000E+00  0.00000000000E+00  0.23587754792E+04  0.23587754792E+04  0.00000000000E+00 0.  1.
          2   -1    0    0  501    0  0.00000000000E+00 -0.00000000000E+00 -0.80222953664E+01  0.80222953664E+01  0.00000000000E+00 0.  1.
         36    2    1    2    0    0  0.00000000000E+00  0.00000000000E+00  0.23507531839E+04  0.23667977746E+04  0.27512029076E+03 0.  0.
         25    2    3    3    0    0 -0.41308086350E+02  0.22771337643E+02  0.78313060242E+03  0.79326140904E+03  0.11724005634E+03 0.  0.
         25    2    3    3    0    0  0.41308086350E+02 -0.22771337643E+02  0.15676225815E+04  0.15735363656E+04  0.12787198308E+03 0.  0.
          5    1    4    4  502    0 -0.26235079509E+02  0.60473907563E+02  0.25070476174E+03  0.25926885746E+03  0.47000000000E+01 0.  1.
         -5    1    4    4    0  502 -0.15073006841E+02 -0.37702569920E+02  0.53242584068E+03  0.53399255158E+03  0.47000000000E+01 0.  1.
          5    1    5    5  503    0  0.10356252464E+02  0.37618191761E+02  0.17966636146E+03  0.18391430548E+03  0.47000000000E+01 0. -1.
         -5    1    5    5    0  503  0.30951833886E+02 -0.60389529404E+02  0.13879562200E+04  0.13896220601E+04  0.47000000000E+01 0. -1.
<mgrwt>
<rscale>  0 0.27512029E+03</rscale>
<asrwt>0</asrwt>
<pdfrwt beam="1">  1        2 0.12342012E-02 0.27512029E+03</pdfrwt>
<pdfrwt beam="2">  1       -2 0.36288798E+00 0.27512029E+03</pdfrwt>
<totfact> 0.16539682E+02</totfact>
</mgrwt>
</event>
<event>
 9    1  0.2065703E-002  0.2725283E+03  0.7818608E-02  0.1099841E+00
         -1   -1    0    0    0  501 -0.00000000000E+00  0.00000000000E+00  0.10052567946E+02  0.10052567946E+02  0.00000000000E+00 0. -1.
          1   -1    0    0  501    0  0.00000000000E+00 -0.00000000000E+00 -0.18470823307E+04  0.18470823307E+04  0.00000000000E+00 0. -1.
         36    2    1    2    0    0 -0.17763568394E-14  0.71054273576E-14 -0.18370297628E+04  0.18571348987E+04  0.27252831510E+03 0.  0.
         25    2    3    3    0    0  0.13556644358E+02  0.45037565753E+01 -0.12997995278E+04  0.13059092738E+04  0.12536407938E+03 0.  0.
         25    2    3    3    0    0 -0.13556644358E+02 -0.45037565753E+01 -0.53723023496E+03  0.55122562489E+03  0.12259403636E+03 0.  0.
          5    1    4    4  502    0  0.15390144107E+02 -0.51347052138E+02 -0.96055731360E+03  0.96206331341E+03  0.47000000000E+01 0. -1.
         -5    1    4    4    0  502 -0.18334997491E+01  0.55850808713E+02 -0.33924221423E+03  0.34384596038E+03  0.47000000000E+01 0. -1.
          5    1    5    5  503    0 -0.10750144002E+02 -0.58697262013E+02 -0.17573360688E+03  0.18564839011E+03  0.47000000000E+01 0. -1.
         -5    1    5    5    0  503 -0.28065003557E+01  0.54193505438E+02 -0.36149662808E+03  0.36557723478E+03  0.47000000000E+01 0. -1.
<mgrwt>
<rscale>  0 0.27252832E+03</rscale>
<asrwt>0</asrwt>
<pdfrwt beam="1">  1        1 0.28416635E+00 0.27252832E+03</pdfrwt>
<pdfrwt beam="2">  1       -1 0.15465498E-02 0.27252832E+03</pdfrwt>
<totfact> 0.42331259E+03</totfact>
</mgrwt>
</event>
<event>
 9    1  0.2065703E-002  0.2753064E+03  0.7818608E-02  0.1098280E+00
         -2   -1    0    0    0  501 -0.00000000000E+00  0.00000000000E+00  0.13061612057E+02  0.13061612057E+02  0.00000000000E+00 0. -1.
          2   -1    0    0  501    0  0.00000000000E+00 -0.00000000000E+00 -0.14506943066E+04  0.14506943066E+04  0.00000000000E+00 0. -1.
         36    2    1    2    0    0 -0.71054273576E-14 -0.71054273576E-14 -0.14376326945E+04  0.14637559186E+04  0.27530642017E+03 0.  0.
         25    2    3    3    0    0 -0.49740064415E+02 -0.29707579112E+02 -0.63354873868E+03  0.64802987104E+03  0.12329677699E+03 0.  0.
         25    2    3    3    0    0  0.49740064415E+02  0.29707579112E+02 -0.80408395584E+03  0.81572604759E+03  0.12450446746E+03 0.  0.
          5    1    4    4  502    0 -0.37147171752E+02 -0.55818543096E+02 -0.59868193754E+03  0.60244317114E+03  0.47000000000E+01 0.  1.
         -5    1    4    4    0  502 -0.12592892663E+02  0.26110963984E+02 -0.34866801142E+02  0.45586699899E+02  0.47000000000E+01 0.  1.
          5    1    5    5  503    0 -0.97431750177E+01  0.48325430448E+02 -0.13619766697E+03  0.14492125853E+03  0.47000000000E+01 0. -1.
         -5    1    5    5    0  503  0.59483239433E+02 -0.18617851337E+02 -0.66788628887E+03  0.67080478906E+03  0.47000000000E+01 0. -1.
<mgrwt>
<rscale>  0 0.27530642E+03</rscale>
<asrwt>0</asrwt>
<pdfrwt beam="1">  1        2 0.22318380E+00 0.27530642E+03</pdfrwt>
<pdfrwt beam="2">  1       -2 0.20094782E-02 0.27530642E+03</pdfrwt>
<totfact> 0.11134019E+04</totfact>
</mgrwt>
</event>
<event>
 9    1  0.2065703E-002  0.2753149E+03  0.7818608E-02  0.1098276E+00
         -1   -1    0    0    0  501 -0.00000000000E+00  0.00000000000E+00  0.36993267320E+02  0.36993267320E+02  0.00000000000E+00 0. -1.
          1   -1    0    0  501    0  0.00000000000E+00 -0.00000000000E+00 -0.51224369324E+03  0.51224369324E+03  0.00000000000E+00 0. -1.
         36    2    1    2    0    0 -0.17763568394E-14 -0.35527136788E-14 -0.47525042592E+03  0.54923696056E+03  0.27531485886E+03 0.  0.
         25    2    3    3    0    0  0.10933367808E+02 -0.31505696261E+02 -0.34089243533E+03  0.36495861681E+03  0.12599600029E+03 0.  0.
         25    2    3    3    0    0 -0.10933367808E+02  0.31505696261E+02 -0.13435799059E+03  0.18427834375E+03  0.12163178414E+03 0.  0.
          5    1    4    4  502    0  0.23185405298E+02  0.18615019968E+02 -0.12650297135E+02  0.32652748810E+02  0.47000000000E+01 0. -1.
         -5    1    4    4    0  502 -0.12252037490E+02 -0.50120716230E+02 -0.32824213820E+03  0.33230586800E+03  0.47000000000E+01 0. -1.
          5    1    5    5  503    0  0.11558896825E+02  0.71241816583E+02 -0.11174475980E+03  0.13310892482E+03  0.47000000000E+01 0.  1.
         -5    1    5    5    0  503 -0.22492264633E+02 -0.39736120321E+02 -0.22613230792E+02  0.51169418927E+02  0.47000000000E+01 0.  1.
<mgrwt>
<rscale>  0 0.27531486E+03</rscale>
<asrwt>0</asrwt>
<pdfrwt beam="1">  1        1 0.78806724E-01 0.27531486E+03</pdfrwt>
<pdfrwt beam="2">  1       -1 0.56912717E-02 0.27531486E+03</pdfrwt>
<totfact> 0.62979586E+03</totfact>
</mgrwt>
</event>
<event>
 9    1  0.2065703E-002  0.2750459E+03  0.7818608E-02  0.1098426E+00
          1   -1    0    0  501    0  0.00000000000E+00  0.00000000000E+00  0.22868918170E+04  0.22868918170E+04  0.00000000000E+00 0. -1.
         -1   -1    0    0    0  501 -0.00000000000E+00 -0.00000000000E+00 -0.82699855776E+01  0.82699855776E+01  0.00000000000E+00 0. -1.
         36    2    1    2    0    0  0.71054273576E-14 -0.35527136788E-14  0.22786218314E+04  0.22951618025E+04  0.27504590412E+03 0.  0.
         25    2    3    3    0    0 -0.37348331652E+02  0.28404239899E+01  0.76295022023E+03  0.77373831017E+03  0.12318672086E+03 0.  0.
         25    2    3    3    0    0  0.37348331652E+02 -0.28404239899E+01  0.15156716111E+04  0.15214234924E+04  0.12675190088E+03 0.  0.
          5    1    4    4  502    0 -0.76786877963E+02  0.27013809918E+02  0.44528282460E+03  0.45268626491E+03  0.47000000000E+01 0. -1.
         -5    1    4    4    0  502  0.39438546311E+02 -0.24173385928E+02  0.31766739563E+03  0.32105204526E+03  0.47000000000E+01 0. -1.
          5    1    5    5  503    0  0.58832025736E+02 -0.50709381777E+02  0.78144439301E+03  0.78530890611E+03  0.47000000000E+01 0. -1.
         -5    1    5    5    0  503 -0.21483694083E+02  0.47868957787E+02  0.73422721814E+03  0.73611458625E+03  0.47000000000E+01 0. -1.
<mgrwt>
<rscale>  0 0.27504590E+03</rscale>
<asrwt>0</asrwt>
<pdfrwt beam="1">  1        1 0.35182901E+00 0.27504590E+03</pdfrwt>
<pdfrwt beam="2">  1       -1 0.12723073E-02 0.27504590E+03</pdfrwt>
<totfact> 0.29081951E+03</totfact>
</mgrwt>
</event>
<event>
 9    1  0.2065703E-002  0.2746619E+03  0.7818608E-02  0.1098641E+00
         -1   -1    0    0    0  501 -0.00000000000E+00  0.00000000000E+00  0.83936715382E+02  0.83936715382E+02  0.00000000000E+00 0.  1.
          1   -1    0    0  501    0  0.00000000000E+00 -0.00000000000E+00 -0.22469062325E+03  0.22469062325E+03  0.00000000000E+00 0.  1.
         36    2    1    2    0    0  0.14210854715E-13  0.00000000000E+00 -0.14075390787E+03  0.30862733863E+03  0.27466192232E+03 0.  0.
         25    2    3    3    0    0  0.57961079977E+02  0.86939399382E+01 -0.90793364854E+02  0.16544842584E+03  0.12527839051E+03 0.  0.
         25    2    3    3    0    0 -0.57961079977E+02 -0.86939399382E+01 -0.49960543016E+02  0.14317891279E+03  0.12070241847E+03 0.  0.
          5    1    4    4  502    0 -0.34048901054E+02 -0.50930956482E+01  0.86906486878E+00  0.34757913631E+02  0.47000000000E+01 0. -1.
         -5    1    4    4    0  502  0.92009981031E+02  0.13787035586E+02 -0.91662429723E+02  0.13069051221E+03  0.47000000000E+01 0. -1.
          5    1    5    5  503    0 -0.19199147017E+02  0.53964410414E+02 -0.36644436167E+02  0.68159148612E+02  0.47000000000E+01 0. -1.
         -5    1    5    5    0  503 -0.38761932960E+02 -0.62658350352E+02 -0.13316106849E+02  0.75019764178E+02  0.47000000000E+01 0. -1.
<mgrwt>
<rscale>  0 0.27466192E+03</rscale>
<asrwt>0</asrwt>
<pdfrwt beam="1">  1        1 0.34567788E-01 0.27466192E+03</pdfrwt>
<pdfrwt beam="2">  1       -1 0.12913341E-01 0.27466192E+03</pdfrwt>
<totfact> 0.51239061E+03</totfact>
</mgrwt>
</event>
<event>
 9    1  0.2065703E-002  0.2808271E+03  0.7818608E-02  0.1095238E+00
         -1   -1    0    0    0  501 -0.00000000000E+00  0.00000000000E+00  0.32858680792E+02  0.32858680792E+02  0.00000000000E+00 0.  1.
          1   -1    0    0  501    0  0.00000000000E+00 -0.00000000000E+00 -0.60002321086E+03  0.60002321086E+03  0.00000000000E+00 0.  1.
         36    2    1    2    0    0  0.00000000000E+00 -0.71054273576E-14 -0.56716453007E+03  0.63288189165E+03  0.28082714366E+03 0.  0.
         25    2    3    3    0    0  0.35695933543E+02 -0.45704476056E+02 -0.30331883081E+03  0.33522642974E+03  0.13042755565E+03 0.  0.
         25    2    3    3    0    0 -0.35695933543E+02  0.45704476056E+02 -0.26384569926E+03  0.29765546191E+03  0.12498448777E+03 0.  0.
          5    1    4    4  502    0  0.68761245082E+02  0.12252161209E+02 -0.10736342816E+03  0.12816871688E+03  0.47000000000E+01 0. -1.
         -5    1    4    4    0  502 -0.33065311539E+02 -0.57956637265E+02 -0.19595540264E+03  0.20705771286E+03  0.47000000000E+01 0. -1.
          5    1    5    5  503    0  0.43574109699E+01 -0.40032360504E+02 -0.55050463693E+02  0.68368270936E+02  0.47000000000E+01 0. -1.
         -5    1    5    5    0  503 -0.40053344513E+02  0.85736836560E+02 -0.20879523557E+03  0.22928719098E+03  0.47000000000E+01 0. -1.
<mgrwt>
<rscale>  0 0.28082714E+03</rscale>
<asrwt>0</asrwt>
<pdfrwt beam="1">  1        1 0.92311258E-01 0.28082714E+03</pdfrwt>
<pdfrwt beam="2">  1       -1 0.50551819E-02 0.28082714E+03</pdfrwt>
<totfact> 0.60711612E+03</totfact>
</mgrwt>
</event>
<event>
 9    1  0.2065703E-002  0.2749980E+03  0.7818608E-02  0.1098453E+00
          1   -1    0    0  501    0  0.00000000000E+00  0.00000000000E+00  0.46049669646E+03  0.46049669646E+03  0.00000000000E+00 0.  1.
         -1   -1    0    0    0  501 -0.00000000000E+00 -0.00000000000E+00 -0.41055610394E+02  0.41055610394E+02  0.00000000000E+00 0.  1.
         36    2    1    2    0    0  0.00000000000E+00  0.00000000000E+00  0.41944108606E+03  0.50155230685E+03  0.27499798514E+03 0.  0.
         25    2    3    3    0    0  0.64530084961E+02 -0.49717415574E+01  0.20539666390E+03  0.24805671636E+03  0.12310765577E+03 0.  0.
         25    2    3    3    0    0 -0.64530084961E+02  0.49717415574E+01  0.21404442217E+03  0.25349559050E+03  0.11939911918E+03 0.  0.
          5    1    4    4  502    0  0.10496313237E+02  0.48888164744E+02  0.13539264307E+03  0.14440735107E+03  0.47000000000E+01 0.  1.
         -5    1    4    4    0  502  0.54033771724E+02 -0.53859906302E+02  0.70004020824E+02  0.10364936529E+03  0.47000000000E+01 0.  1.
          5    1    5    5  503    0 -0.40588066347E+02 -0.40398530685E+02  0.35208955425E+02  0.67388374023E+02  0.47000000000E+01 0.  1.
         -5    1    5    5    0  503 -0.23942018614E+02  0.45370272243E+02  0.17883546674E+03  0.18610721647E+03  0.47000000000E+01 0.  1.
<mgrwt>
<rscale>  0 0.27499799E+03</rscale>
<asrwt>0</asrwt>
<pdfrwt beam="1">  1        1 0.70845642E-01 0.27499799E+03</pdfrwt>
<pdfrwt beam="2">  1       -1 0.63162481E-02 0.27499799E+03</pdfrwt>
<totfact> 0.61951047E+03</totfact>
</mgrwt>
</event>
<event>
 9    1  0.2065703E-002  0.2727788E+03  0.7818608E-02  0.1099700E+00
          1   -1    0    0  501    0  0.00000000000E+00  0.00000000000E+00  0.16707305129E+04  0.16707305129E+04  0.00000000000E+00 0.  1.
         -1   -1    0    0    0  501 -0.00000000000E+00 -0.00000000000E+00 -0.11134096164E+02  0.11134096164E+02  0.00000000000E+00 0.  1.
         36    2    1    2    0    0  0.35527136788E-14  0.35527136788E-14  0.16595964167E+04  0.16818646090E+04  0.27277884225E+03 0.  0.
         25    2    3    3    0    0  0.12647453779E+01  0.31668017759E+02  0.10363084589E+04  0.10443766676E+04  0.12563016669E+03 0.  0.
         25    2    3    3    0    0 -0.12647453779E+01 -0.31668017759E+02  0.62328795774E+03  0.63748794143E+03  0.12999436247E+03 0.  0.
          5    1    4    4  502    0 -0.43415037140E+02  0.18344208087E+02  0.87804148366E+03  0.87931809515E+03  0.47000000000E+01 0.  1.
         -5    1    4    4    0  502  0.44679782518E+02  0.13323809672E+02  0.15826697528E+03  0.16505857244E+03  0.47000000000E+01 0.  1.
          5    1    5    5  503    0 -0.20103280150E+02 -0.64634391797E+01  0.10809599115E+02  0.24183782827E+02  0.47000000000E+01 0. -1.
         -5    1    5    5    0  503  0.18838534772E+02 -0.25204578579E+02  0.61247835863E+03  0.61330415860E+03  0.47000000000E+01 0. -1.
<mgrwt>
<rscale>  0 0.27277884E+03</rscale>
<asrwt>0</asrwt>
<pdfrwt beam="1">  1        1 0.25703526E+00 0.27277884E+03</pdfrwt>
<pdfrwt beam="2">  1       -1 0.17129392E-02 0.27277884E+03</pdfrwt>
<totfact> 0.47511470E+03</totfact>
</mgrwt>
</event>
<event>
 9    1  0.2065703E-002  0.2746607E+03  0.7818608E-02  0.1098641E+00
         -2   -1    0    0    0  501 -0.00000000000E+00  0.00000000000E+00  0.41431236284E+02  0.41431236284E+02  0.00000000000E+00 0. -1.
          2   -1    0    0  501    0  0.00000000000E+00 -0.00000000000E+00 -0.45520314685E+03  0.45520314685E+03  0.00000000000E+00 0. -1.
         36    2    1    2    0    0 -0.17763568394E-14 -0.71054273576E-14 -0.41377191057E+03  0.49663438314E+03  0.27466072988E+03 0.  0.
         25    2    3    3    0    0  0.15370190229E+02 -0.27398614600E+02 -0.29162708979E+03  0.31796265678E+03  0.12274756528E+03 0.  0.
         25    2    3    3    0    0 -0.15370190229E+02  0.27398614600E+02 -0.12214482078E+03  0.17867172635E+03  0.12655947900E+03 0.  0.
          5    1    4    4  502    0 -0.26098379527E+02  0.31380667526E+02 -0.18325553354E+03  0.18780455873E+03  0.47000000000E+01 0. -1.
         -5    1    4    4    0  502  0.41468569755E+02 -0.58779282126E+02 -0.10837155625E+03  0.13015809805E+03  0.47000000000E+01 0. -1.
          5    1    5    5  503    0 -0.57872297161E+01  0.58746945537E+02 -0.79224275195E+01  0.59745715290E+02  0.47000000000E+01 0. -1.
         -5    1    5    5    0  503 -0.95829605126E+01 -0.31348330937E+02 -0.11422239326E+03  0.11892601106E+03  0.47000000000E+01 0. -1.
<mgrwt>
<rscale>  0 0.27466073E+03</rscale>
<asrwt>0</asrwt>
<pdfrwt beam="1">  1        2 0.70031251E-01 0.27466073E+03</pdfrwt>
<pdfrwt beam="2">  1       -2 0.63740366E-02 0.27466073E+03</pdfrwt>
<totfact> 0.92666097E+03</totfact>
</mgrwt>
</event>
<event>
 9    1  0.2065703E-002  0.2763929E+03  0.7818608E-02  0.1097676E+00
         -1   -1    0    0    0  501 -0.00000000000E+00  0.00000000000E+00  0.26889075001E+03  0.26889075001E+03  0.00000000000E+00 0.  1.
          1   -1    0    0  501    0  0.00000000000E+00 -0.00000000000E+00 -0.71026079923E+02  0.71026079923E+02  0.00000000000E+00 0.  1.
         36    2    1    2    0    0  0.35527136788E-14  0.00000000000E+00  0.19786467009E+03  0.33991682994E+03  0.27639287908E+03 0.  0.
         25    2    3    3    0    0  0.13551739124E+02 -0.31815611872E+02  0.44134343963E+02  0.13759450891E+03  0.12565240059E+03 0.  0.
         25    2    3    3    0    0 -0.13551739124E+02  0.31815611872E+02  0.15373032613E+03  0.20232232103E+03  0.12690715355E+03 0.  0.
          5    1    4    4  502    0 -0.16974635387E+02 -0.33780213634E+02  0.80969379248E+02  0.89483917301E+02  0.47000000000E+01 0. -1.
         -5    1    4    4    0  502  0.30526374510E+02  0.19646017618E+01 -0.36835035284E+02  0.48110591612E+02  0.47000000000E+01 0. -1.
          5    1    5    5  503    0  0.19511608753E+02  0.29950045130E+02  0.16353911298E+03  0.16746593550E+03  0.47000000000E+01 0.  1.
         -5    1    5    5    0  503 -0.33063347877E+02  0.18655667428E+01 -0.98087868525E+01  0.34856385522E+02  0.47000000000E+01 0.  1.
<mgrwt>
<rscale>  0 0.27639288E+03</rscale>
<asrwt>0</asrwt>
<pdfrwt beam="1">  1        1 0.10927089E-01 0.27639288E+03</pdfrwt>
<pdfrwt beam="2">  1       -1 0.41367807E-01 0.27639288E+03</pdfrwt>
<totfact> 0.32940841E+03</totfact>
</mgrwt>
</event>
<event>
 9    1  0.2065703E-002  0.2760456E+03  0.7818608E-02  0.1097869E+00
          2   -1    0    0  501    0  0.00000000000E+00  0.00000000000E+00  0.14905690457E+02  0.14905690457E+02  0.00000000000E+00 0.  1.
         -2   -1    0    0    0  501 -0.00000000000E+00 -0.00000000000E+00 -0.12780554424E+04  0.12780554424E+04  0.00000000000E+00 0.  1.
         36    2    1    2    0    0  0.35527136788E-14 -0.71054273576E-14 -0.12631497519E+04  0.12929611328E+04  0.27604563978E+03 0.  0.
         25    2    3    3    0    0  0.35563795552E+01  0.58149494431E+02 -0.61280768590E+03  0.62828592510E+03  0.12576141000E+03 0.  0.
         25    2    3    3    0    0 -0.35563795552E+01 -0.58149494431E+02 -0.65034206600E+03  0.66467520771E+03  0.12431539486E+03 0.  0.
          5    1    4    4  502    0  0.30267761531E+02  0.61398822890E+02 -0.58603350970E+03  0.59003670846E+03  0.47000000000E+01 0.  1.
         -5    1    4    4    0  502 -0.26711381976E+02 -0.32493284595E+01 -0.26774176202E+02  0.38249216642E+02  0.47000000000E+01 0.  1.
          5    1    5    5  503    0 -0.46298097751E+02 -0.63464043034E+02 -0.25247130906E+03  0.26445235963E+03  0.47000000000E+01 0. -1.
         -5    1    5    5    0  503  0.42741718196E+02  0.53145486036E+01 -0.39787075694E+03  0.40022284809E+03  0.47000000000E+01 0. -1.
<mgrwt>
<rscale>  0 0.27604564E+03</rscale>
<asrwt>0</asrwt>
<pdfrwt beam="1">  1        2 0.22931820E-02 0.27604564E+03</pdfrwt>
<pdfrwt beam="2">  1       -2 0.19662402E+00 0.27604564E+03</pdfrwt>
<totfact> 0.68687234E+02</totfact>
</mgrwt>
</event>
<event>
 9    1  0.2065703E-002  0.2752159E+03  0.7818608E-02  0.1098331E+00
          4   -1    0    0  501    0  0.00000000000E+00  0.00000000000E+00  0.20680350227E+03  0.20680350227E+03  0.00000000000E+00 0.  1.
         -4   -1    0    0    0  501 -0.00000000000E+00 -0.00000000000E+00 -0.91564926684E+02  0.91564926684E+02  0.00000000000E+00 0.  1.
         36    2    1    2    0    0  0.71054273576E-14  0.71054273576E-14  0.11523857558E+03  0.29836842895E+03  0.27521589724E+03 0.  0.
         25    2    3    3    0    0 -0.48956797330E+02 -0.12983003768E+02  0.81570229532E+02  0.15758195188E+03  0.12495216213E+03 0.  0.
         25    2    3    3    0    0  0.48956797330E+02  0.12983003768E+02  0.33668346051E+02  0.14078647707E+03  0.12697223401E+03 0.  0.
          5    1    4    4  502    0 -0.94081303836E+00  0.52916720376E+02  0.30784306873E+02  0.61407067787E+02  0.47000000000E+01 0. -1.
         -5    1    4    4    0  502 -0.48015984292E+02 -0.65899724144E+02  0.50785922659E+02  0.96174884092E+02  0.47000000000E+01 0. -1.
          5    1    5    5  503    0 -0.29708268709E+02  0.14099105878E+02 -0.25794924911E+02  0.42057510237E+02  0.47000000000E+01 0.  1.
         -5    1    5    5    0  503  0.78665066038E+02 -0.11161021094E+01  0.59463270962E+02  0.98728966835E+02  0.47000000000E+01 0.  1.
<mgrwt>
<rscale>  0 0.27521590E+03</rscale>
<asrwt>0</asrwt>
<pdfrwt beam="1">  1        4 0.31815923E-01 0.27521590E+03</pdfrwt>
<pdfrwt beam="2">  1       -4 0.14086912E-01 0.27521590E+03</pdfrwt>
<totfact> 0.74994487E+02</totfact>
</mgrwt>
</event>
<event>
 9    1  0.2065703E-002  0.2754303E+03  0.7818608E-02  0.1098211E+00
         -1   -1    0    0    0  501 -0.00000000000E+00  0.00000000000E+00  0.79596631528E+02  0.79596631528E+02  0.00000000000E+00 0.  1.
          1   -1    0    0  501    0  0.00000000000E+00 -0.00000000000E+00 -0.23826966100E+03  0.23826966100E+03  0.00000000000E+00 0.  1.
         36    2    1    2    0    0  0.71054273576E-14  0.71054273576E-14 -0.15867302947E+03  0.31786629253E+03  0.27543029906E+03 0.  0.
         25    2    3    3    0    0  0.57053836973E+02  0.26570285802E+02 -0.43455178687E+02  0.13914917730E+03  0.11624551857E+03 0.  0.
         25    2    3    3    0    0 -0.57053836973E+02 -0.26570285802E+02 -0.11521785079E+03  0.17871711523E+03  0.12125812853E+03 0.  0.
          5    1    4    4  502    0  0.22101061641E+02 -0.45071830565E+02 -0.28475738616E+02  0.57904097661E+02  0.47000000000E+01 0. -1.
         -5    1    4    4    0  502  0.34952775331E+02  0.71642116367E+02 -0.14979440071E+02  0.81245079640E+02  0.47000000000E+01 0. -1.
          5    1    5    5  503    0 -0.15521282241E+02 -0.22251523615E+02  0.21978253321E+02  0.35230301228E+02  0.47000000000E+01 0.  1.
         -5    1    5    5    0  503 -0.41532554731E+02 -0.43187621870E+01 -0.13719610411E+03  0.14348681400E+03  0.47000000000E+01 0.  1.
<mgrwt>
<rscale>  0 0.27543030E+03</rscale>
<asrwt>0</asrwt>
<pdfrwt beam="1">  1        1 0.36656871E-01 0.27543030E+03</pdfrwt>
<pdfrwt beam="2">  1       -1 0.12245636E-01 0.27543030E+03</pdfrwt>
<totfact> 0.51730854E+03</totfact>
</mgrwt>
</event>
<event>
 9    1  0.2065703E-002  0.2768599E+03  0.7818608E-02  0.1097416E+00
         -2   -1    0    0    0  501 -0.00000000000E+00  0.00000000000E+00  0.94179055448E+02  0.94179055448E+02  0.00000000000E+00 0.  1.
          2   -1    0    0  501    0  0.00000000000E+00 -0.00000000000E+00 -0.20347249557E+03  0.20347249557E+03  0.00000000000E+00 0.  1.
         36    2    1    2    0    0  0.00000000000E+00  0.00000000000E+00 -0.10929344012E+03  0.29765155102E+03  0.27685987389E+03 0.  0.
         25    2    3    3    0    0  0.41266151428E+02  0.32924047236E+01 -0.67055288850E+01  0.13777721976E+03  0.13123971573E+03 0.  0.
         25    2    3    3    0    0 -0.41266151428E+02 -0.32924047236E+01 -0.10258791124E+03  0.15987433126E+03  0.11542004627E+03 0.  0.
          5    1    4    4  502    0  0.20134215736E+02 -0.34015455553E+02 -0.58258720824E+02  0.70559240442E+02  0.47000000000E+01 0.  1.
         -5    1    4    4    0  502  0.21131935692E+02  0.37307860276E+02  0.51553191939E+02  0.67217979318E+02  0.47000000000E+01 0.  1.
          5    1    5    5  503    0 -0.14533447824E+02  0.22800860449E+02 -0.11653520971E+03  0.11972320345E+03  0.47000000000E+01 0. -1.
         -5    1    5    5    0  503 -0.26732703605E+02 -0.26093265172E+02  0.13947298472E+02  0.40151127805E+02  0.47000000000E+01 0. -1.
<mgrwt>
<rscale>  0 0.27685987E+03</rscale>
<asrwt>0</asrwt>
<pdfrwt beam="1">  1        2 0.31303461E-01 0.27685987E+03</pdfrwt>
<pdfrwt beam="2">  1       -2 0.14489085E-01 0.27685987E+03</pdfrwt>
<totfact> 0.60235057E+03</totfact>
</mgrwt>
</event>
<event>
 9    1  0.2065703E-002  0.2749991E+03  0.7818608E-02  0.1098452E+00
          2   -1    0    0  501    0  0.00000000000E+00  0.00000000000E+00  0.30552808748E+04  0.30552808748E+04  0.00000000000E+00 0.  1.
         -2   -1    0    0    0  501 -0.00000000000E+00 -0.00000000000E+00 -0.61880179655E+01  0.61880179655E+01  0.00000000000E+00 0.  1.
         36    2    1    2    0    0  0.00000000000E+00  0.00000000000E+00  0.30490928568E+04  0.30614688927E+04  0.27499914867E+03 0.  0.
         25    2    3    3    0    0  0.35404751323E+02 -0.14229155827E+02  0.19586163257E+04  0.19629591884E+04  0.12479943453E+03 0.  0.
         25    2    3    3    0    0 -0.35404751323E+02  0.14229155827E+02  0.10904765311E+04  0.10985097043E+04  0.12699819002E+03 0.  0.
          5    1    4    4  502    0  0.26838185126E+01  0.28174555765E+02  0.11383977953E+03  0.11739929250E+03  0.47000000000E+01 0. -1.
         -5    1    4    4    0  502  0.32720932810E+02 -0.42403711592E+02  0.18447765462E+04  0.18455598959E+04  0.47000000000E+01 0. -1.
          5    1    5    5  503    0 -0.49358130123E+02  0.55176977343E+02  0.90333574275E+03  0.90637645489E+03  0.47000000000E+01 0. -1.
         -5    1    5    5    0  503  0.13953378799E+02 -0.40947821516E+02  0.18714078837E+03  0.19213324943E+03  0.47000000000E+01 0. -1.
<mgrwt>
<rscale>  0 0.27499915E+03</rscale>
<asrwt>0</asrwt>
<pdfrwt beam="1">  1        2 0.47004201E+00 0.27499915E+03</pdfrwt>
<pdfrwt beam="2">  1       -2 0.95200521E-03 0.27499915E+03</pdfrwt>
<totfact> 0.44229188E+03</totfact>
</mgrwt>
</event>
<event>
 9    1  0.2065703E-002  0.2744529E+03  0.7818608E-02  0.1098758E+00
          2   -1    0    0  501    0  0.00000000000E+00  0.00000000000E+00  0.14662086276E+03  0.14662086276E+03  0.00000000000E+00 0.  1.
         -2   -1    0    0    0  501 -0.00000000000E+00 -0.00000000000E+00 -0.12843395771E+03  0.12843395771E+03  0.00000000000E+00 0.  1.
         36    2    1    2    0    0  0.00000000000E+00 -0.10658141036E-13  0.18186905045E+02  0.27505482047E+03  0.27445289350E+03 0.  0.
         25    2    3    3    0    0 -0.29163616673E+02 -0.29291869530E+02  0.52496944691E+02  0.13779374129E+03  0.12050998207E+03 0.  0.
         25    2    3    3    0    0  0.29163616673E+02  0.29291869530E+02 -0.34310039646E+02  0.13726107919E+03  0.12631268693E+03 0.  0.
          5    1    4    4  502    0 -0.65863686676E+02 -0.97969545847E+01 -0.47214375786E+01  0.66920755484E+02  0.47000000000E+01 0.  1.
         -5    1    4    4    0  502  0.36700070003E+02 -0.19494914945E+02  0.57218382270E+02  0.70872985802E+02  0.47000000000E+01 0.  1.
          5    1    5    5  503    0  0.35345839677E+02  0.76735662842E+02 -0.18128399430E+02  0.86535652768E+02  0.47000000000E+01 0.  1.
         -5    1    5    5    0  503 -0.61822230037E+01 -0.47443793312E+02 -0.16181640217E+02  0.50725426417E+02  0.47000000000E+01 0.  1.
<mgrwt>
<rscale>  0 0.27445289E+03</rscale>
<asrwt>0</asrwt>
<pdfrwt beam="1">  1        2 0.22557056E-01 0.27445289E+03</pdfrwt>
<pdfrwt beam="2">  1       -2 0.19759070E-01 0.27445289E+03</pdfrwt>
<totfact> 0.51530432E+03</totfact>
</mgrwt>
</event>
<event>
 9    1  0.2065703E-002  0.2748309E+03  0.7818608E-02  0.1098546E+00
          2   -1    0    0  501    0  0.00000000000E+00  0.00000000000E+00  0.28799733454E+03  0.28799733454E+03  0.00000000000E+00 0. -1.
         -2   -1    0    0    0  501 -0.00000000000E+00 -0.00000000000E+00 -0.65566608016E+02  0.65566608016E+02  0.00000000000E+00 0. -1.
         36    2    1    2    0    0  0.71054273576E-14 -0.17763568394E-14  0.22243072652E+03  0.35356394255E+03  0.27483091779E+03 0.  0.
         25    2    3    3    0    0 -0.48358122858E+01 -0.11036533364E+02  0.18124747013E+03  0.22010921327E+03  0.12430699977E+03 0.  0.
         25    2    3    3    0    0  0.48358122858E+01  0.11036533364E+02  0.41183256395E+02  0.13345472928E+03  0.12636816850E+03 0.  0.
          5    1    4    4  502    0  0.58541050496E+02 -0.16342242409E+02  0.94099573279E+02  0.11212021750E+03  0.47000000000E+01 0.  1.
         -5    1    4    4    0  502 -0.63376862781E+02  0.53057090444E+01  0.87147896846E+02  0.10798899578E+03  0.47000000000E+01 0.  1.
          5    1    5    5  503    0  0.39719703983E+02  0.72983490320E+01  0.74482383537E+02  0.84856562743E+02  0.47000000000E+01 0.  1.
         -5    1    5    5    0  503 -0.34883891698E+02  0.37381843324E+01 -0.33299127143E+02  0.48598166535E+02  0.47000000000E+01 0.  1.
<mgrwt>
<rscale>  0 0.27483092E+03</rscale>
<asrwt>0</asrwt>
<pdfrwt beam="1">  1        2 0.44307282E-01 0.27483092E+03</pdfrwt>
<pdfrwt beam="2">  1       -2 0.10087171E-01 0.27483092E+03</pdfrwt>
<totfact> 0.74237806E+03</totfact>
</mgrwt>
</event>
<event>
 9    1  0.2065703E-002  0.2817406E+03  0.7818608E-02  0.1094742E+00
         -4   -1    0    0    0  501 -0.00000000000E+00  0.00000000000E+00  0.76261322968E+03  0.76261322968E+03  0.00000000000E+00 0.  1.
          4   -1    0    0  501    0  0.00000000000E+00 -0.00000000000E+00 -0.26021631516E+02  0.26021631516E+02  0.00000000000E+00 0.  1.
         36    2    1    2    0    0 -0.71054273576E-14  0.71054273576E-14  0.73659159816E+03  0.78863486120E+03  0.28174059311E+03 0.  0.
         25    2    3    3    0    0 -0.49643578375E+02  0.37280478881E+02  0.30227796898E+03  0.33184215682E+03  0.12203658274E+03 0.  0.
         25    2    3    3    0    0  0.49643578375E+02 -0.37280478881E+02  0.43431362918E+03  0.45679270438E+03  0.12718855021E+03 0.  0.
          5    1    4    4  502    0  0.19186657570E+01  0.23629207724E+02 -0.69062393610E+00  0.24178248434E+02  0.47000000000E+01 0.  1.
         -5    1    4    4    0  502 -0.51562244132E+02  0.13651271158E+02  0.30296859292E+03  0.30766390838E+03  0.47000000000E+01 0.  1.
          5    1    5    5  503    0  0.59756075736E+02  0.33895641185E+02  0.23375830221E+03  0.24368983757E+03  0.47000000000E+01 0. -1.
         -5    1    5    5    0  503 -0.10112497361E+02 -0.71176120067E+02  0.20055532697E+03  0.21310286682E+03  0.47000000000E+01 0. -1.
<mgrwt>
<rscale>  0 0.28174059E+03</rscale>
<asrwt>0</asrwt>
<pdfrwt beam="1">  1        4 0.40033285E-02 0.28174059E+03</pdfrwt>
<pdfrwt beam="2">  1       -4 0.11732510E+00 0.28174059E+03</pdfrwt>
<totfact> 0.37446165E+02</totfact>
</mgrwt>
</event>
<event>
 9    1  0.2065703E-002  0.2740366E+03  0.7818608E-02  0.1098991E+00
         -2   -1    0    0    0  501 -0.00000000000E+00  0.00000000000E+00  0.47361167969E+03  0.47361167969E+03  0.00000000000E+00 0. -1.
          2   -1    0    0  501    0  0.00000000000E+00 -0.00000000000E+00 -0.39640087393E+02  0.39640087393E+02  0.00000000000E+00 0. -1.
         36    2    1    2    0    0  0.53290705182E-14  0.00000000000E+00  0.43397159230E+03  0.51325176708E+03  0.27403655503E+03 0.  0.
         25    2    3    3    0    0  0.68656351220E+01  0.92009347275E+01  0.30574719200E+03  0.32945304534E+03  0.12217270367E+03 0.  0.
         25    2    3    3    0    0 -0.68656351220E+01 -0.92009347275E+01  0.12822440030E+03  0.18379872175E+03  0.13118185522E+03 0.  0.
          5    1    4    4  502    0 -0.14896144218E+02 -0.39634445755E+01 -0.55796772125E+01  0.17053644867E+02  0.47000000000E+01 0.  1.
         -5    1    4    4    0  502  0.21761779340E+02  0.13164379303E+02  0.31132686921E+03  0.31239940047E+03  0.47000000000E+01 0.  1.
          5    1    5    5  503    0  0.61935021523E+02 -0.86948745398E+01  0.60612805559E+02  0.87221269952E+02  0.47000000000E+01 0.  1.
         -5    1    5    5    0  503 -0.68800656645E+02 -0.50606018761E+00  0.67611594742E+02  0.96577451795E+02  0.47000000000E+01 0.  1.
<mgrwt>
<rscale>  0 0.27403656E+03</rscale>
<asrwt>0</asrwt>
<pdfrwt beam="1">  1        2 0.60984753E-02 0.27403656E+03</pdfrwt>
<pdfrwt beam="2">  1       -2 0.72863331E-01 0.27403656E+03</pdfrwt>
<totfact> 0.21099172E+03</totfact>
</mgrwt>
</event>
<event>
 9    1  0.2065703E-002  0.2732014E+03  0.7818608E-02  0.1099461E+00
          2   -1    0    0  501    0  0.00000000000E+00  0.00000000000E+00  0.36425288746E+03  0.36425288746E+03  0.00000000000E+00 0.  1.
         -2   -1    0    0    0  501 -0.00000000000E+00 -0.00000000000E+00 -0.51227445003E+02  0.51227445003E+02  0.00000000000E+00 0.  1.
         36    2    1    2    0    0  0.71054273576E-14 -0.71054273576E-14  0.31302544245E+03  0.41548033246E+03  0.27320135255E+03 0.  0.
         25    2    3    3    0    0  0.36568201569E+02 -0.33045744590E+02  0.12900635721E+03  0.18724278306E+03  0.12644352497E+03 0.  0.
         25    2    3    3    0    0 -0.36568201569E+02  0.33045744590E+02  0.18401908525E+03  0.22823754940E+03  0.12569845114E+03 0.  0.
          5    1    4    4  502    0  0.59651455264E+02 -0.16726327921E+02  0.14258330589E+03  0.15553184651E+03  0.47000000000E+01 0. -1.
         -5    1    4    4    0  502 -0.23083253695E+02 -0.16319416669E+02 -0.13576948680E+02  0.31710936552E+02  0.47000000000E+01 0. -1.
          5    1    5    5  503    0 -0.24845847276E+02  0.76493148374E+02  0.15441228171E+03  0.17416589969E+03  0.47000000000E+01 0. -1.
         -5    1    5    5    0  503 -0.11722354293E+02 -0.43447403784E+02  0.29606803541E+02  0.54071649703E+02  0.47000000000E+01 0. -1.
<mgrwt>
<rscale>  0 0.27320135E+03</rscale>
<asrwt>0</asrwt>
<pdfrwt beam="1">  1        2 0.56038904E-01 0.27320135E+03</pdfrwt>
<pdfrwt beam="2">  1       -2 0.78811456E-02 0.27320135E+03</pdfrwt>
<totfact> 0.85007308E+03</totfact>
</mgrwt>
</event>
<event>
 9    1  0.2065703E-002  0.2751049E+03  0.7818608E-02  0.1098393E+00
         -2   -1    0    0    0  501 -0.00000000000E+00  0.00000000000E+00  0.15832291225E+03  0.15832291225E+03  0.00000000000E+00 0.  1.
          2   -1    0    0  501    0  0.00000000000E+00 -0.00000000000E+00 -0.11950685246E+03  0.11950685246E+03  0.00000000000E+00 0.  1.
         36    2    1    2    0    0  0.00000000000E+00 -0.71054273576E-14  0.38816059783E+02  0.27782976471E+03  0.27510487393E+03 0.  0.
         25    2    3    3    0    0  0.40179346556E+02  0.26762315855E+02 -0.84656940764E+01  0.13280297607E+03  0.12342755380E+03 0.  0.
         25    2    3    3    0    0 -0.40179346556E+02 -0.26762315855E+02  0.47281753860E+02  0.14502678864E+03  0.12832226516E+03 0.  0.
          5    1    4    4  502    0  0.21591198367E+02  0.31363404878E+02 -0.63585085001E+02  0.74263019377E+02  0.47000000000E+01 0. -1.
         -5    1    4    4    0  502  0.18588148189E+02 -0.46010890230E+01  0.55119390925E+02  0.58539956689E+02  0.47000000000E+01 0. -1.
          5    1    5    5  503    0 -0.41325147625E+02  0.46959584888E+02  0.27844817564E+02  0.68632312392E+02  0.47000000000E+01 0. -1.
         -5    1    5    5    0  503  0.11458010697E+01 -0.73721900743E+02  0.19436936296E+02  0.76394476252E+02  0.47000000000E+01 0. -1.
<mgrwt>
<rscale>  0 0.27510487E+03</rscale>
<asrwt>0</asrwt>
<pdfrwt beam="1">  1        2 0.18385669E-01 0.27510487E+03</pdfrwt>
<pdfrwt beam="2">  1       -2 0.24357371E-01 0.27510487E+03</pdfrwt>
<totfact> 0.45309877E+03</totfact>
</mgrwt>
</event>
<event>
 9    1  0.2065703E-002  0.2750999E+03  0.7818608E-02  0.1098396E+00
         -2   -1    0    0    0  501 -0.00000000000E+00  0.00000000000E+00  0.57706288911E+01  0.57706288911E+01  0.00000000000E+00 0. -1.
          2   -1    0    0  501    0  0.00000000000E+00 -0.00000000000E+00 -0.32786689738E+04  0.32786689738E+04  0.00000000000E+00 0. -1.
         36    2    1    2    0    0 -0.35527136788E-14 -0.53290705182E-14 -0.32728983449E+04  0.32844396027E+04  0.27509985027E+03 0.  0.
         25    2    3    3    0    0  0.62470229511E+01 -0.12638232079E+02 -0.19587452466E+04  0.19628387379E+04  0.12591354065E+03 0.  0.
         25    2    3    3    0    0 -0.62470229511E+01  0.12638232079E+02 -0.13141530983E+04  0.13216008648E+04  0.13939773963E+03 0.  0.
          5    1    4    4  502    0 -0.20740857229E+02 -0.45611166185E+02 -0.35803442869E+03  0.36155401224E+03  0.47000000000E+01 0.  1.
         -5    1    4    4    0  502  0.26987880180E+02  0.32972934106E+02 -0.16007108179E+04  0.16012847257E+04  0.47000000000E+01 0.  1.
          5    1    5    5  503    0 -0.50678276540E+02  0.99572173148E+01 -0.11579676315E+04  0.11591283619E+04  0.47000000000E+01 0.  1.
         -5    1    5    5    0  503  0.44431253589E+02  0.26810147644E+01 -0.15618546687E+03  0.16247250289E+03  0.47000000000E+01 0.  1.
<mgrwt>
<rscale>  0 0.27509985E+03</rscale>
<asrwt>0</asrwt>
<pdfrwt beam="1">  1        2 0.50441235E+00 0.27509985E+03</pdfrwt>
<pdfrwt beam="2">  1       -2 0.88778600E-03 0.27509985E+03</pdfrwt>
<totfact> 0.35702863E+03</totfact>
</mgrwt>
</event>
<event>
 9    1  0.2065703E-002  0.2753173E+03  0.7818608E-02  0.1098274E+00
         -1   -1    0    0    0  501 -0.00000000000E+00  0.00000000000E+00  0.41314015313E+02  0.41314015313E+02  0.00000000000E+00 0. -1.
          1   -1    0    0  501    0  0.00000000000E+00 -0.00000000000E+00 -0.45867971121E+03  0.45867971121E+03  0.00000000000E+00 0. -1.
         36    2    1    2    0    0 -0.71054273576E-14  0.00000000000E+00 -0.41736569590E+03  0.49999372652E+03  0.27531727597E+03 0.  0.
         25    2    3    3    0    0 -0.37282546106E+02  0.15043697438E+02 -0.13484105700E+03  0.18854939367E+03  0.12550881294E+03 0.  0.
         25    2    3    3    0    0  0.37282546106E+02 -0.15043697438E+02 -0.28252463890E+03  0.31144433285E+03  0.12474413735E+03 0.  0.
          5    1    4    4  502    0  0.25788572071E+02  0.47115868046E+02 -0.89164956084E+02  0.10419901566E+03  0.47000000000E+01 0. -1.
         -5    1    4    4    0  502 -0.63071118176E+02 -0.32072170609E+02 -0.45676100912E+02  0.84350378008E+02  0.47000000000E+01 0. -1.
          5    1    5    5  503    0 -0.38799076524E+02 -0.34360848546E+02 -0.10097578251E+03  0.11359680851E+03  0.47000000000E+01 0.  1.
         -5    1    5    5    0  503  0.76081622629E+02  0.19317151108E+02 -0.18154885640E+03  0.19784752434E+03  0.47000000000E+01 0.  1.
<mgrwt>
<rscale>  0 0.27531728E+03</rscale>
<asrwt>0</asrwt>
<pdfrwt beam="1">  1        1 0.70566109E-01 0.27531728E+03</pdfrwt>
<pdfrwt beam="2">  1       -1 0.63560024E-02 0.27531728E+03</pdfrwt>
<totfact> 0.61686606E+03</totfact>
</mgrwt>
</event>
<event>
 9    1  0.2065703E-002  0.2756928E+03  0.7818608E-02  0.1098065E+00
         -2   -1    0    0    0  501 -0.00000000000E+00  0.00000000000E+00  0.12491775450E+02  0.12491775450E+02  0.00000000000E+00 0.  1.
          2   -1    0    0  501    0  0.00000000000E+00 -0.00000000000E+00 -0.15211308531E+04  0.15211308531E+04  0.00000000000E+00 0.  1.
         36    2    1    2    0    0  0.00000000000E+00  0.00000000000E+00 -0.15086390776E+04  0.15336226285E+04  0.27569276412E+03 0.  0.
         25    2    3    3    0    0  0.28305047978E+02 -0.36097127643E+02 -0.98095829241E+03  0.98981722725E+03  0.12391446057E+03 0.  0.
         25    2    3    3    0    0 -0.28305047978E+02  0.36097127643E+02 -0.52768078523E+03  0.54380540130E+03  0.12317923937E+03 0.  0.
          5    1    4    4  502    0  0.48213392064E+02 -0.72230123242E+02 -0.54619958735E+03  0.55308028449E+03  0.47000000000E+01 0.  1.
         -5    1    4    4    0  502 -0.19908344086E+02  0.36132995598E+02 -0.43475870507E+03  0.43673694275E+03  0.47000000000E+01 0.  1.
          5    1    5    5  503    0  0.30241293796E+02  0.56540598248E+02 -0.34188007233E+03  0.34787274822E+03  0.47000000000E+01 0.  1.
         -5    1    5    5    0  503 -0.58546341773E+02 -0.20443470604E+02 -0.18580071291E+03  0.19593265308E+03  0.47000000000E+01 0.  1.
<mgrwt>
<rscale>  0 0.27569276E+03</rscale>
<asrwt>0</asrwt>
<pdfrwt beam="1">  1        2 0.23402003E+00 0.27569276E+03</pdfrwt>
<pdfrwt beam="2">  1       -2 0.19218125E-02 0.27569276E+03</pdfrwt>
<totfact> 0.10898809E+04</totfact>
</mgrwt>
</event>
<event>
 9    1  0.2065703E-002  0.2740426E+03  0.7818608E-02  0.1098988E+00
          2   -1    0    0  501    0  0.00000000000E+00  0.00000000000E+00  0.91550742246E+03  0.91550742246E+03  0.00000000000E+00 0. -1.
         -2   -1    0    0    0  501 -0.00000000000E+00 -0.00000000000E+00 -0.20507572994E+02  0.20507572994E+02  0.00000000000E+00 0. -1.
         36    2    1    2    0    0 -0.71054273576E-14 -0.71054273576E-14  0.89499984947E+03  0.93601499546E+03  0.27404259007E+03 0.  0.
         25    2    3    3    0    0  0.47680344596E+02  0.24693738789E+02  0.39898401016E+03  0.42130612852E+03  0.12420715584E+03 0.  0.
         25    2    3    3    0    0 -0.47680344596E+02 -0.24693738789E+02  0.49601583931E+03  0.51470886694E+03  0.12653184923E+03 0.  0.
          5    1    4    4  502    0 -0.12175829344E+02 -0.42702063645E+01 -0.28124640928E+01  0.14017326310E+02  0.47000000000E+01 0.  1.
         -5    1    4    4    0  502  0.59856173940E+02  0.28963945154E+02  0.40179647426E+03  0.40728880221E+03  0.47000000000E+01 0.  1.
          5    1    5    5  503    0 -0.82345806862E+02 -0.34942588639E+02  0.24115063660E+03  0.25724994838E+03  0.47000000000E+01 0.  1.
         -5    1    5    5    0  503  0.34665462266E+02  0.10248849849E+02  0.25486520271E+03  0.25745891856E+03  0.47000000000E+01 0.  1.
<mgrwt>
<rscale>  0 0.27404259E+03</rscale>
<asrwt>0</asrwt>
<pdfrwt beam="1">  1        2 0.14084726E+00 0.27404259E+03</pdfrwt>
<pdfrwt beam="2">  1       -2 0.31550119E-02 0.27404259E+03</pdfrwt>
<totfact> 0.11624843E+04</totfact>
</mgrwt>
</event>
<event>
 9    1  0.2065703E-002  0.2746697E+03  0.7818608E-02  0.1098636E+00
          3   -1    0    0  501    0  0.00000000000E+00  0.00000000000E+00  0.80941142307E+02  0.80941142307E+02  0.00000000000E+00 0.  1.
         -3   -1    0    0    0  501 -0.00000000000E+00 -0.00000000000E+00 -0.23301944172E+03  0.23301944172E+03  0.00000000000E+00 0.  1.
         36    2    1    2    0    0 -0.71054273576E-14 -0.13322676296E-14 -0.15207829941E+03  0.31396058402E+03  0.27466969103E+03 0.  0.
         25    2    3    3    0    0  0.61292628305E+02 -0.38336154270E+01 -0.82553076709E+02  0.15855335565E+03  0.12063446117E+03 0.  0.
         25    2    3    3    0    0 -0.61292628305E+02  0.38336154270E+01 -0.69525222699E+02  0.15540722837E+03  0.12468426985E+03 0.  0.
          5    1    4    4  502    0  0.62354425634E+02  0.45463412139E+02 -0.76310543160E+02  0.10862957809E+03  0.47000000000E+01 0.  1.
         -5    1    4    4    0  502 -0.10617973288E+01 -0.49297027566E+02 -0.62425335484E+01  0.49923777557E+02  0.47000000000E+01 0.  1.
          5    1    5    5  503    0 -0.55671371074E+02 -0.16141136253E+01 -0.10490638968E+03  0.11886693197E+03  0.47000000000E+01 0. -1.
         -5    1    5    5    0  503 -0.56212572312E+01  0.54477290524E+01  0.35381166978E+02  0.36540296405E+02  0.47000000000E+01 0. -1.
<mgrwt>
<rscale>  0 0.27466969E+03</rscale>
<asrwt>0</asrwt>
<pdfrwt beam="1">  1        3 0.12452484E-01 0.27466969E+03</pdfrwt>
<pdfrwt beam="2">  1       -3 0.35849145E-01 0.27466969E+03</pdfrwt>
<totfact> 0.99519498E+02</totfact>
</mgrwt>
</event>
<event>
 9    1  0.2065703E-002  0.2755323E+03  0.7818608E-02  0.1098154E+00
         -1   -1    0    0    0  501 -0.00000000000E+00  0.00000000000E+00  0.11546433430E+02  0.11546433430E+02  0.00000000000E+00 0. -1.
          1   -1    0    0  501    0  0.00000000000E+00 -0.00000000000E+00 -0.16437548489E+04  0.16437548489E+04  0.00000000000E+00 0. -1.
         36    2    1    2    0    0 -0.35527136788E-14  0.35527136788E-14 -0.16322084154E+04  0.16553012823E+04  0.27553225537E+03 0.  0.
         25    2    3    3    0    0  0.18020866015E+02 -0.22278041717E+02 -0.51783074222E+03  0.53352876876E+03  0.12523261055E+03 0.  0.
         25    2    3    3    0    0 -0.18020866015E+02  0.22278041717E+02 -0.11143776732E+04  0.11217725135E+04  0.12535912739E+03 0.  0.
          5    1    4    4  502    0  0.43025396382E+02 -0.31032015064E+02 -0.49607992040E+03  0.49893040408E+03  0.47000000000E+01 0. -1.
         -5    1    4    4    0  502 -0.25004530368E+02  0.87539733465E+01 -0.21750821824E+02  0.34598364676E+02  0.47000000000E+01 0. -1.
          5    1    5    5  503    0  0.50262584397E+01 -0.51086930244E+02 -0.44841779776E+03  0.45137096613E+03  0.47000000000E+01 0.  1.
         -5    1    5    5    0  503 -0.23047124454E+02  0.73364971962E+02 -0.66595987545E+03  0.67040154740E+03  0.47000000000E+01 0.  1.
<mgrwt>
<rscale>  0 0.27553226E+03</rscale>
<asrwt>0</asrwt>
<pdfrwt beam="1">  1        1 0.25288525E+00 0.27553226E+03</pdfrwt>
<pdfrwt beam="2">  1       -1 0.17763752E-02 0.27553226E+03</pdfrwt>
<totfact> 0.46927208E+03</totfact>
</mgrwt>
</event>
<event>
 9    1  0.2065703E-002  0.2766336E+03  0.7818608E-02  0.1097542E+00
         -1   -1    0    0    0  501 -0.00000000000E+00  0.00000000000E+00  0.12694509324E+02  0.12694509324E+02  0.00000000000E+00 0.  1.
          1   -1    0    0  501    0  0.00000000000E+00 -0.00000000000E+00 -0.15070713705E+04  0.15070713705E+04  0.00000000000E+00 0.  1.
         36    2    1    2    0    0 -0.71054273576E-14  0.00000000000E+00 -0.14943768612E+04  0.15197658799E+04  0.27663355953E+03 0.  0.
         25    2    3    3    0    0 -0.38880680414E+02 -0.17326643113E+02 -0.49039575743E+03  0.50737616522E+03  0.12300672445E+03 0.  0.
         25    2    3    3    0    0  0.38880680414E+02  0.17326643113E+02 -0.10039811038E+04  0.10123897146E+04  0.12305672545E+03 0.  0.
          5    1    4    4  502    0  0.25087714736E+02  0.30736586799E+02 -0.26834198320E+03  0.27129990996E+03  0.47000000000E+01 0.  1.
         -5    1    4    4    0  502 -0.63968395149E+02 -0.48063229912E+02 -0.22205377423E+03  0.23607625526E+03  0.47000000000E+01 0.  1.
          5    1    5    5  503    0  0.81546291855E+02  0.26756000827E+02 -0.69666522986E+03  0.70194744376E+03  0.47000000000E+01 0. -1.
         -5    1    5    5    0  503 -0.42665611441E+02 -0.94293577140E+01 -0.30731587392E+03  0.31044227088E+03  0.47000000000E+01 0. -1.
<mgrwt>
<rscale>  0 0.27663356E+03</rscale>
<asrwt>0</asrwt>
<pdfrwt beam="1">  1        1 0.23185726E+00 0.27663356E+03</pdfrwt>
<pdfrwt beam="2">  1       -1 0.19530004E-02 0.27663356E+03</pdfrwt>
<totfact> 0.50267128E+03</totfact>
</mgrwt>
</event>
<event>
 9    1  0.2065703E-002  0.2745286E+03  0.7818608E-02  0.1098715E+00
          1   -1    0    0  501    0  0.00000000000E+00  0.00000000000E+00  0.93059138574E+02  0.93059138574E+02  0.00000000000E+00 0. -1.
         -1   -1    0    0    0  501 -0.00000000000E+00 -0.00000000000E+00 -0.20246786631E+03  0.20246786631E+03  0.00000000000E+00 0. -1.
         36    2    1    2    0    0  0.35527136788E-14  0.00000000000E+00 -0.10940872774E+03  0.29552700489E+03  0.27452857941E+03 0.  0.
         25    2    3    3    0    0  0.85382673109E+01  0.50396243847E+02 -0.81136815086E+02  0.15804663492E+03  0.12562990346E+03 0.  0.
         25    2    3    3    0    0 -0.85382673109E+01 -0.50396243847E+02 -0.28271912652E+02  0.13748036997E+03  0.12445427947E+03 0.  0.
          5    1    4    4  502    0  0.28144838226E+02 -0.26487392222E+02  0.67881744279E+01  0.39520667726E+02  0.47000000000E+01 0. -1.
         -5    1    4    4    0  502 -0.19606570915E+02  0.76883636068E+02 -0.87924989514E+02  0.11852596719E+03  0.47000000000E+01 0. -1.
          5    1    5    5  503    0  0.43230069043E+02 -0.66530896050E+02 -0.23299086640E+02  0.82825940603E+02  0.47000000000E+01 0.  1.
         -5    1    5    5    0  503 -0.51768336354E+02  0.16134652203E+02 -0.49728260125E+01  0.54654429364E+02  0.47000000000E+01 0.  1.
<mgrwt>
<rscale>  0 0.27452858E+03</rscale>
<asrwt>0</asrwt>
<pdfrwt beam="1">  1        1 0.14316791E-01 0.27452858E+03</pdfrwt>
<pdfrwt beam="2">  1       -1 0.31148903E-01 0.27452858E+03</pdfrwt>
<totfact> 0.37760810E+03</totfact>
</mgrwt>
</event>
<event>
 9    1  0.2065703E-002  0.2748235E+03  0.7818608E-02  0.1098550E+00
          2   -1    0    0  501    0  0.00000000000E+00  0.00000000000E+00  0.10760650950E+04  0.10760650950E+04  0.00000000000E+00 0.  1.
         -2   -1    0    0    0  501 -0.00000000000E+00 -0.00000000000E+00 -0.17547252466E+02  0.17547252466E+02  0.00000000000E+00 0.  1.
         36    2    1    2    0    0  0.00000000000E+00 -0.71054273576E-14  0.10585178425E+04  0.10936123475E+04  0.27482347710E+03 0.  0.
         25    2    3    3    0    0  0.15496587367E+02  0.39383912507E+02  0.38991837695E+03  0.41162740209E+03  0.12493814744E+03 0.  0.
         25    2    3    3    0    0 -0.15496587367E+02 -0.39383912507E+02  0.66859946558E+03  0.68198494537E+03  0.12762046682E+03 0.  0.
          5    1    4    4  502    0  0.55584456752E+02 -0.20407061835E+02  0.19160194975E+03  0.20059779947E+03  0.47000000000E+01 0. -1.
         -5    1    4    4    0  502 -0.40087869384E+02  0.59790974342E+02  0.19831642720E+03  0.21102960262E+03  0.47000000000E+01 0. -1.
          5    1    5    5  503    0 -0.66582205202E+02  0.41078775844E+01  0.35705189948E+03  0.36326053134E+03  0.47000000000E+01 0.  1.
         -5    1    5    5    0  503  0.51085617835E+02 -0.43491790091E+02  0.31154756610E+03  0.31872441403E+03  0.47000000000E+01 0.  1.
<mgrwt>
<rscale>  0 0.27482348E+03</rscale>
<asrwt>0</asrwt>
<pdfrwt beam="1">  1        2 0.16554842E+00 0.27482348E+03</pdfrwt>
<pdfrwt beam="2">  1       -2 0.26995781E-02 0.27482348E+03</pdfrwt>
<totfact> 0.11679133E+04</totfact>
</mgrwt>
</event>
<event>
 9    1  0.2065703E-002  0.2759908E+03  0.7818608E-02  0.1097899E+00
          2   -1    0    0  501    0  0.00000000000E+00  0.00000000000E+00  0.73453944976E+03  0.73453944976E+03  0.00000000000E+00 0. -1.
         -2   -1    0    0    0  501 -0.00000000000E+00 -0.00000000000E+00 -0.25924714327E+02  0.25924714327E+02  0.00000000000E+00 0. -1.
         36    2    1    2    0    0  0.00000000000E+00 -0.71054273576E-14  0.70861473543E+03  0.76046416409E+03  0.27599076359E+03 0.  0.
         25    2    3    3    0    0  0.49232400499E+02 -0.30941722825E+02  0.38817781541E+03  0.41149664503E+03  0.12355667938E+03 0.  0.
         25    2    3    3    0    0 -0.49232400499E+02  0.30941722825E+02  0.32043692002E+03  0.34896751906E+03  0.12536861719E+03 0.  0.
          5    1    4    4  502    0  0.63682141658E+02 -0.23389074517E+02  0.89834447545E+02  0.11267112291E+03  0.47000000000E+01 0.  1.
         -5    1    4    4    0  502 -0.14449741159E+02 -0.75526483083E+01  0.29834336787E+03  0.29882552211E+03  0.47000000000E+01 0.  1.
          5    1    5    5  503    0 -0.71762552594E+00  0.71158022432E+02  0.20936642775E+03  0.22117949772E+03  0.47000000000E+01 0. -1.
         -5    1    5    5    0  503 -0.48514774973E+02 -0.40216299607E+02  0.11107049227E+03  0.12778802134E+03  0.47000000000E+01 0. -1.
<mgrwt>
<rscale>  0 0.27599076E+03</rscale>
<asrwt>0</asrwt>
<pdfrwt beam="1">  1        2 0.11300605E+00 0.27599076E+03</pdfrwt>
<pdfrwt beam="2">  1       -2 0.39884181E-02 0.27599076E+03</pdfrwt>
<totfact> 0.10869820E+04</totfact>
</mgrwt>
</event>
<event>
 9    1  0.2065703E-002  0.2758633E+03  0.7818608E-02  0.1097970E+00
         -2   -1    0    0    0  501 -0.00000000000E+00  0.00000000000E+00  0.53202446821E+02  0.53202446821E+02  0.00000000000E+00 0.  1.
          2   -1    0    0  501    0  0.00000000000E+00 -0.00000000000E+00 -0.35759902631E+03  0.35759902631E+03  0.00000000000E+00 0.  1.
         36    2    1    2    0    0 -0.71054273576E-14 -0.26645352591E-14 -0.30439657949E+03  0.41080147313E+03  0.27586332254E+03 0.  0.
         25    2    3    3    0    0 -0.59005698298E+02 -0.28214801956E+01 -0.18235287249E+03  0.22807373119E+03  0.12359378452E+03 0.  0.
         25    2    3    3    0    0  0.59005698298E+02  0.28214801956E+01 -0.12204370700E+03  0.18272774194E+03  0.12249542063E+03 0.  0.
          5    1    4    4  502    0  0.37423108595E+02  0.10112360785E+01 -0.32634731461E+02  0.49886143897E+02  0.47000000000E+01 0. -1.
         -5    1    4    4    0  502 -0.96428806893E+02 -0.38327162741E+01 -0.14971814103E+03  0.17818758729E+03  0.47000000000E+01 0. -1.
          5    1    5    5  503    0 -0.95972175630E+01  0.48080178144E+02 -0.24254440439E+02  0.54901530000E+02  0.47000000000E+01 0. -1.
         -5    1    5    5    0  503  0.68602915861E+02 -0.45258697948E+02 -0.97789266562E+02  0.12782621194E+03  0.47000000000E+01 0. -1.
<mgrwt>
<rscale>  0 0.27586332E+03</rscale>
<asrwt>0</asrwt>
<pdfrwt beam="1">  1        2 0.55015234E-01 0.27586332E+03</pdfrwt>
<pdfrwt beam="2">  1       -2 0.81849919E-02 0.27586332E+03</pdfrwt>
<totfact> 0.81771512E+03</totfact>
</mgrwt>
</event>
<event>
 9    1  0.2065703E-002  0.2749922E+03  0.7818608E-02  0.1098456E+00
         -1   -1    0    0    0  501 -0.00000000000E+00  0.00000000000E+00  0.97295931414E+01  0.97295931414E+01  0.00000000000E+00 0. -1.
          1   -1    0    0  501    0  0.00000000000E+00 -0.00000000000E+00 -0.19430587081E+04  0.19430587081E+04  0.00000000000E+00 0. -1.
         36    2    1    2    0    0  0.53290705182E-14  0.35527136788E-14 -0.19333291149E+04  0.19527883012E+04  0.27499215028E+03 0.  0.
         25    2    3    3    0    0 -0.13729942527E+02 -0.23745355699E+02 -0.49753204182E+03  0.51175780777E+03  0.11664290782E+03 0.  0.
         25    2    3    3    0    0  0.13729942527E+02  0.23745355699E+02 -0.14357970731E+04  0.14410304935E+04  0.11959638214E+03 0.  0.
          5    1    4    4  502    0 -0.40789391207E+02 -0.35332368517E+02 -0.10549706404E+03  0.11859119369E+03  0.47000000000E+01 0.  1.
         -5    1    4    4    0  502  0.27059448680E+02  0.11587012818E+02 -0.39203497778E+03  0.39316661408E+03  0.47000000000E+01 0.  1.
          5    1    5    5  503    0 -0.12088950708E+02  0.19777199366E+02 -0.13682730540E+04  0.13684774462E+04  0.47000000000E+01 0. -1.
         -5    1    5    5    0  503  0.25818893235E+02  0.39681563332E+01 -0.67524019135E+02  0.72553047301E+02  0.47000000000E+01 0. -1.
<mgrwt>
<rscale>  0 0.27499215E+03</rscale>
<asrwt>0</asrwt>
<pdfrwt beam="1">  1        1 0.29893219E+00 0.27499215E+03</pdfrwt>
<pdfrwt beam="2">  1       -1 0.14968601E-02 0.27499215E+03</pdfrwt>
<totfact> 0.38459835E+03</totfact>
</mgrwt>
</event>
<event>
 9    1  0.2065703E-002  0.2745589E+03  0.7818608E-02  0.1098698E+00
         -2   -1    0    0    0  501 -0.00000000000E+00  0.00000000000E+00  0.23406085461E+02  0.23406085461E+02  0.00000000000E+00 0.  1.
          2   -1    0    0  501    0  0.00000000000E+00 -0.00000000000E+00 -0.80516001760E+03  0.80516001760E+03  0.00000000000E+00 0.  1.
         36    2    1    2    0    0 -0.71054273576E-14  0.00000000000E+00 -0.78175393214E+03  0.82856610306E+03  0.27455887661E+03 0.  0.
         25    2    3    3    0    0 -0.49083028944E+01  0.65933952608E+02 -0.29348739815E+03  0.32074997848E+03  0.11123991316E+03 0.  0.
         25    2    3    3    0    0  0.49083028944E+01 -0.65933952608E+02 -0.48826653399E+03  0.50781612458E+03  0.12288869201E+03 0.  0.
          5    1    4    4  502    0 -0.56613945598E+02  0.35112398261E+02 -0.18357498874E+03  0.19534555495E+03  0.47000000000E+01 0.  1.
         -5    1    4    4    0  502  0.51705642703E+02  0.30821554347E+02 -0.10991240941E+03  0.12540442354E+03  0.47000000000E+01 0.  1.
          5    1    5    5  503    0  0.58681757599E+02 -0.27516293941E+02 -0.15574002902E+03  0.16875349403E+03  0.47000000000E+01 0.  1.
         -5    1    5    5    0  503 -0.53773454705E+02 -0.38417658667E+02 -0.33252650498E+03  0.33906263056E+03  0.47000000000E+01 0.  1.
<mgrwt>
<rscale>  0 0.27455888E+03</rscale>
<asrwt>0</asrwt>
<pdfrwt beam="1">  1        2 0.12387077E+00 0.27455888E+03</pdfrwt>
<pdfrwt beam="2">  1       -2 0.36009362E-02 0.27455888E+03</pdfrwt>
<totfact> 0.11291883E+04</totfact>
</mgrwt>
</event>
<event>
 9    1  0.2065703E-002  0.2751048E+03  0.7818608E-02  0.1098393E+00
         -2   -1    0    0    0  501 -0.00000000000E+00  0.00000000000E+00  0.27506970686E+02  0.27506970686E+02  0.00000000000E+00 0. -1.
          2   -1    0    0  501    0  0.00000000000E+00 -0.00000000000E+00 -0.68784985430E+03  0.68784985430E+03  0.00000000000E+00 0. -1.
         36    2    1    2    0    0  0.00000000000E+00  0.00000000000E+00 -0.66034288362E+03  0.71535682499E+03  0.27510482205E+03 0.  0.
         25    2    3    3    0    0 -0.34078342094E+02 -0.38193375002E+02 -0.27310199286E+03  0.30466611243E+03  0.12496669263E+03 0.  0.
         25    2    3    3    0    0  0.34078342094E+02  0.38193375002E+02 -0.38724089076E+03  0.41069071256E+03  0.12685143520E+03 0.  0.
          5    1    4    4  502    0  0.75534991486E+01 -0.76048478630E+02 -0.18247591574E+03  0.19788879775E+03  0.47000000000E+01 0. -1.
         -5    1    4    4    0  502 -0.41631841243E+02  0.37855103628E+02 -0.90626077122E+02  0.10677731468E+03  0.47000000000E+01 0. -1.
          5    1    5    5  503    0  0.81191859722E+02  0.34254897132E+02 -0.27487089769E+03  0.28868948103E+03  0.47000000000E+01 0.  1.
         -5    1    5    5    0  503 -0.47113517628E+02  0.39384778698E+01 -0.11236999307E+03  0.12200123152E+03  0.47000000000E+01 0.  1.
<mgrwt>
<rscale>  0 0.27510482E+03</rscale>
<asrwt>0</asrwt>
<pdfrwt beam="1">  1        2 0.10582305E+00 0.27510482E+03</pdfrwt>
<pdfrwt beam="2">  1       -2 0.42318420E-02 0.27510482E+03</pdfrwt>
<totfact> 0.10770022E+04</totfact>
</mgrwt>
</event>
<event>
 9    1  0.2065703E-002  0.2803764E+03  0.7818608E-02  0.1095484E+00
         -1   -1    0    0    0  501 -0.00000000000E+00  0.00000000000E+00  0.23106093967E+02  0.23106093967E+02  0.00000000000E+00 0. -1.
          1   -1    0    0  501    0  0.00000000000E+00 -0.00000000000E+00 -0.85054339500E+03  0.85054339500E+03  0.00000000000E+00 0. -1.
         36    2    1    2    0    0  0.71054273576E-14  0.00000000000E+00 -0.82743730104E+03  0.87364948897E+03  0.28037642988E+03 0.  0.
         25    2    3    3    0    0  0.31505273514E+02 -0.25428156523E+01 -0.52296415973E+03  0.54526545231E+03  0.15107565306E+03 0.  0.
         25    2    3    3    0    0 -0.31505273514E+02  0.25428156523E+01 -0.30447314131E+03  0.32838403667E+03  0.11888285657E+03 0.  0.
          5    1    4    4  502    0 -0.44924255111E+02  0.38132518226E+02 -0.12939485059E+03  0.14225819837E+03  0.47000000000E+01 0. -1.
         -5    1    4    4    0  502  0.76429528625E+02 -0.40675333879E+02 -0.39356930913E+03  0.40300725393E+03  0.47000000000E+01 0. -1.
          5    1    5    5  503    0  0.18674667024E+02  0.46749560264E+02 -0.85005054276E+02  0.98905074823E+02  0.47000000000E+01 0. -1.
         -5    1    5    5    0  503 -0.50179940538E+02 -0.44206744611E+02 -0.21946808703E+03  0.22947896184E+03  0.47000000000E+01 0. -1.
<mgrwt>
<rscale>  0 0.28037643E+03</rscale>
<asrwt>0</asrwt>
<pdfrwt beam="1">  1        1 0.13085283E+00 0.28037643E+03</pdfrwt>
<pdfrwt beam="2">  1       -1 0.35547838E-02 0.28037643E+03</pdfrwt>
<totfact> 0.61301108E+03</totfact>
</mgrwt>
</event>
<event>
 9    1  0.2065703E-002  0.2775065E+03  0.7818608E-02  0.1097059E+00
          1   -1    0    0  501    0  0.00000000000E+00  0.00000000000E+00  0.46734073225E+03  0.46734073225E+03  0.00000000000E+00 0. -1.
         -1   -1    0    0    0  501 -0.00000000000E+00 -0.00000000000E+00 -0.41195780682E+02  0.41195780682E+02  0.00000000000E+00 0. -1.
         36    2    1    2    0    0  0.71054273576E-14 -0.35527136788E-14  0.42614495157E+03  0.50853651293E+03  0.27750651387E+03 0.  0.
         25    2    3    3    0    0 -0.30685970749E+02  0.24185829550E+02  0.25156692351E+03  0.28314347865E+03  0.12392630611E+03 0.  0.
         25    2    3    3    0    0  0.30685970749E+02 -0.24185829550E+02  0.17457802805E+03  0.22539303428E+03  0.13710561211E+03 0.  0.
          5    1    4    4  502    0 -0.46018499763E+02  0.61023815311E+02  0.97785330049E+02  0.12420011726E+03  0.47000000000E+01 0.  1.
         -5    1    4    4    0  502  0.15332529014E+02 -0.36837985760E+02  0.15378159347E+03  0.15894336139E+03  0.47000000000E+01 0.  1.
          5    1    5    5  503    0  0.63589847408E+02 -0.24222817111E+02  0.17928657476E+03  0.19182330268E+03  0.47000000000E+01 0.  1.
         -5    1    5    5    0  503 -0.32903876659E+02  0.36987560168E-01 -0.47085467107E+01  0.33569731596E+02  0.47000000000E+01 0.  1.
<mgrwt>
<rscale>  0 0.27750651E+03</rscale>
<asrwt>0</asrwt>
<pdfrwt beam="1">  1        1 0.71898571E-01 0.27750651E+03</pdfrwt>
<pdfrwt beam="2">  1       -1 0.63378127E-02 0.27750651E+03</pdfrwt>
<totfact> 0.60469453E+03</totfact>
</mgrwt>
</event>
<event>
 9    1  0.2065703E-002  0.2749387E+03  0.7818608E-02  0.1098486E+00
          2   -1    0    0  501    0  0.00000000000E+00  0.00000000000E+00  0.22893495418E+03  0.22893495418E+03  0.00000000000E+00 0. -1.
         -2   -1    0    0    0  501 -0.00000000000E+00 -0.00000000000E+00 -0.82546665245E+02  0.82546665245E+02  0.00000000000E+00 0. -1.
         36    2    1    2    0    0 -0.10658141036E-13  0.71054273576E-14  0.14638828893E+03  0.31148161942E+03  0.27493866243E+03 0.  0.
         25    2    3    3    0    0 -0.23607918976E+02  0.48032757184E+02  0.38018571821E+02  0.13984112559E+03  0.12347327241E+03 0.  0.
         25    2    3    3    0    0  0.23607918976E+02 -0.48032757184E+02  0.10836971711E+03  0.17164049384E+03  0.12186871599E+03 0.  0.
          5    1    4    4  502    0 -0.35006414457E+02  0.16680111515E+02 -0.39356358571E+02  0.55449870453E+02  0.47000000000E+01 0. -1.
         -5    1    4    4    0  502  0.11398495481E+02  0.31352645669E+02  0.77374930392E+02  0.84391255133E+02  0.47000000000E+01 0. -1.
          5    1    5    5  503    0  0.69694461611E+02 -0.48794854334E+02  0.57280594732E+02  0.10267138025E+03  0.47000000000E+01 0.  1.
         -5    1    5    5    0  503 -0.46086542634E+02  0.76209714975E+00  0.51089122381E+02  0.68969113593E+02  0.47000000000E+01 0.  1.
<mgrwt>
<rscale>  0 0.27493866E+03</rscale>
<asrwt>0</asrwt>
<pdfrwt beam="1">  1        2 0.35220762E-01 0.27493866E+03</pdfrwt>
<pdfrwt beam="2">  1       -2 0.12699487E-01 0.27493866E+03</pdfrwt>
<totfact> 0.65697921E+03</totfact>
</mgrwt>
</event>
<event>
 8    1  0.2065703E-002  0.2566022E+03  0.7818608E-02  0.1109202E+00
          1   -1    0    0  501    0  0.00000000000E+00  0.00000000000E+00  0.11844459608E+03  0.11844459608E+03  0.00000000000E+00 0. -1.
         -1   -1    0    0    0  501 -0.00000000000E+00 -0.00000000000E+00 -0.13897778660E+03  0.13897778660E+03  0.00000000000E+00 0. -1.
         25    2    1    2    0    0 -0.15262353559E+01 -0.18200285277E+02  0.27742767122E+02  0.12864994094E+03  0.12428823917E+03 0.  0.
         25    2    1    2    0    0  0.15262353559E+01  0.18200285277E+02 -0.48275957637E+02  0.12877244175E+03  0.11797539527E+03 0.  0.
          5    1    3    3  502    0 -0.39793370014E+02 -0.33100502482E+02  0.57658815236E+02  0.77625926958E+02  0.47000000000E+01 0.  1.
         -5    1    3    3    0  502  0.38267134658E+02  0.14900217205E+02 -0.29916048115E+02  0.51024013979E+02  0.47000000000E+01 0.  1.
          5    1    4    4  503    0 -0.56289502109E+02  0.19668614279E+02 -0.14174123231E+02  0.61468351244E+02  0.47000000000E+01 0. -1.
         -5    1    4    4    0  503  0.57815737464E+02 -0.14683290018E+01 -0.34101834405E+02  0.67304090503E+02  0.47000000000E+01 0. -1.
<mgrwt>
<rscale>  0 0.25660217E+03</rscale>
<asrwt>0</asrwt>
<pdfrwt beam="1">  1        1 0.18222246E-01 0.25660217E+03</pdfrwt>
<pdfrwt beam="2">  1       -1 0.21381198E-01 0.25660217E+03</pdfrwt>
<totfact> 0.51544607E+03</totfact>
</mgrwt>
</event>
<event>
 9    1  0.2065703E-002  0.2734649E+03  0.7818608E-02  0.1099313E+00
         -2   -1    0    0    0  501 -0.00000000000E+00  0.00000000000E+00  0.75798361783E+02  0.75798361783E+02  0.00000000000E+00 0.  1.
          2   -1    0    0  501    0  0.00000000000E+00 -0.00000000000E+00 -0.24665128753E+03  0.24665128753E+03  0.00000000000E+00 0.  1.
         36    2    1    2    0    0  0.00000000000E+00  0.00000000000E+00 -0.17085292575E+03  0.32244964932E+03  0.27346490471E+03 0.  0.
         25    2    3    3    0    0  0.34715383609E+02  0.24592183746E+02 -0.45150963473E+02  0.13957623247E+03  0.12503192316E+03 0.  0.
         25    2    3    3    0    0 -0.34715383609E+02 -0.24592183746E+02 -0.12570196228E+03  0.18287341684E+03  0.12582436134E+03 0.  0.
          5    1    4    4  502    0 -0.20133275712E+02 -0.40117999371E+02 -0.27353235771E+02  0.52773972482E+02  0.47000000000E+01 0.  1.
         -5    1    4    4    0  502  0.54848659321E+02  0.64710183117E+02 -0.17797727702E+02  0.86802259992E+02  0.47000000000E+01 0.  1.
          5    1    5    5  503    0 -0.45054812743E+02 -0.61438115416E+02 -0.12230070281E+03  0.14416702149E+03  0.47000000000E+01 0. -1.
         -5    1    5    5    0  503  0.10339429133E+02  0.36845931670E+02 -0.34012594681E+01  0.38706395355E+02  0.47000000000E+01 0. -1.
<mgrwt>
<rscale>  0 0.27346490E+03</rscale>
<asrwt>0</asrwt>
<pdfrwt beam="1">  1        2 0.37946352E-01 0.27346490E+03</pdfrwt>
<pdfrwt beam="2">  1       -2 0.11661286E-01 0.27346490E+03</pdfrwt>
<totfact> 0.69547423E+03</totfact>
</mgrwt>
</event>
<event>
 9    1  0.2065703E-002  0.2747653E+03  0.7818608E-02  0.1098583E+00
         -1   -1    0    0    0  501 -0.00000000000E+00  0.00000000000E+00  0.11465989133E+03  0.11465989133E+03  0.00000000000E+00 0.  1.
          1   -1    0    0  501    0  0.00000000000E+00 -0.00000000000E+00 -0.16460849623E+03  0.16460849623E+03  0.00000000000E+00 0.  1.
         36    2    1    2    0    0  0.00000000000E+00  0.00000000000E+00 -0.49948604901E+02  0.27926838756E+03  0.27476529831E+03 0.  0.
         25    2    3    3    0    0  0.52136733543E+02 -0.77187546827E+01 -0.36447227650E+02  0.14097815021E+03  0.12557316702E+03 0.  0.
         25    2    3    3    0    0 -0.52136733543E+02  0.77187546827E+01 -0.13501377251E+02  0.13829023735E+03  0.12713805253E+03 0.  0.
          5    1    4    4  502    0 -0.37462838441E+02 -0.22106246442E+02 -0.21986357551E+02  0.48965705490E+02  0.47000000000E+01 0. -1.
         -5    1    4    4    0  502  0.89599571984E+02  0.14387491760E+02 -0.14460870099E+02  0.92012444717E+02  0.47000000000E+01 0. -1.
          5    1    5    5  503    0 -0.43692007549E+01  0.25160854931E+02 -0.62399177464E+02  0.67586284735E+02  0.47000000000E+01 0.  1.
         -5    1    5    5    0  503 -0.47767532788E+02 -0.17442100248E+02  0.48897800213E+02  0.70703952615E+02  0.47000000000E+01 0.  1.
<mgrwt>
<rscale>  0 0.27476530E+03</rscale>
<asrwt>0</asrwt>
<pdfrwt beam="1">  1        1 0.25324384E-01 0.27476530E+03</pdfrwt>
<pdfrwt beam="2">  1       -1 0.17639983E-01 0.27476530E+03</pdfrwt>
<totfact> 0.46261318E+03</totfact>
</mgrwt>
</event>
<event>
 9    1  0.2065703E-002  0.2746807E+03  0.7818608E-02  0.1098630E+00
         -2   -1    0    0    0  501 -0.00000000000E+00  0.00000000000E+00  0.80648512376E+02  0.80648512376E+02  0.00000000000E+00 0. -1.
          2   -1    0    0  501    0  0.00000000000E+00 -0.00000000000E+00 -0.23388363388E+03  0.23388363388E+03  0.00000000000E+00 0. -1.
         36    2    1    2    0    0  0.00000000000E+00  0.00000000000E+00 -0.15323512151E+03  0.31453214626E+03  0.27468066653E+03 0.  0.
         25    2    3    3    0    0 -0.37499810065E+02 -0.15745093854E+02 -0.14866304395E+03  0.18547339945E+03  0.10317721421E+03 0.  0.
         25    2    3    3    0    0  0.37499810065E+02  0.15745093854E+02 -0.45720775597E+01  0.12905874681E+03  0.12239735495E+03 0.  0.
          5    1    4    4  502    0  0.25388443638E+02  0.23339002022E+02 -0.32381981322E+02  0.47539087077E+02  0.47000000000E+01 0. -1.
         -5    1    4    4    0  502 -0.62888253703E+02 -0.39084095875E+02 -0.11628106262E+03  0.13793431237E+03  0.47000000000E+01 0. -1.
          5    1    5    5  503    0  0.12402918003E+02  0.50957795873E+02 -0.45308500911E+02  0.69465672026E+02  0.47000000000E+01 0.  1.
         -5    1    5    5    0  503  0.25096892062E+02 -0.35212702020E+02  0.40736423351E+02  0.59593074784E+02  0.47000000000E+01 0.  1.
<mgrwt>
<rscale>  0 0.27468067E+03</rscale>
<asrwt>0</asrwt>
<pdfrwt beam="1">  1        2 0.35982097E-01 0.27468067E+03</pdfrwt>
<pdfrwt beam="2">  1       -2 0.12407464E-01 0.27468067E+03</pdfrwt>
<totfact> 0.66656733E+03</totfact>
</mgrwt>
</event>
<event>
 9    1  0.2065703E-002  0.2738288E+03  0.7818608E-02  0.1099108E+00
         -2   -1    0    0    0  501 -0.00000000000E+00  0.00000000000E+00  0.30072130556E+02  0.30072130556E+02  0.00000000000E+00 0. -1.
          2   -1    0    0  501    0  0.00000000000E+00 -0.00000000000E+00 -0.62335315345E+03  0.62335315345E+03  0.00000000000E+00 0. -1.
         36    2    1    2    0    0  0.71054273576E-14 -0.71054273576E-14 -0.59328102290E+03  0.65342528401E+03  0.27382883276E+03 0.  0.
         25    2    3    3    0    0 -0.41197521896E+02  0.29026161770E+02 -0.31571778417E+03  0.34417687721E+03  0.12743723823E+03 0.  0.
         25    2    3    3    0    0  0.41197521896E+02 -0.29026161770E+02 -0.27756323872E+03  0.30924840679E+03  0.12670229570E+03 0.  0.
          5    1    4    4  502    0 -0.45039830700E+02  0.55333062409E+02 -0.30786610698E+03  0.31606006386E+03  0.47000000000E+01 0.  1.
         -5    1    4    4    0  502  0.38423088037E+01 -0.26306900639E+02 -0.78516771963E+01  0.28116813350E+02  0.47000000000E+01 0.  1.
          5    1    5    5  503    0 -0.45063589046E+01  0.45229135339E+02 -0.65057707120E+02  0.79502057897E+02  0.47000000000E+01 0.  1.
         -5    1    5    5    0  503  0.45703880801E+02 -0.74255297109E+02 -0.21250553160E+03  0.22974634890E+03  0.47000000000E+01 0.  1.
<mgrwt>
<rscale>  0 0.27382883E+03</rscale>
<asrwt>0</asrwt>
<pdfrwt beam="1">  1        2 0.95900487E-01 0.27382883E+03</pdfrwt>
<pdfrwt beam="2">  1       -2 0.46264815E-02 0.27382883E+03</pdfrwt>
<totfact> 0.10580103E+04</totfact>
</mgrwt>
</event>
<event>
 9    1  0.2065703E-002  0.2803388E+03  0.7818608E-02  0.1095504E+00
         -2   -1    0    0    0  501 -0.00000000000E+00  0.00000000000E+00  0.11504759394E+03  0.11504759394E+03  0.00000000000E+00 0. -1.
          2   -1    0    0  501    0  0.00000000000E+00 -0.00000000000E+00 -0.17077684668E+03  0.17077684668E+03  0.00000000000E+00 0. -1.
         36    2    1    2    0    0 -0.14210854715E-13  0.35527136788E-14 -0.55729252740E+02  0.28582444063E+03  0.28033883293E+03 0.  0.
         25    2    3    3    0    0  0.67075502694E+02 -0.29605639004E+02 -0.98684468158E+01  0.14631676271E+03  0.12623625424E+03 0.  0.
         25    2    3    3    0    0 -0.67075502694E+02  0.29605639004E+02 -0.45860805924E+02  0.13950767792E+03  0.10946945581E+03 0.  0.
          5    1    4    4  502    0  0.67913494900E+02 -0.82101532339E+01  0.48486413431E+02  0.83980186313E+02  0.47000000000E+01 0. -1.
         -5    1    4    4    0  502 -0.83799220667E+00 -0.21395485771E+02 -0.58354860247E+02  0.62336576395E+02  0.47000000000E+01 0. -1.
          5    1    5    5  503    0  0.41995524889E+01  0.54627481132E+02 -0.10560976889E+02  0.55994840555E+02  0.47000000000E+01 0.  1.
         -5    1    5    5    0  503 -0.71275055183E+02 -0.25021842128E+02 -0.35299829035E+02  0.83512837365E+02  0.47000000000E+01 0.  1.
<mgrwt>
<rscale>  0 0.28033883E+03</rscale>
<asrwt>0</asrwt>
<pdfrwt beam="1">  1        2 0.26273361E-01 0.28033883E+03</pdfrwt>
<pdfrwt beam="2">  1       -2 0.17699630E-01 0.28033883E+03</pdfrwt>
<totfact> 0.52385413E+03</totfact>
</mgrwt>
</event>
<event>
 9    1  0.2065703E-002  0.2754263E+03  0.7818608E-02  0.1098214E+00
          2   -1    0    0  501    0  0.00000000000E+00  0.00000000000E+00  0.27718766994E+03  0.27718766994E+03  0.00000000000E+00 0.  1.
         -2   -1    0    0    0  501 -0.00000000000E+00 -0.00000000000E+00 -0.68419045739E+02  0.68419045739E+02  0.00000000000E+00 0.  1.
         36    2    1    2    0    0  0.00000000000E+00  0.17763568394E-14  0.20876862421E+03  0.34560671568E+03  0.27542633039E+03 0.  0.
         25    2    3    3    0    0 -0.31914140595E+02 -0.94563018717E+01  0.16592042080E+03  0.21049179565E+03  0.12517697866E+03 0.  0.
         25    2    3    3    0    0  0.31914140595E+02  0.94563018717E+01  0.42848203410E+02  0.13511492003E+03  0.12374222830E+03 0.  0.
          5    1    4    4  502    0  0.28949396309E+02 -0.67010004217E+01 -0.35954664794E+01  0.30298322272E+02  0.47000000000E+01 0.  1.
         -5    1    4    4    0  502 -0.60863536904E+02 -0.27553014500E+01  0.16951588728E+03  0.18019347338E+03  0.47000000000E+01 0.  1.
          5    1    5    5  503    0  0.77442415676E+02 -0.10293427645E+02  0.27517245066E+02  0.82961263096E+02  0.47000000000E+01 0.  1.
         -5    1    5    5    0  503 -0.45528275080E+02  0.19749729517E+02  0.15330958343E+02  0.52153656933E+02  0.47000000000E+01 0.  1.
<mgrwt>
<rscale>  0 0.27542633E+03</rscale>
<asrwt>0</asrwt>
<pdfrwt beam="1">  1        2 0.42644256E-01 0.27542633E+03</pdfrwt>
<pdfrwt beam="2">  1       -2 0.10526007E-01 0.27542633E+03</pdfrwt>
<totfact> 0.72287709E+03</totfact>
</mgrwt>
</event>
<event>
 9    1  0.2065703E-002  0.2714515E+03  0.7818608E-02  0.1100452E+00
         -2   -1    0    0    0  501 -0.00000000000E+00  0.00000000000E+00  0.12624861019E+02  0.12624861019E+02  0.00000000000E+00 0.  1.
          2   -1    0    0  501    0  0.00000000000E+00 -0.00000000000E+00 -0.14591427090E+04  0.14591427090E+04  0.00000000000E+00 0.  1.
         36    2    1    2    0    0  0.00000000000E+00  0.00000000000E+00 -0.14465178480E+04  0.14717675700E+04  0.27145146092E+03 0.  0.
         25    2    3    3    0    0  0.45165029122E+02 -0.36145315648E+02 -0.86181833719E+03  0.87112287239E+03  0.11303914716E+03 0.  0.
         25    2    3    3    0    0 -0.45165029122E+02  0.36145315648E+02 -0.58469951080E+03  0.60064469764E+03  0.12471636288E+03 0.  0.
          5    1    4    4  502    0  0.29089256210E+02  0.17586280000E+01 -0.48690128129E+02  0.56939407939E+02  0.47000000000E+01 0.  1.
         -5    1    4    4    0  502  0.16075772913E+02 -0.37903943648E+02 -0.81312820906E+03  0.81418346445E+03  0.47000000000E+01 0.  1.
          5    1    5    5  503    0 -0.73337711384E+02 -0.17881254676E+02 -0.35390259936E+03  0.36189404391E+03  0.47000000000E+01 0. -1.
         -5    1    5    5    0  503  0.28172682262E+02  0.54026570324E+02 -0.23079691144E+03  0.23875065373E+03  0.47000000000E+01 0. -1.
<mgrwt>
<rscale>  0 0.27145146E+03</rscale>
<asrwt>0</asrwt>
<pdfrwt beam="1">  1        2 0.22448357E+00 0.27145146E+03</pdfrwt>
<pdfrwt beam="2">  1       -2 0.19422856E-02 0.27145146E+03</pdfrwt>
<totfact> 0.11579404E+04</totfact>
</mgrwt>
</event>
<event>
 9    1  0.2065703E-002  0.2748496E+03  0.7818608E-02  0.1098536E+00
         -2   -1    0    0    0  501 -0.00000000000E+00  0.00000000000E+00  0.23647749992E+02  0.23647749992E+02  0.00000000000E+00 0.  1.
          2   -1    0    0  501    0  0.00000000000E+00 -0.00000000000E+00 -0.79862018230E+03  0.79862018230E+03  0.00000000000E+00 0.  1.
         36    2    1    2    0    0 -0.71054273576E-14  0.71054273576E-14 -0.77497243230E+03  0.82226793229E+03  0.27484956183E+03 0.  0.
         25    2    3    3    0    0 -0.32194779175E+02  0.31419002370E+02 -0.25875892345E+03  0.28949157972E+03  0.12176016078E+03 0.  0.
         25    2    3    3    0    0  0.32194779175E+02 -0.31419002370E+02 -0.51621350886E+03  0.53277635256E+03  0.12389752865E+03 0.  0.
          5    1    4    4  502    0 -0.45730346846E+02 -0.34559248544E+02 -0.15856103764E+03  0.16866919974E+03  0.47000000000E+01 0.  1.
         -5    1    4    4    0  502  0.13535567671E+02  0.65978250914E+02 -0.10019788580E+03  0.12082237999E+03  0.47000000000E+01 0.  1.
          5    1    5    5  503    0  0.40522785129E+02 -0.74029675536E+02 -0.39482367538E+03  0.40377012471E+03  0.47000000000E+01 0. -1.
         -5    1    5    5    0  503 -0.83280059543E+01  0.42610673166E+02 -0.12138983348E+03  0.12900622785E+03  0.47000000000E+01 0. -1.
<mgrwt>
<rscale>  0 0.27484956E+03</rscale>
<asrwt>0</asrwt>
<pdfrwt beam="1">  1        2 0.12286465E+00 0.27484956E+03</pdfrwt>
<pdfrwt beam="2">  1       -2 0.36381151E-02 0.27484956E+03</pdfrwt>
<totfact> 0.11235997E+04</totfact>
</mgrwt>
</event>
<event>
 9    1  0.2065703E-002  0.2751502E+03  0.7818608E-02  0.1098368E+00
         -2   -1    0    0    0  501 -0.00000000000E+00  0.00000000000E+00  0.30640388514E+02  0.30640388514E+02  0.00000000000E+00 0.  1.
          2   -1    0    0  501    0  0.00000000000E+00 -0.00000000000E+00 -0.61771126584E+03  0.61771126584E+03  0.00000000000E+00 0.  1.
         36    2    1    2    0    0  0.00000000000E+00 -0.71054273576E-14 -0.58707087732E+03  0.64835165435E+03  0.27515023660E+03 0.  0.
         25    2    3    3    0    0 -0.35858582009E+02 -0.45314728358E+02 -0.29407381053E+03  0.32528432498E+03  0.12645640960E+03 0.  0.
         25    2    3    3    0    0  0.35858582009E+02  0.45314728358E+02 -0.29299706680E+03  0.32306732937E+03  0.12323130953E+03 0.  0.
          5    1    4    4  502    0 -0.39539139510E+02  0.29948277848E+02 -0.19177837051E+03  0.19814458431E+03  0.47000000000E+01 0.  1.
         -5    1    4    4    0  502  0.36805575005E+01 -0.75263006206E+02 -0.10229544002E+03  0.12713974066E+03  0.47000000000E+01 0.  1.
          5    1    5    5  503    0  0.63750651994E+02  0.57336780037E+02 -0.27351680595E+03  0.28667958615E+03  0.47000000000E+01 0.  1.
         -5    1    5    5    0  503 -0.27892069985E+02 -0.12022051679E+02 -0.19480260842E+02  0.36387743226E+02  0.47000000000E+01 0.  1.
<mgrwt>
<rscale>  0 0.27515024E+03</rscale>
<asrwt>0</asrwt>
<pdfrwt beam="1">  1        2 0.95032490E-01 0.27515024E+03</pdfrwt>
<pdfrwt beam="2">  1       -2 0.47139065E-02 0.27515024E+03</pdfrwt>
<totfact> 0.10396336E+04</totfact>
</mgrwt>
</event>
<event>
 9    1  0.2065703E-002  0.2749519E+03  0.7818608E-02  0.1098479E+00
          1   -1    0    0  501    0  0.00000000000E+00  0.00000000000E+00  0.60401101506E+03  0.60401101506E+03  0.00000000000E+00 0. -1.
         -1   -1    0    0    0  501 -0.00000000000E+00 -0.00000000000E+00 -0.31290211810E+02  0.31290211810E+02  0.00000000000E+00 0. -1.
         36    2    1    2    0    0  0.71054273576E-14  0.35527136788E-14  0.57272080325E+03  0.63530122687E+03  0.27495186922E+03 0.  0.
         25    2    3    3    0    0 -0.13818872294E+02 -0.23866875512E+02  0.40170725134E+03  0.42125035599E+03  0.12378431913E+03 0.  0.
         25    2    3    3    0    0  0.13818872294E+02  0.23866875512E+02  0.17101355191E+03  0.21405087088E+03  0.12574399155E+03 0.  0.
          5    1    4    4  502    0 -0.46174023731E+02  0.24978971782E+02  0.92120868046E+02  0.10613356598E+03  0.47000000000E+01 0. -1.
         -5    1    4    4    0  502  0.32355151437E+02 -0.48845847294E+02  0.30958638329E+03  0.31511679001E+03  0.47000000000E+01 0. -1.
          5    1    5    5  503    0  0.74742077344E+01  0.74054328519E+02  0.77050033593E+02  0.10723201495E+03  0.47000000000E+01 0. -1.
         -5    1    5    5    0  503  0.63446645595E+01 -0.50187453007E+02  0.93963518318E+02  0.10681885593E+03  0.47000000000E+01 0. -1.
<mgrwt>
<rscale>  0 0.27495187E+03</rscale>
<asrwt>0</asrwt>
<pdfrwt beam="1">  1        1 0.92924763E-01 0.27495187E+03</pdfrwt>
<pdfrwt beam="2">  1       -1 0.48138792E-02 0.27495187E+03</pdfrwt>
<totfact> 0.64688740E+03</totfact>
</mgrwt>
</event>
<event>
 9    1  0.2065703E-002  0.2793914E+03  0.7818608E-02  0.1096022E+00
         -2   -1    0    0    0  501 -0.00000000000E+00  0.00000000000E+00  0.12968459940E+02  0.12968459940E+02  0.00000000000E+00 0.  1.
          2   -1    0    0  501    0  0.00000000000E+00 -0.00000000000E+00 -0.15047959856E+04  0.15047959856E+04  0.00000000000E+00 0.  1.
         36    2    1    2    0    0  0.00000000000E+00  0.00000000000E+00 -0.14918275257E+04  0.15177644456E+04  0.27939138468E+03 0.  0.
         25    2    3    3    0    0  0.53924715420E+02 -0.28195410071E+02 -0.60597925512E+03  0.62128769990E+03  0.12281975545E+03 0.  0.
         25    2    3    3    0    0 -0.53924715420E+02  0.28195410071E+02 -0.88584827058E+03  0.89647674568E+03  0.12345258593E+03 0.  0.
          5    1    4    4  502    0 -0.14488783570E+02  0.28469954419E+02 -0.32410432749E+03  0.32570871688E+03  0.47000000000E+01 0.  1.
         -5    1    4    4    0  502  0.68413498991E+02 -0.56665364490E+02 -0.28187492763E+03  0.29557898302E+03  0.47000000000E+01 0.  1.
          5    1    5    5  503    0  0.21023587332E+01  0.19272016187E+02 -0.73458519177E+03  0.73485598895E+03  0.47000000000E+01 0.  1.
         -5    1    5    5    0  503 -0.56027074154E+02  0.89233938837E+01 -0.15126307881E+03  0.16162075673E+03  0.47000000000E+01 0.  1.
<mgrwt>
<rscale>  0 0.27939138E+03</rscale>
<asrwt>0</asrwt>
<pdfrwt beam="1">  1        2 0.23150702E+00 0.27939138E+03</pdfrwt>
<pdfrwt beam="2">  1       -2 0.19951481E-02 0.27939138E+03</pdfrwt>
<totfact> 0.10527020E+04</totfact>
</mgrwt>
</event>
<event>
 9    1  0.2065703E-002  0.2740957E+03  0.7818608E-02  0.1098958E+00
          1   -1    0    0  501    0  0.00000000000E+00  0.00000000000E+00  0.66809060961E+03  0.66809060961E+03  0.00000000000E+00 0. -1.
         -1   -1    0    0    0  501 -0.00000000000E+00 -0.00000000000E+00 -0.28113117053E+02  0.28113117053E+02  0.00000000000E+00 0. -1.
         36    2    1    2    0    0 -0.71054273576E-14 -0.14210854715E-13  0.63997749255E+03  0.69620372666E+03  0.27409567315E+03 0.  0.
         25    2    3    3    0    0 -0.18493667685E+02 -0.45933900522E+02  0.26995876877E+03  0.30186723818E+03  0.12567479338E+03 0.  0.
         25    2    3    3    0    0  0.18493667685E+02  0.45933900522E+02  0.37001872378E+03  0.39433648848E+03  0.12702547474E+03 0.  0.
          5    1    4    4  502    0  0.36835779505E+02 -0.56014924969E+01  0.20135785863E+03  0.20482999927E+03  0.47000000000E+01 0. -1.
         -5    1    4    4    0  502 -0.55329447190E+02 -0.40332408025E+02  0.68600910140E+02  0.97037238911E+02  0.47000000000E+01 0. -1.
          5    1    5    5  503    0  0.16283972102E+02  0.89957235411E+02  0.26415427728E+03  0.27956581363E+03  0.47000000000E+01 0.  1.
         -5    1    5    5    0  503  0.22096955827E+01 -0.44023334888E+02  0.10586444651E+03  0.11477067484E+03  0.47000000000E+01 0.  1.
<mgrwt>
<rscale>  0 0.27409567E+03</rscale>
<asrwt>0</asrwt>
<pdfrwt beam="1">  1        1 0.10278316E+00 0.27409567E+03</pdfrwt>
<pdfrwt beam="2">  1       -1 0.43250954E-02 0.27409567E+03</pdfrwt>
<totfact> 0.65820866E+03</totfact>
</mgrwt>
</event>
<event>
 9    1  0.2065703E-002  0.2753245E+03  0.7818608E-02  0.1098270E+00
          2   -1    0    0  501    0  0.00000000000E+00  0.00000000000E+00  0.11421136801E+03  0.11421136801E+03  0.00000000000E+00 0. -1.
         -2   -1    0    0    0  501 -0.00000000000E+00 -0.00000000000E+00 -0.16592832820E+03  0.16592832820E+03  0.00000000000E+00 0. -1.
         36    2    1    2    0    0  0.35527136788E-14  0.00000000000E+00 -0.51716960186E+02  0.28013969621E+03  0.27532454563E+03 0.  0.
         25    2    3    3    0    0  0.27449361254E+02  0.34300696794E+02 -0.27330509806E+02  0.13749147852E+03  0.12738502528E+03 0.  0.
         25    2    3    3    0    0 -0.27449361254E+02 -0.34300696794E+02 -0.24386450380E+02  0.14264821769E+03  0.13350584188E+03 0.  0.
          5    1    4    4  502    0 -0.17846366441E+02 -0.21448618820E+02 -0.53806123182E+02  0.60792474339E+02  0.47000000000E+01 0.  1.
         -5    1    4    4    0  502  0.45295727695E+02  0.55749315615E+02  0.26475613376E+02  0.76699004182E+02  0.47000000000E+01 0.  1.
          5    1    5    5  503    0 -0.40177852697E+02  0.20589138789E+02  0.37459507415E+02  0.58851314167E+02  0.47000000000E+01 0. -1.
         -5    1    5    5    0  503  0.12728491444E+02 -0.54889835583E+02 -0.61845957795E+02  0.83796903525E+02  0.47000000000E+01 0. -1.
<mgrwt>
<rscale>  0 0.27532455E+03</rscale>
<asrwt>0</asrwt>
<pdfrwt beam="1">  1        2 0.17570980E-01 0.27532455E+03</pdfrwt>
<pdfrwt beam="2">  1       -2 0.25527435E-01 0.27532455E+03</pdfrwt>
<totfact> 0.43964480E+03</totfact>
</mgrwt>
</event>
<event>
 9    1  0.2065703E-002  0.2827075E+03  0.7818608E-02  0.1094219E+00
          1   -1    0    0  501    0  0.00000000000E+00  0.00000000000E+00  0.28840889048E+03  0.28840889048E+03  0.00000000000E+00 0. -1.
         -1   -1    0    0    0  501 -0.00000000000E+00 -0.00000000000E+00 -0.69279706053E+02  0.69279706053E+02  0.00000000000E+00 0. -1.
         36    2    1    2    0    0 -0.71054273576E-14 -0.35527136788E-14  0.21912918443E+03  0.35768859653E+03  0.28270750365E+03 0.  0.
         25    2    3    3    0    0  0.15862140754E+02  0.22230549270E+02  0.17156633815E+03  0.21451174273E+03  0.12583510858E+03 0.  0.
         25    2    3    3    0    0 -0.15862140754E+02 -0.22230549270E+02  0.47562846273E+02  0.14317685380E+03  0.13225574577E+03 0.  0.
          5    1    4    4  502    0 -0.24425045313E+02  0.14206251560E+02  0.17077193217E+03  0.17315756766E+03  0.47000000000E+01 0. -1.
         -5    1    4    4    0  502  0.40287186067E+02  0.80242977105E+01  0.79440598574E+00  0.41354175071E+02  0.47000000000E+01 0. -1.
          5    1    5    5  503    0 -0.71507461761E+02 -0.28382270787E+02  0.38880144084E+02  0.86328593099E+02  0.47000000000E+01 0.  1.
         -5    1    5    5    0  503  0.55645321007E+02  0.61517215169E+01  0.86827021887E+01  0.56848260702E+02  0.47000000000E+01 0.  1.
<mgrwt>
<rscale>  0 0.28270750E+03</rscale>
<asrwt>0</asrwt>
<pdfrwt beam="1">  1        1 0.44370598E-01 0.28270750E+03</pdfrwt>
<pdfrwt beam="2">  1       -1 0.10658416E-01 0.28270750E+03</pdfrwt>
<totfact> 0.50568799E+03</totfact>
</mgrwt>
</event>
<event>
 9    1  0.2065703E-002  0.2750269E+03  0.7818608E-02  0.1098437E+00
         -2   -1    0    0    0  501 -0.00000000000E+00  0.00000000000E+00  0.37332935134E+03  0.37332935134E+03  0.00000000000E+00 0. -1.
          2   -1    0    0  501    0  0.00000000000E+00 -0.00000000000E+00 -0.50652180921E+02  0.50652180921E+02  0.00000000000E+00 0. -1.
         36    2    1    2    0    0  0.00000000000E+00  0.00000000000E+00  0.32267717042E+03  0.42398153227E+03  0.27502687758E+03 0.  0.
         25    2    3    3    0    0  0.63865728274E+01 -0.65772467708E+02  0.11778282086E+03  0.17955719810E+03  0.11832661864E+03 0.  0.
         25    2    3    3    0    0 -0.63865728274E+01  0.65772467708E+02  0.20489434956E+03  0.24442433416E+03  0.11573571112E+03 0.  0.
          5    1    4    4  502    0 -0.24013331747E+02 -0.12589750870E+02  0.11479426383E+03  0.11804641009E+03  0.47000000000E+01 0.  1.
         -5    1    4    4    0  502  0.30399904574E+02 -0.53182716837E+02  0.29885570346E+01  0.61510788009E+02  0.47000000000E+01 0.  1.
          5    1    5    5  503    0 -0.53540020448E+02  0.24269375662E+02  0.50374469608E+02  0.77557807943E+02  0.47000000000E+01 0.  1.
         -5    1    5    5    0  503  0.47153447621E+02  0.41503092045E+02  0.15451987995E+03  0.16686652622E+03  0.47000000000E+01 0.  1.
<mgrwt>
<rscale>  0 0.27502688E+03</rscale>
<asrwt>0</asrwt>
<pdfrwt beam="1">  1        2 0.77926435E-02 0.27502688E+03</pdfrwt>
<pdfrwt beam="2">  1       -2 0.57435283E-01 0.27502688E+03</pdfrwt>
<totfact> 0.25389240E+03</totfact>
</mgrwt>
</event>
<event>
 9    1  0.2065703E-002  0.2746537E+03  0.7818608E-02  0.1098645E+00
         -2   -1    0    0    0  501 -0.00000000000E+00  0.00000000000E+00  0.90518714466E+01  0.90518714466E+01  0.00000000000E+00 0. -1.
          2   -1    0    0  501    0  0.00000000000E+00 -0.00000000000E+00 -0.20833998436E+04  0.20833998436E+04  0.00000000000E+00 0. -1.
         36    2    1    2    0    0  0.00000000000E+00  0.00000000000E+00 -0.20743479721E+04  0.20924517150E+04  0.27465372785E+03 0.  0.
         25    2    3    3    0    0  0.24586859267E+02  0.19956683886E+02 -0.13867031835E+04  0.13927629748E+04  0.12585786388E+03 0.  0.
         25    2    3    3    0    0 -0.24586859267E+02 -0.19956683886E+02 -0.68764478863E+03  0.69968874024E+03  0.12532435923E+03 0.  0.
          5    1    4    4  502    0 -0.31287468628E+02 -0.77102259326E+00 -0.10699560453E+04  0.10704239950E+04  0.47000000000E+01 0.  1.
         -5    1    4    4    0  502  0.55874327895E+02  0.20727706479E+02 -0.31674713814E+03  0.32233897973E+03  0.47000000000E+01 0.  1.
          5    1    5    5  503    0  0.29336552253E+02 -0.33829470436E+02 -0.53918460237E+03  0.54106117196E+03  0.47000000000E+01 0.  1.
         -5    1    5    5    0  503 -0.53923411520E+02  0.13872786550E+02 -0.14846018626E+03  0.15862756829E+03  0.47000000000E+01 0.  1.
<mgrwt>
<rscale>  0 0.27465373E+03</rscale>
<asrwt>0</asrwt>
<pdfrwt beam="1">  1        2 0.32052366E+00 0.27465373E+03</pdfrwt>
<pdfrwt beam="2">  1       -2 0.13925930E-02 0.27465373E+03</pdfrwt>
<totfact> 0.88307189E+03</totfact>
</mgrwt>
</event>
<event>
 9    1  0.2065703E-002  0.2757179E+03  0.7818608E-02  0.1098051E+00
         -1   -1    0    0    0  501 -0.00000000000E+00  0.00000000000E+00  0.29230134125E+02  0.29230134125E+02  0.00000000000E+00 0.  1.
          1   -1    0    0  501    0  0.00000000000E+00 -0.00000000000E+00 -0.65018820425E+03  0.65018820425E+03  0.00000000000E+00 0.  1.
         36    2    1    2    0    0  0.00000000000E+00  0.71054273576E-14 -0.62095807013E+03  0.67941833838E+03  0.27571788783E+03 0.  0.
         25    2    3    3    0    0 -0.22034474249E+02  0.29251636281E+02 -0.40547115825E+03  0.42734541865E+03  0.12990793044E+03 0.  0.
         25    2    3    3    0    0  0.22034474249E+02 -0.29251636281E+02 -0.21548691187E+03  0.25207291972E+03  0.12555863725E+03 0.  0.
          5    1    4    4  502    0  0.37000704310E+02 -0.31749629976E+02 -0.17363325041E+03  0.18040977460E+03  0.47000000000E+01 0.  1.
         -5    1    4    4    0  502 -0.59035178558E+02  0.61001266257E+02 -0.23183790784E+03  0.24693564406E+03  0.47000000000E+01 0.  1.
          5    1    5    5  503    0  0.22381927804E+02  0.34266068404E+02 -0.18713584078E+02  0.45248230519E+02  0.47000000000E+01 0.  1.
         -5    1    5    5    0  503 -0.34745355518E+00 -0.63517704685E+02 -0.19677332780E+03  0.20682468920E+03  0.47000000000E+01 0.  1.
<mgrwt>
<rscale>  0 0.27571789E+03</rscale>
<asrwt>0</asrwt>
<pdfrwt beam="1">  1        1 0.10002895E+00 0.27571789E+03</pdfrwt>
<pdfrwt beam="2">  1       -1 0.44969437E-02 0.27571789E+03</pdfrwt>
<totfact> 0.64574037E+03</totfact>
</mgrwt>
</event>
<event>
 9    1  0.2065703E-002  0.2750023E+03  0.7818608E-02  0.1098450E+00
          2   -1    0    0  501    0  0.00000000000E+00  0.00000000000E+00  0.30769459590E+03  0.30769459590E+03  0.00000000000E+00 0. -1.
         -2   -1    0    0    0  501 -0.00000000000E+00 -0.00000000000E+00 -0.61445871406E+02  0.61445871406E+02  0.00000000000E+00 0. -1.
         36    2    1    2    0    0  0.00000000000E+00  0.00000000000E+00  0.24624872450E+03  0.36914046731E+03  0.27500227324E+03 0.  0.
         25    2    3    3    0    0  0.12511778037E+02  0.55322536002E+02  0.92753315819E+02  0.16391342266E+03  0.12266745678E+03 0.  0.
         25    2    3    3    0    0 -0.12511778037E+02 -0.55322536002E+02  0.15349540868E+03  0.20522704465E+03  0.12385544716E+03 0.  0.
          5    1    4    4  502    0 -0.21839906533E+02  0.99046344088E+01  0.10300286611E+03  0.10586200322E+03  0.47000000000E+01 0.  1.
         -5    1    4    4    0  502  0.34351684569E+02  0.45417901593E+02 -0.10249550286E+02  0.58051419440E+02  0.47000000000E+01 0.  1.
          5    1    5    5  503    0 -0.28673689351E+02 -0.87610119369E+02  0.13714408934E+03  0.16531274820E+03  0.47000000000E+01 0. -1.
         -5    1    5    5    0  503  0.16161911314E+02  0.32287583367E+02  0.16351319344E+02  0.39914296453E+02  0.47000000000E+01 0. -1.
<mgrwt>
<rscale>  0 0.27500227E+03</rscale>
<asrwt>0</asrwt>
<pdfrwt beam="1">  1        2 0.47337629E-01 0.27500227E+03</pdfrwt>
<pdfrwt beam="2">  1       -2 0.94532112E-02 0.27500227E+03</pdfrwt>
<totfact> 0.76640350E+03</totfact>
</mgrwt>
</event>
<event>
 9    1  0.2065703E-002  0.2794538E+03  0.7818608E-02  0.1095988E+00
          1   -1    0    0  501    0  0.00000000000E+00  0.00000000000E+00  0.58098177420E+03  0.58098177420E+03  0.00000000000E+00 0.  1.
         -1   -1    0    0    0  501 -0.00000000000E+00 -0.00000000000E+00 -0.33604510165E+02  0.33604510165E+02  0.00000000000E+00 0.  1.
         36    2    1    2    0    0  0.00000000000E+00  0.00000000000E+00  0.54737726404E+03  0.61458628437E+03  0.27945380969E+03 0.  0.
         25    2    3    3    0    0 -0.46348052791E+02 -0.15825767823E+02  0.35242367864E+03  0.37761645829E+03  0.12646400033E+03 0.  0.
         25    2    3    3    0    0  0.46348052791E+02  0.15825767823E+02  0.19495358540E+03  0.23696982608E+03  0.12549582100E+03 0.  0.
          5    1    4    4  502    0 -0.43903087544E+02 -0.55887497604E+02  0.31357017063E+03  0.32155751491E+03  0.47000000000E+01 0. -1.
         -5    1    4    4    0  502 -0.24449652469E+01  0.40061729781E+02  0.38853508008E+02  0.56058943378E+02  0.47000000000E+01 0. -1.
          5    1    5    5  503    0  0.65469394033E+02 -0.38486550607E+02  0.12383766358E+03  0.14534549547E+03  0.47000000000E+01 0.  1.
         -5    1    5    5    0  503 -0.19121341241E+02  0.54312318429E+02  0.71115921823E+02  0.91624330616E+02  0.47000000000E+01 0.  1.
<mgrwt>
<rscale>  0 0.27945381E+03</rscale>
<asrwt>0</asrwt>
<pdfrwt beam="1">  1        1 0.89381804E-01 0.27945381E+03</pdfrwt>
<pdfrwt beam="2">  1       -1 0.51699251E-02 0.27945381E+03</pdfrwt>
<totfact> 0.61371699E+03</totfact>
</mgrwt>
</event>
<event>
 9    1  0.2065703E-002  0.2751259E+03  0.7818608E-02  0.1098381E+00
         -2   -1    0    0    0  501 -0.00000000000E+00  0.00000000000E+00  0.50352081927E+02  0.50352081927E+02  0.00000000000E+00 0.  1.
          2   -1    0    0  501    0  0.00000000000E+00 -0.00000000000E+00 -0.37582480783E+03  0.37582480783E+03  0.00000000000E+00 0.  1.
         36    2    1    2    0    0  0.14210854715E-13  0.10658141036E-13 -0.32547272590E+03  0.42617688975E+03  0.27512587311E+03 0.  0.
         25    2    3    3    0    0  0.23800984507E+02  0.29391275141E+02 -0.92943691077E+02  0.15969711325E+03  0.12423487574E+03 0.  0.
         25    2    3    3    0    0 -0.23800984507E+02 -0.29391275141E+02 -0.23252903482E+03  0.26647977651E+03  0.12454471218E+03 0.  0.
          5    1    4    4  502    0 -0.38425887629E+02  0.50816194561E+02 -0.45250275383E+02  0.78284812652E+02  0.47000000000E+01 0. -1.
         -5    1    4    4    0  502  0.62226872135E+02 -0.21424919419E+02 -0.47693415694E+02  0.81412300597E+02  0.47000000000E+01 0. -1.
          5    1    5    5  503    0 -0.35043881375E+02 -0.58692395854E+02 -0.22308440376E+03  0.23337011839E+03  0.47000000000E+01 0.  1.
         -5    1    5    5    0  503  0.11242896869E+02  0.29301120712E+02 -0.94446310597E+01  0.33109658121E+02  0.47000000000E+01 0.  1.
<mgrwt>
<rscale>  0 0.27512587E+03</rscale>
<asrwt>0</asrwt>
<pdfrwt beam="1">  1        2 0.57819199E-01 0.27512587E+03</pdfrwt>
<pdfrwt beam="2">  1       -2 0.77464744E-02 0.27512587E+03</pdfrwt>
<totfact> 0.84441228E+03</totfact>
</mgrwt>
</event>
<event>
 9    1  0.2065703E-002  0.2734048E+03  0.7818608E-02  0.1099347E+00
         -2   -1    0    0    0  501 -0.00000000000E+00  0.00000000000E+00  0.54041483814E+02  0.54041483814E+02  0.00000000000E+00 0.  1.
          2   -1    0    0  501    0  0.00000000000E+00 -0.00000000000E+00 -0.34580005697E+03  0.34580005697E+03  0.00000000000E+00 0.  1.
         36    2    1    2    0    0  0.00000000000E+00  0.00000000000E+00 -0.29175857315E+03  0.39984154078E+03  0.27340481475E+03 0.  0.
         25    2    3    3    0    0  0.11910918608E+02  0.53476055501E+02 -0.13032056144E+03  0.18639250218E+03  0.12147904198E+03 0.  0.
         25    2    3    3    0    0 -0.11910918608E+02 -0.53476055501E+02 -0.16143801171E+03  0.21344903860E+03  0.12843948755E+03 0.  0.
          5    1    4    4  502    0 -0.46888865897E+02  0.39536714804E+02 -0.28267230418E+02  0.67696705076E+02  0.47000000000E+01 0. -1.
         -5    1    4    4    0  502  0.58799784505E+02  0.13939340697E+02 -0.10205333103E+03  0.11869579711E+03  0.47000000000E+01 0. -1.
          5    1    5    5  503    0  0.45368694694E+02 -0.65828962914E+02 -0.10399041986E+03  0.13125497415E+03  0.47000000000E+01 0. -1.
         -5    1    5    5    0  503 -0.57279613302E+02  0.12352907414E+02 -0.57447591849E+02  0.82194064451E+02  0.47000000000E+01 0. -1.
<mgrwt>
<rscale>  0 0.27340481E+03</rscale>
<asrwt>0</asrwt>
<pdfrwt beam="1">  1        2 0.53200008E-01 0.27340481E+03</pdfrwt>
<pdfrwt beam="2">  1       -2 0.83140745E-02 0.27340481E+03</pdfrwt>
<totfact> 0.82707264E+03</totfact>
</mgrwt>
</event>
<event>
 9    1  0.2065703E-002  0.2748114E+03  0.7818608E-02  0.1098557E+00
         -1   -1    0    0    0  501 -0.00000000000E+00  0.00000000000E+00  0.24656025732E+03  0.24656025732E+03  0.00000000000E+00 0. -1.
          1   -1    0    0  501    0  0.00000000000E+00 -0.00000000000E+00 -0.76574870767E+02  0.76574870767E+02  0.00000000000E+00 0. -1.
         36    2    1    2    0    0  0.17763568394E-14  0.00000000000E+00  0.16998538655E+03  0.32313512809E+03  0.27481135232E+03 0.  0.
         25    2    3    3    0    0  0.52078999331E+01 -0.37546252960E+02  0.12200790740E+03  0.18447058675E+03  0.13306624130E+03 0.  0.
         25    2    3    3    0    0 -0.52078999331E+01  0.37546252960E+02  0.47977479152E+02  0.13866454134E+03  0.12445550685E+03 0.  0.
          5    1    4    4  502    0  0.81684874189E+01  0.16087104269E+01 -0.27869370669E+02  0.29463603945E+02  0.47000000000E+01 0. -1.
         -5    1    4    4    0  502 -0.29605874858E+01 -0.39154963387E+02  0.14987727807E+03  0.15500698280E+03  0.47000000000E+01 0. -1.
          5    1    5    5  503    0  0.37776072913E+02  0.32315912806E+02  0.72991362815E+02  0.88437429581E+02  0.47000000000E+01 0.  1.
         -5    1    5    5    0  503 -0.42983972846E+02  0.52303401549E+01 -0.25013883663E+02  0.50227111759E+02  0.47000000000E+01 0.  1.
<mgrwt>
<rscale>  0 0.27481135E+03</rscale>
<asrwt>0</asrwt>
<pdfrwt beam="1">  1        1 0.11780749E-01 0.27481135E+03</pdfrwt>
<pdfrwt beam="2">  1       -1 0.37932347E-01 0.27481135E+03</pdfrwt>
<totfact> 0.34737887E+03</totfact>
</mgrwt>
</event>
<event>
 9    1  0.2065703E-002  0.2793486E+03  0.7818608E-02  0.1096045E+00
          2   -1    0    0  501    0  0.00000000000E+00  0.00000000000E+00  0.15763218479E+03  0.15763218479E+03  0.00000000000E+00 0.  1.
         -2   -1    0    0    0  501 -0.00000000000E+00 -0.00000000000E+00 -0.12376221579E+03  0.12376221579E+03  0.00000000000E+00 0.  1.
         36    2    1    2    0    0  0.00000000000E+00  0.71054273576E-14  0.33869969000E+02  0.28139440059E+03  0.27934858847E+03 0.  0.
         25    2    3    3    0    0  0.14013157615E+02  0.52643636458E+02 -0.85099600711E+01  0.13693529753E+03  0.12534406744E+03 0.  0.
         25    2    3    3    0    0 -0.14013157615E+02 -0.52643636458E+02  0.42379929071E+02  0.14445910306E+03  0.12690410956E+03 0.  0.
          5    1    4    4  502    0 -0.52032570237E+02  0.32960801515E+00 -0.48610032477E+01  0.52471100231E+02  0.47000000000E+01 0. -1.
         -5    1    4    4    0  502  0.66045727853E+02  0.52314028442E+02 -0.36489568233E+01  0.84464197299E+02  0.47000000000E+01 0. -1.
          5    1    5    5  503    0 -0.96881218210E+00  0.33304492100E+02 -0.18334867863E+02  0.38319514228E+02  0.47000000000E+01 0. -1.
         -5    1    5    5    0  503 -0.13044345433E+02 -0.85948128558E+02  0.60714796934E+02  0.10613958883E+03  0.47000000000E+01 0. -1.
<mgrwt>
<rscale>  0 0.27934859E+03</rscale>
<asrwt>0</asrwt>
<pdfrwt beam="1">  1        2 0.24251105E-01 0.27934859E+03</pdfrwt>
<pdfrwt beam="2">  1       -2 0.19040341E-01 0.27934859E+03</pdfrwt>
<totfact> 0.50623959E+03</totfact>
</mgrwt>
</event>
<event>
 9    1  0.2065703E-002  0.2772663E+03  0.7818608E-02  0.1097191E+00
          4   -1    0    0  501    0  0.00000000000E+00  0.00000000000E+00  0.13586178503E+03  0.13586178503E+03  0.00000000000E+00 0. -1.
         -4   -1    0    0    0  501 -0.00000000000E+00 -0.00000000000E+00 -0.14146103226E+03  0.14146103226E+03  0.00000000000E+00 0. -1.
         36    2    1    2    0    0  0.00000000000E+00  0.00000000000E+00 -0.55992472311E+01  0.27732281729E+03  0.27726628612E+03 0.  0.
         25    2    3    3    0    0  0.11464993074E+02  0.52010467681E+02  0.26240031387E+02  0.13700746025E+03  0.12347457270E+03 0.  0.
         25    2    3    3    0    0 -0.11464993074E+02 -0.52010467681E+02 -0.31839278618E+02  0.14031535704E+03  0.12584961240E+03 0.  0.
          5    1    4    4  502    0 -0.31217422967E-02  0.92239008809E+02  0.19065244209E+02  0.94305929254E+02  0.47000000000E+01 0.  1.
         -5    1    4    4    0  502  0.11468114817E+02 -0.40228541128E+02  0.71747871784E+01  0.42701531000E+02  0.47000000000E+01 0.  1.
          5    1    5    5  503    0 -0.61704585983E+02 -0.39291950621E+02  0.94196855466E+01  0.73906250011E+02  0.47000000000E+01 0. -1.
         -5    1    5    5    0  503  0.50239592908E+02 -0.12718517060E+02 -0.41258964165E+02  0.66409107024E+02  0.47000000000E+01 0. -1.
<mgrwt>
<rscale>  0 0.27726629E+03</rscale>
<asrwt>0</asrwt>
<pdfrwt beam="1">  1        4 0.20901813E-01 0.27726629E+03</pdfrwt>
<pdfrwt beam="2">  1       -4 0.21763236E-01 0.27726629E+03</pdfrwt>
<totfact> 0.75642439E+02</totfact>
</mgrwt>
</event>
<event>
 9    1  0.2065703E-002  0.2725015E+03  0.7818608E-02  0.1099856E+00
         -1   -1    0    0    0  501 -0.00000000000E+00  0.00000000000E+00  0.15452729511E+03  0.15452729511E+03  0.00000000000E+00 0. -1.
          1   -1    0    0  501    0  0.00000000000E+00 -0.00000000000E+00 -0.12013587862E+03  0.12013587862E+03  0.00000000000E+00 0. -1.
         36    2    1    2    0    0  0.71054273576E-14  0.00000000000E+00  0.34391416491E+02  0.27466317373E+03  0.27250154031E+03 0.  0.
         25    2    3    3    0    0 -0.34062057839E+02  0.30097400964E+02 -0.17413964278E+02  0.13541664903E+03  0.12636591848E+03 0.  0.
         25    2    3    3    0    0  0.34062057839E+02 -0.30097400964E+02  0.51805380769E+02  0.13924652470E+03  0.12099470995E+03 0.  0.
          5    1    4    4  502    0 -0.25781517330E+02 -0.22107900577E+02  0.43006561865E+02  0.55000911513E+02  0.47000000000E+01 0.  1.
         -5    1    4    4    0  502 -0.82805405087E+01  0.52205301542E+02 -0.60420526144E+02  0.80415737512E+02  0.47000000000E+01 0.  1.
          5    1    5    5  503    0  0.10850530658E+02  0.93174552737E+01 -0.36612346851E+02  0.39586650910E+02  0.47000000000E+01 0.  1.
         -5    1    5    5    0  503  0.23211527181E+02 -0.39414856238E+02  0.88417727620E+02  0.99659873790E+02  0.47000000000E+01 0.  1.
<mgrwt>
<rscale>  0 0.27250154E+03</rscale>
<asrwt>0</asrwt>
<pdfrwt beam="1">  1        1 0.18482443E-01 0.27250154E+03</pdfrwt>
<pdfrwt beam="2">  1       -1 0.23773430E-01 0.27250154E+03</pdfrwt>
<totfact> 0.42596309E+03</totfact>
</mgrwt>
</event>
<event>
 9    1  0.2065703E-002  0.2743196E+03  0.7818608E-02  0.1098833E+00
         -3   -1    0    0    0  501 -0.00000000000E+00  0.00000000000E+00  0.26387174835E+03  0.26387174835E+03  0.00000000000E+00 0. -1.
          3   -1    0    0  501    0  0.00000000000E+00 -0.00000000000E+00 -0.71295278043E+02  0.71295278043E+02  0.00000000000E+00 0. -1.
         36    2    1    2    0    0  0.35527136788E-14  0.00000000000E+00  0.19257647030E+03  0.33516702639E+03  0.27431959220E+03 0.  0.
         25    2    3    3    0    0  0.13595932620E+02 -0.40589451890E+02  0.14257445739E+03  0.19363058588E+03  0.12382639015E+03 0.  0.
         25    2    3    3    0    0 -0.13595932620E+02  0.40589451890E+02  0.50002012911E+02  0.14153644051E+03  0.12529967960E+03 0.  0.
          5    1    4    4  502    0 -0.42574425161E+02 -0.45544031996E+02  0.33931737382E+02  0.71135738768E+02  0.47000000000E+01 0.  1.
         -5    1    4    4    0  502  0.56170357782E+02  0.49545801066E+01  0.10864272001E+03  0.12249484711E+03  0.47000000000E+01 0.  1.
          5    1    5    5  503    0  0.23164709701E+02  0.76942973934E+02  0.29820682410E+02  0.85838150684E+02  0.47000000000E+01 0.  1.
         -5    1    5    5    0  503 -0.36760642321E+02 -0.36353522045E+02  0.20181330501E+02  0.55698289827E+02  0.47000000000E+01 0.  1.
<mgrwt>
<rscale>  0 0.27431959E+03</rscale>
<asrwt>0</asrwt>
<pdfrwt beam="1">  1        3 0.10968504E-01 0.27431959E+03</pdfrwt>
<pdfrwt beam="2">  1       -3 0.40595653E-01 0.27431959E+03</pdfrwt>
<totfact> 0.96963219E+02</totfact>
</mgrwt>
</event>
<event>
 9    1  0.2065703E-002  0.2755738E+03  0.7818608E-02  0.1098131E+00
          1   -1    0    0  501    0  0.00000000000E+00  0.00000000000E+00  0.33304767821E+03  0.33304767821E+03  0.00000000000E+00 0. -1.
         -1   -1    0    0    0  501 -0.00000000000E+00 -0.00000000000E+00 -0.57004523928E+02  0.57004523928E+02  0.00000000000E+00 0. -1.
         36    2    1    2    0    0  0.00000000000E+00  0.00000000000E+00  0.27604315428E+03  0.39005220214E+03  0.27557376030E+03 0.  0.
         25    2    3    3    0    0  0.54700617263E+02 -0.22142987207E+01  0.10304400741E+03  0.17022895978E+03  0.12394664431E+03 0.  0.
         25    2    3    3    0    0 -0.54700617263E+02  0.22142987207E+01  0.17299914687E+03  0.21982324236E+03  0.12408260319E+03 0.  0.
          5    1    4    4  502    0  0.74214113847E+02 -0.38162852403E+02  0.97914903618E+02  0.12873832509E+03  0.47000000000E+01 0.  1.
         -5    1    4    4    0  502 -0.19513496584E+02  0.35948553683E+02  0.51291037910E+01  0.41490634684E+02  0.47000000000E+01 0.  1.
          5    1    5    5  503    0 -0.30925825739E+02  0.48963602153E+02  0.15271368408E+03  0.16339339136E+03  0.47000000000E+01 0. -1.
         -5    1    5    5    0  503 -0.23774791524E+02 -0.46749303432E+02  0.20285462790E+02  0.56429851001E+02  0.47000000000E+01 0. -1.
<mgrwt>
<rscale>  0 0.27557376E+03</rscale>
<asrwt>0</asrwt>
<pdfrwt beam="1">  1        1 0.51238103E-01 0.27557376E+03</pdfrwt>
<pdfrwt beam="2">  1       -1 0.87699270E-02 0.27557376E+03</pdfrwt>
<totfact> 0.56949506E+03</totfact>
</mgrwt>
</event>
<event>
 9    1  0.2065703E-002  0.2740077E+03  0.7818608E-02  0.1099008E+00
         -2   -1    0    0    0  501 -0.00000000000E+00  0.00000000000E+00  0.11057506554E+02  0.11057506554E+02  0.00000000000E+00 0.  1.
          2   -1    0    0  501    0  0.00000000000E+00 -0.00000000000E+00 -0.16974949546E+04  0.16974949546E+04  0.00000000000E+00 0.  1.
         36    2    1    2    0    0  0.00000000000E+00  0.17763568394E-14 -0.16864374481E+04  0.17085524612E+04  0.27400774870E+03 0.  0.
         25    2    3    3    0    0 -0.46908028306E+02  0.46585755108E+01 -0.77769977640E+03  0.78960958211E+03  0.12823527009E+03 0.  0.
         25    2    3    3    0    0  0.46908028306E+02 -0.46585755108E+01 -0.90873767167E+03  0.91894287908E+03  0.12817875659E+03 0.  0.
          5    1    4    4  502    0 -0.63644629292E+02  0.45990977271E+01 -0.76597134295E+03  0.76863904322E+03  0.47000000000E+01 0. -1.
         -5    1    4    4    0  502  0.16736600986E+02  0.59477783712E-01 -0.11728433456E+02  0.20970538894E+02  0.47000000000E+01 0. -1.
          5    1    5    5  503    0 -0.31667632791E+02 -0.38873406124E+02 -0.36984527719E+03  0.37325808729E+03  0.47000000000E+01 0. -1.
         -5    1    5    5    0  503  0.78575661097E+02  0.34214830613E+02 -0.53889239449E+03  0.54568479179E+03  0.47000000000E+01 0. -1.
<mgrwt>
<rscale>  0 0.27400775E+03</rscale>
<asrwt>0</asrwt>
<pdfrwt beam="1">  1        2 0.26115307E+00 0.27400775E+03</pdfrwt>
<pdfrwt beam="2">  1       -2 0.17011548E-02 0.27400775E+03</pdfrwt>
<totfact> 0.10510971E+04</totfact>
</mgrwt>
</event>
<event>
 9    1  0.2065703E-002  0.2778185E+03  0.7818608E-02  0.1096886E+00
         -2   -1    0    0    0  501 -0.00000000000E+00  0.00000000000E+00  0.47487065253E+02  0.47487065253E+02  0.00000000000E+00 0. -1.
          2   -1    0    0  501    0  0.00000000000E+00 -0.00000000000E+00 -0.40633759377E+03  0.40633759377E+03  0.00000000000E+00 0. -1.
         36    2    1    2    0    0  0.00000000000E+00  0.00000000000E+00 -0.35885052851E+03  0.45382465902E+03  0.27781850068E+03 0.  0.
         25    2    3    3    0    0  0.59780118151E+02 -0.21506941103E+02 -0.13494392266E+03  0.19460602799E+03  0.12500173129E+03 0.  0.
         25    2    3    3    0    0 -0.59780118151E+02  0.21506941103E+02 -0.22390660585E+03  0.25921863103E+03  0.11412238819E+03 0.  0.
          5    1    4    4  502    0  0.16453538517E+02 -0.21856507763E+02  0.19635033012E+02  0.34000740914E+02  0.47000000000E+01 0.  1.
         -5    1    4    4    0  502  0.43326579634E+02  0.34956665910E+00 -0.15457895567E+03  0.16060528707E+03  0.47000000000E+01 0.  1.
          5    1    5    5  503    0 -0.70279399329E+02  0.50550178896E+02 -0.20530729433E+03  0.22286249048E+03  0.47000000000E+01 0.  1.
         -5    1    5    5    0  503  0.10499281178E+02 -0.29043237792E+02 -0.18599311519E+02  0.36356140550E+02  0.47000000000E+01 0.  1.
<mgrwt>
<rscale>  0 0.27781850E+03</rscale>
<asrwt>0</asrwt>
<pdfrwt beam="1">  1        2 0.62513478E-01 0.27781850E+03</pdfrwt>
<pdfrwt beam="2">  1       -2 0.73057021E-02 0.27781850E+03</pdfrwt>
<totfact> 0.85019041E+03</totfact>
</mgrwt>
</event>
<event>
 9    1  0.2065703E-002  0.2739191E+03  0.7818608E-02  0.1099057E+00
          1   -1    0    0  501    0  0.00000000000E+00  0.00000000000E+00  0.44409849278E+03  0.44409849278E+03  0.00000000000E+00 0. -1.
         -1   -1    0    0    0  501 -0.00000000000E+00 -0.00000000000E+00 -0.42238198821E+02  0.42238198821E+02  0.00000000000E+00 0. -1.
         36    2    1    2    0    0  0.00000000000E+00  0.00000000000E+00  0.40186029396E+03  0.48633669160E+03  0.27391911532E+03 0.  0.
         25    2    3    3    0    0 -0.31003366465E+02  0.14844436653E+02  0.29094152134E+03  0.31729593795E+03  0.12185309747E+03 0.  0.
         25    2    3    3    0    0  0.31003366465E+02 -0.14844436653E+02  0.11091877262E+03  0.16904075366E+03  0.12284232270E+03 0.  0.
          5    1    4    4  502    0 -0.29460334576E+02 -0.46542575151E+02  0.77841665153E+02  0.95475323770E+02  0.47000000000E+01 0. -1.
         -5    1    4    4    0  502 -0.15430318883E+01  0.61387011804E+02  0.21309985619E+03  0.22182061418E+03  0.47000000000E+01 0. -1.
          5    1    5    5  503    0  0.26802557756E+02 -0.58759587651E+02  0.19831019773E+02  0.67723154005E+02  0.47000000000E+01 0. -1.
         -5    1    5    5    0  503  0.42008087091E+01  0.43915150997E+02  0.91087752843E+02  0.10131759965E+03  0.47000000000E+01 0. -1.
<mgrwt>
<rscale>  0 0.27391912E+03</rscale>
<asrwt>0</asrwt>
<pdfrwt beam="1">  1        1 0.68322842E-01 0.27391912E+03</pdfrwt>
<pdfrwt beam="2">  1       -1 0.64981847E-02 0.27391912E+03</pdfrwt>
<totfact> 0.62213833E+03</totfact>
</mgrwt>
</event>
<event>
 9    1  0.2065703E-002  0.2760110E+03  0.7818608E-02  0.1097888E+00
         -1   -1    0    0    0  501 -0.00000000000E+00  0.00000000000E+00  0.40893212074E+03  0.40893212074E+03  0.00000000000E+00 0.  1.
          1   -1    0    0  501    0  0.00000000000E+00 -0.00000000000E+00 -0.46573803295E+02  0.46573803295E+02  0.00000000000E+00 0.  1.
         36    2    1    2    0    0  0.11102230246E-15 -0.21316282073E-13  0.36235831745E+03  0.45550592404E+03  0.27601104436E+03 0.  0.
         25    2    3    3    0    0  0.66242004785E+00  0.54470125433E+02  0.16306147832E+03  0.21329118923E+03  0.12624045440E+03 0.  0.
         25    2    3    3    0    0 -0.66242004785E+00 -0.54470125433E+02  0.19929683913E+03  0.24221473481E+03  0.12641722314E+03 0.  0.
          5    1    4    4  502    0  0.51321660018E+02  0.65660301199E+02  0.82544132414E+02  0.11739170216E+03  0.47000000000E+01 0. -1.
         -5    1    4    4    0  502 -0.50659239970E+02 -0.11190175766E+02  0.80517345904E+02  0.95899487066E+02  0.47000000000E+01 0. -1.
          5    1    5    5  503    0 -0.56595017767E+00 -0.90164770716E+02  0.17997870493E+03  0.20135647594E+03  0.47000000000E+01 0.  1.
         -5    1    5    5    0  503 -0.96469870189E-01  0.35694645283E+02  0.19318134203E+02  0.40858258864E+02  0.47000000000E+01 0.  1.
<mgrwt>
<rscale>  0 0.27601104E+03</rscale>
<asrwt>0</asrwt>
<pdfrwt beam="1">  1        1 0.71652008E-02 0.27601104E+03</pdfrwt>
<pdfrwt beam="2">  1       -1 0.62912632E-01 0.27601104E+03</pdfrwt>
<totfact> 0.26730499E+03</totfact>
</mgrwt>
</event>
<event>
 9    1  0.2065703E-002  0.2739769E+03  0.7818608E-02  0.1099025E+00
         -2   -1    0    0    0  501 -0.00000000000E+00  0.00000000000E+00  0.13565176181E+03  0.13565176181E+03  0.00000000000E+00 0. -1.
          2   -1    0    0  501    0  0.00000000000E+00 -0.00000000000E+00 -0.13833829790E+03  0.13833829790E+03  0.00000000000E+00 0. -1.
         36    2    1    2    0    0  0.00000000000E+00  0.00000000000E+00 -0.26865360959E+01  0.27399005971E+03  0.27397688834E+03 0.  0.
         25    2    3    3    0    0 -0.48237206052E+02 -0.22891084173E+02 -0.22701763746E+02  0.13718606396E+03  0.12431337935E+03 0.  0.
         25    2    3    3    0    0  0.48237206052E+02  0.22891084173E+02  0.20015227650E+02  0.13680399575E+03  0.12435390679E+03 0.  0.
          5    1    4    4  502    0 -0.43084280693E+02 -0.44049221327E+02  0.37986995904E+02  0.72537514433E+02  0.47000000000E+01 0. -1.
         -5    1    4    4    0  502 -0.51529253596E+01  0.21158137154E+02 -0.60688759650E+02  0.64648549523E+02  0.47000000000E+01 0. -1.
          5    1    5    5  503    0  0.80940663671E+02 -0.30424120268E+01 -0.14525069389E+02  0.82423994972E+02  0.47000000000E+01 0. -1.
         -5    1    5    5    0  503 -0.32703457618E+02  0.25933496200E+02  0.34540297038E+02  0.54380000780E+02  0.47000000000E+01 0. -1.
<mgrwt>
<rscale>  0 0.27397689E+03</rscale>
<asrwt>0</asrwt>
<pdfrwt beam="1">  1        2 0.21282815E-01 0.27397689E+03</pdfrwt>
<pdfrwt beam="2">  1       -2 0.20869502E-01 0.27397689E+03</pdfrwt>
<totfact> 0.50113656E+03</totfact>
</mgrwt>
</event>
<event>
 9    1  0.2065703E-002  0.2760745E+03  0.7818608E-02  0.1097852E+00
         -2   -1    0    0    0  501 -0.00000000000E+00  0.00000000000E+00  0.33553031514E+02  0.33553031514E+02  0.00000000000E+00 0.  1.
          2   -1    0    0  501    0  0.00000000000E+00 -0.00000000000E+00 -0.56788572501E+03  0.56788572501E+03  0.00000000000E+00 0.  1.
         36    2    1    2    0    0  0.00000000000E+00  0.71054273576E-14 -0.53433269349E+03  0.60143875652E+03  0.27607453796E+03 0.  0.
         25    2    3    3    0    0 -0.48971536414E+02  0.10559614042E+02 -0.33809795050E+03  0.36429532713E+03  0.12606008253E+03 0.  0.
         25    2    3    3    0    0  0.48971536414E+02 -0.10559614042E+02 -0.19623474299E+03  0.23714342939E+03  0.12336618224E+03 0.  0.
          5    1    4    4  502    0 -0.66776879220E+02  0.53877181449E+02 -0.25085900646E+03  0.26516831145E+03  0.47000000000E+01 0. -1.
         -5    1    4    4    0  502  0.17805342806E+02 -0.43317567407E+02 -0.87238944045E+02  0.99127015675E+02  0.47000000000E+01 0. -1.
          5    1    5    5  503    0  0.68970983722E+02  0.30375803433E+02 -0.16570716789E+03  0.18210063570E+03  0.47000000000E+01 0. -1.
         -5    1    5    5    0  503 -0.19999447308E+02 -0.40935417475E+02 -0.30527575098E+02  0.55042793696E+02  0.47000000000E+01 0. -1.
<mgrwt>
<rscale>  0 0.27607454E+03</rscale>
<asrwt>0</asrwt>
<pdfrwt beam="1">  1        2 0.87367031E-01 0.27607454E+03</pdfrwt>
<pdfrwt beam="2">  1       -2 0.51620050E-02 0.27607454E+03</pdfrwt>
<totfact> 0.99847845E+03</totfact>
</mgrwt>
</event>
<event>
 9    1  0.2065703E-002  0.2753947E+03  0.7818608E-02  0.1098231E+00
         -2   -1    0    0    0  501 -0.00000000000E+00  0.00000000000E+00  0.45528086614E+03  0.45528086614E+03  0.00000000000E+00 0. -1.
          2   -1    0    0  501    0  0.00000000000E+00 -0.00000000000E+00 -0.41645858307E+02  0.41645858307E+02  0.00000000000E+00 0. -1.
         36    2    1    2    0    0 -0.71054273576E-14 -0.44408920985E-14  0.41363500783E+03  0.49692672444E+03  0.27539471630E+03 0.  0.
         25    2    3    3    0    0  0.32148854160E+02 -0.33375714927E+01  0.29544357331E+03  0.32175491273E+03  0.12326650255E+03 0.  0.
         25    2    3    3    0    0 -0.32148854160E+02  0.33375714927E+01  0.11819143452E+03  0.17517181171E+03  0.12518490411E+03 0.  0.
          5    1    4    4  502    0  0.65946491127E+02 -0.14557533855E+00  0.27275507026E+03  0.28065348606E+03  0.47000000000E+01 0.  1.
         -5    1    4    4    0  502 -0.33797636967E+02 -0.31919961542E+01  0.22688503043E+02  0.41101426670E+02  0.47000000000E+01 0.  1.
          5    1    5    5  503    0 -0.51817386851E+01 -0.57222431573E+02  0.79722124368E+02  0.98381726986E+02  0.47000000000E+01 0.  1.
         -5    1    5    5    0  503 -0.26967115475E+02  0.60560003066E+02  0.38469310155E+02  0.76790084726E+02  0.47000000000E+01 0.  1.
<mgrwt>
<rscale>  0 0.27539472E+03</rscale>
<asrwt>0</asrwt>
<pdfrwt beam="1">  1        2 0.64070555E-02 0.27539472E+03</pdfrwt>
<pdfrwt beam="2">  1       -2 0.70043207E-01 0.27539472E+03</pdfrwt>
<totfact> 0.21544802E+03</totfact>
</mgrwt>
</event>
<event>
 9    1  0.2065703E-002  0.2746078E+03  0.7818608E-02  0.1098671E+00
          1   -1    0    0  501    0  0.00000000000E+00  0.00000000000E+00  0.50322812335E+03  0.50322812335E+03  0.00000000000E+00 0. -1.
         -1   -1    0    0    0  501 -0.00000000000E+00 -0.00000000000E+00 -0.37462847992E+02  0.37462847992E+02  0.00000000000E+00 0. -1.
         36    2    1    2    0    0  0.17763568394E-14  0.00000000000E+00  0.46576527535E+03  0.54069097134E+03  0.27460778350E+03 0.  0.
         25    2    3    3    0    0 -0.42627621928E+01 -0.10011791441E+02  0.12769276968E+03  0.18058884789E+03  0.12723396341E+03 0.  0.
         25    2    3    3    0    0  0.42627621928E+01  0.10011791441E+02  0.33807250567E+03  0.36010212345E+03  0.12353992517E+03 0.  0.
          5    1    4    4  502    0 -0.86939050267E+01  0.54520871394E+02  0.89673762891E+02  0.10541149441E+03  0.47000000000E+01 0. -1.
         -5    1    4    4    0  502  0.44311428339E+01 -0.64532662835E+02  0.38019006791E+02  0.75177353484E+02  0.47000000000E+01 0. -1.
          5    1    5    5  503    0 -0.39648838170E+02 -0.10511321270E+02  0.28538528028E+03  0.28835631855E+03  0.47000000000E+01 0. -1.
         -5    1    5    5    0  503  0.43911600363E+02  0.20523112711E+02  0.52687225387E+02  0.71745804900E+02  0.47000000000E+01 0. -1.
<mgrwt>
<rscale>  0 0.27460778E+03</rscale>
<asrwt>0</asrwt>
<pdfrwt beam="1">  1        1 0.77419707E-01 0.27460778E+03</pdfrwt>
<pdfrwt beam="2">  1       -1 0.57635154E-02 0.27460778E+03</pdfrwt>
<totfact> 0.63269811E+03</totfact>
</mgrwt>
</event>
<event>
 9    1  0.2065703E-002  0.2753810E+03  0.7818608E-02  0.1098239E+00
          1   -1    0    0  501    0  0.00000000000E+00  0.00000000000E+00  0.30405984128E+04  0.30405984128E+04  0.00000000000E+00 0. -1.
         -1   -1    0    0    0  501 -0.00000000000E+00 -0.00000000000E+00 -0.62351805780E+01  0.62351805780E+01  0.00000000000E+00 0. -1.
         36    2    1    2    0    0  0.00000000000E+00  0.00000000000E+00  0.30343632322E+04  0.30468335934E+04  0.27538104633E+03 0.  0.
         25    2    3    3    0    0 -0.54592901183E+02  0.65114747153E+02  0.16019534945E+04  0.16090709371E+04  0.12503586150E+03 0.  0.
         25    2    3    3    0    0  0.54592901183E+02 -0.65114747153E+02  0.14324097377E+04  0.14377626563E+04  0.90241255226E+02 0.  0.
          5    1    4    4  502    0 -0.41479434286E+02  0.79287841731E+02  0.57626778081E+03  0.58319272159E+03  0.47000000000E+01 0. -1.
         -5    1    4    4    0  502 -0.13113466897E+02 -0.14173094578E+02  0.10256857137E+04  0.10258782155E+04  0.47000000000E+01 0. -1.
          5    1    5    5  503    0  0.13920216133E+02  0.22688161943E+02  0.32801579136E+03  0.32912759607E+03  0.47000000000E+01 0.  1.
         -5    1    5    5    0  503  0.40672685050E+02 -0.87802909096E+02  0.11043939463E+04  0.11086350602E+04  0.47000000000E+01 0.  1.
<mgrwt>
<rscale>  0 0.27538105E+03</rscale>
<asrwt>0</asrwt>
<pdfrwt beam="1">  1        1 0.46778319E+00 0.27538105E+03</pdfrwt>
<pdfrwt beam="2">  1       -1 0.95926098E-03 0.27538105E+03</pdfrwt>
<totfact> 0.13540238E+03</totfact>
</mgrwt>
</event>
<event>
 9    1  0.2065703E-002  0.2752043E+03  0.7818608E-02  0.1098337E+00
         -2   -1    0    0    0  501 -0.00000000000E+00  0.00000000000E+00  0.79294927349E+02  0.79294927349E+02  0.00000000000E+00 0. -1.
          2   -1    0    0  501    0  0.00000000000E+00 -0.00000000000E+00 -0.23878391135E+03  0.23878391135E+03  0.00000000000E+00 0. -1.
         36    2    1    2    0    0  0.35527136788E-14  0.71054273576E-14 -0.15948898400E+03  0.31807883870E+03  0.27520430885E+03 0.  0.
         25    2    3    3    0    0 -0.18860242864E+02  0.44669186226E+02 -0.11580458497E+03  0.17739705846E+03  0.12533143856E+03 0.  0.
         25    2    3    3    0    0  0.18860242864E+02 -0.44669186226E+02 -0.43684399032E+02  0.14068178024E+03  0.12462741116E+03 0.  0.
          5    1    4    4  502    0 -0.38563223527E+02 -0.28391738800E+02 -0.13339884150E+02  0.49932509951E+02  0.47000000000E+01 0. -1.
         -5    1    4    4    0  502  0.19702980663E+02  0.73060925026E+02 -0.10246470081E+03  0.12746454851E+03  0.47000000000E+01 0. -1.
          5    1    5    5  503    0  0.69204648658E+02 -0.34603382491E+02 -0.43983762848E+02  0.89125410911E+02  0.47000000000E+01 0. -1.
         -5    1    5    5    0  503 -0.50344405794E+02 -0.10065803735E+02  0.29936381608E+00  0.51556369328E+02  0.47000000000E+01 0. -1.
<mgrwt>
<rscale>  0 0.27520431E+03</rscale>
<asrwt>0</asrwt>
<pdfrwt beam="1">  1        2 0.36735986E-01 0.27520431E+03</pdfrwt>
<pdfrwt beam="2">  1       -2 0.12199220E-01 0.27520431E+03</pdfrwt>
<totfact> 0.66990603E+03</totfact>
</mgrwt>
</event>
<event>
 9    1  0.2065703E-002  0.2724605E+03  0.7818608E-02  0.1099880E+00
          1   -1    0    0  501    0  0.00000000000E+00  0.00000000000E+00  0.33096962874E+03  0.33096962874E+03  0.00000000000E+00 0. -1.
         -1   -1    0    0    0  501 -0.00000000000E+00 -0.00000000000E+00 -0.56073650323E+02  0.56073650323E+02  0.00000000000E+00 0. -1.
         36    2    1    2    0    0  0.00000000000E+00  0.00000000000E+00  0.27489597842E+03  0.38704327906E+03  0.27246045753E+03 0.  0.
         25    2    3    3    0    0  0.14296261597E+02 -0.54256570892E+02  0.15295141543E+03  0.20547480596E+03  0.12521023050E+03 0.  0.
         25    2    3    3    0    0 -0.14296261597E+02  0.54256570892E+02  0.12194456299E+03  0.18156847310E+03  0.12226395790E+03 0.  0.
          5    1    4    4  502    0  0.31804835899E+02 -0.87747413508E+02  0.13281068949E+03  0.16239435152E+03  0.47000000000E+01 0. -1.
         -5    1    4    4    0  502 -0.17508574302E+02  0.33490842616E+02  0.20140725944E+02  0.43080454440E+02  0.47000000000E+01 0. -1.
          5    1    5    5  503    0 -0.43286546401E+02  0.81614922500E+02  0.98318458216E+02  0.13499381430E+03  0.47000000000E+01 0. -1.
         -5    1    5    5    0  503  0.28990284804E+02 -0.27358351607E+02  0.23626104770E+02  0.46574658799E+02  0.47000000000E+01 0. -1.
<mgrwt>
<rscale>  0 0.27246046E+03</rscale>
<asrwt>0</asrwt>
<pdfrwt beam="1">  1        1 0.50918403E-01 0.27246046E+03</pdfrwt>
<pdfrwt beam="2">  1       -1 0.86267156E-02 0.27246046E+03</pdfrwt>
<totfact> 0.58847630E+03</totfact>
</mgrwt>
</event>
<event>
 9    1  0.2065703E-002  0.2748031E+03  0.7818608E-02  0.1098562E+00
          2   -1    0    0  501    0  0.00000000000E+00  0.00000000000E+00  0.48200741398E+03  0.48200741398E+03  0.00000000000E+00 0.  1.
         -2   -1    0    0    0  501 -0.00000000000E+00 -0.00000000000E+00 -0.39167835512E+02  0.39167835512E+02  0.00000000000E+00 0.  1.
         36    2    1    2    0    0  0.00000000000E+00 -0.88817841970E-15  0.44283957847E+03  0.52117524949E+03  0.27480310847E+03 0.  0.
         25    2    3    3    0    0  0.31034021286E+02 -0.77736048487E+01  0.39118453584E+03  0.40969723546E+03  0.11748593215E+03 0.  0.
         25    2    3    3    0    0 -0.31034021286E+02  0.77736048487E+01  0.51655042627E+02  0.11147801403E+03  0.93464243292E+02 0.  0.
          5    1    4    4  502    0  0.17767263815E+02 -0.43561662015E+02  0.35064950453E+03  0.35382263790E+03  0.47000000000E+01 0.  1.
         -5    1    4    4    0  502  0.13266757471E+02  0.35788057166E+02  0.40535031315E+02  0.55874597566E+02  0.47000000000E+01 0.  1.
          5    1    5    5  503    0  0.32133824421E+02  0.10543530262E+02  0.98626946805E+01  0.35540279243E+02  0.47000000000E+01 0.  1.
         -5    1    5    5    0  503 -0.63167845707E+02 -0.27699254135E+01  0.41792347947E+02  0.75937734790E+02  0.47000000000E+01 0.  1.
<mgrwt>
<rscale>  0 0.27480311E+03</rscale>
<asrwt>0</asrwt>
<pdfrwt beam="1">  1        2 0.74154983E-01 0.27480311E+03</pdfrwt>
<pdfrwt beam="2">  1       -2 0.60258212E-02 0.27480311E+03</pdfrwt>
<totfact> 0.94824142E+03</totfact>
</mgrwt>
</event>
<event>
 9    1  0.2065703E-002  0.2755338E+03  0.7818608E-02  0.1098154E+00
         -1   -1    0    0    0  501 -0.00000000000E+00  0.00000000000E+00  0.73876828649E+03  0.73876828649E+03  0.00000000000E+00 0. -1.
          1   -1    0    0  501    0  0.00000000000E+00 -0.00000000000E+00 -0.25691034130E+02  0.25691034130E+02  0.00000000000E+00 0. -1.
         36    2    1    2    0    0  0.00000000000E+00 -0.71054273576E-14  0.71307725236E+03  0.76445932062E+03  0.27553381834E+03 0.  0.
         25    2    3    3    0    0  0.12876189760E+02  0.42482289540E+02  0.47173238218E+03  0.48948965351E+03  0.12287448600E+03 0.  0.
         25    2    3    3    0    0 -0.12876189760E+02 -0.42482289540E+02  0.24134487018E+03  0.27496966711E+03  0.12405817297E+03 0.  0.
          5    1    4    4  502    0  0.35456852131E+02 -0.15347922213E+02  0.50893072596E+02  0.64069820646E+02  0.47000000000E+01 0.  1.
         -5    1    4    4    0  502 -0.22580662371E+02  0.57830211753E+02  0.42083930959E+03  0.42541983287E+03  0.47000000000E+01 0.  1.
          5    1    5    5  503    0 -0.22021133503E+00  0.32124060836E+02  0.14074384445E+02  0.35386184806E+02  0.47000000000E+01 0.  1.
         -5    1    5    5    0  503 -0.12655978425E+02 -0.74606350376E+02  0.22727048573E+03  0.23958348230E+03  0.47000000000E+01 0.  1.
<mgrwt>
<rscale>  0 0.27553382E+03</rscale>
<asrwt>0</asrwt>
<pdfrwt beam="1">  1        1 0.39524673E-02 0.27553382E+03</pdfrwt>
<pdfrwt beam="2">  1       -1 0.11365664E+00 0.27553382E+03</pdfrwt>
<totfact> 0.17374628E+03</totfact>
</mgrwt>
</event>
<event>
 9    1  0.2065703E-002  0.2729589E+03  0.7818608E-02  0.1099598E+00
         -1   -1    0    0    0  501 -0.00000000000E+00  0.00000000000E+00  0.40875848425E+02  0.40875848425E+02  0.00000000000E+00 0. -1.
          1   -1    0    0  501    0  0.00000000000E+00 -0.00000000000E+00 -0.45568826853E+03  0.45568826853E+03  0.00000000000E+00 0. -1.
         36    2    1    2    0    0 -0.71054273576E-14  0.00000000000E+00 -0.41481242010E+03  0.49656411695E+03  0.27295893166E+03 0.  0.
         25    2    3    3    0    0  0.32031628054E+02 -0.18992127898E+02 -0.28204253648E+03  0.30942615744E+03  0.12169563840E+03 0.  0.
         25    2    3    3    0    0 -0.32031628054E+02  0.18992127898E+02 -0.13276988362E+03  0.18713795951E+03  0.12651501008E+03 0.  0.
          5    1    4    4  502    0 -0.33297618966E+02 -0.27387290910E+02 -0.41653236911E+02  0.60132165081E+02  0.47000000000E+01 0. -1.
         -5    1    4    4    0  502  0.65329247020E+02  0.83951630117E+01 -0.24038929957E+03  0.24929399236E+03  0.47000000000E+01 0. -1.
          5    1    5    5  503    0  0.17834427744E+02  0.85537924618E+01  0.18476712612E+02  0.27472041922E+02  0.47000000000E+01 0. -1.
         -5    1    5    5    0  503 -0.49866055798E+02  0.10438335436E+02 -0.15124659623E+03  0.15966591759E+03  0.47000000000E+01 0. -1.
<mgrwt>
<rscale>  0 0.27295893E+03</rscale>
<asrwt>0</asrwt>
<pdfrwt beam="1">  1        1 0.70105886E-01 0.27295893E+03</pdfrwt>
<pdfrwt beam="2">  1       -1 0.62885922E-02 0.27295893E+03</pdfrwt>
<totfact> 0.63210143E+03</totfact>
</mgrwt>
</event>
<event>
 9    1  0.2065703E-002  0.2747378E+03  0.7818608E-02  0.1098598E+00
          2   -1    0    0  501    0  0.00000000000E+00  0.00000000000E+00  0.38573556256E+03  0.38573556256E+03  0.00000000000E+00 0. -1.
         -2   -1    0    0    0  501 -0.00000000000E+00 -0.00000000000E+00 -0.48920085635E+02  0.48920085635E+02  0.00000000000E+00 0. -1.
         36    2    1    2    0    0  0.00000000000E+00  0.00000000000E+00  0.33681547692E+03  0.43465564819E+03  0.27473781504E+03 0.  0.
         25    2    3    3    0    0 -0.28554651213E+02  0.48429024251E+02  0.14627541705E+03  0.20036032793E+03  0.12484800711E+03 0.  0.
         25    2    3    3    0    0  0.28554651213E+02 -0.48429024251E+02  0.19054005987E+03  0.23429532026E+03  0.12420967830E+03 0.  0.
          5    1    4    4  502    0 -0.44370487854E+02 -0.13073206511E+01  0.14076110529E+03  0.14766931990E+03  0.47000000000E+01 0. -1.
         -5    1    4    4    0  502  0.15815836641E+02  0.49736344903E+02  0.55143117667E+01  0.52691008030E+02  0.47000000000E+01 0. -1.
          5    1    5    5  503    0 -0.47176495796E+02 -0.25333936125E+01  0.60697365393E+02  0.77060365976E+02  0.47000000000E+01 0. -1.
         -5    1    5    5    0  503  0.75731147009E+02 -0.45895630639E+02  0.12984269448E+03  0.15723495428E+03  0.47000000000E+01 0. -1.
<mgrwt>
<rscale>  0 0.27473782E+03</rscale>
<asrwt>0</asrwt>
<pdfrwt beam="1">  1        2 0.59343931E-01 0.27473782E+03</pdfrwt>
<pdfrwt beam="2">  1       -2 0.75261673E-02 0.27473782E+03</pdfrwt>
<totfact> 0.85862772E+03</totfact>
</mgrwt>
</event>
<event>
 9    1  0.2065703E-002  0.2741239E+03  0.7818608E-02  0.1098942E+00
         -2   -1    0    0    0  501 -0.00000000000E+00  0.00000000000E+00  0.24988849922E+02  0.24988849922E+02  0.00000000000E+00 0. -1.
          2   -1    0    0  501    0  0.00000000000E+00 -0.00000000000E+00 -0.75177435730E+03  0.75177435730E+03  0.00000000000E+00 0. -1.
         36    2    1    2    0    0  0.35527136788E-14  0.00000000000E+00 -0.72678550738E+03  0.77676320722E+03  0.27412388871E+03 0.  0.
         25    2    3    3    0    0  0.16832889867E+02  0.48880365967E+02 -0.41467069036E+03  0.43607646001E+03  0.12465256182E+03 0.  0.
         25    2    3    3    0    0 -0.16832889867E+02 -0.48880365967E+02 -0.31211481702E+03  0.34068674722E+03  0.12640871952E+03 0.  0.
          5    1    4    4  502    0 -0.18124852414E+02 -0.17922105024E+01 -0.21171366696E+01  0.18928670349E+02  0.47000000000E+01 0. -1.
         -5    1    4    4    0  502  0.34957742281E+02  0.50672576469E+02 -0.41255355369E+03  0.41714778966E+03  0.47000000000E+01 0. -1.
          5    1    5    5  503    0 -0.30519968999E+02 -0.52084283401E+02 -0.51042053072E+02  0.79193574656E+02  0.47000000000E+01 0. -1.
         -5    1    5    5    0  503  0.13687079132E+02  0.32039174336E+01 -0.26107276395E+03  0.26149317256E+03  0.47000000000E+01 0. -1.
<mgrwt>
<rscale>  0 0.27412389E+03</rscale>
<asrwt>0</asrwt>
<pdfrwt beam="1">  1        2 0.11565759E+00 0.27412389E+03</pdfrwt>
<pdfrwt beam="2">  1       -2 0.38444387E-02 0.27412389E+03</pdfrwt>
<totfact> 0.11159452E+04</totfact>
</mgrwt>
</event>
<event>
 9    1  0.2065703E-002  0.2708077E+03  0.7818608E-02  0.1100818E+00
          2   -1    0    0  501    0  0.00000000000E+00  0.00000000000E+00  0.13135996331E+04  0.13135996331E+04  0.00000000000E+00 0. -1.
         -2   -1    0    0    0  501 -0.00000000000E+00 -0.00000000000E+00 -0.13957222397E+02  0.13957222397E+02  0.00000000000E+00 0. -1.
         36    2    1    2    0    0  0.71054273576E-14 -0.26645352591E-14  0.12996424107E+04  0.13275568555E+04  0.27080769723E+03 0.  0.
         25    2    3    3    0    0  0.43052613592E+02 -0.64101421857E+01  0.79540273304E+03  0.80573058046E+03  0.12100265742E+03 0.  0.
         25    2    3    3    0    0 -0.43052613592E+02  0.64101421857E+01  0.50423967764E+03  0.52182627501E+03  0.12708418992E+03 0.  0.
          5    1    4    4  502    0  0.84468682955E+02  0.43762498870E+01  0.48257772774E+03  0.48995659325E+03  0.47000000000E+01 0.  1.
         -5    1    4    4    0  502 -0.41416069362E+02 -0.10786392073E+02  0.31282500530E+03  0.31577398720E+03  0.47000000000E+01 0.  1.
          5    1    5    5  503    0  0.34924414660E+02  0.36376543486E+02  0.19409734061E+03  0.20059619958E+03  0.47000000000E+01 0.  1.
         -5    1    5    5    0  503 -0.77977028252E+02 -0.29966401301E+02  0.31014233703E+03  0.32123007543E+03  0.47000000000E+01 0.  1.
<mgrwt>
<rscale>  0 0.27080770E+03</rscale>
<asrwt>0</asrwt>
<pdfrwt beam="1">  1        2 0.20209215E+00 0.27080770E+03</pdfrwt>
<pdfrwt beam="2">  1       -2 0.21472660E-02 0.27080770E+03</pdfrwt>
<totfact> 0.11988447E+04</totfact>
</mgrwt>
</event>
<event>
 9    1  0.2065703E-002  0.2735583E+03  0.7818608E-02  0.1099260E+00
          1   -1    0    0  501    0  0.00000000000E+00  0.00000000000E+00  0.37065187079E+03  0.37065187079E+03  0.00000000000E+00 0.  1.
         -1   -1    0    0    0  501 -0.00000000000E+00 -0.00000000000E+00 -0.50474672468E+02  0.50474672468E+02  0.00000000000E+00 0.  1.
         36    2    1    2    0    0 -0.71054273576E-14  0.00000000000E+00  0.32017719832E+03  0.42112654326E+03  0.27355827005E+03 0.  0.
         25    2    3    3    0    0  0.55381693533E+01  0.25301378351E+02  0.21771773081E+03  0.25722586174E+03  0.13451134739E+03 0.  0.
         25    2    3    3    0    0 -0.55381693533E+01 -0.25301378351E+02  0.10245946752E+03  0.16390068152E+03  0.12527832954E+03 0.  0.
          5    1    4    4  502    0  0.63955522399E+02 -0.11982348375E+02  0.12893604253E+03  0.14450079094E+03  0.47000000000E+01 0.  1.
         -5    1    4    4    0  502 -0.58417353046E+02  0.37283726726E+02  0.88781688276E+02  0.11272507081E+03  0.47000000000E+01 0.  1.
          5    1    5    5  503    0  0.23376765311E+02 -0.62976930131E+02  0.93686283927E+02  0.11537667304E+03  0.47000000000E+01 0.  1.
         -5    1    5    5    0  503 -0.28914934664E+02  0.37675551780E+02  0.87731835918E+01  0.48524008479E+02  0.47000000000E+01 0.  1.
<mgrwt>
<rscale>  0 0.27355827E+03</rscale>
<asrwt>0</asrwt>
<pdfrwt beam="1">  1        1 0.57023363E-01 0.27355827E+03</pdfrwt>
<pdfrwt beam="2">  1       -1 0.77653345E-02 0.27355827E+03</pdfrwt>
<totfact> 0.59878253E+03</totfact>
</mgrwt>
</event>
<event>
 9    1  0.2065703E-002  0.2752983E+03  0.7818608E-02  0.1098285E+00
         -2   -1    0    0    0  501 -0.00000000000E+00  0.00000000000E+00  0.23489525467E+03  0.23489525467E+03  0.00000000000E+00 0.  1.
          2   -1    0    0  501    0  0.00000000000E+00 -0.00000000000E+00 -0.80662709225E+02  0.80662709225E+02  0.00000000000E+00 0.  1.
         36    2    1    2    0    0  0.00000000000E+00  0.00000000000E+00  0.15423254544E+03  0.31555796389E+03  0.27529829368E+03 0.  0.
         25    2    3    3    0    0  0.33942758619E+02 -0.34902265619E+02  0.58495956423E+02  0.14946391851E+03  0.12863672496E+03 0.  0.
         25    2    3    3    0    0 -0.33942758619E+02  0.34902265619E+02  0.95736589022E+02  0.16609404539E+03  0.12669435042E+03 0.  0.
          5    1    4    4  502    0  0.17236131803E+02  0.39822752359E+02 -0.12012543189E+02  0.45269493468E+02  0.47000000000E+01 0.  1.
         -5    1    4    4    0  502  0.16706626816E+02 -0.74725017978E+02  0.70508499613E+02  0.10419442504E+03  0.47000000000E+01 0.  1.
          5    1    5    5  503    0  0.27282637534E+02 -0.33125900123E+02  0.21909414551E+02  0.48412601828E+02  0.47000000000E+01 0. -1.
         -5    1    5    5    0  503 -0.61225396153E+02  0.68028165742E+02  0.73827174471E+02  0.11768144356E+03  0.47000000000E+01 0. -1.
<mgrwt>
<rscale>  0 0.27529829E+03</rscale>
<asrwt>0</asrwt>
<pdfrwt beam="1">  1        2 0.12409648E-01 0.27529829E+03</pdfrwt>
<pdfrwt beam="2">  1       -2 0.36137731E-01 0.27529829E+03</pdfrwt>
<totfact> 0.35290483E+03</totfact>
</mgrwt>
</event>
<event>
 9    1  0.2065703E-002  0.2753222E+03  0.7818608E-02  0.1098272E+00
         -1   -1    0    0    0  501 -0.00000000000E+00  0.00000000000E+00  0.52599206756E+02  0.52599206756E+02  0.00000000000E+00 0. -1.
          1   -1    0    0  501    0  0.00000000000E+00 -0.00000000000E+00 -0.36028258655E+03  0.36028258655E+03  0.00000000000E+00 0. -1.
         36    2    1    2    0    0  0.14210854715E-13 -0.71054273576E-14 -0.30768337980E+03  0.41288179331E+03  0.27532219860E+03 0.  0.
         25    2    3    3    0    0  0.26487258261E+02 -0.48243560832E+02 -0.11792173656E+03  0.18021476870E+03  0.12467081011E+03 0.  0.
         25    2    3    3    0    0 -0.26487258261E+02  0.48243560832E+02 -0.18976164324E+03  0.23266702461E+03  0.12286353032E+03 0.  0.
          5    1    4    4  502    0  0.70774781443E+02 -0.56406260707E+02 -0.72220139929E+02  0.11588172654E+03  0.47000000000E+01 0.  1.
         -5    1    4    4    0  502 -0.44287523182E+02  0.81626998753E+01 -0.45701596628E+02  0.64333042157E+02  0.47000000000E+01 0.  1.
          5    1    5    5  503    0  0.19020871423E+02 -0.16964922304E+02 -0.13136613900E+03  0.13389829952E+03  0.47000000000E+01 0.  1.
         -5    1    5    5    0  503 -0.45508129683E+02  0.65208483135E+02 -0.58395504240E+02  0.98768725088E+02  0.47000000000E+01 0.  1.
<mgrwt>
<rscale>  0 0.27532220E+03</rscale>
<asrwt>0</asrwt>
<pdfrwt beam="1">  1        1 0.55428090E-01 0.27532220E+03</pdfrwt>
<pdfrwt beam="2">  1       -1 0.80921856E-02 0.27532220E+03</pdfrwt>
<totfact> 0.58304690E+03</totfact>
</mgrwt>
</event>
<event>
 9    1  0.2065703E-002  0.2734203E+03  0.7818608E-02  0.1099338E+00
          1   -1    0    0  501    0  0.00000000000E+00  0.00000000000E+00  0.35048228581E+03  0.35048228581E+03  0.00000000000E+00 0.  1.
         -1   -1    0    0    0  501 -0.00000000000E+00 -0.00000000000E+00 -0.53325572336E+02  0.53325572336E+02  0.00000000000E+00 0.  1.
         36    2    1    2    0    0  0.71054273576E-14  0.15543122345E-14  0.29715671348E+03  0.40380785815E+03  0.27342032466E+03 0.  0.
         25    2    3    3    0    0  0.40254927698E+02  0.16194227220E+00  0.19732049101E+03  0.23806304665E+03  0.12695728645E+03 0.  0.
         25    2    3    3    0    0 -0.40254927698E+02 -0.16194227220E+00  0.99836222471E+02  0.16574481150E+03  0.12603009875E+03 0.  0.
          5    1    4    4  502    0 -0.44843010192E+02 -0.10969449107E+01  0.46221083854E+02  0.64580008082E+02  0.47000000000E+01 0.  1.
         -5    1    4    4    0  502  0.85097937890E+02  0.12588871829E+01  0.15109940715E+03  0.17348303857E+03  0.47000000000E+01 0.  1.
          5    1    5    5  503    0 -0.22417668891E+02 -0.62656350209E+02  0.43815957228E+02  0.79814147918E+02  0.47000000000E+01 0.  1.
         -5    1    5    5    0  503 -0.17837258807E+02  0.62494407937E+02  0.56020265243E+02  0.85930663579E+02  0.47000000000E+01 0.  1.
<mgrwt>
<rscale>  0 0.27342032E+03</rscale>
<asrwt>0</asrwt>
<pdfrwt beam="1">  1        1 0.53920350E-01 0.27342032E+03</pdfrwt>
<pdfrwt beam="2">  1       -1 0.82039344E-02 0.27342032E+03</pdfrwt>
<totfact> 0.59116118E+03</totfact>
</mgrwt>
</event>
<event>
 9    1  0.2065703E-002  0.2745441E+03  0.7818608E-02  0.1098707E+00
         -2   -1    0    0    0  501 -0.00000000000E+00  0.00000000000E+00  0.65333160892E+03  0.65333160892E+03  0.00000000000E+00 0. -1.
          2   -1    0    0  501    0  0.00000000000E+00 -0.00000000000E+00 -0.28842353160E+02  0.28842353160E+02  0.00000000000E+00 0. -1.
         36    2    1    2    0    0  0.71054273576E-14 -0.71054273576E-14  0.62448925576E+03  0.68217396208E+03  0.27454413849E+03 0.  0.
         25    2    3    3    0    0  0.11445256148E+02  0.41622468777E+02  0.31813995836E+03  0.34394162046E+03  0.12336685689E+03 0.  0.
         25    2    3    3    0    0 -0.11445256148E+02 -0.41622468777E+02  0.30634929740E+03  0.33823234162E+03  0.13670333248E+03 0.  0.
          5    1    4    4  502    0  0.33006840569E+02  0.29067942631E+02  0.27264003802E+02  0.51959722059E+02  0.47000000000E+01 0.  1.
         -5    1    4    4    0  502 -0.21561584422E+02  0.12554526146E+02  0.29087595456E+03  0.29198189840E+03  0.47000000000E+01 0.  1.
          5    1    5    5  503    0  0.37608697686E+02  0.35337644842E+02  0.11843836555E+03  0.12927838071E+03  0.47000000000E+01 0.  1.
         -5    1    5    5    0  503 -0.49053953834E+02 -0.76960113619E+02  0.18791093185E+03  0.20895396092E+03  0.47000000000E+01 0.  1.
<mgrwt>
<rscale>  0 0.27454414E+03</rscale>
<asrwt>0</asrwt>
<pdfrwt beam="1">  1        2 0.44372856E-02 0.27454414E+03</pdfrwt>
<pdfrwt beam="2">  1       -2 0.10051254E+00 0.27454414E+03</pdfrwt>
<totfact> 0.15610459E+03</totfact>
</mgrwt>
</event>
<event>
 9    1  0.2065703E-002  0.2736971E+03  0.7818608E-02  0.1099182E+00
          2   -1    0    0  501    0  0.00000000000E+00  0.00000000000E+00  0.12970216978E+04  0.12970216978E+04  0.00000000000E+00 0. -1.
         -2   -1    0    0    0  501 -0.00000000000E+00 -0.00000000000E+00 -0.14438864677E+02  0.14438864677E+02  0.00000000000E+00 0. -1.
         36    2    1    2    0    0  0.00000000000E+00  0.35527136788E-14  0.12825828331E+04  0.13114605624E+04  0.27369706449E+03 0.  0.
         25    2    3    3    0    0  0.37589411643E+02 -0.19519765470E+02  0.83767525349E+03  0.84782905529E+03  0.12377516537E+03 0.  0.
         25    2    3    3    0    0 -0.37589411643E+02  0.19519765470E+02  0.44490757960E+03  0.46363150716E+03  0.12335896779E+03 0.  0.
          5    1    4    4  502    0  0.27253918826E+02 -0.26383774957E+02  0.83282669662E+03  0.83370335029E+03  0.47000000000E+01 0. -1.
         -5    1    4    4    0  502  0.10335492817E+02  0.68640094870E+01  0.48485568707E+01  0.14125705000E+02  0.47000000000E+01 0. -1.
          5    1    5    5  503    0 -0.11718438987E+02 -0.12968956386E+02  0.40639308378E+03  0.40679594908E+03  0.47000000000E+01 0.  1.
         -5    1    5    5    0  503 -0.25870972656E+02  0.32488721857E+02  0.38514495812E+02  0.56835558075E+02  0.47000000000E+01 0.  1.
<mgrwt>
<rscale>  0 0.27369706E+03</rscale>
<asrwt>0</asrwt>
<pdfrwt beam="1">  1        2 0.19954171E+00 0.27369706E+03</pdfrwt>
<pdfrwt beam="2">  1       -2 0.22213648E-02 0.27369706E+03</pdfrwt>
<totfact> 0.11650089E+04</totfact>
</mgrwt>
</event>
<event>
 9    1  0.2065703E-002  0.2752503E+03  0.7818608E-02  0.1098312E+00
         -2   -1    0    0    0  501 -0.00000000000E+00  0.00000000000E+00  0.65965982570E+02  0.65965982570E+02  0.00000000000E+00 0. -1.
          2   -1    0    0  501    0  0.00000000000E+00 -0.00000000000E+00 -0.28712793116E+03  0.28712793116E+03  0.00000000000E+00 0. -1.
         36    2    1    2    0    0  0.00000000000E+00  0.35527136788E-14 -0.22116194859E+03  0.35309391373E+03  0.27525025778E+03 0.  0.
         25    2    3    3    0    0 -0.13973450460E+02  0.20761352140E+02 -0.17314299227E+03  0.21502276875E+03  0.12502001538E+03 0.  0.
         25    2    3    3    0    0  0.13973450460E+02 -0.20761352140E+02 -0.48018956320E+02  0.13807114498E+03  0.12700995965E+03 0.  0.
          5    1    4    4  502    0  0.32353001216E+02 -0.31966815158E+02 -0.27697024653E+02  0.53458480466E+02  0.47000000000E+01 0. -1.
         -5    1    4    4    0  502 -0.46326451676E+02  0.52728167298E+02 -0.14544596762E+03  0.16156428828E+03  0.47000000000E+01 0. -1.
          5    1    5    5  503    0  0.36770920534E+02 -0.67149408636E+02 -0.20830928189E+02  0.79480571502E+02  0.47000000000E+01 0. -1.
         -5    1    5    5    0  503 -0.22797470074E+02  0.46388056496E+02 -0.27188028131E+02  0.58590573482E+02  0.47000000000E+01 0. -1.
<mgrwt>
<rscale>  0 0.27525026E+03</rscale>
<asrwt>0</asrwt>
<pdfrwt beam="1">  1        2 0.44173527E-01 0.27525026E+03</pdfrwt>
<pdfrwt beam="2">  1       -2 0.10148613E-01 0.27525026E+03</pdfrwt>
<totfact> 0.73767776E+03</totfact>
</mgrwt>
</event>
<event>
 9    1  0.2065703E-002  0.2767732E+03  0.7818608E-02  0.1097465E+00
          2   -1    0    0  501    0  0.00000000000E+00  0.00000000000E+00  0.32850439956E+03  0.32850439956E+03  0.00000000000E+00 0. -1.
         -2   -1    0    0    0  501 -0.00000000000E+00 -0.00000000000E+00 -0.58297077346E+02  0.58297077346E+02  0.00000000000E+00 0. -1.
         36    2    1    2    0    0  0.00000000000E+00  0.71054273576E-14  0.27020732221E+03  0.38680147690E+03  0.27677316625E+03 0.  0.
         25    2    3    3    0    0 -0.20347932231E+01  0.50655265136E+02  0.14538286708E+03  0.19753630173E+03  0.12375102502E+03 0.  0.
         25    2    3    3    0    0  0.20347932231E+01 -0.50655265136E+02  0.12482445513E+03  0.18926517517E+03  0.13292879923E+03 0.  0.
          5    1    4    4  502    0  0.32284343304E+02 -0.77186836789E+01 -0.36992855171E+01  0.33728795022E+02  0.47000000000E+01 0. -1.
         -5    1    4    4    0  502 -0.34319136527E+02  0.58373948815E+02  0.14908215259E+03  0.16380750671E+03  0.47000000000E+01 0. -1.
          5    1    5    5  503    0 -0.25850012643E+02  0.28037830518E+02  0.91516721277E+02  0.99255948774E+02  0.47000000000E+01 0.  1.
         -5    1    5    5    0  503  0.27884805866E+02 -0.78693095654E+02  0.33307733857E+02  0.90009226397E+02  0.47000000000E+01 0.  1.
<mgrwt>
<rscale>  0 0.27677317E+03</rscale>
<asrwt>0</asrwt>
<pdfrwt beam="1">  1        2 0.50539137E-01 0.27677317E+03</pdfrwt>
<pdfrwt beam="2">  1       -2 0.89687813E-02 0.27677317E+03</pdfrwt>
<totfact> 0.77634128E+03</totfact>
</mgrwt>
</event>
<event>
 9    1  0.2065703E-002  0.2685503E+03  0.7818608E-02  0.1102112E+00
         -1   -1    0    0    0  501 -0.00000000000E+00  0.00000000000E+00  0.26519783855E+02  0.26519783855E+02  0.00000000000E+00 0.  1.
          1   -1    0    0  501    0  0.00000000000E+00 -0.00000000000E+00 -0.67986291893E+03  0.67986291893E+03  0.00000000000E+00 0.  1.
         36    2    1    2    0    0 -0.35527136788E-14 -0.44408920985E-15 -0.65334313507E+03  0.70638270278E+03  0.26855031306E+03 0.  0.
         25    2    3    3    0    0 -0.75129578342E+01  0.18430369065E+01 -0.48366959589E+03  0.50046363060E+03  0.12832663887E+03 0.  0.
         25    2    3    3    0    0  0.75129578342E+01 -0.18430369065E+01 -0.16967353918E+03  0.20591907218E+03  0.11642041518E+03 0.  0.
          5    1    4    4  502    0  0.59688471783E+02  0.20981703264E+01 -0.19273708006E+03  0.20183356513E+03  0.47000000000E+01 0. -1.
         -5    1    4    4    0  502 -0.67201429618E+02 -0.25513341987E+00 -0.29093251583E+03  0.29863006547E+03  0.47000000000E+01 0. -1.
          5    1    5    5  503    0 -0.16563919646E+02  0.11362090264E+02  0.10815740671E+02  0.23292290043E+02  0.47000000000E+01 0. -1.
         -5    1    5    5    0  503  0.24076877480E+02 -0.13205127170E+02 -0.18048927985E+03  0.18262678214E+03  0.47000000000E+01 0. -1.
<mgrwt>
<rscale>  0 0.26855031E+03</rscale>
<asrwt>0</asrwt>
<pdfrwt beam="1">  1        1 0.10459429E+00 0.26855031E+03</pdfrwt>
<pdfrwt beam="2">  1       -1 0.40799670E-02 0.26855031E+03</pdfrwt>
<totfact> 0.69970358E+03</totfact>
</mgrwt>
</event>
<event>
 9    1  0.2065703E-002  0.2755209E+03  0.7818608E-02  0.1098161E+00
          2   -1    0    0  501    0  0.00000000000E+00  0.00000000000E+00  0.36712081087E+03  0.36712081087E+03  0.00000000000E+00 0.  1.
         -2   -1    0    0    0  501 -0.00000000000E+00 -0.00000000000E+00 -0.51693994981E+02  0.51693994981E+02  0.00000000000E+00 0.  1.
         36    2    1    2    0    0  0.00000000000E+00 -0.53290705182E-14  0.31542681589E+03  0.41881480585E+03  0.27552089833E+03 0.  0.
         25    2    3    3    0    0  0.54058267077E+02 -0.84593273978E+00  0.11664476195E+03  0.17924131096E+03  0.12489369569E+03 0.  0.
         25    2    3    3    0    0 -0.54058267077E+02  0.84593273978E+00  0.19878205394E+03  0.23957349489E+03  0.12230348582E+03 0.  0.
          5    1    4    4  502    0  0.26907821398E+02 -0.59426627923E+02  0.84810032114E+02  0.10709989032E+03  0.47000000000E+01 0. -1.
         -5    1    4    4    0  502  0.27150445680E+02  0.58580695183E+02  0.31834729835E+02  0.72141420643E+02  0.47000000000E+01 0. -1.
          5    1    5    5  503    0  0.31158306987E+02 -0.47123158387E+01  0.11691944734E+03  0.12118289145E+03  0.47000000000E+01 0.  1.
         -5    1    5    5    0  503 -0.85216574064E+02  0.55582485785E+01  0.81862606598E+02  0.11839060343E+03  0.47000000000E+01 0.  1.
<mgrwt>
<rscale>  0 0.27552090E+03</rscale>
<asrwt>0</asrwt>
<pdfrwt beam="1">  1        2 0.56480123E-01 0.27552090E+03</pdfrwt>
<pdfrwt beam="2">  1       -2 0.79529226E-02 0.27552090E+03</pdfrwt>
<totfact> 0.83131897E+03</totfact>
</mgrwt>
</event>
<event>
 9    1  0.2065703E-002  0.2761452E+03  0.7818608E-02  0.1097813E+00
         -2   -1    0    0    0  501 -0.00000000000E+00  0.00000000000E+00  0.96773131282E+02  0.96773131282E+02  0.00000000000E+00 0.  1.
          2   -1    0    0  501    0  0.00000000000E+00 -0.00000000000E+00 -0.19699732323E+03  0.19699732323E+03  0.00000000000E+00 0.  1.
         36    2    1    2    0    0  0.00000000000E+00  0.71054273576E-14 -0.10022419195E+03  0.29377045451E+03  0.27614523587E+03 0.  0.
         25    2    3    3    0    0  0.41348352498E+02  0.28266296744E+02 -0.84999029765E+02  0.15879975856E+03  0.12443415316E+03 0.  0.
         25    2    3    3    0    0 -0.41348352498E+02 -0.28266296744E+02 -0.15225162182E+02  0.13497069595E+03  0.12440503774E+03 0.  0.
          5    1    4    4  502    0  0.14820486250E+02 -0.45718658622E+02 -0.85246726557E+01  0.49036747474E+02  0.47000000000E+01 0.  1.
         -5    1    4    4    0  502  0.26527866248E+02  0.73984955366E+02 -0.76474357109E+02  0.10976301109E+03  0.47000000000E+01 0.  1.
          5    1    5    5  503    0 -0.41108653768E+02  0.35796077145E+02 -0.38225000001E+02  0.66742199385E+02  0.47000000000E+01 0. -1.
         -5    1    5    5    0  503 -0.23969872978E+00 -0.64062373889E+02  0.22999837819E+02  0.68228496564E+02  0.47000000000E+01 0. -1.
<mgrwt>
<rscale>  0 0.27614524E+03</rscale>
<asrwt>0</asrwt>
<pdfrwt beam="1">  1        2 0.30307280E-01 0.27614524E+03</pdfrwt>
<pdfrwt beam="2">  1       -2 0.14888174E-01 0.27614524E+03</pdfrwt>
<totfact> 0.59667816E+03</totfact>
</mgrwt>
</event>
<event>
 9    1  0.2065703E-002  0.2747666E+03  0.7818608E-02  0.1098582E+00
         -2   -1    0    0    0  501 -0.00000000000E+00  0.00000000000E+00  0.12938291038E+02  0.12938291038E+02  0.00000000000E+00 0.  1.
          2   -1    0    0  501    0  0.00000000000E+00 -0.00000000000E+00 -0.14587836125E+04  0.14587836125E+04  0.00000000000E+00 0.  1.
         36    2    1    2    0    0 -0.14210854715E-13  0.00000000000E+00 -0.14458453215E+04  0.14717219035E+04  0.27476656958E+03 0.  0.
         25    2    3    3    0    0 -0.48435168897E+02 -0.28557889066E+02 -0.61125808216E+03  0.62644956272E+03  0.12506435549E+03 0.  0.
         25    2    3    3    0    0  0.48435168897E+02  0.28557889066E+02 -0.83458723929E+03  0.84527234081E+03  0.12160572161E+03 0.  0.
          5    1    4    4  502    0 -0.44594999762E+02 -0.22831131298E+02 -0.61517627117E+03  0.61723083946E+03  0.47000000000E+01 0. -1.
         -5    1    4    4    0  502 -0.38401691343E+01 -0.57267577683E+01  0.39181890135E+01  0.92187232664E+01  0.47000000000E+01 0. -1.
          5    1    5    5  503    0  0.84059528892E+02  0.38070516484E+02 -0.68159462437E+03  0.68782896900E+03  0.47000000000E+01 0.  1.
         -5    1    5    5    0  503 -0.35624359995E+02 -0.95126274178E+01 -0.15299261492E+03  0.15744337180E+03  0.47000000000E+01 0.  1.
<mgrwt>
<rscale>  0 0.27476657E+03</rscale>
<asrwt>0</asrwt>
<pdfrwt beam="1">  1        2 0.22442822E+00 0.27476657E+03</pdfrwt>
<pdfrwt beam="2">  1       -2 0.19905066E-02 0.27476657E+03</pdfrwt>
<totfact> 0.11177337E+04</totfact>
</mgrwt>
</event>
<event>
 9    1  0.2065703E-002  0.2759527E+03  0.7818608E-02  0.1097920E+00
          2   -1    0    0  501    0  0.00000000000E+00  0.00000000000E+00  0.95647653713E+02  0.95647653713E+02  0.00000000000E+00 0.  1.
         -2   -1    0    0    0  501 -0.00000000000E+00 -0.00000000000E+00 -0.19903750448E+03  0.19903750448E+03  0.00000000000E+00 0.  1.
         36    2    1    2    0    0  0.35527136788E-14  0.00000000000E+00 -0.10338985077E+03  0.29468515819E+03  0.27595267931E+03 0.  0.
         25    2    3    3    0    0 -0.12820287220E+02 -0.52957608825E+02 -0.43761271474E+02  0.14576718284E+03  0.12792245547E+03 0.  0.
         25    2    3    3    0    0  0.12820287220E+02  0.52957608825E+02 -0.59628579293E+02  0.14891797536E+03  0.12510846422E+03 0.  0.
          5    1    4    4  502    0 -0.23125098153E+02 -0.36021417276E+02  0.40477102818E+02  0.59099902874E+02  0.47000000000E+01 0. -1.
         -5    1    4    4    0  502  0.10304810933E+02 -0.16936191550E+02 -0.84238374292E+02  0.86667279961E+02  0.47000000000E+01 0. -1.
          5    1    5    5  503    0  0.39757834677E+02  0.47731527605E+02  0.19303400115E+02  0.65220360331E+02  0.47000000000E+01 0.  1.
         -5    1    5    5    0  503 -0.26937547456E+02  0.52260812200E+01 -0.78931979409E+02  0.83697615027E+02  0.47000000000E+01 0.  1.
<mgrwt>
<rscale>  0 0.27595268E+03</rscale>
<asrwt>0</asrwt>
<pdfrwt beam="1">  1        2 0.14715024E-01 0.27595268E+03</pdfrwt>
<pdfrwt beam="2">  1       -2 0.30621154E-01 0.27595268E+03</pdfrwt>
<totfact> 0.39067685E+03</totfact>
</mgrwt>
</event>
<event>
 9    1  0.2065703E-002  0.2758809E+03  0.7818608E-02  0.1097960E+00
         -2   -1    0    0    0  501 -0.00000000000E+00  0.00000000000E+00  0.23883104032E+02  0.23883104032E+02  0.00000000000E+00 0. -1.
          2   -1    0    0  501    0  0.00000000000E+00 -0.00000000000E+00 -0.79669598816E+03  0.79669598816E+03  0.00000000000E+00 0. -1.
         36    2    1    2    0    0 -0.71054273576E-14  0.71054273576E-14 -0.77281288413E+03  0.82057909219E+03  0.27588093930E+03 0.  0.
         25    2    3    3    0    0 -0.17190823831E+02  0.42222949928E+02 -0.28162378304E+03  0.31165271520E+03  0.12544782898E+03 0.  0.
         25    2    3    3    0    0  0.17190823831E+02 -0.42222949928E+02 -0.49118910109E+03  0.50892637699E+03  0.12514400602E+03 0.  0.
          5    1    4    4  502    0  0.38870755819E+01  0.16568450781E+02  0.85016731917E+01  0.19595697613E+02  0.47000000000E+01 0.  1.
         -5    1    4    4    0  502 -0.21077899413E+02  0.25654499147E+02 -0.29012545623E+03  0.29205701759E+03  0.47000000000E+01 0.  1.
          5    1    5    5  503    0  0.15347587338E+02 -0.12275106687E+02 -0.47319356589E+03  0.47362481722E+03  0.47000000000E+01 0. -1.
         -5    1    5    5    0  503  0.18432364929E+01 -0.29947843241E+02 -0.17995535198E+02  0.35301559776E+02  0.47000000000E+01 0. -1.
<mgrwt>
<rscale>  0 0.27588094E+03</rscale>
<asrwt>0</asrwt>
<pdfrwt beam="1">  1        2 0.12256862E+00 0.27588094E+03</pdfrwt>
<pdfrwt beam="2">  1       -2 0.36743236E-02 0.27588094E+03</pdfrwt>
<totfact> 0.11105909E+04</totfact>
</mgrwt>
</event>
<event>
 9    1  0.2065703E-002  0.2767168E+03  0.7818608E-02  0.1097496E+00
          1   -1    0    0  501    0  0.00000000000E+00  0.00000000000E+00  0.18780162334E+04  0.18780162334E+04  0.00000000000E+00 0.  1.
         -1   -1    0    0    0  501 -0.00000000000E+00 -0.00000000000E+00 -0.10193230595E+02  0.10193230595E+02  0.00000000000E+00 0.  1.
         36    2    1    2    0    0  0.71054273576E-14  0.71054273576E-14  0.18678230028E+04  0.18882094640E+04  0.27671684104E+03 0.  0.
         25    2    3    3    0    0  0.58095170746E+01  0.25511769495E+02  0.57551883180E+03  0.58980240804E+03  0.12633429424E+03 0.  0.
         25    2    3    3    0    0 -0.58095170746E+01 -0.25511769495E+02  0.12923041710E+04  0.12984070560E+04  0.12298866487E+03 0.  0.
          5    1    4    4  502    0 -0.38821180731E+02 -0.33518345775E+02  0.30437808349E+03  0.30870482874E+03  0.47000000000E+01 0. -1.
         -5    1    4    4    0  502  0.44630697806E+02  0.59030115270E+02  0.27114074830E+03  0.28109757929E+03  0.47000000000E+01 0. -1.
          5    1    5    5  503    0 -0.38328584093E+02  0.35968127517E+02  0.70690488116E+03  0.70887191196E+03  0.47000000000E+01 0. -1.
         -5    1    5    5    0  503  0.32519067018E+02 -0.61479897011E+02  0.58539928986E+03  0.58953514401E+03  0.47000000000E+01 0. -1.
<mgrwt>
<rscale>  0 0.27671684E+03</rscale>
<asrwt>0</asrwt>
<pdfrwt beam="1">  1        1 0.28892530E+00 0.27671684E+03</pdfrwt>
<pdfrwt beam="2">  1       -1 0.15681908E-02 0.27671684E+03</pdfrwt>
<totfact> 0.39608290E+03</totfact>
</mgrwt>
</event>
<event>
 9    1  0.2065703E-002  0.2744847E+03  0.7818608E-02  0.1098740E+00
          1   -1    0    0  501    0  0.00000000000E+00  0.00000000000E+00  0.52820812713E+03  0.52820812713E+03  0.00000000000E+00 0. -1.
         -1   -1    0    0    0  501 -0.00000000000E+00 -0.00000000000E+00 -0.35659164752E+02  0.35659164752E+02  0.00000000000E+00 0. -1.
         36    2    1    2    0    0  0.00000000000E+00  0.71054273576E-14  0.49254896238E+03  0.56386729188E+03  0.27448468539E+03 0.  0.
         25    2    3    3    0    0  0.45429649866E+02 -0.13486747806E+02  0.21487915831E+03  0.25428055238E+03  0.12743547855E+03 0.  0.
         25    2    3    3    0    0 -0.45429649866E+02  0.13486747806E+02  0.27766980407E+03  0.30958673950E+03  0.12844330939E+03 0.  0.
          5    1    4    4  502    0 -0.69456506740E+01  0.37700922953E+02  0.15134847944E+02  0.41481987381E+02  0.47000000000E+01 0.  1.
         -5    1    4    4    0  502  0.52375300540E+02 -0.51187670760E+02  0.19974431036E+03  0.21279856500E+03  0.47000000000E+01 0.  1.
          5    1    5    5  503    0 -0.24767766694E+02  0.45692190870E+02  0.26333607825E+03  0.26845707046E+03  0.47000000000E+01 0.  1.
         -5    1    5    5    0  503 -0.20661883172E+02 -0.32205443064E+02  0.14333725821E+02  0.41129669036E+02  0.47000000000E+01 0.  1.
<mgrwt>
<rscale>  0 0.27448469E+03</rscale>
<asrwt>0</asrwt>
<pdfrwt beam="1">  1        1 0.81262783E-01 0.27448469E+03</pdfrwt>
<pdfrwt beam="2">  1       -1 0.54860257E-02 0.27448469E+03</pdfrwt>
<totfact> 0.63869944E+03</totfact>
</mgrwt>
</event>
<event>
 9    1  0.2065703E-002  0.2752391E+03  0.7818608E-02  0.1098318E+00
          2   -1    0    0  501    0  0.00000000000E+00  0.00000000000E+00  0.15038588025E+04  0.15038588025E+04  0.00000000000E+00 0.  1.
         -2   -1    0    0    0  501 -0.00000000000E+00 -0.00000000000E+00 -0.12593694917E+02  0.12593694917E+02  0.00000000000E+00 0.  1.
         36    2    1    2    0    0  0.00000000000E+00  0.71054273576E-14  0.14912651076E+04  0.15164524974E+04  0.27523908849E+03 0.  0.
         25    2    3    3    0    0  0.50336215540E+02 -0.23712029718E+02  0.86268227525E+03  0.87297873955E+03  0.12155318481E+03 0.  0.
         25    2    3    3    0    0 -0.50336215540E+02  0.23712029718E+02  0.62858283235E+03  0.64347375788E+03  0.12588131317E+03 0.  0.
          5    1    4    4  502    0  0.72997518065E+01  0.41610244599E+02  0.50634704658E+03  0.50812805513E+03  0.47000000000E+01 0.  1.
         -5    1    4    4    0  502  0.43036463734E+02 -0.65322274317E+02  0.35633522867E+03  0.36485068442E+03  0.47000000000E+01 0.  1.
          5    1    5    5  503    0  0.10822648872E+02  0.62666468628E+02  0.25185862465E+03  0.25980583679E+03  0.47000000000E+01 0.  1.
         -5    1    5    5    0  503 -0.61158864412E+02 -0.38954438910E+02  0.37672420770E+03  0.38366792109E+03  0.47000000000E+01 0.  1.
<mgrwt>
<rscale>  0 0.27523909E+03</rscale>
<asrwt>0</asrwt>
<pdfrwt beam="1">  1        2 0.23136275E+00 0.27523909E+03</pdfrwt>
<pdfrwt beam="2">  1       -2 0.19374927E-02 0.27523909E+03</pdfrwt>
<totfact> 0.11000411E+04</totfact>
</mgrwt>
</event>
<event>
 9    1  0.2065703E-002  0.2752231E+03  0.7818608E-02  0.1098327E+00
         -3   -1    0    0    0  501 -0.00000000000E+00  0.00000000000E+00  0.19655068367E+03  0.19655068367E+03  0.00000000000E+00 0.  1.
          3   -1    0    0  501    0  0.00000000000E+00 -0.00000000000E+00 -0.96346303672E+02  0.96346303672E+02  0.00000000000E+00 0.  1.
         36    2    1    2    0    0  0.00000000000E+00  0.35527136788E-14  0.10020438000E+03  0.29289698734E+03  0.27522305031E+03 0.  0.
         25    2    3    3    0    0 -0.39767760370E+02  0.19912766756E+02  0.14123796906E+01  0.12995769519E+03  0.12210247613E+03 0.  0.
         25    2    3    3    0    0  0.39767760370E+02 -0.19912766756E+02  0.98792000309E+02  0.16293929216E+03  0.12170193326E+03 0.  0.
          5    1    4    4  502    0 -0.25275106265E+02 -0.16835705368E+02 -0.53769214312E+02  0.61931336008E+02  0.47000000000E+01 0. -1.
         -5    1    4    4    0  502 -0.14492654105E+02  0.36748472124E+02  0.55181594003E+02  0.68026359179E+02  0.47000000000E+01 0. -1.
          5    1    5    5  503    0  0.13196158776E+02 -0.11390372763E+02 -0.27841190088E+02  0.33182842911E+02  0.47000000000E+01 0. -1.
         -5    1    5    5    0  503  0.26571601595E+02 -0.85223939927E+01  0.12663319040E+03  0.12975644925E+03  0.47000000000E+01 0. -1.
<mgrwt>
<rscale>  0 0.27522305E+03</rscale>
<asrwt>0</asrwt>
<pdfrwt beam="1">  1        3 0.14822508E-01 0.27522305E+03</pdfrwt>
<pdfrwt beam="2">  1       -3 0.30238567E-01 0.27522305E+03</pdfrwt>
<totfact> 0.10193748E+03</totfact>
</mgrwt>
</event>
<event>
 9    1  0.2065703E-002  0.2762590E+03  0.7818608E-02  0.1097750E+00
          2   -1    0    0  501    0  0.00000000000E+00  0.00000000000E+00  0.38755239018E+03  0.38755239018E+03  0.00000000000E+00 0. -1.
         -2   -1    0    0    0  501 -0.00000000000E+00 -0.00000000000E+00 -0.49231421317E+02  0.49231421317E+02  0.00000000000E+00 0. -1.
         36    2    1    2    0    0  0.00000000000E+00 -0.35527136788E-14  0.33832096886E+03  0.43678381150E+03  0.27625897273E+03 0.  0.
         25    2    3    3    0    0  0.47519298718E+02  0.25755213410E+02  0.15806092309E+03  0.20844562478E+03  0.12467922167E+03 0.  0.
         25    2    3    3    0    0 -0.47519298718E+02 -0.25755213410E+02  0.18026004578E+03  0.22833818671E+03  0.12931832291E+03 0.  0.
          5    1    4    4  502    0 -0.34551775383E+02  0.17983945300E+02  0.10023182565E+03  0.10763715132E+03  0.47000000000E+01 0.  1.
         -5    1    4    4    0  502  0.82071074101E+02  0.77712681091E+01  0.57829097437E+02  0.10080847347E+03  0.47000000000E+01 0.  1.
          5    1    5    5  503    0  0.37597663282E+01  0.42457780599E+02  0.21351554963E+02  0.47903839883E+02  0.47000000000E+01 0.  1.
         -5    1    5    5    0  503 -0.51279065046E+02 -0.68212994008E+02  0.15890849081E+03  0.18043434683E+03  0.47000000000E+01 0.  1.
<mgrwt>
<rscale>  0 0.27625897E+03</rscale>
<asrwt>0</asrwt>
<pdfrwt beam="1">  1        2 0.59623443E-01 0.27625897E+03</pdfrwt>
<pdfrwt beam="2">  1       -2 0.75740651E-02 0.27625897E+03</pdfrwt>
<totfact> 0.84605286E+03</totfact>
</mgrwt>
</event>
<event>
 9    1  0.2065703E-002  0.2751529E+03  0.7818608E-02  0.1098366E+00
         -2   -1    0    0    0  501 -0.00000000000E+00  0.00000000000E+00  0.67519813854E+01  0.67519813854E+01  0.00000000000E+00 0. -1.
          2   -1    0    0  501    0  0.00000000000E+00 -0.00000000000E+00 -0.28032175626E+04  0.28032175626E+04  0.00000000000E+00 0. -1.
         36    2    1    2    0    0  0.00000000000E+00 -0.35527136788E-14 -0.27964655812E+04  0.28099695439E+04  0.27515285062E+03 0.  0.
         25    2    3    3    0    0  0.14015524344E+02 -0.15344010635E+02 -0.85087457553E+03  0.86016061369E+03  0.12432563881E+03 0.  0.
         25    2    3    3    0    0 -0.14015524344E+02  0.15344010635E+02 -0.19455910056E+04  0.19498089303E+04  0.12648568968E+03 0.  0.
          5    1    4    4  502    0  0.61247995191E+02 -0.23913809995E+02 -0.29889065890E+03  0.30607336245E+03  0.47000000000E+01 0. -1.
         -5    1    4    4    0  502 -0.47232470848E+02  0.85697993602E+01 -0.55198391664E+03  0.55408725124E+03  0.47000000000E+01 0. -1.
          5    1    5    5  503    0 -0.31345061104E+02 -0.41997403657E+01 -0.18582420273E+04  0.18585170628E+04  0.47000000000E+01 0. -1.
         -5    1    5    5    0  503  0.17329536761E+02  0.19543751001E+02 -0.87348978339E+02  0.91291867460E+02  0.47000000000E+01 0. -1.
<mgrwt>
<rscale>  0 0.27515285E+03</rscale>
<asrwt>0</asrwt>
<pdfrwt beam="1">  1        2 0.43126347E+00 0.27515285E+03</pdfrwt>
<pdfrwt beam="2">  1       -2 0.10387682E-02 0.27515285E+03</pdfrwt>
<totfact> 0.54730641E+03</totfact>
</mgrwt>
</event>
<event>
 9    1  0.2065703E-002  0.2771311E+03  0.7818608E-02  0.1097266E+00
         -2   -1    0    0    0  501 -0.00000000000E+00  0.00000000000E+00  0.16603504523E+02  0.16603504523E+02  0.00000000000E+00 0.  1.
          2   -1    0    0  501    0  0.00000000000E+00 -0.00000000000E+00 -0.11564070248E+04  0.11564070248E+04  0.00000000000E+00 0.  1.
         36    2    1    2    0    0  0.35527136788E-14  0.00000000000E+00 -0.11398035202E+04  0.11730105293E+04  0.27713108282E+03 0.  0.
         25    2    3    3    0    0  0.27326640504E+02  0.34542542562E+02 -0.46807452494E+03  0.48820879052E+03  0.13158316656E+03 0.  0.
         25    2    3    3    0    0 -0.27326640504E+02 -0.34542542562E+02 -0.67172899531E+03  0.68480173877E+03  0.12567277253E+03 0.  0.
          5    1    4    4  502    0 -0.47544990741E+02  0.21690986078E+02 -0.10666744207E+03  0.11887412763E+03  0.47000000000E+01 0.  1.
         -5    1    4    4    0  502  0.74871631244E+02  0.12851556484E+02 -0.36140708287E+03  0.36933466289E+03  0.47000000000E+01 0.  1.
          5    1    5    5  503    0 -0.11687180439E+02 -0.34921244951E+02 -0.66666805609E+03  0.66770088404E+03  0.47000000000E+01 0. -1.
         -5    1    5    5    0  503 -0.15639460065E+02  0.37870238887E+00 -0.50609392148E+01  0.17100854726E+02  0.47000000000E+01 0. -1.
<mgrwt>
<rscale>  0 0.27713108E+03</rscale>
<asrwt>0</asrwt>
<pdfrwt beam="1">  1        2 0.17790879E+00 0.27713108E+03</pdfrwt>
<pdfrwt beam="2">  1       -2 0.25543851E-02 0.27713108E+03</pdfrwt>
<totfact> 0.11380721E+04</totfact>
</mgrwt>
</event>
<event>
 9    1  0.2065703E-002  0.2735883E+03  0.7818608E-02  0.1099243E+00
         -2   -1    0    0    0  501 -0.00000000000E+00  0.00000000000E+00  0.11731177146E+04  0.11731177146E+04  0.00000000000E+00 0. -1.
          2   -1    0    0  501    0  0.00000000000E+00 -0.00000000000E+00 -0.15951207483E+02  0.15951207483E+02  0.00000000000E+00 0. -1.
         36    2    1    2    0    0  0.00000000000E+00  0.35527136788E-14  0.11571665072E+04  0.11890689221E+04  0.27358833358E+03 0.  0.
         25    2    3    3    0    0  0.48106867772E+02  0.22765286751E+02  0.58612539551E+03  0.60143334794E+03  0.12388124856E+03 0.  0.
         25    2    3    3    0    0 -0.48106867772E+02 -0.22765286751E+02  0.57104111166E+03  0.58763557419E+03  0.12804330458E+03 0.  0.
          5    1    4    4  502    0  0.13406498307E+00 -0.16619212897E+02  0.64672986823E+01  0.18442672339E+02  0.47000000000E+01 0.  1.
         -5    1    4    4    0  502  0.47972802789E+02  0.39384499648E+02  0.57965809682E+03  0.58299067560E+03  0.47000000000E+01 0.  1.
          5    1    5    5  503    0 -0.77300854265E+02 -0.37671678623E+02  0.24077096735E+03  0.25570945653E+03  0.47000000000E+01 0. -1.
         -5    1    5    5    0  503  0.29193986493E+02  0.14906391872E+02  0.33027014430E+03  0.33192611766E+03  0.47000000000E+01 0. -1.
<mgrwt>
<rscale>  0 0.27358833E+03</rscale>
<asrwt>0</asrwt>
<pdfrwt beam="1">  1        2 0.24540328E-02 0.27358833E+03</pdfrwt>
<pdfrwt beam="2">  1       -2 0.18047958E+00 0.27358833E+03</pdfrwt>
<totfact> 0.79729764E+02</totfact>
</mgrwt>
</event>
<event>
 9    1  0.2065703E-002  0.2746626E+03  0.7818608E-02  0.1098640E+00
         -2   -1    0    0    0  501 -0.00000000000E+00  0.00000000000E+00  0.83852026009E+01  0.83852026009E+01  0.00000000000E+00 0.  1.
          2   -1    0    0  501    0  0.00000000000E+00 -0.00000000000E+00 -0.22491869803E+04  0.22491869803E+04  0.00000000000E+00 0.  1.
         36    2    1    2    0    0 -0.71054273576E-14 -0.35527136788E-14 -0.22408017777E+04  0.22575721829E+04  0.27466261862E+03 0.  0.
         25    2    3    3    0    0  0.63761927860E+02 -0.43231047725E+01 -0.97922060743E+03  0.98808490342E+03  0.11556169638E+03 0.  0.
         25    2    3    3    0    0 -0.63761927860E+02  0.43231047725E+01 -0.12615811702E+04  0.12694872795E+04  0.12620075637E+03 0.  0.
          5    1    4    4  502    0  0.14088993294E+02  0.47933655504E+02 -0.23121658040E+03  0.23659951841E+03  0.47000000000E+01 0.  1.
         -5    1    4    4    0  502  0.49672934567E+02 -0.52256760277E+02 -0.74800402703E+03  0.75148538501E+03  0.47000000000E+01 0.  1.
          5    1    5    5  503    0 -0.81253775076E+02  0.13952877202E+02 -0.44188874426E+03  0.44953821979E+03  0.47000000000E+01 0.  1.
         -5    1    5    5    0  503  0.17491847215E+02 -0.96297724296E+01 -0.81969242599E+03  0.81994905967E+03  0.47000000000E+01 0.  1.
<mgrwt>
<rscale>  0 0.27466262E+03</rscale>
<asrwt>0</asrwt>
<pdfrwt beam="1">  1        2 0.34602861E+00 0.27466262E+03</pdfrwt>
<pdfrwt beam="2">  1       -2 0.12900318E-02 0.27466262E+03</pdfrwt>
<totfact> 0.80630922E+03</totfact>
</mgrwt>
</event>
<event>
 9    1  0.2065703E-002  0.2754930E+03  0.7818608E-02  0.1098176E+00
          2   -1    0    0  501    0  0.00000000000E+00  0.00000000000E+00  0.93149662946E+02  0.93149662946E+02  0.00000000000E+00 0. -1.
         -2   -1    0    0    0  501 -0.00000000000E+00 -0.00000000000E+00 -0.20369480143E+03  0.20369480143E+03  0.00000000000E+00 0. -1.
         36    2    1    2    0    0 -0.71054273576E-14  0.00000000000E+00 -0.11054513848E+03  0.29684446437E+03  0.27549302784E+03 0.  0.
         25    2    3    3    0    0  0.85651700148E+01 -0.20522461029E+02 -0.36153053104E+02  0.13376277304E+03  0.12684992179E+03 0.  0.
         25    2    3    3    0    0 -0.85651700148E+01  0.20522461029E+02 -0.74392085377E+02  0.16308169134E+03  0.14341172246E+03 0.  0.
          5    1    4    4  502    0 -0.57682079256E+02 -0.63886431654E+01 -0.30227726301E+02  0.65603677230E+02  0.47000000000E+01 0. -1.
         -5    1    4    4    0  502  0.66247249271E+02 -0.14133817864E+02 -0.59253268031E+01  0.68159095806E+02  0.47000000000E+01 0. -1.
          5    1    5    5  503    0  0.30495565000E+02 -0.27171745774E+01 -0.10407941705E+03  0.10859087243E+03  0.47000000000E+01 0. -1.
         -5    1    5    5    0  503 -0.39060735014E+02  0.23239635607E+02  0.29687331672E+02  0.54490818904E+02  0.47000000000E+01 0. -1.
<mgrwt>
<rscale>  0 0.27549303E+03</rscale>
<asrwt>0</asrwt>
<pdfrwt beam="1">  1        2 0.14330717E-01 0.27549303E+03</pdfrwt>
<pdfrwt beam="2">  1       -2 0.31337662E-01 0.27549303E+03</pdfrwt>
<totfact> 0.38648374E+03</totfact>
</mgrwt>
</event>
<event>
 9    1  0.2065703E-002  0.2742996E+03  0.7818608E-02  0.1098844E+00
         -2   -1    0    0    0  501 -0.00000000000E+00  0.00000000000E+00  0.21335405597E+02  0.21335405597E+02  0.00000000000E+00 0. -1.
          2   -1    0    0  501    0  0.00000000000E+00 -0.00000000000E+00 -0.88163618832E+03  0.88163618832E+03  0.00000000000E+00 0. -1.
         36    2    1    2    0    0  0.00000000000E+00  0.35527136788E-14 -0.86030078273E+03  0.90297159392E+03  0.27429958562E+03 0.  0.
         25    2    3    3    0    0 -0.47934776451E+02  0.11802505479E+02 -0.51430890954E+03  0.53332749150E+03  0.13224037518E+03 0.  0.
         25    2    3    3    0    0  0.47934776451E+02 -0.11802505479E+02 -0.34599187319E+03  0.36964410243E+03  0.12037169192E+03 0.  0.
          5    1    4    4  502    0  0.25261104906E+02  0.76071391249E+01 -0.19616942580E+02  0.33210034973E+02  0.47000000000E+01 0. -1.
         -5    1    4    4    0  502 -0.73195881357E+02  0.41953663544E+01 -0.49469196696E+03  0.50011745652E+03  0.47000000000E+01 0. -1.
          5    1    5    5  503    0  0.24425021284E+02  0.54150486109E+02 -0.14572297070E+03  0.15743611720E+03  0.47000000000E+01 0.  1.
         -5    1    5    5    0  503  0.23509755167E+02 -0.65952991589E+02 -0.20026890249E+03  0.21220798522E+03  0.47000000000E+01 0.  1.
<mgrwt>
<rscale>  0 0.27429959E+03</rscale>
<asrwt>0</asrwt>
<pdfrwt beam="1">  1        2 0.13563632E+00 0.27429959E+03</pdfrwt>
<pdfrwt beam="2">  1       -2 0.32823705E-02 0.27429959E+03</pdfrwt>
<totfact> 0.11525542E+04</totfact>
</mgrwt>
</event>
<event>
 9    1  0.2065703E-002  0.2761298E+03  0.7818608E-02  0.1097822E+00
          2   -1    0    0  501    0  0.00000000000E+00  0.00000000000E+00  0.15586651078E+03  0.15586651078E+03  0.00000000000E+00 0. -1.
         -2   -1    0    0    0  501 -0.00000000000E+00 -0.00000000000E+00 -0.12229638076E+03  0.12229638076E+03  0.00000000000E+00 0. -1.
         36    2    1    2    0    0 -0.71054273576E-14  0.14210854715E-13  0.33570130019E+02  0.27816289153E+03  0.27612975319E+03 0.  0.
         25    2    3    3    0    0  0.37052009935E+02 -0.64898694776E+02  0.19419189884E+02  0.14518057661E+03  0.12294552804E+03 0.  0.
         25    2    3    3    0    0 -0.37052009935E+02  0.64898694776E+02  0.14150940135E+02  0.13298231493E+03  0.10908416454E+03 0.  0.
          5    1    4    4  502    0 -0.20042810402E+02  0.46846794507E+00 -0.36443471028E+02  0.41858694337E+02  0.47000000000E+01 0. -1.
         -5    1    4    4    0  502  0.57094820337E+02 -0.65367162721E+02  0.55862660912E+02  0.10332188227E+03  0.47000000000E+01 0. -1.
          5    1    5    5  503    0 -0.71198131218E+02  0.35144097572E+02  0.29645816317E+02  0.84883719924E+02  0.47000000000E+01 0.  1.
         -5    1    5    5    0  503  0.34146121283E+02  0.29754597203E+02 -0.15494876182E+02  0.48098595004E+02  0.47000000000E+01 0.  1.
<mgrwt>
<rscale>  0 0.27612975E+03</rscale>
<asrwt>0</asrwt>
<pdfrwt beam="1">  1        2 0.23979463E-01 0.27612975E+03</pdfrwt>
<pdfrwt beam="2">  1       -2 0.18814828E-01 0.27612975E+03</pdfrwt>
<totfact> 0.52295101E+03</totfact>
</mgrwt>
</event>
<event>
 9    1  0.2065703E-002  0.2746844E+03  0.7818608E-02  0.1098628E+00
          4   -1    0    0  501    0  0.00000000000E+00  0.00000000000E+00  0.56403061488E+03  0.56403061488E+03  0.00000000000E+00 0. -1.
         -4   -1    0    0    0  501 -0.00000000000E+00 -0.00000000000E+00 -0.33443012546E+02  0.33443012546E+02  0.00000000000E+00 0. -1.
         36    2    1    2    0    0 -0.35527136788E-14 -0.71054273576E-14  0.53058760233E+03  0.59747362742E+03  0.27468442205E+03 0.  0.
         25    2    3    3    0    0 -0.30748048766E+01 -0.12076310897E+02  0.36939995936E+03  0.39018493160E+03  0.12503063290E+03 0.  0.
         25    2    3    3    0    0  0.30748048766E+01  0.12076310897E+02  0.16118764297E+03  0.20728869582E+03  0.12973764087E+03 0.  0.
          5    1    4    4  502    0  0.31667474485E+02 -0.58674349462E+02  0.21446613727E+03  0.22464042882E+03  0.47000000000E+01 0.  1.
         -5    1    4    4    0  502 -0.34742279362E+02  0.46598038565E+02  0.15493382209E+03  0.16554450278E+03  0.47000000000E+01 0.  1.
          5    1    5    5  503    0  0.33377342854E+02  0.46973871614E+02  0.24268162576E+02  0.62702674147E+02  0.47000000000E+01 0. -1.
         -5    1    5    5    0  503 -0.30302537978E+02 -0.34897560717E+02  0.13691948039E+03  0.14458602167E+03  0.47000000000E+01 0. -1.
<mgrwt>
<rscale>  0 0.27468442E+03</rscale>
<asrwt>0</asrwt>
<pdfrwt beam="1">  1        4 0.86773934E-01 0.27468442E+03</pdfrwt>
<pdfrwt beam="2">  1       -4 0.51450793E-02 0.27468442E+03</pdfrwt>
<totfact> 0.50524085E+02</totfact>
</mgrwt>
</event>
<event>
 9    1  0.2065703E-002  0.2748840E+03  0.7818608E-02  0.1098516E+00
         -2   -1    0    0    0  501 -0.00000000000E+00  0.00000000000E+00  0.56368437201E+03  0.56368437201E+03  0.00000000000E+00 0.  1.
          2   -1    0    0  501    0  0.00000000000E+00 -0.00000000000E+00 -0.33512193710E+02  0.33512193710E+02  0.00000000000E+00 0.  1.
         36    2    1    2    0    0  0.71054273576E-14 -0.17763568394E-14  0.53017217830E+03  0.59719656572E+03  0.27488397455E+03 0.  0.
         25    2    3    3    0    0  0.27591306829E+02 -0.14892129789E+02  0.39933079011E+03  0.41904338174E+03  0.12308216815E+03 0.  0.
         25    2    3    3    0    0 -0.27591306829E+02  0.14892129789E+02  0.13084138820E+03  0.17815318398E+03  0.11677342315E+03 0.  0.
          5    1    4    4  502    0  0.62752497649E+02 -0.14845253538E+02  0.36128689539E+03  0.36702665883E+03  0.47000000000E+01 0.  1.
         -5    1    4    4    0  502 -0.35161190821E+02 -0.46876250900E-01  0.38043894715E+02  0.52016722911E+02  0.47000000000E+01 0.  1.
          5    1    5    5  503    0 -0.67640696283E+02 -0.76766842157E+01  0.10495215018E+03  0.12518481978E+03  0.47000000000E+01 0.  1.
         -5    1    5    5    0  503  0.40049389454E+02  0.22568814005E+02  0.25889238012E+02  0.52968364201E+02  0.47000000000E+01 0.  1.
<mgrwt>
<rscale>  0 0.27488397E+03</rscale>
<asrwt>0</asrwt>
<pdfrwt beam="1">  1        2 0.51557225E-02 0.27488397E+03</pdfrwt>
<pdfrwt beam="2">  1       -2 0.86720665E-01 0.27488397E+03</pdfrwt>
<totfact> 0.17921269E+03</totfact>
</mgrwt>
</event>
<event>
 9    1  0.2065703E-002  0.2755416E+03  0.7818608E-02  0.1098149E+00
         -1   -1    0    0    0  501 -0.00000000000E+00  0.00000000000E+00  0.10871925007E+03  0.10871925007E+03  0.00000000000E+00 0. -1.
          1   -1    0    0  501    0  0.00000000000E+00 -0.00000000000E+00 -0.17458534502E+03  0.17458534502E+03  0.00000000000E+00 0. -1.
         36    2    1    2    0    0 -0.71054273576E-14  0.00000000000E+00 -0.65866094952E+02  0.28330459509E+03  0.27554155972E+03 0.  0.
         25    2    3    3    0    0  0.45287286003E+02  0.32711163985E+02 -0.40469189066E+02  0.14457271193E+03  0.12705335592E+03 0.  0.
         25    2    3    3    0    0 -0.45287286003E+02 -0.32711163985E+02 -0.25396905886E+02  0.13873188316E+03  0.12442095504E+03 0.  0.
          5    1    4    4  502    0 -0.24463745478E+02  0.30188355100E+02 -0.60275473989E+02  0.71868173701E+02  0.47000000000E+01 0.  1.
         -5    1    4    4    0  502  0.69751031481E+02  0.25228088850E+01  0.19806284923E+02  0.72704538234E+02  0.47000000000E+01 0.  1.
          5    1    5    5  503    0  0.15229522277E+02 -0.49950032682E+02  0.24895813132E+02  0.58041671454E+02  0.47000000000E+01 0.  1.
         -5    1    5    5    0  503 -0.60516808280E+02  0.17238868697E+02 -0.50292719018E+02  0.80690211702E+02  0.47000000000E+01 0.  1.
<mgrwt>
<rscale>  0 0.27554156E+03</rscale>
<asrwt>0</asrwt>
<pdfrwt beam="1">  1        1 0.26859284E-01 0.27554156E+03</pdfrwt>
<pdfrwt beam="2">  1       -1 0.16726038E-01 0.27554156E+03</pdfrwt>
<totfact> 0.46757275E+03</totfact>
</mgrwt>
</event>
<event>
 9    1  0.2065703E-002  0.2746452E+03  0.7818608E-02  0.1098650E+00
         -4   -1    0    0    0  501 -0.00000000000E+00  0.00000000000E+00  0.23850015901E+03  0.23850015901E+03  0.00000000000E+00 0. -1.
          4   -1    0    0  501    0  0.00000000000E+00 -0.00000000000E+00 -0.79066996445E+02  0.79066996445E+02  0.00000000000E+00 0. -1.
         36    2    1    2    0    0  0.00000000000E+00 -0.35527136788E-14  0.15943316257E+03  0.31756715546E+03  0.27464516180E+03 0.  0.
         25    2    3    3    0    0  0.21726756426E+02  0.26271300360E+02  0.12421042809E+03  0.18011514813E+03  0.12590076637E+03 0.  0.
         25    2    3    3    0    0 -0.21726756426E+02 -0.26271300360E+02  0.35222734477E+02  0.13745200733E+03  0.12841409629E+03 0.  0.
          5    1    4    4  502    0  0.53996885935E+02 -0.17502710695E+02  0.10974533599E+03  0.12364520753E+03  0.47000000000E+01 0.  1.
         -5    1    4    4    0  502 -0.32270129509E+02  0.43774011055E+02  0.14465092101E+02  0.56469940605E+02  0.47000000000E+01 0.  1.
          5    1    5    5  503    0 -0.40632990690E+02 -0.16075055682E+02 -0.39788348734E+02  0.59284483995E+02  0.47000000000E+01 0.  1.
         -5    1    5    5    0  503  0.18906234265E+02 -0.10196244679E+02  0.75011083211E+02  0.78167523333E+02  0.47000000000E+01 0.  1.
<mgrwt>
<rscale>  0 0.27464516E+03</rscale>
<asrwt>0</asrwt>
<pdfrwt beam="1">  1        4 0.12164153E-01 0.27464516E+03</pdfrwt>
<pdfrwt beam="2">  1       -4 0.36692332E-01 0.27464516E+03</pdfrwt>
<totfact> 0.73367533E+02</totfact>
</mgrwt>
</event>
<event>
 9    1  0.2065703E-002  0.2720363E+03  0.7818608E-02  0.1100120E+00
          2   -1    0    0  501    0  0.00000000000E+00  0.00000000000E+00  0.22702466525E+04  0.22702466525E+04  0.00000000000E+00 0. -1.
         -2   -1    0    0    0  501 -0.00000000000E+00 -0.00000000000E+00 -0.81493056179E+01  0.81493056179E+01  0.00000000000E+00 0. -1.
         36    2    1    2    0    0  0.35527136788E-14  0.00000000000E+00  0.22620973469E+04  0.22783959581E+04  0.27203627552E+03 0.  0.
         25    2    3    3    0    0 -0.83536732927E+01  0.53613668148E+02  0.12382651681E+04  0.12456109094E+04  0.12370004756E+03 0.  0.
         25    2    3    3    0    0  0.83536732927E+01 -0.53613668148E+02  0.10238321788E+04  0.10327850488E+04  0.12437209220E+03 0.  0.
          5    1    4    4  502    0 -0.34626949807E+02  0.22181752542E+02  0.12686698128E+03  0.13344803010E+03  0.47000000000E+01 0. -1.
         -5    1    4    4    0  502  0.26273276514E+02  0.31431915605E+02  0.11113981868E+04  0.11121628793E+04  0.47000000000E+01 0. -1.
          5    1    5    5  503    0 -0.36175862369E+02 -0.41152658663E+02  0.87810503813E+03  0.87982542719E+03  0.47000000000E+01 0.  1.
         -5    1    5    5    0  503  0.44529535662E+02 -0.12461009485E+02  0.14572714070E+03  0.15295962160E+03  0.47000000000E+01 0.  1.
<mgrwt>
<rscale>  0 0.27203628E+03</rscale>
<asrwt>0</asrwt>
<pdfrwt beam="1">  1        2 0.34926821E+00 0.27203628E+03</pdfrwt>
<pdfrwt beam="2">  1       -2 0.12537411E-02 0.27203628E+03</pdfrwt>
<totfact> 0.81904680E+03</totfact>
</mgrwt>
</event>
<event>
 9    1  0.2065703E-002  0.2720054E+03  0.7818608E-02  0.1100137E+00
         -1   -1    0    0    0  501 -0.00000000000E+00  0.00000000000E+00  0.37080392985E+02  0.37080392985E+02  0.00000000000E+00 0. -1.
          1   -1    0    0  501    0  0.00000000000E+00 -0.00000000000E+00 -0.49882793076E+03  0.49882793076E+03  0.00000000000E+00 0. -1.
         36    2    1    2    0    0  0.00000000000E+00  0.00000000000E+00 -0.46174753777E+03  0.53590832374E+03  0.27200540954E+03 0.  0.
         25    2    3    3    0    0 -0.24145408354E+02  0.39300547503E+02 -0.15191623400E+03  0.19865155886E+03  0.11940002473E+03 0.  0.
         25    2    3    3    0    0  0.24145408354E+02 -0.39300547503E+02 -0.30983130377E+03  0.33725676489E+03  0.12497661735E+03 0.  0.
          5    1    4    4  502    0 -0.42867353231E+02  0.70864710917E+02 -0.69166094657E+02  0.10800673996E+03  0.47000000000E+01 0.  1.
         -5    1    4    4    0  502  0.18721944877E+02 -0.31564163415E+02 -0.82750139342E+02  0.90644818898E+02  0.47000000000E+01 0.  1.
          5    1    5    5  503    0 -0.24774179685E+02 -0.24989117916E+02 -0.27019778778E+03  0.27252000021E+03  0.47000000000E+01 0.  1.
         -5    1    5    5    0  503  0.48919588039E+02 -0.14311429587E+02 -0.39633515994E+02  0.64736764676E+02  0.47000000000E+01 0.  1.
<mgrwt>
<rscale>  0 0.27200541E+03</rscale>
<asrwt>0</asrwt>
<pdfrwt beam="1">  1        1 0.76742756E-01 0.27200541E+03</pdfrwt>
<pdfrwt beam="2">  1       -1 0.57046760E-02 0.27200541E+03</pdfrwt>
<totfact> 0.64989839E+03</totfact>
</mgrwt>
</event>
<event>
 9    1  0.2065703E-002  0.2753084E+03  0.7818608E-02  0.1098279E+00
         -2   -1    0    0    0  501 -0.00000000000E+00  0.00000000000E+00  0.15690771823E+02  0.15690771823E+02  0.00000000000E+00 0. -1.
          2   -1    0    0  501    0  0.00000000000E+00 -0.00000000000E+00 -0.12076317760E+04  0.12076317760E+04  0.00000000000E+00 0. -1.
         36    2    1    2    0    0 -0.71054273576E-14  0.00000000000E+00 -0.11919410041E+04  0.12233225478E+04  0.27530836996E+03 0.  0.
         25    2    3    3    0    0  0.31283472445E+02 -0.94709460220E+01 -0.81869130352E+03  0.82910030588E+03  0.12682078807E+03 0.  0.
         25    2    3    3    0    0 -0.31283472445E+02  0.94709460220E+01 -0.37324970062E+03  0.39422224190E+03  0.12258663276E+03 0.  0.
          5    1    4    4  502    0 -0.41715375330E+02 -0.17757061044E+02 -0.49734100368E+03  0.49942531944E+03  0.47000000000E+01 0. -1.
         -5    1    4    4    0  502  0.72998847775E+02  0.82861150216E+01 -0.32135029984E+03  0.32967498644E+03  0.47000000000E+01 0. -1.
          5    1    5    5  503    0 -0.64899388506E+02 -0.32297120291E+02 -0.22978103691E+03  0.24099055900E+03  0.47000000000E+01 0.  1.
         -5    1    5    5    0  503  0.33615916061E+02  0.41768066313E+02 -0.14346866371E+03  0.15323168290E+03  0.47000000000E+01 0.  1.
<mgrwt>
<rscale>  0 0.27530837E+03</rscale>
<asrwt>0</asrwt>
<pdfrwt beam="1">  1        2 0.18578946E+00 0.27530837E+03</pdfrwt>
<pdfrwt beam="2">  1       -2 0.24139654E-02 0.27530837E+03</pdfrwt>
<totfact> 0.11565221E+04</totfact>
</mgrwt>
</event>
<event>
 9    1  0.2065703E-002  0.2740443E+03  0.7818608E-02  0.1098987E+00
         -2   -1    0    0    0  501 -0.00000000000E+00  0.00000000000E+00  0.40741020932E+02  0.40741020932E+02  0.00000000000E+00 0. -1.
          2   -1    0    0  501    0  0.00000000000E+00 -0.00000000000E+00 -0.46083943984E+03  0.46083943984E+03  0.00000000000E+00 0. -1.
         36    2    1    2    0    0  0.71054273576E-14  0.00000000000E+00 -0.42009841891E+03  0.50158046078E+03  0.27404429762E+03 0.  0.
         25    2    3    3    0    0 -0.53718904914E+02  0.54991563378E+00 -0.17087367224E+03  0.21966108941E+03  0.12715014425E+03 0.  0.
         25    2    3    3    0    0  0.53718904914E+02 -0.54991563378E+00 -0.24922474668E+03  0.28191937137E+03  0.12033093720E+03 0.  0.
          5    1    4    4  502    0 -0.13503953133E+02 -0.55994455567E+02 -0.12096313552E+03  0.13405933746E+03  0.47000000000E+01 0. -1.
         -5    1    4    4    0  502 -0.40214951781E+02  0.56544371201E+02 -0.49910536715E+02  0.85601751948E+02  0.47000000000E+01 0. -1.
          5    1    5    5  503    0  0.20901686232E+02  0.54780905707E+02 -0.16921642785E+03  0.17914831166E+03  0.47000000000E+01 0. -1.
         -5    1    5    5    0  503  0.32817218683E+02 -0.55330821341E+02 -0.80008318826E+02  0.10277105971E+03  0.47000000000E+01 0. -1.
<mgrwt>
<rscale>  0 0.27404430E+03</rscale>
<asrwt>0</asrwt>
<pdfrwt beam="1">  1        2 0.70898377E-01 0.27404430E+03</pdfrwt>
<pdfrwt beam="2">  1       -2 0.62678492E-02 0.27404430E+03</pdfrwt>
<totfact> 0.93802194E+03</totfact>
</mgrwt>
</event>
<event>
 9    1  0.2065703E-002  0.2745467E+03  0.7818608E-02  0.1098705E+00
         -1   -1    0    0    0  501 -0.00000000000E+00  0.00000000000E+00  0.44989315767E+02  0.44989315767E+02  0.00000000000E+00 0.  1.
          1   -1    0    0  501    0  0.00000000000E+00 -0.00000000000E+00 -0.41885440427E+03  0.41885440427E+03  0.00000000000E+00 0.  1.
         36    2    1    2    0    0  0.14210854715E-13 -0.35527136788E-14 -0.37386508850E+03  0.46384372004E+03  0.27454670316E+03 0.  0.
         25    2    3    3    0    0  0.37181045753E+02 -0.65938321966E+01 -0.13411848240E+03  0.19697233059E+03  0.13922795306E+03 0.  0.
         25    2    3    3    0    0 -0.37181045753E+02  0.65938321966E+01 -0.23974660611E+03  0.26687138944E+03  0.11097745076E+03 0.  0.
          5    1    4    4  502    0  0.78392365674E+02  0.17776424389E+02 -0.12394050730E+03  0.14779953860E+03  0.47000000000E+01 0.  1.
         -5    1    4    4    0  502 -0.41211319921E+02 -0.24370256586E+02 -0.10177975098E+02  0.49172791997E+02  0.47000000000E+01 0.  1.
          5    1    5    5  503    0 -0.45823617857E+02  0.42098486748E+02 -0.72696970207E+02  0.95807233637E+02  0.47000000000E+01 0. -1.
         -5    1    5    5    0  503  0.86425721045E+01 -0.35504654551E+02 -0.16704963590E+03  0.17106415581E+03  0.47000000000E+01 0. -1.
<mgrwt>
<rscale>  0 0.27454670E+03</rscale>
<asrwt>0</asrwt>
<pdfrwt beam="1">  1        1 0.64439141E-01 0.27454670E+03</pdfrwt>
<pdfrwt beam="2">  1       -1 0.69214330E-02 0.27454670E+03</pdfrwt>
<totfact> 0.60997937E+03</totfact>
</mgrwt>
</event>
<event>
 9    1  0.2065703E-002  0.2771550E+03  0.7818608E-02  0.1097253E+00
         -2   -1    0    0    0  501 -0.00000000000E+00  0.00000000000E+00  0.97375890825E+01  0.97375890825E+01  0.00000000000E+00 0. -1.
          2   -1    0    0  501    0  0.00000000000E+00 -0.00000000000E+00 -0.19721234668E+04  0.19721234668E+04  0.00000000000E+00 0. -1.
         36    2    1    2    0    0  0.00000000000E+00  0.00000000000E+00 -0.19623858777E+04  0.19818610558E+04  0.27715503199E+03 0.  0.
         25    2    3    3    0    0  0.46044025341E+01  0.53446926642E+02 -0.86271607671E+03  0.87374210585E+03  0.12754788920E+03 0.  0.
         25    2    3    3    0    0 -0.46044025341E+01 -0.53446926642E+02 -0.10996698010E+04  0.11081189500E+04  0.12560319133E+03 0.  0.
          5    1    4    4  502    0  0.58694638830E+02  0.44531778298E+01 -0.51793564890E+03  0.52129101068E+03  0.47000000000E+01 0.  1.
         -5    1    4    4    0  502 -0.54090236296E+02  0.48993748812E+02 -0.34478042781E+03  0.35245109517E+03  0.47000000000E+01 0.  1.
          5    1    5    5  503    0  0.23481370728E+02 -0.37857153524E+02 -0.12288957312E+03  0.13079937318E+03  0.47000000000E+01 0. -1.
         -5    1    5    5    0  503 -0.28085773262E+02 -0.15589773118E+02 -0.97678022785E+03  0.97731957680E+03  0.47000000000E+01 0. -1.
<mgrwt>
<rscale>  0 0.27715503E+03</rscale>
<asrwt>0</asrwt>
<pdfrwt beam="1">  1        2 0.30340364E+00 0.27715503E+03</pdfrwt>
<pdfrwt beam="2">  1       -2 0.14980905E-02 0.27715503E+03</pdfrwt>
<totfact> 0.90841905E+03</totfact>
</mgrwt>
</event>
<event>
 9    1  0.2065703E-002  0.2748064E+03  0.7818608E-02  0.1098560E+00
          2   -1    0    0  501    0  0.00000000000E+00  0.00000000000E+00  0.92473032386E+03  0.92473032386E+03  0.00000000000E+00 0. -1.
         -2   -1    0    0    0  501 -0.00000000000E+00 -0.00000000000E+00 -0.20416372721E+02  0.20416372721E+02  0.00000000000E+00 0. -1.
         36    2    1    2    0    0  0.71054273576E-14  0.00000000000E+00  0.90431395114E+03  0.94514669658E+03  0.27480639700E+03 0.  0.
         25    2    3    3    0    0 -0.41014022745E+02  0.21698357188E+02  0.54965199528E+03  0.56739158833E+03  0.13290195570E+03 0.  0.
         25    2    3    3    0    0  0.41014022745E+02 -0.21698357188E+02  0.35466195586E+03  0.37775510825E+03  0.12149423899E+03 0.  0.
          5    1    4    4  502    0 -0.37135546718E+02  0.76736262353E+02  0.32926851517E+03  0.34015782789E+03  0.47000000000E+01 0. -1.
         -5    1    4    4    0  502 -0.38784760275E+01 -0.55037905165E+02  0.22038348011E+03  0.22723376044E+03  0.47000000000E+01 0. -1.
          5    1    5    5  503    0  0.74525287694E+02  0.17525680391E+02  0.23938648211E+03  0.25137451302E+03  0.47000000000E+01 0.  1.
         -5    1    5    5    0  503 -0.33511264949E+02 -0.39224037579E+02  0.11527547376E+03  0.12638059524E+03  0.47000000000E+01 0.  1.
<mgrwt>
<rscale>  0 0.27480640E+03</rscale>
<asrwt>0</asrwt>
<pdfrwt beam="1">  1        2 0.14226617E+00 0.27480640E+03</pdfrwt>
<pdfrwt beam="2">  1       -2 0.31409811E-02 0.27480640E+03</pdfrwt>
<totfact> 0.11545811E+04</totfact>
</mgrwt>
</event>
<event>
 9    1  0.2065703E-002  0.2750229E+03  0.7818608E-02  0.1098439E+00
         -1   -1    0    0    0  501 -0.00000000000E+00  0.00000000000E+00  0.10279545246E+03  0.10279545246E+03  0.00000000000E+00 0. -1.
          1   -1    0    0  501    0  0.00000000000E+00 -0.00000000000E+00 -0.18395169714E+03  0.18395169714E+03  0.00000000000E+00 0. -1.
         36    2    1    2    0    0  0.10658141036E-13  0.71054273576E-14 -0.81156244681E+02  0.28674714960E+03  0.27502289315E+03 0.  0.
         25    2    3    3    0    0  0.10062316416E+02 -0.54794251213E+02 -0.37754158133E+02  0.14354607392E+03  0.12679289690E+03 0.  0.
         25    2    3    3    0    0 -0.10062316416E+02  0.54794251213E+02 -0.43402086549E+02  0.14320107569E+03  0.12457586758E+03 0.  0.
          5    1    4    4  502    0  0.39703773572E+02 -0.48564394352E+02  0.29618420727E+02  0.69528633533E+02  0.47000000000E+01 0.  1.
         -5    1    4    4    0  502 -0.29641457157E+02 -0.62298568611E+01 -0.67372578859E+02  0.74017440384E+02  0.47000000000E+01 0.  1.
          5    1    5    5  503    0  0.56974077921E+02  0.21588430230E+02 -0.14054970467E+02  0.62703573021E+02  0.47000000000E+01 0.  1.
         -5    1    5    5    0  503 -0.67036394337E+02  0.33205820982E+02 -0.29347116082E+02  0.80497502664E+02  0.47000000000E+01 0.  1.
<mgrwt>
<rscale>  0 0.27502289E+03</rscale>
<asrwt>0</asrwt>
<pdfrwt beam="1">  1        1 0.28300261E-01 0.27502289E+03</pdfrwt>
<pdfrwt beam="2">  1       -1 0.15814685E-01 0.27502289E+03</pdfrwt>
<totfact> 0.47855730E+03</totfact>
</mgrwt>
</event>
<event>
 9    1  0.2065703E-002  0.2743790E+03  0.7818608E-02  0.1098799E+00
         -1   -1    0    0    0  501 -0.00000000000E+00  0.00000000000E+00  0.88322572372E+02  0.88322572372E+02  0.00000000000E+00 0.  1.
          1   -1    0    0  501    0  0.00000000000E+00 -0.00000000000E+00 -0.21309334589E+03  0.21309334589E+03  0.00000000000E+00 0.  1.
         36    2    1    2    0    0  0.00000000000E+00  0.00000000000E+00 -0.12477077352E+03  0.30141591826E+03  0.27437895302E+03 0.  0.
         25    2    3    3    0    0 -0.50015958485E+01  0.55980457118E+02 -0.34683490587E+02  0.14336970986E+03  0.12725211843E+03 0.  0.
         25    2    3    3    0    0  0.50015958485E+01 -0.55980457118E+02 -0.90087282932E+02  0.15804620841E+03  0.11706433234E+03 0.  0.
          5    1    4    4  502    0 -0.53500813512E+02 -0.70509702483E+01  0.49367860188E+01  0.54392233674E+02  0.47000000000E+01 0. -1.
         -5    1    4    4    0  502  0.48499217663E+02  0.63031427366E+02 -0.39620276606E+02  0.88977476184E+02  0.47000000000E+01 0. -1.
          5    1    5    5  503    0 -0.50274380124E+02 -0.42189937030E+02 -0.73228987252E+02  0.98448355280E+02  0.47000000000E+01 0.  1.
         -5    1    5    5    0  503  0.55275975972E+02 -0.13790520088E+02 -0.16858295680E+02  0.59597853126E+02  0.47000000000E+01 0.  1.
<mgrwt>
<rscale>  0 0.27437895E+03</rscale>
<asrwt>0</asrwt>
<pdfrwt beam="1">  1        1 0.32783592E-01 0.27437895E+03</pdfrwt>
<pdfrwt beam="2">  1       -1 0.13588088E-01 0.27437895E+03</pdfrwt>
<totfact> 0.50552714E+03</totfact>
</mgrwt>
</event>
<event>
 9    1  0.2065703E-002  0.2748464E+03  0.7818608E-02  0.1098537E+00
         -2   -1    0    0    0  501 -0.00000000000E+00  0.00000000000E+00  0.11892346775E+02  0.11892346775E+02  0.00000000000E+00 0.  1.
          2   -1    0    0  501    0  0.00000000000E+00 -0.00000000000E+00 -0.15880077798E+04  0.15880077798E+04  0.00000000000E+00 0.  1.
         36    2    1    2    0    0  0.00000000000E+00 -0.14210854715E-13 -0.15761154331E+04  0.15999001266E+04  0.27484642402E+03 0.  0.
         25    2    3    3    0    0  0.26968950153E+02  0.52286887867E+02 -0.91188012975E+03  0.92167994780E+03  0.12044630436E+03 0.  0.
         25    2    3    3    0    0 -0.26968950153E+02 -0.52286887867E+02 -0.66423530332E+03  0.67822017882E+03  0.12374501955E+03 0.  0.
          5    1    4    4  502    0 -0.84271904530E+01  0.80499210144E+02 -0.71638121298E+03  0.72095441790E+03  0.47000000000E+01 0. -1.
         -5    1    4    4    0  502  0.35396140606E+02 -0.28212322277E+02 -0.19549891677E+03  0.20072552990E+03  0.47000000000E+01 0. -1.
          5    1    5    5  503    0  0.66616317861E+01  0.38639581371E+02 -0.21845608395E+03  0.22199672340E+03  0.47000000000E+01 0. -1.
         -5    1    5    5    0  503 -0.33630581939E+02 -0.90926469237E+02 -0.44577921937E+03  0.45622345542E+03  0.47000000000E+01 0. -1.
<mgrwt>
<rscale>  0 0.27484642E+03</rscale>
<asrwt>0</asrwt>
<pdfrwt beam="1">  1        2 0.24430907E+00 0.27484642E+03</pdfrwt>
<pdfrwt beam="2">  1       -2 0.18295904E-02 0.27484642E+03</pdfrwt>
<totfact> 0.10792894E+04</totfact>
</mgrwt>
</event>
<event>
 9    1  0.2065703E-002  0.2752225E+03  0.7818608E-02  0.1098327E+00
          2   -1    0    0  501    0  0.00000000000E+00  0.00000000000E+00  0.93155123518E+03  0.93155123518E+03  0.00000000000E+00 0. -1.
         -2   -1    0    0    0  501 -0.00000000000E+00 -0.00000000000E+00 -0.20328305321E+02  0.20328305321E+02  0.00000000000E+00 0. -1.
         36    2    1    2    0    0 -0.71054273576E-14  0.00000000000E+00  0.91122292986E+03  0.95187954050E+03  0.27522251311E+03 0.  0.
         25    2    3    3    0    0 -0.42460023118E+02 -0.96375042717E+01  0.35100790696E+03  0.37509908798E+03  0.12488810994E+03 0.  0.
         25    2    3    3    0    0  0.42460023118E+02  0.96375042717E+01  0.56021502290E+03  0.57678045252E+03  0.13015023425E+03 0.  0.
          5    1    4    4  502    0 -0.35620714464E+02  0.36143729303E+02  0.30651193237E+03  0.31071990466E+03  0.47000000000E+01 0.  1.
         -5    1    4    4    0  502 -0.68393086539E+01 -0.45781233575E+02  0.44495974590E+02  0.64379183322E+02  0.47000000000E+01 0.  1.
          5    1    5    5  503    0 -0.97444489357E+01  0.56140805419E+02  0.36326589302E+03  0.36773760122E+03  0.47000000000E+01 0. -1.
         -5    1    5    5    0  503  0.52204472054E+02 -0.46503301147E+02  0.19694912988E+03  0.20904285130E+03  0.47000000000E+01 0. -1.
<mgrwt>
<rscale>  0 0.27522251E+03</rscale>
<asrwt>0</asrwt>
<pdfrwt beam="1">  1        2 0.14331554E+00 0.27522251E+03</pdfrwt>
<pdfrwt beam="2">  1       -2 0.31274323E-02 0.27522251E+03</pdfrwt>
<totfact> 0.11505592E+04</totfact>
</mgrwt>
</event>
<event>
 9    1  0.2065703E-002  0.2740749E+03  0.7818608E-02  0.1098970E+00
          1   -1    0    0  501    0  0.00000000000E+00  0.00000000000E+00  0.35006841704E+03  0.35006841704E+03  0.00000000000E+00 0. -1.
         -1   -1    0    0    0  501 -0.00000000000E+00 -0.00000000000E+00 -0.53644558520E+02  0.53644558520E+02  0.00000000000E+00 0. -1.
         36    2    1    2    0    0  0.00000000000E+00  0.00000000000E+00  0.29642385852E+03  0.40371297556E+03  0.27407492175E+03 0.  0.
         25    2    3    3    0    0  0.25680076834E+02 -0.35724236091E+02  0.84599923237E+02  0.15764599469E+03  0.12553654942E+03 0.  0.
         25    2    3    3    0    0 -0.25680076834E+02  0.35724236091E+02  0.21182393528E+03  0.24606698087E+03  0.11723434704E+03 0.  0.
          5    1    4    4  502    0  0.60811790068E+02  0.21331119099E+02  0.52225059715E+02  0.83082111887E+02  0.47000000000E+01 0. -1.
         -5    1    4    4    0  502 -0.35131713234E+02 -0.57055355190E+02  0.32374863522E+02  0.74563882803E+02  0.47000000000E+01 0. -1.
          5    1    5    5  503    0  0.15482956277E+02 -0.21601640039E+02  0.49552071303E+01  0.27440788348E+02  0.47000000000E+01 0.  1.
         -5    1    5    5    0  503 -0.41163033111E+02  0.57325876130E+02  0.20686872815E+03  0.21862619252E+03  0.47000000000E+01 0.  1.
<mgrwt>
<rscale>  0 0.27407492E+03</rscale>
<asrwt>0</asrwt>
<pdfrwt beam="1">  1        1 0.53856678E-01 0.27407492E+03</pdfrwt>
<pdfrwt beam="2">  1       -1 0.82530092E-02 0.27407492E+03</pdfrwt>
<totfact> 0.58671787E+03</totfact>
</mgrwt>
</event>
<event>
 9    1  0.2065703E-002  0.2748898E+03  0.7818608E-02  0.1098513E+00
          1   -1    0    0  501    0  0.00000000000E+00  0.00000000000E+00  0.34916350550E+02  0.34916350550E+02  0.00000000000E+00 0. -1.
         -1   -1    0    0    0  501 -0.00000000000E+00 -0.00000000000E+00 -0.54103883809E+03  0.54103883809E+03  0.00000000000E+00 0. -1.
         36    2    1    2    0    0 -0.10658141036E-13 -0.71054273576E-14 -0.50612248754E+03  0.57595518864E+03  0.27488980870E+03 0.  0.
         25    2    3    3    0    0 -0.31898018372E+02 -0.58070096962E+02 -0.13636520461E+03  0.18004972996E+03  0.97122687839E+02 0.  0.
         25    2    3    3    0    0  0.31898018372E+02  0.58070096962E+02 -0.36975728293E+03  0.39590545868E+03  0.12502425443E+03 0.  0.
          5    1    4    4  502    0 -0.48807648349E+02 -0.13968350316E+02 -0.11907867265E+03  0.12953424887E+03  0.47000000000E+01 0.  1.
         -5    1    4    4    0  502  0.16909629977E+02 -0.44101746646E+02 -0.17286531956E+02  0.50515481095E+02  0.47000000000E+01 0.  1.
          5    1    5    5  503    0 -0.47922912664E+02  0.20429058032E+02 -0.11755279661E+03  0.12866507670E+03  0.47000000000E+01 0. -1.
         -5    1    5    5    0  503  0.79820931035E+02  0.37641038930E+02 -0.25220448631E+03  0.26724038198E+03  0.47000000000E+01 0. -1.
<mgrwt>
<rscale>  0 0.27488981E+03</rscale>
<asrwt>0</asrwt>
<pdfrwt beam="1">  1        1 0.53717464E-02 0.27488981E+03</pdfrwt>
<pdfrwt beam="2">  1       -1 0.83236742E-01 0.27488981E+03</pdfrwt>
<totfact> 0.22574412E+03</totfact>
</mgrwt>
</event>
<event>
 9    1  0.2065703E-002  0.2751541E+03  0.7818608E-02  0.1098366E+00
         -1   -1    0    0    0  501 -0.00000000000E+00  0.00000000000E+00  0.97860500808E+01  0.97860500808E+01  0.00000000000E+00 0.  1.
          1   -1    0    0  501    0  0.00000000000E+00 -0.00000000000E+00 -0.19341244057E+04  0.19341244057E+04  0.00000000000E+00 0.  1.
         36    2    1    2    0    0 -0.35527136788E-14  0.00000000000E+00 -0.19243383556E+04  0.19439104558E+04  0.27515405355E+03 0.  0.
         25    2    3    3    0    0 -0.30597597641E+02  0.38802430555E+02 -0.72530327549E+03  0.73734436995E+03  0.12316670354E+03 0.  0.
         25    2    3    3    0    0  0.30597597641E+02 -0.38802430555E+02 -0.11990350801E+04  0.12065660858E+04  0.12519885983E+03 0.  0.
          5    1    4    4  502    0 -0.41311612790E+02  0.90151020686E+00 -0.74406677781E+02  0.85240282557E+02  0.47000000000E+01 0.  1.
         -5    1    4    4    0  502  0.10714015149E+02  0.37900920348E+02 -0.65089659771E+03  0.65210408739E+03  0.47000000000E+01 0.  1.
          5    1    5    5  503    0  0.26893847531E+00 -0.42144414093E+02 -0.11316655103E+04  0.11324597746E+04  0.47000000000E+01 0. -1.
         -5    1    5    5    0  503  0.30328659166E+02  0.33419835380E+01 -0.67369569879E+02  0.74106311246E+02  0.47000000000E+01 0. -1.
<mgrwt>
<rscale>  0 0.27515405E+03</rscale>
<asrwt>0</asrwt>
<pdfrwt beam="1">  1        1 0.29755741E+00 0.27515405E+03</pdfrwt>
<pdfrwt beam="2">  1       -1 0.15055471E-02 0.27515405E+03</pdfrwt>
<totfact> 0.38649943E+03</totfact>
</mgrwt>
</event>
<event>
 9    1  0.2065703E-002  0.2753375E+03  0.7818608E-02  0.1098263E+00
         -2   -1    0    0    0  501 -0.00000000000E+00  0.00000000000E+00  0.11848835819E+02  0.11848835819E+02  0.00000000000E+00 0.  1.
          2   -1    0    0  501    0  0.00000000000E+00 -0.00000000000E+00 -0.15995393025E+04  0.15995393025E+04  0.00000000000E+00 0.  1.
         36    2    1    2    0    0  0.71054273576E-14  0.00000000000E+00 -0.15876904667E+04  0.16113881384E+04  0.27533745537E+03 0.  0.
         25    2    3    3    0    0  0.46701969788E+02  0.23967285355E+02 -0.60545280658E+03  0.62028323192E+03  0.12418809143E+03 0.  0.
         25    2    3    3    0    0 -0.46701969788E+02 -0.23967285355E+02 -0.98223766014E+03  0.99110490644E+03  0.12141914933E+03 0.  0.
          5    1    4    4  502    0  0.35534870568E+02 -0.13307931130E+02 -0.47597759925E+02  0.61052967226E+02  0.47000000000E+01 0.  1.
         -5    1    4    4    0  502  0.11167099221E+02  0.37275216485E+02 -0.55785504666E+03  0.55923026469E+03  0.47000000000E+01 0.  1.
          5    1    5    5  503    0  0.27948573792E+02 -0.45923243207E+02 -0.36627475333E+03  0.37022878328E+03  0.47000000000E+01 0. -1.
         -5    1    5    5    0  503 -0.74650543580E+02  0.21955957852E+02 -0.61596290681E+03  0.62087612316E+03  0.47000000000E+01 0. -1.
<mgrwt>
<rscale>  0 0.27533746E+03</rscale>
<asrwt>0</asrwt>
<pdfrwt beam="1">  1        2 0.24608287E+00 0.27533746E+03</pdfrwt>
<pdfrwt beam="2">  1       -2 0.18228986E-02 0.27533746E+03</pdfrwt>
<totfact> 0.10699794E+04</totfact>
</mgrwt>
</event>
<event>
 9    1  0.2065703E-002  0.2750249E+03  0.7818608E-02  0.1098438E+00
          2   -1    0    0  501    0  0.00000000000E+00  0.00000000000E+00  0.11420637301E+04  0.11420637301E+04  0.00000000000E+00 0. -1.
         -2   -1    0    0    0  501 -0.00000000000E+00 -0.00000000000E+00 -0.16557461200E+02  0.16557461200E+02  0.00000000000E+00 0. -1.
         36    2    1    2    0    0  0.71054273576E-14 -0.71054273576E-14  0.11255062689E+04  0.11586211913E+04  0.27502491450E+03 0.  0.
         25    2    3    3    0    0  0.33353144984E+02 -0.51264216193E+02  0.57982984119E+03  0.59552589266E+03  0.12127651033E+03 0.  0.
         25    2    3    3    0    0 -0.33353144984E+02  0.51264216193E+02  0.54567642768E+03  0.56309529861E+03  0.12479222509E+03 0.  0.
          5    1    4    4  502    0  0.23415712952E+02  0.38397517044E+02  0.17601594694E+03  0.18173158367E+03  0.47000000000E+01 0. -1.
         -5    1    4    4    0  502  0.99374320319E+01 -0.89661733237E+02  0.40381389425E+03  0.41379430899E+03  0.47000000000E+01 0. -1.
          5    1    5    5  503    0  0.25003216928E+02  0.17354832176E+02  0.29979384255E+02  0.42979117452E+02  0.47000000000E+01 0.  1.
         -5    1    5    5    0  503 -0.58356361912E+02  0.33909384017E+02  0.51569704343E+03  0.52011618116E+03  0.47000000000E+01 0.  1.
<mgrwt>
<rscale>  0 0.27502491E+03</rscale>
<asrwt>0</asrwt>
<pdfrwt beam="1">  1        2 0.17570205E+00 0.27502491E+03</pdfrwt>
<pdfrwt beam="2">  1       -2 0.25473026E-02 0.27502491E+03</pdfrwt>
<totfact> 0.11645104E+04</totfact>
</mgrwt>
</event>
<event>
 9    1  0.2065703E-002  0.2745196E+03  0.7818608E-02  0.1098720E+00
          1   -1    0    0  501    0  0.00000000000E+00  0.00000000000E+00  0.12060449711E+04  0.12060449711E+04  0.00000000000E+00 0.  1.
         -1   -1    0    0    0  501 -0.00000000000E+00 -0.00000000000E+00 -0.15621513154E+02  0.15621513154E+02  0.00000000000E+00 0.  1.
         36    2    1    2    0    0  0.00000000000E+00 -0.71054273576E-14  0.11904234580E+04  0.12216664843E+04  0.27451956127E+03 0.  0.
         25    2    3    3    0    0 -0.20453432878E+02 -0.19604887764E+02  0.82669263608E+03  0.83666250290E+03  0.12562139417E+03 0.  0.
         25    2    3    3    0    0  0.20453432878E+02  0.19604887764E+02  0.36373082189E+03  0.38500398137E+03  0.12298479719E+03 0.  0.
          5    1    4    4  502    0 -0.51522683461E+02  0.13744007167E+02  0.69811486731E+03  0.70016422545E+03  0.47000000000E+01 0.  1.
         -5    1    4    4    0  502  0.31069250583E+02 -0.33348894931E+02  0.12857776876E+03  0.13649827744E+03  0.47000000000E+01 0.  1.
          5    1    5    5  503    0 -0.47826112097E+02  0.26782209385E+02  0.12541309486E+03  0.13694947280E+03  0.47000000000E+01 0.  1.
         -5    1    5    5    0  503  0.68279544974E+02 -0.71773216206E+01  0.23831772703E+03  0.24805450857E+03  0.47000000000E+01 0.  1.
<mgrwt>
<rscale>  0 0.27451956E+03</rscale>
<asrwt>0</asrwt>
<pdfrwt beam="1">  1        1 0.18554531E+00 0.27451956E+03</pdfrwt>
<pdfrwt beam="2">  1       -1 0.24033107E-02 0.27451956E+03</pdfrwt>
<totfact> 0.59336963E+03</totfact>
</mgrwt>
</event>
<event>
 9    1  0.2065703E-002  0.2755506E+03  0.7818608E-02  0.1098144E+00
          2   -1    0    0  501    0  0.00000000000E+00  0.00000000000E+00  0.32270472697E+02  0.32270472697E+02  0.00000000000E+00 0. -1.
         -2   -1    0    0    0  501 -0.00000000000E+00 -0.00000000000E+00 -0.58821657374E+03  0.58821657374E+03  0.00000000000E+00 0. -1.
         36    2    1    2    0    0  0.00000000000E+00  0.00000000000E+00 -0.55594610105E+03  0.62048704644E+03  0.27555055349E+03 0.  0.
         25    2    3    3    0    0 -0.44956550192E+01  0.48397803740E+02 -0.19647039728E+03  0.23784928704E+03  0.12493641589E+03 0.  0.
         25    2    3    3    0    0  0.44956550192E+01 -0.48397803740E+02 -0.35947570376E+03  0.38263775940E+03  0.12176335657E+03 0.  0.
          5    1    4    4  502    0 -0.17437507290E+02  0.12732875853E+02 -0.19834575830E+03  0.19957285042E+03  0.47000000000E+01 0.  1.
         -5    1    4    4    0  502  0.12941852271E+02  0.35664927887E+02  0.18753610174E+01  0.38276436620E+02  0.47000000000E+01 0.  1.
          5    1    5    5  503    0  0.74019268534E+01 -0.74786085746E+02 -0.12012871940E+03  0.14177710099E+03  0.47000000000E+01 0.  1.
         -5    1    5    5    0  503 -0.29062718342E+01  0.26388282006E+02 -0.23934698436E+03  0.24086065841E+03  0.47000000000E+01 0.  1.
<mgrwt>
<rscale>  0 0.27555055E+03</rscale>
<asrwt>0</asrwt>
<pdfrwt beam="1">  1        2 0.49646881E-02 0.27555055E+03</pdfrwt>
<pdfrwt beam="2">  1       -2 0.90494859E-01 0.27555055E+03</pdfrwt>
<totfact> 0.17113370E+03</totfact>
</mgrwt>
</event>
<event>
 9    1  0.2065703E-002  0.2742071E+03  0.7818608E-02  0.1098896E+00
          2   -1    0    0  501    0  0.00000000000E+00  0.00000000000E+00  0.11343133391E+04  0.11343133391E+04  0.00000000000E+00 0. -1.
         -2   -1    0    0    0  501 -0.00000000000E+00 -0.00000000000E+00 -0.16571597537E+02  0.16571597537E+02  0.00000000000E+00 0. -1.
         36    2    1    2    0    0  0.00000000000E+00  0.35527136788E-14  0.11177417415E+04  0.11508849366E+04  0.27420710521E+03 0.  0.
         25    2    3    3    0    0  0.41175640758E+02  0.26961481970E+02  0.44355303289E+03  0.46341404328E+03  0.12486363612E+03 0.  0.
         25    2    3    3    0    0 -0.41175640758E+02 -0.26961481970E+02  0.67418870865E+03  0.68747089333E+03  0.12515374307E+03 0.  0.
          5    1    4    4  502    0  0.37751289218E+02  0.40553499083E+02  0.69212917280E+02  0.88782115563E+02  0.47000000000E+01 0. -1.
         -5    1    4    4    0  502  0.34243515402E+01 -0.13592017113E+02  0.37434011561E+03  0.37463192772E+03  0.47000000000E+01 0. -1.
          5    1    5    5  503    0 -0.33139119159E+02 -0.44305510616E+02  0.66198583851E+03  0.66431055981E+03  0.47000000000E+01 0.  1.
         -5    1    5    5    0  503 -0.80365215990E+01  0.17344028646E+02  0.12202870140E+02  0.23160333520E+02  0.47000000000E+01 0.  1.
<mgrwt>
<rscale>  0 0.27420711E+03</rscale>
<asrwt>0</asrwt>
<pdfrwt beam="1">  1        2 0.17450968E+00 0.27420711E+03</pdfrwt>
<pdfrwt beam="2">  1       -2 0.25494774E-02 0.27420711E+03</pdfrwt>
<totfact> 0.11750264E+04</totfact>
</mgrwt>
</event>
<event>
 9    1  0.2065703E-002  0.2749436E+03  0.7818608E-02  0.1098483E+00
         -1   -1    0    0    0  501 -0.00000000000E+00  0.00000000000E+00  0.25226759863E+02  0.25226759863E+02  0.00000000000E+00 0.  1.
          1   -1    0    0  501    0  0.00000000000E+00 -0.00000000000E+00 -0.74914475250E+03  0.74914475250E+03  0.00000000000E+00 0.  1.
         36    2    1    2    0    0 -0.35527136788E-14  0.00000000000E+00 -0.72391799264E+03  0.77437151237E+03  0.27494359257E+03 0.  0.
         25    2    3    3    0    0 -0.19795647146E+02 -0.72353081955E+02 -0.33148420260E+03  0.35761344329E+03  0.11125988554E+03 0.  0.
         25    2    3    3    0    0  0.19795647146E+02  0.72353081955E+02 -0.39243379004E+03  0.41675806908E+03  0.11855873003E+03 0.  0.
          5    1    4    4  502    0  0.29805916140E+02 -0.20043644383E+02 -0.23119018998E+03  0.23401097039E+03  0.47000000000E+01 0. -1.
         -5    1    4    4    0  502 -0.49601563286E+02 -0.52309437571E+02 -0.10029401262E+03  0.12360247290E+03  0.47000000000E+01 0. -1.
          5    1    5    5  503    0  0.44277166088E+02  0.95774130384E+02 -0.31047125654E+03  0.32794457249E+03  0.47000000000E+01 0. -1.
         -5    1    5    5    0  503 -0.24481518942E+02 -0.23421048429E+02 -0.81962533493E+02  0.88813496586E+02  0.47000000000E+01 0. -1.
<mgrwt>
<rscale>  0 0.27494359E+03</rscale>
<asrwt>0</asrwt>
<pdfrwt beam="1">  1        1 0.11525303E+00 0.27494359E+03</pdfrwt>
<pdfrwt beam="2">  1       -1 0.38810403E-02 0.27494359E+03</pdfrwt>
<totfact> 0.65393402E+03</totfact>
</mgrwt>
</event>
<event>
 9    1  0.2065703E-002  0.2752734E+03  0.7818608E-02  0.1098299E+00
         -2   -1    0    0    0  501 -0.00000000000E+00  0.00000000000E+00  0.98458810482E+01  0.98458810482E+01  0.00000000000E+00 0. -1.
          2   -1    0    0  501    0  0.00000000000E+00 -0.00000000000E+00 -0.19240386471E+04  0.19240386471E+04  0.00000000000E+00 0. -1.
         36    2    1    2    0    0 -0.71054273576E-14  0.71054273576E-14 -0.19141927660E+04  0.19338845281E+04  0.27527335978E+03 0.  0.
         25    2    3    3    0    0 -0.22968756973E+02  0.40209562815E+02 -0.10184523544E+04  0.10278703274E+04  0.13087337005E+03 0.  0.
         25    2    3    3    0    0  0.22968756973E+02 -0.40209562815E+02 -0.89574041160E+03  0.90601420071E+03  0.12793152148E+03 0.  0.
          5    1    4    4  502    0  0.51971557685E+02  0.14617201118E+02 -0.55890824472E+03  0.56152935933E+03  0.47000000000E+01 0. -1.
         -5    1    4    4    0  502 -0.74940314658E+02  0.25592361696E+02 -0.45954410971E+03  0.46634096808E+03  0.47000000000E+01 0. -1.
          5    1    5    5  503    0 -0.51117528035E+02 -0.24798568637E+02 -0.48456439041E+03  0.48790645531E+03  0.47000000000E+01 0.  1.
         -5    1    5    5    0  503  0.74086285008E+02 -0.15410994177E+02 -0.41117602119E+03  0.41810774541E+03  0.47000000000E+01 0.  1.
<mgrwt>
<rscale>  0 0.27527336E+03</rscale>
<asrwt>0</asrwt>
<pdfrwt beam="1">  1        2 0.29600584E+00 0.27527336E+03</pdfrwt>
<pdfrwt beam="2">  1       -2 0.15147514E-02 0.27527336E+03</pdfrwt>
<totfact> 0.94731843E+03</totfact>
</mgrwt>
</event>
<event>
 9    1  0.2065703E-002  0.2742548E+03  0.7818608E-02  0.1098869E+00
         -2   -1    0    0    0  501 -0.00000000000E+00  0.00000000000E+00  0.20459610773E+02  0.20459610773E+02  0.00000000000E+00 0. -1.
          2   -1    0    0  501    0  0.00000000000E+00 -0.00000000000E+00 -0.91907563748E+03  0.91907563748E+03  0.00000000000E+00 0. -1.
         36    2    1    2    0    0  0.71054273576E-14 -0.71054273576E-14 -0.89861602671E+03  0.93953524826E+03  0.27425484363E+03 0.  0.
         25    2    3    3    0    0 -0.32014460563E+02  0.32643017838E+02 -0.55799844025E+03  0.57222807009E+03  0.11828868322E+03 0.  0.
         25    2    3    3    0    0  0.32014460563E+02 -0.32643017838E+02 -0.34061758646E+03  0.36730717816E+03  0.12962920438E+03 0.  0.
          5    1    4    4  502    0 -0.46861506061E+02  0.70744284001E+02 -0.40245481764E+03  0.41133043251E+03  0.47000000000E+01 0. -1.
         -5    1    4    4    0  502  0.14847045498E+02 -0.38101266162E+02 -0.15554362262E+03  0.16089763758E+03  0.47000000000E+01 0. -1.
          5    1    5    5  503    0 -0.34268643032E+02 -0.78004506454E+01 -0.24861009678E+03  0.25112597864E+03  0.47000000000E+01 0. -1.
         -5    1    5    5    0  503  0.66283103594E+02 -0.24842567193E+02 -0.92007489675E+02  0.11618119953E+03  0.47000000000E+01 0. -1.
<mgrwt>
<rscale>  0 0.27425484E+03</rscale>
<asrwt>0</asrwt>
<pdfrwt beam="1">  1        2 0.14139623E+00 0.27425484E+03</pdfrwt>
<pdfrwt beam="2">  1       -2 0.31476329E-02 0.27425484E+03</pdfrwt>
<totfact> 0.11604663E+04</totfact>
</mgrwt>
</event>
<event>
 9    1  0.2065703E-002  0.2743562E+03  0.7818608E-02  0.1098812E+00
          2   -1    0    0  501    0  0.00000000000E+00  0.00000000000E+00  0.91489068083E+03  0.91489068083E+03  0.00000000000E+00 0. -1.
         -2   -1    0    0    0  501 -0.00000000000E+00 -0.00000000000E+00 -0.20568397653E+02  0.20568397653E+02  0.00000000000E+00 0. -1.
         36    2    1    2    0    0 -0.35527136788E-14 -0.35527136788E-14  0.89432228318E+03  0.93545907848E+03  0.27435623071E+03 0.  0.
         25    2    3    3    0    0  0.57693499943E+00 -0.19212469583E+02  0.63465310184E+03  0.64708861621E+03  0.12477846651E+03 0.  0.
         25    2    3    3    0    0 -0.57693499943E+00  0.19212469583E+02  0.25966918134E+03  0.28837046228E+03  0.12393541841E+03 0.  0.
          5    1    4    4  502    0  0.41057960436E+02 -0.55098391913E+02  0.28256748904E+03  0.29084027364E+03  0.47000000000E+01 0. -1.
         -5    1    4    4    0  502 -0.40481025437E+02  0.35885922329E+02  0.35208561280E+03  0.35624834257E+03  0.47000000000E+01 0. -1.
          5    1    5    5  503    0  0.95222778285E+01  0.40895748472E+02  0.26057314112E+03  0.26397649117E+03  0.47000000000E+01 0.  1.
         -5    1    5    5    0  503 -0.10099212828E+02 -0.21683278888E+02 -0.90395978219E+00  0.24393971107E+02  0.47000000000E+01 0.  1.
<mgrwt>
<rscale>  0 0.27435623E+03</rscale>
<asrwt>0</asrwt>
<pdfrwt beam="1">  1        2 0.14075238E+00 0.27435623E+03</pdfrwt>
<pdfrwt beam="2">  1       -2 0.31643696E-02 0.27435623E+03</pdfrwt>
<totfact> 0.11584599E+04</totfact>
</mgrwt>
</event>
<event>
 9    1  0.2065703E-002  0.2754084E+03  0.7818608E-02  0.1098224E+00
          2   -1    0    0  501    0  0.00000000000E+00  0.00000000000E+00  0.66969500376E+03  0.66969500376E+03  0.00000000000E+00 0. -1.
         -2   -1    0    0    0  501 -0.00000000000E+00 -0.00000000000E+00 -0.28315058309E+02  0.28315058309E+02  0.00000000000E+00 0. -1.
         36    2    1    2    0    0  0.00000000000E+00  0.71054273576E-14  0.64137994545E+03  0.69801006207E+03  0.27540844636E+03 0.  0.
         25    2    3    3    0    0  0.22399578474E+02 -0.57586855649E+02  0.22186029253E+03  0.26213086474E+03  0.12519031028E+03 0.  0.
         25    2    3    3    0    0 -0.22399578474E+02  0.57586855649E+02  0.41951965292E+03  0.43587919733E+03  0.10087590605E+03 0.  0.
          5    1    4    4  502    0 -0.27425124545E+02  0.25493614790E+02  0.34389089567E+02  0.51056452409E+02  0.47000000000E+01 0.  1.
         -5    1    4    4    0  502  0.49824703019E+02 -0.83080470438E+02  0.18747120296E+03  0.21107441233E+03  0.47000000000E+01 0.  1.
          5    1    5    5  503    0 -0.37638526466E+02 -0.52390593325E+01  0.27286985521E+03  0.27554338007E+03  0.47000000000E+01 0.  1.
         -5    1    5    5    0  503  0.15238947992E+02  0.62825914981E+02  0.14664979771E+03  0.16033581726E+03  0.47000000000E+01 0.  1.
<mgrwt>
<rscale>  0 0.27540845E+03</rscale>
<asrwt>0</asrwt>
<pdfrwt beam="1">  1        2 0.10302999E+00 0.27540845E+03</pdfrwt>
<pdfrwt beam="2">  1       -2 0.43561633E-02 0.27540845E+03</pdfrwt>
<totfact> 0.10646843E+04</totfact>
</mgrwt>
</event>
<event>
 9    1  0.2065703E-002  0.2745708E+03  0.7818608E-02  0.1098692E+00
          1   -1    0    0  501    0  0.00000000000E+00  0.00000000000E+00  0.38403225219E+03  0.38403225219E+03  0.00000000000E+00 0. -1.
         -1   -1    0    0    0  501 -0.00000000000E+00 -0.00000000000E+00 -0.49077349213E+02  0.49077349213E+02  0.00000000000E+00 0. -1.
         36    2    1    2    0    0  0.71054273576E-14  0.00000000000E+00  0.33495490298E+03  0.43310960140E+03  0.27457082838E+03 0.  0.
         25    2    3    3    0    0 -0.32539588291E+02  0.32763956466E+02  0.20777012729E+03  0.24734646866E+03  0.12601407904E+03 0.  0.
         25    2    3    3    0    0  0.32539588291E+02 -0.32763956466E+02  0.12718477569E+03  0.18576313274E+03  0.12727793474E+03 0.  0.
          5    1    4    4  502    0 -0.60526290004E+02  0.13957587507E+02  0.35403981731E+02  0.71650386971E+02  0.47000000000E+01 0.  1.
         -5    1    4    4    0  502  0.27986701713E+02  0.18806368959E+02  0.17236614556E+03  0.17569608169E+03  0.47000000000E+01 0.  1.
          5    1    5    5  503    0 -0.36120604744E+02 -0.31321579486E+02  0.88277050463E+01  0.48844219770E+02  0.47000000000E+01 0. -1.
         -5    1    5    5    0  503  0.68660193035E+02 -0.14423769800E+01  0.11835707064E+03  0.13691891297E+03  0.47000000000E+01 0. -1.
<mgrwt>
<rscale>  0 0.27457083E+03</rscale>
<asrwt>0</asrwt>
<pdfrwt beam="1">  1        1 0.59081883E-01 0.27457083E+03</pdfrwt>
<pdfrwt beam="2">  1       -1 0.75503617E-02 0.27457083E+03</pdfrwt>
<totfact> 0.59740349E+03</totfact>
</mgrwt>
</event>
<event>
 9    1  0.2065703E-002  0.2734443E+03  0.7818608E-02  0.1099324E+00
          2   -1    0    0  501    0  0.00000000000E+00  0.00000000000E+00  0.65528602164E+03  0.65528602164E+03  0.00000000000E+00 0.  1.
         -2   -1    0    0    0  501 -0.00000000000E+00 -0.00000000000E+00 -0.28526392211E+02  0.28526392211E+02  0.00000000000E+00 0.  1.
         36    2    1    2    0    0  0.00000000000E+00  0.71054273576E-14  0.62675962943E+03  0.68381241386E+03  0.27344429827E+03 0.  0.
         25    2    3    3    0    0 -0.29461839695E+02  0.24120137823E+02  0.42607647092E+03  0.44506176449E+03  0.12283742953E+03 0.  0.
         25    2    3    3    0    0  0.29461839695E+02 -0.24120137823E+02  0.20068315852E+03  0.23875064937E+03  0.12360566902E+03 0.  0.
          5    1    4    4  502    0 -0.77056330972E+02  0.59025349272E+01  0.25697587941E+03  0.26838630863E+03  0.47000000000E+01 0. -1.
         -5    1    4    4    0  502  0.47594491277E+02  0.18217602896E+02  0.16910059150E+03  0.17667545586E+03  0.47000000000E+01 0. -1.
          5    1    5    5  503    0  0.20820854962E+02 -0.71889766008E+02  0.15375373981E+03  0.17106708907E+03  0.47000000000E+01 0.  1.
         -5    1    5    5    0  503  0.86409847328E+01  0.47769628185E+02  0.46929418709E+02  0.67683560296E+02  0.47000000000E+01 0.  1.
<mgrwt>
<rscale>  0 0.27344430E+03</rscale>
<asrwt>0</asrwt>
<pdfrwt beam="1">  1        2 0.10081322E+00 0.27344430E+03</pdfrwt>
<pdfrwt beam="2">  1       -2 0.43886762E-02 0.27344430E+03</pdfrwt>
<totfact> 0.10801867E+04</totfact>
</mgrwt>
</event>
<event>
 9    1  0.2065703E-002  0.2751831E+03  0.7818608E-02  0.1098349E+00
         -2   -1    0    0    0  501 -0.00000000000E+00  0.00000000000E+00  0.46339193090E+02  0.46339193090E+02  0.00000000000E+00 0. -1.
          2   -1    0    0  501    0  0.00000000000E+00 -0.00000000000E+00 -0.40854035204E+03  0.40854035204E+03  0.00000000000E+00 0. -1.
         36    2    1    2    0    0 -0.71054273576E-14  0.00000000000E+00 -0.36220115895E+03  0.45487954513E+03  0.27518306822E+03 0.  0.
         25    2    3    3    0    0 -0.32443017017E+02  0.20411599972E+02 -0.11022415253E+03  0.17079987686E+03  0.12471588258E+03 0.  0.
         25    2    3    3    0    0  0.32443017017E+02 -0.20411599972E+02 -0.25197700642E+03  0.28407966827E+03  0.12545781519E+03 0.  0.
          5    1    4    4  502    0  0.34225775830E+02  0.43189786706E+02 -0.26655414987E+02  0.61395134620E+02  0.47000000000E+01 0.  1.
         -5    1    4    4    0  502 -0.66668792847E+02 -0.22778186734E+02 -0.83568737542E+02  0.10940474224E+03  0.47000000000E+01 0.  1.
          5    1    5    5  503    0  0.37204104916E+02 -0.68859922994E+02 -0.12013503712E+03  0.14345853603E+03  0.47000000000E+01 0.  1.
         -5    1    5    5    0  503 -0.47610878991E+01  0.48448323022E+02 -0.13184196930E+03  0.14062113224E+03  0.47000000000E+01 0.  1.
<mgrwt>
<rscale>  0 0.27518307E+03</rscale>
<asrwt>0</asrwt>
<pdfrwt beam="1">  1        2 0.62852362E-01 0.27518307E+03</pdfrwt>
<pdfrwt beam="2">  1       -2 0.71291066E-02 0.27518307E+03</pdfrwt>
<totfact> 0.87758924E+03</totfact>
</mgrwt>
</event>
<event>
 9    1  0.2065703E-002  0.2749959E+03  0.7818608E-02  0.1098454E+00
          1   -1    0    0  501    0  0.00000000000E+00  0.00000000000E+00  0.31972960881E+03  0.31972960881E+03  0.00000000000E+00 0. -1.
         -1   -1    0    0    0  501 -0.00000000000E+00 -0.00000000000E+00 -0.59130242077E+02  0.59130242077E+02  0.00000000000E+00 0. -1.
         36    2    1    2    0    0  0.71054273576E-14  0.35527136788E-14  0.26059936673E+03  0.37885985089E+03  0.27499592119E+03 0.  0.
         25    2    3    3    0    0 -0.67141637485E+01 -0.15556407065E+02  0.58438883636E+02  0.13881506768E+03  0.12476953994E+03 0.  0.
         25    2    3    3    0    0  0.67141637485E+01  0.15556407065E+02  0.20216048310E+03  0.24004478321E+03  0.12831817963E+03 0.  0.
          5    1    4    4  502    0 -0.56925207374E+02  0.12795360575E+02  0.28824161172E+01  0.58605450339E+02  0.47000000000E+01 0. -1.
         -5    1    4    4    0  502  0.50211043625E+02 -0.28351767640E+02  0.55556467519E+02  0.80209617338E+02  0.47000000000E+01 0. -1.
          5    1    5    5  503    0 -0.49788903329E+02  0.34540119840E+02  0.14544293068E+03  0.15763150338E+03  0.47000000000E+01 0.  1.
         -5    1    5    5    0  503  0.56503067078E+02 -0.18983712775E+02  0.56717552415E+02  0.82413279827E+02  0.47000000000E+01 0.  1.
<mgrwt>
<rscale>  0 0.27499592E+03</rscale>
<asrwt>0</asrwt>
<pdfrwt beam="1">  1        1 0.49189170E-01 0.27499592E+03</pdfrwt>
<pdfrwt beam="2">  1       -1 0.90969605E-02 0.27499592E+03</pdfrwt>
<totfact> 0.56677795E+03</totfact>
</mgrwt>
</event>
<event>
 9    1  0.2065703E-002  0.2743485E+03  0.7818608E-02  0.1098816E+00
          1   -1    0    0  501    0  0.00000000000E+00  0.00000000000E+00  0.19157059492E+03  0.19157059492E+03  0.00000000000E+00 0.  1.
         -1   -1    0    0    0  501 -0.00000000000E+00 -0.00000000000E+00 -0.98223718500E+02  0.98223718500E+02  0.00000000000E+00 0.  1.
         36    2    1    2    0    0  0.35527136788E-14 -0.35527136788E-14  0.93346876418E+02  0.28979431342E+03  0.27434850966E+03 0.  0.
         25    2    3    3    0    0 -0.23752225242E+02 -0.20765162498E+02  0.20356707118E+02  0.14229846649E+03  0.13725559319E+03 0.  0.
         25    2    3    3    0    0  0.23752225242E+02  0.20765162498E+02  0.72990169301E+02  0.14749584693E+03  0.12422600320E+03 0.  0.
          5    1    4    4  502    0  0.24985319453E+02 -0.66392330669E+02 -0.36718735391E+01  0.71188344658E+02  0.47000000000E+01 0.  1.
         -5    1    4    4    0  502 -0.48737544695E+02  0.45627168171E+02  0.24028580657E+02  0.71110121829E+02  0.47000000000E+01 0.  1.
          5    1    5    5  503    0  0.19653234787E+02  0.18870656413E+02 -0.32007748081E+02  0.42295830152E+02  0.47000000000E+01 0. -1.
         -5    1    5    5    0  503  0.40989904547E+01  0.18945060855E+01  0.10499791738E+03  0.10520001678E+03  0.47000000000E+01 0. -1.
<mgrwt>
<rscale>  0 0.27434851E+03</rscale>
<asrwt>0</asrwt>
<pdfrwt beam="1">  1        1 0.29472399E-01 0.27434851E+03</pdfrwt>
<pdfrwt beam="2">  1       -1 0.15111341E-01 0.27434851E+03</pdfrwt>
<totfact> 0.48870814E+03</totfact>
</mgrwt>
</event>
<event>
 9    1  0.2065703E-002  0.2816792E+03  0.7818608E-02  0.1094775E+00
          2   -1    0    0  501    0  0.00000000000E+00  0.00000000000E+00  0.10151889337E+04  0.10151889337E+04  0.00000000000E+00 0. -1.
         -2   -1    0    0    0  501 -0.00000000000E+00 -0.00000000000E+00 -0.19539012212E+02  0.19539012212E+02  0.00000000000E+00 0. -1.
         36    2    1    2    0    0  0.00000000000E+00  0.35527136788E-14  0.99564992145E+03  0.10347279459E+04  0.28167917191E+03 0.  0.
         25    2    3    3    0    0  0.30019144711E+01 -0.31091538107E+02  0.30106138089E+03  0.32780971495E+03  0.12587914411E+03 0.  0.
         25    2    3    3    0    0 -0.30019144711E+01  0.31091538107E+02  0.69458854056E+03  0.70691823092E+03  0.12768887695E+03 0.  0.
          5    1    4    4  502    0 -0.42830351493E+01  0.38974735688E+01 -0.11210174304E+02  0.13464497697E+02  0.47000000000E+01 0.  1.
         -5    1    4    4    0  502  0.72849496204E+01 -0.34989011676E+02  0.31227155519E+03  0.31434521726E+03  0.47000000000E+01 0.  1.
          5    1    5    5  503    0 -0.15704369987E+02  0.68923482320E+02  0.23170963238E+03  0.24229840567E+03  0.47000000000E+01 0.  1.
         -5    1    5    5    0  503  0.12702455516E+02 -0.37831944213E+02  0.46287890818E+03  0.46461982525E+03  0.47000000000E+01 0.  1.
<mgrwt>
<rscale>  0 0.28167917E+03</rscale>
<asrwt>0</asrwt>
<pdfrwt beam="1">  1        2 0.15618287E+00 0.28167917E+03</pdfrwt>
<pdfrwt beam="2">  1       -2 0.30060027E-02 0.28167917E+03</pdfrwt>
<totfact> 0.10836663E+04</totfact>
</mgrwt>
</event>
<event>
 9    1  0.2065703E-002  0.2760077E+03  0.7818608E-02  0.1097890E+00
          2   -1    0    0  501    0  0.00000000000E+00  0.00000000000E+00  0.50085817811E+02  0.50085817811E+02  0.00000000000E+00 0. -1.
         -2   -1    0    0    0  501 -0.00000000000E+00 -0.00000000000E+00 -0.38024848172E+03  0.38024848172E+03  0.00000000000E+00 0. -1.
         36    2    1    2    0    0  0.00000000000E+00 -0.71054273576E-14 -0.33016266391E+03  0.43033429953E+03  0.27600765336E+03 0.  0.
         25    2    3    3    0    0 -0.20077995250E+02 -0.30287466040E+02 -0.83001679249E+02  0.15163876671E+03  0.12159185959E+03 0.  0.
         25    2    3    3    0    0  0.20077995250E+02  0.30287466040E+02 -0.24716098466E+03  0.27869553282E+03  0.12354024116E+03 0.  0.
          5    1    4    4  502    0  0.41992507085E+02 -0.37672346365E+02 -0.13800640671E+02  0.58267692719E+02  0.47000000000E+01 0. -1.
         -5    1    4    4    0  502 -0.62070502335E+02  0.73848803250E+01 -0.69201038579E+02  0.93371073989E+02  0.47000000000E+01 0. -1.
          5    1    5    5  503    0 -0.34465890061E+02 -0.20180382976E+02 -0.15543204370E+03  0.16055016550E+03  0.47000000000E+01 0. -1.
         -5    1    5    5    0  503  0.54543885311E+02  0.50467849015E+02 -0.91728940959E+02  0.11814536732E+03  0.47000000000E+01 0. -1.
<mgrwt>
<rscale>  0 0.27600765E+03</rscale>
<asrwt>0</asrwt>
<pdfrwt beam="1">  1        2 0.77055103E-02 0.27600765E+03</pdfrwt>
<pdfrwt beam="2">  1       -2 0.58499768E-01 0.27600765E+03</pdfrwt>
<totfact> 0.24804168E+03</totfact>
</mgrwt>
</event>
<event>
 9    1  0.2065703E-002  0.2747081E+03  0.7818608E-02  0.1098615E+00
         -2   -1    0    0    0  501 -0.00000000000E+00  0.00000000000E+00  0.36407123337E+02  0.36407123337E+02  0.00000000000E+00 0. -1.
          2   -1    0    0  501    0  0.00000000000E+00 -0.00000000000E+00 -0.51819894555E+03  0.51819894555E+03  0.00000000000E+00 0. -1.
         36    2    1    2    0    0 -0.71054273576E-14  0.00000000000E+00 -0.48179182221E+03  0.55460606889E+03  0.27470808451E+03 0.  0.
         25    2    3    3    0    0  0.47124254984E+02  0.29753212147E+02 -0.19163618616E+03  0.23261546741E+03  0.11949719156E+03 0.  0.
         25    2    3    3    0    0 -0.47124254984E+02 -0.29753212147E+02 -0.29015563605E+03  0.32199060148E+03  0.12799103588E+03 0.  0.
          5    1    4    4  502    0 -0.37686518615E+02 -0.47263380980E+01 -0.39536810367E+02  0.55026005953E+02  0.47000000000E+01 0. -1.
         -5    1    4    4    0  502  0.84810773599E+02  0.34479550245E+02 -0.15209937579E+03  0.17758946146E+03  0.47000000000E+01 0. -1.
          5    1    5    5  503    0 -0.47702941059E+02 -0.62610793879E+02 -0.27390517080E+03  0.28502949793E+03  0.47000000000E+01 0.  1.
         -5    1    5    5    0  503  0.57868607517E+00  0.32857581732E+02 -0.16250465248E+02  0.36961103550E+02  0.47000000000E+01 0.  1.
<mgrwt>
<rscale>  0 0.27470808E+03</rscale>
<asrwt>0</asrwt>
<pdfrwt beam="1">  1        2 0.79722916E-01 0.27470808E+03</pdfrwt>
<pdfrwt beam="2">  1       -2 0.56010958E-02 0.27470808E+03</pdfrwt>
<totfact> 0.97801621E+03</totfact>
</mgrwt>
</event>
<event>
 9    1  0.2065703E-002  0.2753747E+03  0.7818608E-02  0.1098242E+00
         -3   -1    0    0    0  501 -0.00000000000E+00  0.00000000000E+00  0.43516358753E+03  0.43516358753E+03  0.00000000000E+00 0. -1.
          3   -1    0    0  501    0  0.00000000000E+00 -0.00000000000E+00 -0.43564776908E+02  0.43564776908E+02  0.00000000000E+00 0. -1.
         36    2    1    2    0    0  0.00000000000E+00  0.00000000000E+00  0.39159881062E+03  0.47872836444E+03  0.27537468736E+03 0.  0.
         25    2    3    3    0    0 -0.20848844448E+02  0.17801255920E+02  0.29057500999E+03  0.31727828876E+03  0.12441911855E+03 0.  0.
         25    2    3    3    0    0  0.20848844448E+02 -0.17801255920E+02  0.10102380063E+03  0.16145007567E+03  0.12291769447E+03 0.  0.
          5    1    4    4  502    0  0.36674340827E+00  0.44301516576E+02  0.28313882393E+02  0.52787544060E+02  0.47000000000E+01 0. -1.
         -5    1    4    4    0  502 -0.21215587857E+02 -0.26500260657E+02  0.26226112760E+03  0.26449074470E+03  0.47000000000E+01 0. -1.
          5    1    5    5  503    0  0.27200624107E+02  0.49688822066E+02  0.35276611366E+02  0.66898298182E+02  0.47000000000E+01 0.  1.
         -5    1    5    5    0  503 -0.63517796589E+01 -0.67490077985E+02  0.65747189262E+02  0.94551777493E+02  0.47000000000E+01 0.  1.
<mgrwt>
<rscale>  0 0.27537469E+03</rscale>
<asrwt>0</asrwt>
<pdfrwt beam="1">  1        3 0.67022737E-02 0.27537469E+03</pdfrwt>
<pdfrwt beam="2">  1       -3 0.66948241E-01 0.27537469E+03</pdfrwt>
<totfact> 0.79134574E+02</totfact>
</mgrwt>
</event>
<event>
 9    1  0.2065703E-002  0.2755659E+03  0.7818608E-02  0.1098136E+00
         -2   -1    0    0    0  501 -0.00000000000E+00  0.00000000000E+00  0.98808490230E+02  0.98808490230E+02  0.00000000000E+00 0. -1.
          2   -1    0    0  501    0  0.00000000000E+00 -0.00000000000E+00 -0.19213063330E+03  0.19213063330E+03  0.00000000000E+00 0. -1.
         36    2    1    2    0    0  0.71054273576E-14  0.00000000000E+00 -0.93322143067E+02  0.29093912353E+03  0.27556587454E+03 0.  0.
         25    2    3    3    0    0  0.41971843416E+02  0.38744673868E+02 -0.10441360203E+03  0.17241884133E+03  0.12475284031E+03 0.  0.
         25    2    3    3    0    0 -0.41971843416E+02 -0.38744673868E+02  0.11091458959E+02  0.11852028220E+03  0.10325333620E+03 0.  0.
          5    1    4    4  502    0  0.37143399330E+02  0.83730184552E+02 -0.69455337165E+02  0.11505003164E+03  0.47000000000E+01 0. -1.
         -5    1    4    4    0  502  0.48284440859E+01 -0.44985510684E+02 -0.34958264861E+02  0.57368809695E+02  0.47000000000E+01 0. -1.
          5    1    5    5  503    0  0.28287333278E+02 -0.34170023756E+02 -0.82245804448E+01  0.45359645842E+02  0.47000000000E+01 0.  1.
         -5    1    5    5    0  503 -0.70259176694E+02 -0.45746501119E+01  0.19316039403E+02  0.73160636353E+02  0.47000000000E+01 0.  1.
<mgrwt>
<rscale>  0 0.27556587E+03</rscale>
<asrwt>0</asrwt>
<pdfrwt beam="1">  1        2 0.29558559E-01 0.27556587E+03</pdfrwt>
<pdfrwt beam="2">  1       -2 0.15201306E-01 0.27556587E+03</pdfrwt>
<totfact> 0.59250718E+03</totfact>
</mgrwt>
</event>
<event>
 9    1  0.2065703E-002  0.2759199E+03  0.7818608E-02  0.1097939E+00
          1   -1    0    0  501    0  0.00000000000E+00  0.00000000000E+00  0.25681918542E+03  0.25681918542E+03  0.00000000000E+00 0.  1.
         -1   -1    0    0    0  501 -0.00000000000E+00 -0.00000000000E+00 -0.74110301240E+02  0.74110301240E+02  0.00000000000E+00 0.  1.
         36    2    1    2    0    0  0.00000000000E+00  0.00000000000E+00  0.18270888418E+03  0.33092948666E+03  0.27591989559E+03 0.  0.
         25    2    3    3    0    0  0.47251384059E+02 -0.22468153993E+02  0.57853506153E+02  0.14607359532E+03  0.12350285760E+03 0.  0.
         25    2    3    3    0    0 -0.47251384059E+02  0.22468153993E+02  0.12485537802E+03  0.18485589134E+03  0.12587821060E+03 0.  0.
          5    1    4    4  502    0  0.37136197939E+02  0.48055785047E+02  0.38629786630E+02  0.72130479611E+02  0.47000000000E+01 0. -1.
         -5    1    4    4    0  502  0.10115186120E+02 -0.70523939040E+02  0.19223719524E+02  0.73943115706E+02  0.47000000000E+01 0. -1.
          5    1    5    5  503    0  0.17960946117E+02  0.58697085925E+02  0.55421259487E+02  0.82834470389E+02  0.47000000000E+01 0. -1.
         -5    1    5    5    0  503 -0.65212330176E+02 -0.36228931932E+02  0.69434118538E+02  0.10202142095E+03  0.47000000000E+01 0. -1.
<mgrwt>
<rscale>  0 0.27591990E+03</rscale>
<asrwt>0</asrwt>
<pdfrwt beam="1">  1        1 0.39510643E-01 0.27591990E+03</pdfrwt>
<pdfrwt beam="2">  1       -1 0.11401585E-01 0.27591990E+03</pdfrwt>
<totfact> 0.52637789E+03</totfact>
</mgrwt>
</event>
<event>
 9    1  0.2065703E-002  0.2759198E+03  0.7818608E-02  0.1097939E+00
         -1   -1    0    0    0  501 -0.00000000000E+00  0.00000000000E+00  0.58851653448E+02  0.58851653448E+02  0.00000000000E+00 0.  1.
          1   -1    0    0  501    0  0.00000000000E+00 -0.00000000000E+00 -0.32340523406E+03  0.32340523406E+03  0.00000000000E+00 0.  1.
         36    2    1    2    0    0 -0.35527136788E-14  0.00000000000E+00 -0.26455358061E+03  0.38225688751E+03  0.27591979094E+03 0.  0.
         25    2    3    3    0    0  0.22276978791E+02  0.14091875741E+01 -0.46542028155E+02  0.13051603555E+03  0.11987504143E+03 0.  0.
         25    2    3    3    0    0 -0.22276978791E+02 -0.14091875741E+01 -0.21801155245E+03  0.25174085196E+03  0.12387965913E+03 0.  0.
          5    1    4    4  502    0  0.42868869959E+02  0.23835544222E+02  0.23058222706E+02  0.54402617715E+02  0.47000000000E+01 0. -1.
         -5    1    4    4    0  502 -0.20591891168E+02 -0.22426356648E+02 -0.69600250861E+02  0.76113417834E+02  0.47000000000E+01 0. -1.
          5    1    5    5  503    0 -0.52684192988E+02 -0.30148384612E+02 -0.19387671292E+03  0.20321126716E+03  0.47000000000E+01 0. -1.
         -5    1    5    5    0  503  0.30407214198E+02  0.28739197038E+02 -0.24134839531E+02  0.48529584800E+02  0.47000000000E+01 0. -1.
<mgrwt>
<rscale>  0 0.27591979E+03</rscale>
<asrwt>0</asrwt>
<pdfrwt beam="1">  1        1 0.49754650E-01 0.27591979E+03</pdfrwt>
<pdfrwt beam="2">  1       -1 0.90541007E-02 0.27591979E+03</pdfrwt>
<totfact> 0.56279620E+03</totfact>
</mgrwt>
</event>
<event>
 9    1  0.2065703E-002  0.2759176E+03  0.7818608E-02  0.1097940E+00
          1   -1    0    0  501    0  0.00000000000E+00  0.00000000000E+00  0.41013794371E+03  0.41013794371E+03  0.00000000000E+00 0. -1.
         -1   -1    0    0    0  501 -0.00000000000E+00 -0.00000000000E+00 -0.46405447594E+02  0.46405447594E+02  0.00000000000E+00 0. -1.
         36    2    1    2    0    0 -0.17763568394E-14  0.00000000000E+00  0.36373249612E+03  0.45654339130E+03  0.27591763157E+03 0.  0.
         25    2    3    3    0    0 -0.11044868120E+02 -0.52015607611E+02  0.17426728404E+03  0.22344716223E+03  0.12935198288E+03 0.  0.
         25    2    3    3    0    0  0.11044868120E+02  0.52015607611E+02  0.18946521207E+03  0.23309622907E+03  0.12493667546E+03 0.  0.
          5    1    4    4  502    0  0.39120180445E+02  0.12876322184E+02  0.11472358933E+03  0.12198270427E+03  0.47000000000E+01 0. -1.
         -5    1    4    4    0  502 -0.50165048565E+02 -0.64891929795E+02  0.59543694708E+02  0.10146445796E+03  0.47000000000E+01 0. -1.
          5    1    5    5  503    0  0.13290026872E+02  0.92033851996E+02  0.15067153053E+03  0.17711819455E+03  0.47000000000E+01 0. -1.
         -5    1    5    5    0  503 -0.22451587515E+01 -0.40018244385E+02  0.38793681540E+02  0.55978034522E+02  0.47000000000E+01 0. -1.
<mgrwt>
<rscale>  0 0.27591763E+03</rscale>
<asrwt>0</asrwt>
<pdfrwt beam="1">  1        1 0.63098143E-01 0.27591763E+03</pdfrwt>
<pdfrwt beam="2">  1       -1 0.71392999E-02 0.27591763E+03</pdfrwt>
<totfact> 0.59801613E+03</totfact>
</mgrwt>
</event>
<event>
 9    1  0.2065703E-002  0.2778576E+03  0.7818608E-02  0.1096865E+00
         -1   -1    0    0    0  501 -0.00000000000E+00  0.00000000000E+00  0.14322191495E+02  0.14322191495E+02  0.00000000000E+00 0. -1.
          1   -1    0    0  501    0  0.00000000000E+00 -0.00000000000E+00 -0.13476434646E+04  0.13476434646E+04  0.00000000000E+00 0. -1.
         36    2    1    2    0    0  0.17763568394E-14  0.00000000000E+00 -0.13333212731E+04  0.13619656561E+04  0.27785757335E+03 0.  0.
         25    2    3    3    0    0  0.73859136632E+01  0.64006067582E+02 -0.61197969556E+03  0.62710635147E+03  0.12079693646E+03 0.  0.
         25    2    3    3    0    0 -0.73859136632E+01 -0.64006067582E+02 -0.72134157758E+03  0.73485930466E+03  0.12463224985E+03 0.  0.
          5    1    4    4  502    0  0.33161918250E+01  0.17443232078E+02 -0.54492246869E+03  0.54523192345E+03  0.47000000000E+01 0.  1.
         -5    1    4    4    0  502  0.40697218381E+01  0.46562835503E+02 -0.67057226878E+02  0.81874428013E+02  0.47000000000E+01 0.  1.
          5    1    5    5  503    0  0.37256865191E+02 -0.80845275186E+02 -0.53892456428E+03  0.54624702150E+03  0.47000000000E+01 0. -1.
         -5    1    5    5    0  503 -0.44642778854E+02  0.16839207604E+02 -0.18241701330E+03  0.18861228316E+03  0.47000000000E+01 0. -1.
<mgrwt>
<rscale>  0 0.27785757E+03</rscale>
<asrwt>0</asrwt>
<pdfrwt beam="1">  1        1 0.20732973E+00 0.27785757E+03</pdfrwt>
<pdfrwt beam="2">  1       -1 0.22034144E-02 0.27785757E+03</pdfrwt>
<totfact> 0.53871564E+03</totfact>
</mgrwt>
</event>
<event>
 9    1  0.2065703E-002  0.2746333E+03  0.7818608E-02  0.1098657E+00
          2   -1    0    0  501    0  0.00000000000E+00  0.00000000000E+00  0.41901622794E+04  0.41901622794E+04  0.00000000000E+00 0. -1.
         -2   -1    0    0    0  501 -0.00000000000E+00 -0.00000000000E+00 -0.45000314508E+01  0.45000314508E+01  0.00000000000E+00 0. -1.
         36    2    1    2    0    0  0.71054273576E-14  0.00000000000E+00  0.41856622480E+04  0.41946623109E+04  0.27463329763E+03 0.  0.
         25    2    3    3    0    0  0.35043797983E+02  0.24468292434E+02  0.14326493047E+04  0.14385077357E+04  0.12244880684E+03 0.  0.
         25    2    3    3    0    0 -0.35043797983E+02 -0.24468292434E+02  0.27530129433E+04  0.27561545752E+04  0.12442271224E+03 0.  0.
          5    1    4    4  502    0 -0.32954071209E+02  0.40432857356E+02  0.86038515732E+03  0.86197766543E+03  0.47000000000E+01 0. -1.
         -5    1    4    4    0  502  0.67997869192E+02 -0.15964564922E+02  0.57226414733E+03  0.57653007022E+03  0.47000000000E+01 0. -1.
          5    1    5    5  503    0 -0.34219737574E+02 -0.75564143039E+01  0.20133646327E+03  0.20441759044E+03  0.47000000000E+01 0.  1.
         -5    1    5    5    0  503 -0.82406040926E+00 -0.16911878130E+02  0.25516764801E+04  0.25517369848E+04  0.47000000000E+01 0.  1.
<mgrwt>
<rscale>  0 0.27463330E+03</rscale>
<asrwt>0</asrwt>
<pdfrwt beam="1">  1        2 0.64463723E+00 0.27463330E+03</pdfrwt>
<pdfrwt beam="2">  1       -2 0.69231588E-03 0.27463330E+03</pdfrwt>
<totfact> 0.11486024E+03</totfact>
</mgrwt>
</event>
<event>
 9    1  0.2065703E-002  0.2756525E+03  0.7818608E-02  0.1098087E+00
          2   -1    0    0  501    0  0.00000000000E+00  0.00000000000E+00  0.14998144584E+04  0.14998144584E+04  0.00000000000E+00 0. -1.
         -2   -1    0    0    0  501 -0.00000000000E+00 -0.00000000000E+00 -0.12665617429E+02  0.12665617429E+02  0.00000000000E+00 0. -1.
         36    2    1    2    0    0  0.00000000000E+00  0.71054273576E-14  0.14871488410E+04  0.15124800758E+04  0.27565250693E+03 0.  0.
         25    2    3    3    0    0  0.28759136889E+02 -0.14684111196E+02  0.45999217642E+03  0.47752599076E+03  0.12407883948E+03 0.  0.
         25    2    3    3    0    0 -0.28759136889E+02  0.14684111196E+02  0.10271566646E+04  0.10349540851E+04  0.12262313645E+03 0.  0.
          5    1    4    4  502    0  0.42746349290E+02  0.45258875517E+02  0.17169056092E+03  0.18268923039E+03  0.47000000000E+01 0. -1.
         -5    1    4    4    0  502 -0.13987212401E+02 -0.59942986713E+02  0.28830161549E+03  0.29483676036E+03  0.47000000000E+01 0. -1.
          5    1    5    5  503    0 -0.34638245096E+02  0.52312355100E+02  0.89840961641E+03  0.90060997073E+03  0.47000000000E+01 0. -1.
         -5    1    5    5    0  503  0.58791082072E+01 -0.37628243904E+02  0.12874704816E+03  0.13434411436E+03  0.47000000000E+01 0. -1.
<mgrwt>
<rscale>  0 0.27565251E+03</rscale>
<asrwt>0</asrwt>
<pdfrwt beam="1">  1        2 0.23074055E+00 0.27565251E+03</pdfrwt>
<pdfrwt beam="2">  1       -2 0.19485577E-02 0.27565251E+03</pdfrwt>
<totfact> 0.10963536E+04</totfact>
</mgrwt>
</event>
<event>
 9    1  0.2065703E-002  0.2746240E+03  0.7818608E-02  0.1098662E+00
          2   -1    0    0  501    0  0.00000000000E+00  0.00000000000E+00  0.51746519432E+03  0.51746519432E+03  0.00000000000E+00 0.  1.
         -2   -1    0    0    0  501 -0.00000000000E+00 -0.00000000000E+00 -0.36436443553E+02  0.36436443553E+02  0.00000000000E+00 0.  1.
         36    2    1    2    0    0  0.00000000000E+00  0.00000000000E+00  0.48102875077E+03  0.55390163788E+03  0.27462404369E+03 0.  0.
         25    2    3    3    0    0 -0.41525925399E+02  0.24179775554E+02  0.34813170292E+03  0.37373118548E+03  0.12716230731E+03 0.  0.
         25    2    3    3    0    0  0.41525925399E+02 -0.24179775554E+02  0.13289704785E+03  0.18017045239E+03  0.11176181173E+03 0.  0.
          5    1    4    4  502    0 -0.22511065625E+02 -0.49041148433E+02  0.93480115182E+02  0.10803890156E+03  0.47000000000E+01 0. -1.
         -5    1    4    4    0  502 -0.19014859774E+02  0.73220923987E+02  0.25465158774E+03  0.26569228393E+03  0.47000000000E+01 0. -1.
          5    1    5    5  503    0  0.49801063639E+02 -0.37049663639E+02  0.18899436739E+02  0.65054609556E+02  0.47000000000E+01 0. -1.
         -5    1    5    5    0  503 -0.82751382402E+01  0.12869888085E+02  0.11399761111E+03  0.11511584284E+03  0.47000000000E+01 0. -1.
<mgrwt>
<rscale>  0 0.27462404E+03</rscale>
<asrwt>0</asrwt>
<pdfrwt beam="1">  1        2 0.79610025E-01 0.27462404E+03</pdfrwt>
<pdfrwt beam="2">  1       -2 0.56056071E-02 0.27462404E+03</pdfrwt>
<totfact> 0.97836144E+03</totfact>
</mgrwt>
</event>
<event>
 9    1  0.2065703E-002  0.2752444E+03  0.7818608E-02  0.1098315E+00
         -2   -1    0    0    0  501 -0.00000000000E+00  0.00000000000E+00  0.72115095540E+01  0.72115095540E+01  0.00000000000E+00 0. -1.
          2   -1    0    0  501    0  0.00000000000E+00 -0.00000000000E+00 -0.26263398457E+04  0.26263398457E+04  0.00000000000E+00 0. -1.
         36    2    1    2    0    0 -0.71054273576E-14  0.00000000000E+00 -0.26191283361E+04  0.26335513552E+04  0.27524443601E+03 0.  0.
         25    2    3    3    0    0 -0.46151755890E+02  0.27068723078E+02 -0.10422797569E+04  0.10511184815E+04  0.12506106547E+03 0.  0.
         25    2    3    3    0    0  0.46151755890E+02 -0.27068723078E+02 -0.15768485792E+04  0.15824328738E+04  0.12157161606E+03 0.  0.
          5    1    4    4  502    0 -0.78327269181E+02  0.32615702552E+02 -0.45204898586E+03  0.45996665180E+03  0.47000000000E+01 0.  1.
         -5    1    4    4    0  502  0.32175513291E+02 -0.55469794738E+01 -0.59023077103E+03  0.59115182966E+03  0.47000000000E+01 0.  1.
          5    1    5    5  503    0  0.21720241022E+02 -0.83097600587E+00 -0.45365833116E+02  0.50523343174E+02  0.47000000000E+01 0.  1.
         -5    1    5    5    0  503  0.24431514868E+02 -0.26237747072E+02 -0.15314827461E+04  0.15319095306E+04  0.47000000000E+01 0.  1.
<mgrwt>
<rscale>  0 0.27524444E+03</rscale>
<asrwt>0</asrwt>
<pdfrwt beam="1">  1        2 0.40405169E+00 0.27524444E+03</pdfrwt>
<pdfrwt beam="2">  1       -2 0.11094647E-02 0.27524444E+03</pdfrwt>
<totfact> 0.62592352E+03</totfact>
</mgrwt>
</event>
<event>
 9    1  0.2065703E-002  0.2743215E+03  0.7818608E-02  0.1098831E+00
         -2   -1    0    0    0  501 -0.00000000000E+00  0.00000000000E+00  0.41856723243E+02  0.41856723243E+02  0.00000000000E+00 0. -1.
          2   -1    0    0  501    0  0.00000000000E+00 -0.00000000000E+00 -0.44946348781E+03  0.44946348781E+03  0.00000000000E+00 0. -1.
         36    2    1    2    0    0  0.00000000000E+00  0.35527136788E-14 -0.40760676457E+03  0.49132021105E+03  0.27432148160E+03 0.  0.
         25    2    3    3    0    0 -0.19117172317E+02 -0.26386513486E+02 -0.11784413471E+03  0.17481846396E+03  0.12495015360E+03 0.  0.
         25    2    3    3    0    0  0.19117172317E+02  0.26386513486E+02 -0.28976262986E+03  0.31650174709E+03  0.12308232968E+03 0.  0.
          5    1    4    4  502    0 -0.72274124596E+02 -0.11717918906E+02 -0.74067416820E+02  0.10425416512E+03  0.47000000000E+01 0. -1.
         -5    1    4    4    0  502  0.53156952278E+02 -0.14668594580E+02 -0.43776717890E+02  0.70564298846E+02  0.47000000000E+01 0. -1.
          5    1    5    5  503    0  0.52501537438E+02  0.29446930237E+02 -0.27130918235E+03  0.27794656962E+03  0.47000000000E+01 0. -1.
         -5    1    5    5    0  503 -0.33384365121E+02 -0.30604167512E+01 -0.18453447505E+02  0.38555177474E+02  0.47000000000E+01 0. -1.
<mgrwt>
<rscale>  0 0.27432148E+03</rscale>
<asrwt>0</asrwt>
<pdfrwt beam="1">  1        2 0.69148225E-01 0.27432148E+03</pdfrwt>
<pdfrwt beam="2">  1       -2 0.64394963E-02 0.27432148E+03</pdfrwt>
<totfact> 0.92499100E+03</totfact>
</mgrwt>
</event>
<event>
 9    1  0.2065703E-002  0.2730357E+03  0.7818608E-02  0.1099555E+00
          1   -1    0    0  501    0  0.00000000000E+00  0.00000000000E+00  0.17236206691E+02  0.17236206691E+02  0.00000000000E+00 0.  1.
         -1   -1    0    0    0  501 -0.00000000000E+00 -0.00000000000E+00 -0.10812776044E+04  0.10812776044E+04  0.00000000000E+00 0.  1.
         36    2    1    2    0    0  0.00000000000E+00  0.00000000000E+00 -0.10640413978E+04  0.10985138111E+04  0.27303570668E+03 0.  0.
         25    2    3    3    0    0 -0.23674600478E+02  0.57605796735E+02 -0.63690134909E+03  0.65180737187E+03  0.12381682852E+03 0.  0.
         25    2    3    3    0    0  0.23674600478E+02 -0.57605796735E+02 -0.42714004866E+03  0.44670643926E+03  0.11497437621E+03 0.  0.
          5    1    4    4  502    0 -0.60574694040E+01 -0.28251761874E+01  0.30714718552E+01  0.87291749568E+01  0.47000000000E+01 0. -1.
         -5    1    4    4    0  502 -0.17617131074E+02  0.60430972922E+02 -0.63997282095E+03  0.64307819691E+03  0.47000000000E+01 0. -1.
          5    1    5    5  503    0 -0.35351406118E+02 -0.49903593470E+02 -0.30048768978E+03  0.30668392893E+03  0.47000000000E+01 0. -1.
         -5    1    5    5    0  503  0.59026006596E+02 -0.77022032654E+01 -0.12665235888E+03  0.14002251034E+03  0.47000000000E+01 0. -1.
<mgrwt>
<rscale>  0 0.27303571E+03</rscale>
<asrwt>0</asrwt>
<pdfrwt beam="1">  1        1 0.26517238E-02 0.27303571E+03</pdfrwt>
<pdfrwt beam="2">  1       -1 0.16635042E+00 0.27303571E+03</pdfrwt>
<totfact> 0.11596245E+03</totfact>
</mgrwt>
</event>
<event>
 9    1  0.2065703E-002  0.2759110E+03  0.7818608E-02  0.1097943E+00
          1   -1    0    0  501    0  0.00000000000E+00  0.00000000000E+00  0.22841547380E+04  0.22841547380E+04  0.00000000000E+00 0. -1.
         -1   -1    0    0    0  501 -0.00000000000E+00 -0.00000000000E+00 -0.83320630000E+01  0.83320630000E+01  0.00000000000E+00 0. -1.
         36    2    1    2    0    0 -0.71054273576E-14  0.00000000000E+00  0.22758226750E+04  0.22924868010E+04  0.27591100869E+03 0.  0.
         25    2    3    3    0    0 -0.51265259980E+02 -0.59638875633E+00  0.94489614494E+03  0.95463855042E+03  0.12600616912E+03 0.  0.
         25    2    3    3    0    0  0.51265259980E+02  0.59638875633E+00  0.13309265301E+04  0.13378482506E+04  0.12587307342E+03 0.  0.
          5    1    4    4  502    0 -0.90344382657E+02 -0.19211747262E+02  0.64835612484E+03  0.65491904334E+03  0.47000000000E+01 0. -1.
         -5    1    4    4    0  502  0.39079122678E+02  0.18615358506E+02  0.29654002011E+03  0.29971950708E+03  0.47000000000E+01 0. -1.
          5    1    5    5  503    0  0.18710964297E+02  0.56924815799E+02  0.38376360793E+03  0.38844192824E+03  0.47000000000E+01 0.  1.
         -5    1    5    5    0  503  0.32554295683E+02 -0.56328427043E+02  0.94716292212E+03  0.94940632234E+03  0.47000000000E+01 0.  1.
<mgrwt>
<rscale>  0 0.27591101E+03</rscale>
<asrwt>0</asrwt>
<pdfrwt beam="1">  1        1 0.35140792E+00 0.27591101E+03</pdfrwt>
<pdfrwt beam="2">  1       -1 0.12818577E-02 0.27591101E+03</pdfrwt>
<totfact> 0.28885933E+03</totfact>
</mgrwt>
</event>
<event>
 9    1  0.2065703E-002  0.2750142E+03  0.7818608E-02  0.1098444E+00
         -4   -1    0    0    0  501 -0.00000000000E+00  0.00000000000E+00  0.27480740243E+03  0.27480740243E+03  0.00000000000E+00 0.  1.
          4   -1    0    0  501    0  0.00000000000E+00 -0.00000000000E+00 -0.68805286741E+02  0.68805286741E+02  0.00000000000E+00 0.  1.
         36    2    1    2    0    0  0.00000000000E+00  0.35527136788E-14  0.20600211569E+03  0.34361268918E+03  0.27501419689E+03 0.  0.
         25    2    3    3    0    0  0.14650907777E+02  0.16491600644E+01  0.17157650354E+03  0.21171623629E+03  0.12315802578E+03 0.  0.
         25    2    3    3    0    0 -0.14650907777E+02 -0.16491600644E+01  0.34425612154E+02  0.13189645289E+03  0.12646810936E+03 0.  0.
          5    1    4    4  502    0 -0.16937502684E+02  0.40204389412E+02  0.15158517565E+03  0.15780819815E+03  0.47000000000E+01 0.  1.
         -5    1    4    4    0  502  0.31588410461E+02 -0.38555229348E+02  0.19991327890E+02  0.53908038142E+02  0.47000000000E+01 0.  1.
          5    1    5    5  503    0  0.35349287343E+02  0.13155363673E+02  0.61998674712E+02  0.72722495661E+02  0.47000000000E+01 0.  1.
         -5    1    5    5    0  503 -0.50000195120E+02 -0.14804523738E+02 -0.27573062558E+02  0.59173957228E+02  0.47000000000E+01 0.  1.
<mgrwt>
<rscale>  0 0.27501420E+03</rscale>
<asrwt>0</asrwt>
<pdfrwt beam="1">  1        4 0.10585429E-01 0.27501420E+03</pdfrwt>
<pdfrwt beam="2">  1       -4 0.42278061E-01 0.27501420E+03</pdfrwt>
<totfact> 0.70355351E+02</totfact>
</mgrwt>
</event>
<event>
 9    1  0.2065703E-002  0.2744840E+03  0.7818608E-02  0.1098740E+00
         -1   -1    0    0    0  501 -0.00000000000E+00  0.00000000000E+00  0.18217334530E+02  0.18217334530E+02  0.00000000000E+00 0. -1.
          1   -1    0    0  501    0  0.00000000000E+00 -0.00000000000E+00 -0.10339258578E+04  0.10339258578E+04  0.00000000000E+00 0. -1.
         36    2    1    2    0    0  0.35527136788E-14  0.14210854715E-13 -0.10157085233E+04  0.10521431923E+04  0.27448404858E+03 0.  0.
         25    2    3    3    0    0  0.23643097948E+02  0.39748191968E+02 -0.37898792858E+03  0.40178869607E+03  0.12515347153E+03 0.  0.
         25    2    3    3    0    0 -0.23643097948E+02 -0.39748191968E+02 -0.63672059470E+03  0.65035449627E+03  0.12413275255E+03 0.  0.
          5    1    4    4  502    0  0.40039029403E+02  0.11801818357E+02 -0.36287536550E+03  0.36529854596E+03  0.47000000000E+01 0. -1.
         -5    1    4    4    0  502 -0.16395931455E+02  0.27946373611E+02 -0.16112563079E+02  0.36490150113E+02  0.47000000000E+01 0. -1.
          5    1    5    5  503    0  0.19510917659E+02 -0.73774412219E+02 -0.40567304980E+03  0.41281479278E+03  0.47000000000E+01 0. -1.
         -5    1    5    5    0  503 -0.43154015608E+02  0.34026220251E+02 -0.23104754490E+03  0.23753970349E+03  0.47000000000E+01 0. -1.
<mgrwt>
<rscale>  0 0.27448405E+03</rscale>
<asrwt>0</asrwt>
<pdfrwt beam="1">  1        1 0.15906561E+00 0.27448405E+03</pdfrwt>
<pdfrwt beam="2">  1       -1 0.28026652E-02 0.27448405E+03</pdfrwt>
<totfact> 0.62885497E+03</totfact>
</mgrwt>
</event>
<event>
 9    1  0.2065703E-002  0.2753506E+03  0.7818608E-02  0.1098256E+00
         -4   -1    0    0    0  501 -0.00000000000E+00  0.00000000000E+00  0.25125868567E+03  0.25125868567E+03  0.00000000000E+00 0. -1.
          4   -1    0    0  501    0  0.00000000000E+00 -0.00000000000E+00 -0.75438163966E+02  0.75438163966E+02  0.00000000000E+00 0. -1.
         36    2    1    2    0    0 -0.71054273576E-14  0.00000000000E+00  0.17582052171E+03  0.32669684964E+03  0.27535064138E+03 0.  0.
         25    2    3    3    0    0  0.32458613633E+02  0.65142275559E+01  0.15052803146E+03  0.19440541659E+03  0.11848536190E+03 0.  0.
         25    2    3    3    0    0 -0.32458613633E+02 -0.65142275559E+01  0.25292490242E+02  0.13229143305E+03  0.12556001129E+03 0.  0.
          5    1    4    4  502    0  0.42918652608E+02  0.56847065534E+02  0.88935044149E+02  0.11404004419E+03  0.47000000000E+01 0.  1.
         -5    1    4    4    0  502 -0.10460038975E+02 -0.50332837978E+02  0.61592987316E+02  0.80365372399E+02  0.47000000000E+01 0.  1.
          5    1    5    5  503    0  0.96704349390E+01  0.53609661286E+02  0.56022072482E+00  0.54680132977E+02  0.47000000000E+01 0. -1.
         -5    1    5    5    0  503 -0.42129048572E+02 -0.60123888842E+02  0.24732269517E+02  0.77611300070E+02  0.47000000000E+01 0. -1.
<mgrwt>
<rscale>  0 0.27535064E+03</rscale>
<asrwt>0</asrwt>
<pdfrwt beam="1">  1        4 0.11605871E-01 0.27535064E+03</pdfrwt>
<pdfrwt beam="2">  1       -4 0.38655182E-01 0.27535064E+03</pdfrwt>
<totfact> 0.71825799E+02</totfact>
</mgrwt>
</event>
<event>
 9    1  0.2065703E-002  0.2747570E+03  0.7818608E-02  0.1098587E+00
         -2   -1    0    0    0  501 -0.00000000000E+00  0.00000000000E+00  0.73562698560E+01  0.73562698560E+01  0.00000000000E+00 0.  1.
          2   -1    0    0  501    0  0.00000000000E+00 -0.00000000000E+00 -0.25655470601E+04  0.25655470601E+04  0.00000000000E+00 0.  1.
         36    2    1    2    0    0  0.00000000000E+00 -0.14210854715E-13 -0.25581907903E+04  0.25729033300E+04  0.27475703086E+03 0.  0.
         25    2    3    3    0    0  0.15037919950E+02 -0.33335304154E+02 -0.12120188113E+04  0.12193581586E+04  0.12848088717E+03 0.  0.
         25    2    3    3    0    0 -0.15037919950E+02  0.33335304154E+02 -0.13461719789E+04  0.13535451714E+04  0.13626500860E+03 0.  0.
          5    1    4    4  502    0  0.41341945393E+02 -0.71653118252E+02 -0.62228779664E+03  0.62777983214E+03  0.47000000000E+01 0.  1.
         -5    1    4    4    0  502 -0.26304025443E+02  0.38317814098E+02 -0.58973101468E+03  0.59157832643E+03  0.47000000000E+01 0.  1.
          5    1    5    5  503    0 -0.75419506638E+02  0.16015448369E+02 -0.66684809685E+03  0.67130698703E+03  0.47000000000E+01 0. -1.
         -5    1    5    5    0  503  0.60381586688E+02  0.17319855785E+02 -0.67932388209E+03  0.68223818436E+03  0.47000000000E+01 0. -1.
<mgrwt>
<rscale>  0 0.27475703E+03</rscale>
<asrwt>0</asrwt>
<pdfrwt beam="1">  1        2 0.39469964E+00 0.27475703E+03</pdfrwt>
<pdfrwt beam="2">  1       -2 0.11317336E-02 0.27475703E+03</pdfrwt>
<totfact> 0.65720391E+03</totfact>
</mgrwt>
</event>
<event>
 9    1  0.2065703E-002  0.2739575E+03  0.7818608E-02  0.1099036E+00
         -2   -1    0    0    0  501 -0.00000000000E+00  0.00000000000E+00  0.13149940195E+02  0.13149940195E+02  0.00000000000E+00 0.  1.
          2   -1    0    0  501    0  0.00000000000E+00 -0.00000000000E+00 -0.14268636916E+04  0.14268636916E+04  0.00000000000E+00 0.  1.
         36    2    1    2    0    0  0.00000000000E+00  0.00000000000E+00 -0.14137137514E+04  0.14400136318E+04  0.27395745809E+03 0.  0.
         25    2    3    3    0    0 -0.54060974486E+02  0.98216340434E+01 -0.58073996910E+03  0.59692237748E+03  0.12664264514E+03 0.  0.
         25    2    3    3    0    0  0.54060974486E+02 -0.98216340434E+01 -0.83297378233E+03  0.84309125434E+03  0.11806137233E+03 0.  0.
          5    1    4    4  502    0 -0.26870895271E+02  0.63555621606E+02 -0.41045345273E+03  0.41623970126E+03  0.47000000000E+01 0. -1.
         -5    1    4    4    0  502 -0.27190079215E+02 -0.53733987563E+02 -0.17028651637E+03  0.18068267622E+03  0.47000000000E+01 0. -1.
          5    1    5    5  503    0  0.26540283542E+01  0.33437793440E+02 -0.76963666234E+02  0.84087013366E+02  0.47000000000E+01 0. -1.
         -5    1    5    5    0  503  0.51406946132E+02 -0.43259427483E+02 -0.75601011610E+03  0.75900424097E+03  0.47000000000E+01 0. -1.
<mgrwt>
<rscale>  0 0.27395746E+03</rscale>
<asrwt>0</asrwt>
<pdfrwt beam="1">  1        2 0.21951748E+00 0.27395746E+03</pdfrwt>
<pdfrwt beam="2">  1       -2 0.20230678E-02 0.27395746E+03</pdfrwt>
<totfact> 0.11354249E+04</totfact>
</mgrwt>
</event>
<event>
 9    1  0.2065703E-002  0.2742056E+03  0.7818608E-02  0.1098896E+00
         -1   -1    0    0    0  501 -0.00000000000E+00  0.00000000000E+00  0.11038207659E+03  0.11038207659E+03  0.00000000000E+00 0. -1.
          1   -1    0    0  501    0  0.00000000000E+00 -0.00000000000E+00 -0.17029193123E+03  0.17029193123E+03  0.00000000000E+00 0. -1.
         36    2    1    2    0    0  0.00000000000E+00  0.35527136788E-14 -0.59909854636E+02  0.28067400782E+03  0.27420559436E+03 0.  0.
         25    2    3    3    0    0  0.56414078157E+02 -0.23702977784E+02 -0.25379782239E+02  0.13872975825E+03  0.12189107066E+03 0.  0.
         25    2    3    3    0    0 -0.56414078157E+02  0.23702977784E+02 -0.34530072397E+02  0.14194424957E+03  0.12333476686E+03 0.  0.
          5    1    4    4  502    0 -0.31385176364E+02 -0.35402955722E+02 -0.11901507456E+02  0.49011574643E+02  0.47000000000E+01 0.  1.
         -5    1    4    4    0  502  0.87799254521E+02  0.11699977938E+02 -0.13478274783E+02  0.89718183605E+02  0.47000000000E+01 0.  1.
          5    1    5    5  503    0  0.58773705428E+01  0.42053991892E+02  0.28475267398E+02  0.51342113045E+02  0.47000000000E+01 0.  1.
         -5    1    5    5    0  503 -0.62291448700E+02 -0.18351014108E+02 -0.63005339796E+02  0.90602136524E+02  0.47000000000E+01 0.  1.
<mgrwt>
<rscale>  0 0.27420559E+03</rscale>
<asrwt>0</asrwt>
<pdfrwt beam="1">  1        1 0.26198759E-01 0.27420559E+03</pdfrwt>
<pdfrwt beam="2">  1       -1 0.16981858E-01 0.27420559E+03</pdfrwt>
<totfact> 0.47092496E+03</totfact>
</mgrwt>
</event>
<event>
 8    1  0.2065703E-002  0.4327783E+03  0.7818608E-02  0.1032986E+00
          1   -1    0    0  501    0  0.00000000000E+00  0.00000000000E+00  0.16584917801E+04  0.16584917801E+04  0.00000000000E+00 0.  1.
         -1   -1    0    0    0  501 -0.00000000000E+00 -0.00000000000E+00 -0.28233043787E+02  0.28233043787E+02  0.00000000000E+00 0.  1.
         25    2    1    2    0    0  0.11742061630E+03  0.11844668793E+03  0.69229349049E+03  0.72512457996E+03  0.13681432846E+03 0.  0.
         25    2    1    2    0    0 -0.11742061630E+03 -0.11844668793E+03  0.93796524587E+03  0.96160024397E+03  0.13068667775E+03 0.  0.
          5    1    3    3  502    0  0.74136421389E+02  0.34450786523E+01  0.13209821658E+03  0.15159190732E+03  0.47000000000E+01 0.  1.
         -5    1    3    3    0  502  0.43284194911E+02  0.11500160928E+03  0.56019527391E+03  0.57353267263E+03  0.47000000000E+01 0.  1.
          5    1    4    4  503    0 -0.84589464850E+02 -0.12074746958E+03  0.89600832643E+03  0.90806846659E+03  0.47000000000E+01 0. -1.
         -5    1    4    4    0  503 -0.32831151450E+02  0.23007816479E+01  0.41956919437E+02  0.53531777388E+02  0.47000000000E+01 0. -1.
<mgrwt>
<rscale>  0 0.43277833E+03</rscale>
<asrwt>0</asrwt>
<pdfrwt beam="1">  1        1 0.25515251E+00 0.43277833E+03</pdfrwt>
<pdfrwt beam="2">  1       -1 0.43435465E-02 0.43277833E+03</pdfrwt>
<totfact> 0.12127906E+03</totfact>
</mgrwt>
</event>
<event>
 9    1  0.2065703E-002  0.2749793E+03  0.7818608E-02  0.1098463E+00
          2   -1    0    0  501    0  0.00000000000E+00  0.00000000000E+00  0.15708960999E+03  0.15708960999E+03  0.00000000000E+00 0.  1.
         -2   -1    0    0    0  501 -0.00000000000E+00 -0.00000000000E+00 -0.12033514806E+03  0.12033514806E+03  0.00000000000E+00 0.  1.
         36    2    1    2    0    0  0.00000000000E+00  0.71054273576E-14  0.36754461924E+02  0.27742475805E+03  0.27497928269E+03 0.  0.
         25    2    3    3    0    0  0.39856036286E+02 -0.60484121841E+02 -0.46068738191E+02  0.14866255154E+03  0.12137294990E+03 0.  0.
         25    2    3    3    0    0 -0.39856036286E+02  0.60484121841E+02  0.82823200115E+02  0.12876220651E+03  0.66881916275E+02 0.  0.
          5    1    4    4  502    0 -0.76898243887E+01 -0.73121443645E+02 -0.62466951649E+02  0.96592385664E+02  0.47000000000E+01 0.  1.
         -5    1    4    4    0  502  0.47545860675E+02  0.12637321804E+02  0.16398213458E+02  0.52070165876E+02  0.47000000000E+01 0.  1.
          5    1    5    5  503    0  0.14308845587E+02 -0.26285561280E+01  0.12901379652E+02  0.20004698605E+02  0.47000000000E+01 0.  1.
         -5    1    5    5    0  503 -0.54164881874E+02  0.63112677969E+02  0.69921820463E+02  0.10875750790E+03  0.47000000000E+01 0.  1.
<mgrwt>
<rscale>  0 0.27497928E+03</rscale>
<asrwt>0</asrwt>
<pdfrwt beam="1">  1        2 0.24167632E-01 0.27497928E+03</pdfrwt>
<pdfrwt beam="2">  1       -2 0.18513100E-01 0.27497928E+03</pdfrwt>
<totfact> 0.53270755E+03</totfact>
</mgrwt>
</event>
<event>
 9    1  0.2065703E-002  0.2748079E+03  0.7818608E-02  0.1098559E+00
         -1   -1    0    0    0  501 -0.00000000000E+00  0.00000000000E+00  0.62803002527E+02  0.62803002527E+02  0.00000000000E+00 0.  1.
          1   -1    0    0  501    0  0.00000000000E+00 -0.00000000000E+00 -0.30062012337E+03  0.30062012337E+03  0.00000000000E+00 0.  1.
         36    2    1    2    0    0  0.00000000000E+00  0.71054273576E-14 -0.23781712084E+03  0.36342312590E+03  0.27480790649E+03 0.  0.
         25    2    3    3    0    0  0.23260393025E+02 -0.57923465052E+02 -0.11864718066E+03  0.18334471787E+03  0.12506781523E+03 0.  0.
         25    2    3    3    0    0 -0.23260393025E+02  0.57923465052E+02 -0.11916994018E+03  0.18007840802E+03  0.11971042021E+03 0.  0.
          5    1    4    4  502    0  0.17885567133E+02 -0.21158075677E+02 -0.13824688448E+03  0.14107391235E+03  0.47000000000E+01 0.  1.
         -5    1    4    4    0  502  0.53748258922E+01 -0.36765389375E+02  0.19599703821E+02  0.42270805518E+02  0.47000000000E+01 0.  1.
          5    1    5    5  503    0 -0.59966139892E+02  0.23190239609E+02 -0.11143729976E+03  0.12874038575E+03  0.47000000000E+01 0.  1.
         -5    1    5    5    0  503  0.36705746867E+02  0.34733225443E+02 -0.77326404243E+01  0.51338022271E+02  0.47000000000E+01 0.  1.
<mgrwt>
<rscale>  0 0.27480791E+03</rscale>
<asrwt>0</asrwt>
<pdfrwt beam="1">  1        1 0.46249249E-01 0.27480791E+03</pdfrwt>
<pdfrwt beam="2">  1       -1 0.96620005E-02 0.27480791E+03</pdfrwt>
<totfact> 0.55821915E+03</totfact>
</mgrwt>
</event>
<event>
 9    1  0.2065703E-002  0.2749148E+03  0.7818608E-02  0.1098499E+00
          1   -1    0    0  501    0  0.00000000000E+00  0.00000000000E+00  0.37761364355E+03  0.37761364355E+03  0.00000000000E+00 0. -1.
         -1   -1    0    0    0  501 -0.00000000000E+00 -0.00000000000E+00 -0.50036707544E+02  0.50036707544E+02  0.00000000000E+00 0. -1.
         36    2    1    2    0    0  0.35527136788E-14  0.00000000000E+00  0.32757693600E+03  0.42765035109E+03  0.27491484825E+03 0.  0.
         25    2    3    3    0    0  0.30044631974E+01 -0.59103650118E+02  0.16223926944E+03  0.21332575084E+03  0.12523588609E+03 0.  0.
         25    2    3    3    0    0 -0.30044631974E+01  0.59103650118E+02  0.16533766656E+03  0.21432460025E+03  0.12286668398E+03 0.  0.
          5    1    4    4  502    0  0.56549973638E+02 -0.42398913993E+02  0.13106498828E+03  0.14898217538E+03  0.47000000000E+01 0.  1.
         -5    1    4    4    0  502 -0.53545510440E+02 -0.16704736125E+02  0.31174281156E+02  0.64343575459E+02  0.47000000000E+01 0.  1.
          5    1    5    5  503    0  0.30653032746E+02 -0.18920098757E+02  0.10792333194E+02  0.37896477531E+02  0.47000000000E+01 0.  1.
         -5    1    5    5    0  503 -0.33657495943E+02  0.78023748875E+02  0.15454533337E+03  0.17642812272E+03  0.47000000000E+01 0.  1.
<mgrwt>
<rscale>  0 0.27491485E+03</rscale>
<asrwt>0</asrwt>
<pdfrwt beam="1">  1        1 0.58094405E-01 0.27491485E+03</pdfrwt>
<pdfrwt beam="2">  1       -1 0.76979553E-02 0.27491485E+03</pdfrwt>
<totfact> 0.59267059E+03</totfact>
</mgrwt>
</event>
<event>
 9    1  0.2065703E-002  0.2748406E+03  0.7818608E-02  0.1098541E+00
         -2   -1    0    0    0  501 -0.00000000000E+00  0.00000000000E+00  0.15597570053E+03  0.15597570053E+03  0.00000000000E+00 0.  1.
          2   -1    0    0  501    0  0.00000000000E+00 -0.00000000000E+00 -0.12107233765E+03  0.12107233765E+03  0.00000000000E+00 0.  1.
         36    2    1    2    0    0  0.71054273576E-14  0.00000000000E+00  0.34903362881E+02  0.27704803818E+03  0.27484062785E+03 0.  0.
         25    2    3    3    0    0  0.40149692177E+02  0.12042913636E+02  0.21836599169E+02  0.13104071298E+03  0.12222030046E+03 0.  0.
         25    2    3    3    0    0 -0.40149692177E+02 -0.12042913636E+02  0.13066763712E+02  0.14600732519E+03  0.13924930573E+03 0.  0.
          5    1    4    4  502    0 -0.24313253155E+02 -0.26295910895E+02 -0.23671603421E+02  0.43186155389E+02  0.47000000000E+01 0. -1.
         -5    1    4    4    0  502  0.64462945332E+02  0.38338824531E+02  0.45508202590E+02  0.87854557595E+02  0.47000000000E+01 0. -1.
          5    1    5    5  503    0 -0.71972570178E+01 -0.26421612426E+02 -0.59065737139E+02  0.65274446880E+02  0.47000000000E+01 0. -1.
         -5    1    5    5    0  503 -0.32952435159E+02  0.14378698789E+02  0.72132500851E+02  0.80732878314E+02  0.47000000000E+01 0. -1.
<mgrwt>
<rscale>  0 0.27484063E+03</rscale>
<asrwt>0</asrwt>
<pdfrwt beam="1">  1        2 0.18626513E-01 0.27484063E+03</pdfrwt>
<pdfrwt beam="2">  1       -2 0.23996262E-01 0.27484063E+03</pdfrwt>
<totfact> 0.45817684E+03</totfact>
</mgrwt>
</event>
<event>
 9    1  0.2065703E-002  0.2766496E+03  0.7818608E-02  0.1097533E+00
         -2   -1    0    0    0  501 -0.00000000000E+00  0.00000000000E+00  0.18893027313E+02  0.18893027313E+02  0.00000000000E+00 0.  1.
          2   -1    0    0  501    0  0.00000000000E+00 -0.00000000000E+00 -0.10127412112E+04  0.10127412112E+04  0.00000000000E+00 0.  1.
         36    2    1    2    0    0 -0.71054273576E-14  0.00000000000E+00 -0.99384818393E+03  0.10316342386E+04  0.27664957882E+03 0.  0.
         25    2    3    3    0    0  0.28072458619E+02 -0.35838276385E+02 -0.53577910763E+03  0.55375295723E+03  0.13232777667E+03 0.  0.
         25    2    3    3    0    0 -0.28072458619E+02  0.35838276385E+02 -0.45806907629E+03  0.47788128132E+03  0.12833859667E+03 0.  0.
          5    1    4    4  502    0  0.28837945147E+02  0.36889524647E+01 -0.18147950606E+02  0.34592969832E+02  0.47000000000E+01 0.  1.
         -5    1    4    4    0  502 -0.76548652753E+00 -0.39527228850E+02 -0.51763115703E+03  0.51915998740E+03  0.47000000000E+01 0.  1.
          5    1    5    5  503    0 -0.14019771456E+02  0.59817194849E+02 -0.44023324359E+03  0.44452452076E+03  0.47000000000E+01 0.  1.
         -5    1    5    5    0  503 -0.14052687163E+02 -0.23978918464E+02 -0.17835832700E+02  0.33356760564E+02  0.47000000000E+01 0.  1.
<mgrwt>
<rscale>  0 0.27664958E+03</rscale>
<asrwt>0</asrwt>
<pdfrwt beam="1">  1        2 0.15580635E+00 0.27664958E+03</pdfrwt>
<pdfrwt beam="2">  1       -2 0.29066194E-02 0.27664958E+03</pdfrwt>
<totfact> 0.11425641E+04</totfact>
</mgrwt>
</event>
<event>
 9    1  0.2065703E-002  0.2738898E+03  0.7818608E-02  0.1099074E+00
         -1   -1    0    0    0  501 -0.00000000000E+00  0.00000000000E+00  0.48746454844E+02  0.48746454844E+02  0.00000000000E+00 0.  1.
          1   -1    0    0  501    0  0.00000000000E+00 -0.00000000000E+00 -0.38472357584E+03  0.38472357584E+03  0.00000000000E+00 0.  1.
         36    2    1    2    0    0  0.35527136788E-14  0.00000000000E+00 -0.33597712099E+03  0.43347003068E+03  0.27388983491E+03 0.  0.
         25    2    3    3    0    0  0.31035969604E+02  0.94429285439E+01 -0.22043172871E+03  0.25530308731E+03  0.12464798057E+03 0.  0.
         25    2    3    3    0    0 -0.31035969604E+02 -0.94429285439E+01 -0.11554539228E+03  0.17816694337E+03  0.13168265536E+03 0.  0.
          5    1    4    4  502    0  0.14324771688E+02  0.30648388082E+02 -0.22494999770E+03  0.22752827130E+03  0.47000000000E+01 0. -1.
         -5    1    4    4    0  502  0.16711197916E+02 -0.21205459538E+02  0.45182689866E+01  0.27774816014E+02  0.47000000000E+01 0. -1.
          5    1    5    5  503    0  0.13844164516E+02  0.44083848036E+02 -0.41921863174E+01  0.46633796488E+02  0.47000000000E+01 0. -1.
         -5    1    5    5    0  503 -0.44880134120E+02 -0.53526776580E+02 -0.11135320597E+03  0.13153314688E+03  0.47000000000E+01 0. -1.
<mgrwt>
<rscale>  0 0.27388983E+03</rscale>
<asrwt>0</asrwt>
<pdfrwt beam="1">  1        1 0.59188243E-01 0.27388983E+03</pdfrwt>
<pdfrwt beam="2">  1       -1 0.74994545E-02 0.27388983E+03</pdfrwt>
<totfact> 0.60215731E+03</totfact>
</mgrwt>
</event>
<event>
 9    1  0.2065703E-002  0.2730257E+03  0.7818608E-02  0.1099560E+00
          2   -1    0    0  501    0  0.00000000000E+00  0.00000000000E+00  0.34481953505E+04  0.34481953505E+04  0.00000000000E+00 0.  1.
         -2   -1    0    0    0  501 -0.00000000000E+00 -0.00000000000E+00 -0.54044944905E+01  0.54044944905E+01  0.00000000000E+00 0.  1.
         36    2    1    2    0    0  0.00000000000E+00  0.00000000000E+00  0.34427908560E+04  0.34535998450E+04  0.27302566014E+03 0.  0.
         25    2    3    3    0    0 -0.35686613940E+02 -0.26764339393E+01  0.11589507154E+04  0.11659251917E+04  0.12220513121E+03 0.  0.
         25    2    3    3    0    0  0.35686613940E+02  0.26764339393E+01  0.22838401406E+04  0.22876746533E+04  0.12747091412E+03 0.  0.
          5    1    4    4  502    0 -0.43964809578E+02  0.32939340432E+02  0.24067733062E+03  0.24691207363E+03  0.47000000000E+01 0.  1.
         -5    1    4    4    0  502  0.82781956379E+01 -0.35615774371E+02  0.91827338481E+03  0.91901311806E+03  0.47000000000E+01 0.  1.
          5    1    5    5  503    0  0.24619155422E+02 -0.20848491704E+02  0.21884672988E+04  0.21887101157E+04  0.47000000000E+01 0.  1.
         -5    1    5    5    0  503  0.11067458518E+02  0.23524925643E+02  0.95372841721E+02  0.98964537601E+02  0.47000000000E+01 0.  1.
<mgrwt>
<rscale>  0 0.27302566E+03</rscale>
<asrwt>0</asrwt>
<pdfrwt beam="1">  1        2 0.53048983E+00 0.27302566E+03</pdfrwt>
<pdfrwt beam="2">  1       -2 0.83146345E-03 0.27302566E+03</pdfrwt>
<totfact> 0.30582564E+03</totfact>
</mgrwt>
</event>
<event>
 9    1  0.2065703E-002  0.2757651E+03  0.7818608E-02  0.1098025E+00
          2   -1    0    0  501    0  0.00000000000E+00  0.00000000000E+00  0.18836579578E+04  0.18836579578E+04  0.00000000000E+00 0.  1.
         -2   -1    0    0    0  501 -0.00000000000E+00 -0.00000000000E+00 -0.10092915106E+02  0.10092915106E+02  0.00000000000E+00 0.  1.
         36    2    1    2    0    0 -0.71054273576E-14  0.35527136788E-14  0.18735650427E+04  0.18937508729E+04  0.27576511641E+03 0.  0.
         25    2    3    3    0    0 -0.48333598958E+02  0.17905106580E+02  0.91105159041E+03  0.92120548791E+03  0.12628468214E+03 0.  0.
         25    2    3    3    0    0  0.48333598958E+02 -0.17905106580E+02  0.96251345228E+03  0.97254538499E+03  0.12944361866E+03 0.  0.
          5    1    4    4  502    0 -0.64961189018E-02  0.49607207476E+01  0.79140726737E+03  0.79143677047E+03  0.47000000000E+01 0.  1.
         -5    1    4    4    0  502 -0.48327102839E+02  0.12944385832E+02  0.11964432303E+03  0.12976871745E+03  0.47000000000E+01 0.  1.
          5    1    5    5  503    0  0.26616545700E+02  0.52939599719E+02  0.29599490482E+03  0.30190414937E+03  0.47000000000E+01 0. -1.
         -5    1    5    5    0  503  0.21717053258E+02 -0.70844706299E+02  0.66651854746E+03  0.67064123562E+03  0.47000000000E+01 0. -1.
<mgrwt>
<rscale>  0 0.27576512E+03</rscale>
<asrwt>0</asrwt>
<pdfrwt beam="1">  1        2 0.28979325E+00 0.27576512E+03</pdfrwt>
<pdfrwt beam="2">  1       -2 0.15527577E-02 0.27576512E+03</pdfrwt>
<totfact> 0.95930165E+03</totfact>
</mgrwt>
</event>
<event>
 9    1  0.2065703E-002  0.2748410E+03  0.7818608E-02  0.1098541E+00
         -2   -1    0    0    0  501 -0.00000000000E+00  0.00000000000E+00  0.11202202502E+02  0.11202202502E+02  0.00000000000E+00 0. -1.
          2   -1    0    0  501    0  0.00000000000E+00 -0.00000000000E+00 -0.16857750817E+04  0.16857750817E+04  0.00000000000E+00 0. -1.
         36    2    1    2    0    0 -0.10658141036E-13  0.14210854715E-13 -0.16745728792E+04  0.16969772842E+04  0.27484100014E+03 0.  0.
         25    2    3    3    0    0 -0.31391973657E+02  0.37764815754E+02 -0.10417344670E+04  0.10502775610E+04  0.12434073343E+03 0.  0.
         25    2    3    3    0    0  0.31391973657E+02 -0.37764815754E+02 -0.63283841218E+03  0.64669972323E+03  0.12379191726E+03 0.  0.
          5    1    4    4  502    0 -0.72726931069E+02  0.25082871735E+02 -0.85848045664E+03  0.86193337410E+03  0.47000000000E+01 0.  1.
         -5    1    4    4    0  502  0.41334957412E+02  0.12681944019E+02 -0.18325401039E+03  0.18834418688E+03  0.47000000000E+01 0.  1.
          5    1    5    5  503    0  0.26217944459E+01 -0.14722916403E+01  0.48025676119E+01  0.73618003544E+01  0.47000000000E+01 0.  1.
         -5    1    5    5    0  503  0.28770179211E+02 -0.36292524114E+02 -0.63764097979E+03  0.63933792288E+03  0.47000000000E+01 0.  1.
<mgrwt>
<rscale>  0 0.27484100E+03</rscale>
<asrwt>0</asrwt>
<pdfrwt beam="1">  1        2 0.25934983E+00 0.27484100E+03</pdfrwt>
<pdfrwt beam="2">  1       -2 0.17234170E-02 0.27484100E+03</pdfrwt>
<totfact> 0.10460695E+04</totfact>
</mgrwt>
</event>
<event>
 9    1  0.2065703E-002  0.2758237E+03  0.7818608E-02  0.1097992E+00
          1   -1    0    0  501    0  0.00000000000E+00  0.00000000000E+00  0.35189731260E+03  0.35189731260E+03  0.00000000000E+00 0. -1.
         -1   -1    0    0    0  501 -0.00000000000E+00 -0.00000000000E+00 -0.54048928607E+02  0.54048928607E+02  0.00000000000E+00 0. -1.
         36    2    1    2    0    0  0.00000000000E+00 -0.14210854715E-13  0.29784838399E+03  0.40594624121E+03  0.27582365907E+03 0.  0.
         25    2    3    3    0    0 -0.35490804792E+02 -0.36022728298E+02  0.12548815341E+03  0.18351756160E+03  0.12399267958E+03 0.  0.
         25    2    3    3    0    0  0.35490804792E+02  0.36022728298E+02  0.17236023058E+03  0.22242867960E+03  0.13118397100E+03 0.  0.
          5    1    4    4  502    0 -0.21853590547E+02  0.31624737070E+02 -0.16714939747E+01  0.38763221056E+02  0.47000000000E+01 0.  1.
         -5    1    4    4    0  502 -0.13637214245E+02 -0.67647465368E+02  0.12715964739E+03  0.14475434055E+03  0.47000000000E+01 0.  1.
          5    1    5    5  503    0  0.13516631078E+02 -0.26431412354E+02 -0.72738874562E+01  0.30924396736E+02  0.47000000000E+01 0.  1.
         -5    1    5    5    0  503  0.21974173713E+02  0.62454140652E+02  0.17963411803E+03  0.19150428287E+03  0.47000000000E+01 0.  1.
<mgrwt>
<rscale>  0 0.27582366E+03</rscale>
<asrwt>0</asrwt>
<pdfrwt beam="1">  1        1 0.54138047E-01 0.27582366E+03</pdfrwt>
<pdfrwt beam="2">  1       -1 0.83152200E-02 0.27582366E+03</pdfrwt>
<totfact> 0.57631286E+03</totfact>
</mgrwt>
</event>
<event>
 9    1  0.2065703E-002  0.2745044E+03  0.7818608E-02  0.1098729E+00
          1   -1    0    0  501    0  0.00000000000E+00  0.00000000000E+00  0.41464052992E+02  0.41464052992E+02  0.00000000000E+00 0. -1.
         -1   -1    0    0    0  501 -0.00000000000E+00 -0.00000000000E+00 -0.45432538382E+03  0.45432538382E+03  0.00000000000E+00 0. -1.
         36    2    1    2    0    0  0.71054273576E-14  0.35527136788E-14 -0.41286133083E+03  0.49578943681E+03  0.27450443924E+03 0.  0.
         25    2    3    3    0    0  0.57288136901E+02  0.10345510061E+02 -0.18282111333E+03  0.22888853185E+03  0.12480961631E+03 0.  0.
         25    2    3    3    0    0 -0.57288136901E+02 -0.10345510061E+02 -0.23004021749E+03  0.26690090496E+03  0.12218277782E+03 0.  0.
          5    1    4    4  502    0  0.15200772409E+02 -0.11573474279E+02 -0.18005117231E+03  0.18112295117E+03  0.47000000000E+01 0.  1.
         -5    1    4    4    0  502  0.42087364492E+02  0.21918984341E+02 -0.27699410170E+01  0.47765580679E+02  0.47000000000E+01 0.  1.
          5    1    5    5  503    0 -0.53334298958E+02 -0.39098293252E+02 -0.46398707149E+02  0.80920664886E+02  0.47000000000E+01 0. -1.
         -5    1    5    5    0  503 -0.39538379425E+01  0.28752783190E+02 -0.18364151034E+03  0.18598024007E+03  0.47000000000E+01 0. -1.
<mgrwt>
<rscale>  0 0.27450444E+03</rscale>
<asrwt>0</asrwt>
<pdfrwt beam="1">  1        1 0.63790853E-02 0.27450444E+03</pdfrwt>
<pdfrwt beam="2">  1       -1 0.69896211E-01 0.27450444E+03</pdfrwt>
<totfact> 0.25466484E+03</totfact>
</mgrwt>
</event>
<event>
 9    1  0.2065703E-002  0.2798251E+03  0.7818608E-02  0.1095784E+00
         -1   -1    0    0    0  501 -0.00000000000E+00  0.00000000000E+00  0.87030654218E+02  0.87030654218E+02  0.00000000000E+00 0.  1.
          1   -1    0    0  501    0  0.00000000000E+00 -0.00000000000E+00 -0.22492680980E+03  0.22492680980E+03  0.00000000000E+00 0.  1.
         36    2    1    2    0    0  0.00000000000E+00 -0.35527136788E-14 -0.13789615558E+03  0.31195746402E+03  0.27982514117E+03 0.  0.
         25    2    3    3    0    0 -0.48161309925E+02 -0.11845040854E+02 -0.25820569607E+02  0.13639173063E+03  0.12440331830E+03 0.  0.
         25    2    3    3    0    0  0.48161309925E+02  0.11845040854E+02 -0.11207558598E+03  0.17556573339E+03  0.12570828533E+03 0.  0.
          5    1    4    4  502    0 -0.67551832336E+02 -0.13235547812E+02 -0.63476524406E+02  0.93753874205E+02  0.47000000000E+01 0.  1.
         -5    1    4    4    0  502  0.19390522411E+02  0.13905069576E+01  0.37655954798E+02  0.42637856428E+02  0.47000000000E+01 0.  1.
          5    1    5    5  503    0  0.73019139255E+02  0.31890120792E+02 -0.26494173880E+02  0.84099974740E+02  0.47000000000E+01 0.  1.
         -5    1    5    5    0  503 -0.24857829330E+02 -0.20045079937E+02 -0.85581412097E+02  0.91465758649E+02  0.47000000000E+01 0.  1.
<mgrwt>
<rscale>  0 0.27982514E+03</rscale>
<asrwt>0</asrwt>
<pdfrwt beam="1">  1        1 0.34604124E-01 0.27982514E+03</pdfrwt>
<pdfrwt beam="2">  1       -1 0.13389332E-01 0.27982514E+03</pdfrwt>
<totfact> 0.48369263E+03</totfact>
</mgrwt>
</event>
<event>
 9    1  0.2065703E-002  0.2747834E+03  0.7818608E-02  0.1098573E+00
         -3   -1    0    0    0  501 -0.00000000000E+00  0.00000000000E+00  0.74012926484E+03  0.74012926484E+03  0.00000000000E+00 0. -1.
          3   -1    0    0  501    0  0.00000000000E+00 -0.00000000000E+00 -0.25504302352E+02  0.25504302352E+02  0.00000000000E+00 0. -1.
         36    2    1    2    0    0  0.00000000000E+00 -0.71054273576E-14  0.71462496248E+03  0.76563356719E+03  0.27478340962E+03 0.  0.
         25    2    3    3    0    0 -0.36344142393E+02 -0.46664529143E+02  0.41530065881E+03  0.43756327121E+03  0.12445281893E+03 0.  0.
         25    2    3    3    0    0  0.36344142393E+02  0.46664529143E+02  0.29932430368E+03  0.32807029598E+03  0.12056784549E+03 0.  0.
          5    1    4    4  502    0 -0.89972010625E+01  0.40718542658E+02  0.18465478670E+03  0.18936322134E+03  0.47000000000E+01 0. -1.
         -5    1    4    4    0  502 -0.27346941330E+02 -0.87383071801E+02  0.23064587210E+03  0.24820004987E+03  0.47000000000E+01 0. -1.
          5    1    5    5  503    0  0.58239104769E+02  0.29710382150E+02  0.29168890574E+03  0.29896322159E+03  0.47000000000E+01 0.  1.
         -5    1    5    5    0  503 -0.21894962377E+02  0.16954146994E+02  0.76353979358E+01  0.29107074387E+02  0.47000000000E+01 0.  1.
<mgrwt>
<rscale>  0 0.27478341E+03</rscale>
<asrwt>0</asrwt>
<pdfrwt beam="1">  1        3 0.39237394E-02 0.27478341E+03</pdfrwt>
<pdfrwt beam="2">  1       -3 0.11386602E+00 0.27478341E+03</pdfrwt>
<totfact> 0.56810676E+02</totfact>
</mgrwt>
</event>
<event>
 9    1  0.2065703E-002  0.2750689E+03  0.7818608E-02  0.1098413E+00
          2   -1    0    0  501    0  0.00000000000E+00  0.00000000000E+00  0.19240017993E+03  0.19240017993E+03  0.00000000000E+00 0. -1.
         -2   -1    0    0    0  501 -0.00000000000E+00 -0.00000000000E+00 -0.98314493013E+02  0.98314493013E+02  0.00000000000E+00 0. -1.
         36    2    1    2    0    0 -0.71054273576E-14  0.00000000000E+00  0.94085686914E+02  0.29071467294E+03  0.27506890878E+03 0.  0.
         25    2    3    3    0    0  0.11612362705E+02  0.32791123891E+01 -0.58386010180E+01  0.13148559357E+03  0.13080050653E+03 0.  0.
         25    2    3    3    0    0 -0.11612362705E+02 -0.32791123891E+01  0.99924287932E+02  0.15922907937E+03  0.12338329244E+03 0.  0.
          5    1    4    4  502    0 -0.44432339235E+02  0.13409976534E+02 -0.42897537098E+02  0.63374671041E+02  0.47000000000E+01 0. -1.
         -5    1    4    4    0  502  0.56044701940E+02 -0.10130864145E+02  0.37058936080E+02  0.68110922525E+02  0.47000000000E+01 0. -1.
          5    1    5    5  503    0  0.42503405583E+02 -0.13562722892E+02  0.93330769661E+02  0.10355293093E+03  0.47000000000E+01 0.  1.
         -5    1    5    5    0  503 -0.54115768288E+02  0.10283610503E+02  0.65935182700E+01  0.55676148444E+02  0.47000000000E+01 0.  1.
<mgrwt>
<rscale>  0 0.27506891E+03</rscale>
<asrwt>0</asrwt>
<pdfrwt beam="1">  1        2 0.29600028E-01 0.27506891E+03</pdfrwt>
<pdfrwt beam="2">  1       -2 0.15125307E-01 0.27506891E+03</pdfrwt>
<totfact> 0.59648106E+03</totfact>
</mgrwt>
</event>
<event>
 9    1  0.2065703E-002  0.2749648E+03  0.7818608E-02  0.1098471E+00
          2   -1    0    0  501    0  0.00000000000E+00  0.00000000000E+00  0.39045652341E+03  0.39045652341E+03  0.00000000000E+00 0.  1.
         -2   -1    0    0    0  501 -0.00000000000E+00 -0.00000000000E+00 -0.48408479924E+02  0.48408479924E+02  0.00000000000E+00 0.  1.
         36    2    1    2    0    0  0.00000000000E+00  0.00000000000E+00  0.34204804349E+03  0.43886500334E+03  0.27496477429E+03 0.  0.
         25    2    3    3    0    0 -0.21947536517E+02  0.62777857921E+02  0.13941948972E+03  0.19387520570E+03  0.11716248319E+03 0.  0.
         25    2    3    3    0    0  0.21947536517E+02 -0.62777857921E+02  0.20262855376E+03  0.24498979763E+03  0.12057742881E+03 0.  0.
          5    1    4    4  502    0 -0.59087412858E+02  0.80065610412E+01  0.10052021995E+03  0.11696936350E+03  0.47000000000E+01 0.  1.
         -5    1    4    4    0  502  0.37139876341E+02  0.54771296880E+02  0.38899269770E+02  0.76905842204E+02  0.47000000000E+01 0.  1.
          5    1    5    5  503    0  0.48506907562E+02  0.28976450597E+01  0.27536218019E+02  0.56050421327E+02  0.47000000000E+01 0. -1.
         -5    1    5    5    0  503 -0.26559371045E+02 -0.65675502981E+02  0.17509233575E+03  0.18893937631E+03  0.47000000000E+01 0. -1.
<mgrwt>
<rscale>  0 0.27496477E+03</rscale>
<asrwt>0</asrwt>
<pdfrwt beam="1">  1        2 0.60070232E-01 0.27496477E+03</pdfrwt>
<pdfrwt beam="2">  1       -2 0.74474587E-02 0.27496477E+03</pdfrwt>
<totfact> 0.86137395E+03</totfact>
</mgrwt>
</event>
<event>
 9    1  0.2065703E-002  0.2737178E+03  0.7818608E-02  0.1099170E+00
         -2   -1    0    0    0  501 -0.00000000000E+00  0.00000000000E+00  0.91511487428E+01  0.91511487428E+01  0.00000000000E+00 0.  1.
          2   -1    0    0  501    0  0.00000000000E+00 -0.00000000000E+00 -0.20467762532E+04  0.20467762532E+04  0.00000000000E+00 0.  1.
         36    2    1    2    0    0  0.35527136788E-14  0.00000000000E+00 -0.20376251044E+04  0.20559274019E+04  0.27371776659E+03 0.  0.
         25    2    3    3    0    0 -0.10337241215E+02 -0.76194882537E+01 -0.60825823997E+03  0.62101644019E+03  0.12457293984E+03 0.  0.
         25    2    3    3    0    0  0.10337241215E+02  0.76194882537E+01 -0.14293668645E+04  0.14349109617E+04  0.12535916282E+03 0.  0.
          5    1    4    4  502    0 -0.22275193438E+01  0.36799761425E+02 -0.52391642884E+03  0.52523299467E+03  0.47000000000E+01 0. -1.
         -5    1    4    4    0  502 -0.81097218710E+01 -0.44419249679E+02 -0.84341811127E+02  0.95783445517E+02  0.47000000000E+01 0. -1.
          5    1    5    5  503    0  0.53904968193E+01  0.64371737911E+02 -0.93732145603E+03  0.93955648049E+03  0.47000000000E+01 0.  1.
         -5    1    5    5    0  503  0.49467443955E+01 -0.56752249657E+02 -0.49204540845E+03  0.49535448125E+03  0.47000000000E+01 0.  1.
<mgrwt>
<rscale>  0 0.27371777E+03</rscale>
<asrwt>0</asrwt>
<pdfrwt beam="1">  1        2 0.31488894E+00 0.27371777E+03</pdfrwt>
<pdfrwt beam="2">  1       -2 0.14078678E-02 0.27371777E+03</pdfrwt>
<totfact> 0.90862314E+03</totfact>
</mgrwt>
</event>
<event>
 9    1  0.2065703E-002  0.2804357E+03  0.7818608E-02  0.1095451E+00
          2   -1    0    0  501    0  0.00000000000E+00  0.00000000000E+00  0.19004601076E+03  0.19004601076E+03  0.00000000000E+00 0.  1.
         -2   -1    0    0    0  501 -0.00000000000E+00 -0.00000000000E+00 -0.10345411165E+03  0.10345411165E+03  0.00000000000E+00 0.  1.
         36    2    1    2    0    0  0.71054273576E-14 -0.35527136788E-14  0.86591899117E+02  0.29350012241E+03  0.28043566974E+03 0.  0.
         25    2    3    3    0    0  0.39526751366E+02 -0.15278732011E+02  0.95093104508E+02  0.16310649912E+03  0.12555965835E+03 0.  0.
         25    2    3    3    0    0 -0.39526751366E+02  0.15278732011E+02 -0.85012053914E+01  0.13039362329E+03  0.12302204183E+03 0.  0.
          5    1    4    4  502    0  0.54590572437E+02  0.55916533536E+01  0.11678401354E+03  0.12912007204E+03  0.47000000000E+01 0. -1.
         -5    1    4    4    0  502 -0.15063821072E+02 -0.20870385365E+02 -0.21690909032E+02  0.33986427073E+02  0.47000000000E+01 0. -1.
          5    1    5    5  503    0 -0.35457416518E+01 -0.40520705357E+02  0.32449036564E+02  0.52244902339E+02  0.47000000000E+01 0. -1.
         -5    1    5    5    0  503 -0.35981009714E+02  0.55799437368E+02 -0.40950241955E+02  0.78148720954E+02  0.47000000000E+01 0. -1.
<mgrwt>
<rscale>  0 0.28043567E+03</rscale>
<asrwt>0</asrwt>
<pdfrwt beam="1">  1        2 0.29237848E-01 0.28043567E+03</pdfrwt>
<pdfrwt beam="2">  1       -2 0.15916017E-01 0.28043567E+03</pdfrwt>
<totfact> 0.55599389E+03</totfact>
</mgrwt>
</event>
<event>
 9    1  0.2065703E-002  0.2807909E+03  0.7818608E-02  0.1095258E+00
         -1   -1    0    0    0  501 -0.00000000000E+00  0.00000000000E+00  0.32916640968E+02  0.32916640968E+02  0.00000000000E+00 0. -1.
          1   -1    0    0  501    0  0.00000000000E+00 -0.00000000000E+00 -0.59881187744E+03  0.59881187744E+03  0.00000000000E+00 0. -1.
         36    2    1    2    0    0  0.88817841970E-15 -0.14210854715E-13 -0.56589523647E+03  0.63172851840E+03  0.28079085154E+03 0.  0.
         25    2    3    3    0    0  0.58900419477E+00  0.62742246280E+02 -0.24132400259E+03  0.28088433879E+03  0.12931280352E+03 0.  0.
         25    2    3    3    0    0 -0.58900419477E+00 -0.62742246280E+02 -0.32457123387E+03  0.35084417962E+03  0.11750836616E+03 0.  0.
          5    1    4    4  502    0  0.64608925885E+01  0.79450448508E+02 -0.24864541771E+03  0.26115273433E+03  0.47000000000E+01 0.  1.
         -5    1    4    4    0  502 -0.58718883938E+01 -0.16708202228E+02  0.73214151178E+01  0.19731604454E+02  0.47000000000E+01 0.  1.
          5    1    5    5  503    0 -0.17915494002E+02 -0.56095066972E+02 -0.32631700512E+03  0.33162101757E+03  0.47000000000E+01 0.  1.
         -5    1    5    5    0  503  0.17326489808E+02 -0.66471793084E+01  0.17457712446E+01  0.19223162046E+02  0.47000000000E+01 0.  1.
<mgrwt>
<rscale>  0 0.28079085E+03</rscale>
<asrwt>0</asrwt>
<pdfrwt beam="1">  1        1 0.92124900E-01 0.28079085E+03</pdfrwt>
<pdfrwt beam="2">  1       -1 0.50640988E-02 0.28079085E+03</pdfrwt>
<totfact> 0.60721418E+03</totfact>
</mgrwt>
</event>
<event>
 9    1  0.2065703E-002  0.2752446E+03  0.7818608E-02  0.1098315E+00
         -2   -1    0    0    0  501 -0.00000000000E+00  0.00000000000E+00  0.10182837441E+02  0.10182837441E+02  0.00000000000E+00 0. -1.
          2   -1    0    0  501    0  0.00000000000E+00 -0.00000000000E+00 -0.18599816731E+04  0.18599816731E+04  0.00000000000E+00 0. -1.
         36    2    1    2    0    0  0.00000000000E+00 -0.35527136788E-14 -0.18497988357E+04  0.18701645106E+04  0.27524455323E+03 0.  0.
         25    2    3    3    0    0 -0.47023230476E+02 -0.20995570982E+02 -0.11182476056E+04  0.11262929709E+04  0.12412151563E+03 0.  0.
         25    2    3    3    0    0  0.47023230476E+02  0.20995570982E+02 -0.73155123013E+03  0.74387153972E+03  0.12460203488E+03 0.  0.
          5    1    4    4  502    0 -0.80695307801E+02 -0.17999872596E+02 -0.99397704572E+03  0.99742076655E+03  0.47000000000E+01 0. -1.
         -5    1    4    4    0  502  0.33672077325E+02 -0.29956983869E+01 -0.12427055985E+03  0.12887220432E+03  0.47000000000E+01 0. -1.
          5    1    5    5  503    0  0.55504283022E+02 -0.36629652939E+02 -0.24808225650E+03  0.25688392885E+03  0.47000000000E+01 0. -1.
         -5    1    5    5    0  503 -0.84810525457E+01  0.57625223921E+02 -0.48346897363E+03  0.48698761087E+03  0.47000000000E+01 0. -1.
<mgrwt>
<rscale>  0 0.27524455E+03</rscale>
<asrwt>0</asrwt>
<pdfrwt beam="1">  1        2 0.28615083E+00 0.27524455E+03</pdfrwt>
<pdfrwt beam="2">  1       -2 0.15665914E-02 0.27524455E+03</pdfrwt>
<totfact> 0.97438882E+03</totfact>
</mgrwt>
</event>
<event>
 9    1  0.2065703E-002  0.2767639E+03  0.7818608E-02  0.1097470E+00
          2   -1    0    0  501    0  0.00000000000E+00  0.00000000000E+00  0.62807589310E+03  0.62807589310E+03  0.00000000000E+00 0.  1.
         -2   -1    0    0    0  501 -0.00000000000E+00 -0.00000000000E+00 -0.30489252593E+02  0.30489252593E+02  0.00000000000E+00 0.  1.
         36    2    1    2    0    0  0.71054273576E-14 -0.71054273576E-14  0.59758664051E+03  0.65856514570E+03  0.27676390337E+03 0.  0.
         25    2    3    3    0    0  0.42539271511E+02 -0.34041323025E+02  0.36496064832E+03  0.38958795416E+03  0.12495638403E+03 0.  0.
         25    2    3    3    0    0 -0.42539271511E+02  0.34041323025E+02  0.23262599220E+03  0.26897719154E+03  0.12355353508E+03 0.  0.
          5    1    4    4  502    0 -0.24582527489E+02 -0.24541565325E+01  0.25864361754E+03  0.25986329952E+03  0.47000000000E+01 0. -1.
         -5    1    4    4    0  502  0.67121799000E+02 -0.31587166493E+02  0.10631703078E+03  0.12972465464E+03  0.47000000000E+01 0. -1.
          5    1    5    5  503    0  0.28569440336E+02  0.53689770214E+02  0.99767798983E+02  0.11693805224E+03  0.47000000000E+01 0. -1.
         -5    1    5    5    0  503 -0.71108711847E+02 -0.19648447189E+02  0.13285819321E+03  0.15203913931E+03  0.47000000000E+01 0. -1.
<mgrwt>
<rscale>  0 0.27676390E+03</rscale>
<asrwt>0</asrwt>
<pdfrwt beam="1">  1        2 0.96627050E-01 0.27676390E+03</pdfrwt>
<pdfrwt beam="2">  1       -2 0.46906547E-02 0.27676390E+03</pdfrwt>
<totfact> 0.10274313E+04</totfact>
</mgrwt>
</event>
<event>
 9    1  0.2065703E-002  0.2756631E+03  0.7818608E-02  0.1098082E+00
         -2   -1    0    0    0  501 -0.00000000000E+00  0.00000000000E+00  0.18245115666E+03  0.18245115666E+03  0.00000000000E+00 0.  1.
          2   -1    0    0  501    0  0.00000000000E+00 -0.00000000000E+00 -0.10412395516E+03  0.10412395516E+03  0.00000000000E+00 0.  1.
         36    2    1    2    0    0 -0.71054273576E-14 -0.35527136788E-14  0.78327201507E+02  0.28657511182E+03  0.27566309912E+03 0.  0.
         25    2    3    3    0    0  0.51474353407E+02  0.26739323437E+02  0.24006456532E+02  0.13845365724E+03  0.12340382803E+03 0.  0.
         25    2    3    3    0    0 -0.51474353407E+02 -0.26739323437E+02  0.54320744975E+02  0.14812145457E+03  0.12499848597E+03 0.  0.
          5    1    4    4  502    0  0.72763557762E+02  0.46815185117E+02 -0.16555635828E+02  0.88217775836E+02  0.47000000000E+01 0. -1.
         -5    1    4    4    0  502 -0.21289204355E+02 -0.20075861680E+02  0.40562092361E+02  0.50235881409E+02  0.47000000000E+01 0. -1.
          5    1    5    5  503    0 -0.55378492702E+02 -0.52054517109E+01  0.90056884008E+02  0.10595379436E+03  0.47000000000E+01 0.  1.
         -5    1    5    5    0  503  0.39041392946E+01 -0.21533871727E+02 -0.35736139033E+02  0.42167660217E+02  0.47000000000E+01 0.  1.
<mgrwt>
<rscale>  0 0.27566310E+03</rscale>
<asrwt>0</asrwt>
<pdfrwt beam="1">  1        2 0.16019070E-01 0.27566310E+03</pdfrwt>
<pdfrwt beam="2">  1       -2 0.28069409E-01 0.27566310E+03</pdfrwt>
<totfact> 0.41360537E+03</totfact>
</mgrwt>
</event>
<event>
 9    1  0.2065703E-002  0.2756530E+03  0.7818608E-02  0.1098087E+00
         -2   -1    0    0    0  501 -0.00000000000E+00  0.00000000000E+00  0.51671050164E+03  0.51671050164E+03  0.00000000000E+00 0. -1.
          2   -1    0    0  501    0  0.00000000000E+00 -0.00000000000E+00 -0.36763610135E+02  0.36763610135E+02  0.00000000000E+00 0. -1.
         36    2    1    2    0    0  0.00000000000E+00 -0.14210854715E-13  0.47994689151E+03  0.55347411178E+03  0.27565299516E+03 0.  0.
         25    2    3    3    0    0 -0.39654769118E+02 -0.37957270862E+02  0.23076303981E+03  0.26882500581E+03  0.12649920189E+03 0.  0.
         25    2    3    3    0    0  0.39654769118E+02  0.37957270862E+02  0.24918385169E+03  0.28464910597E+03  0.12617157548E+03 0.  0.
          5    1    4    4  502    0 -0.59994227828E+02 -0.26671064494E+02  0.40923394481E+02  0.77507852956E+02  0.47000000000E+01 0.  1.
         -5    1    4    4    0  502  0.20339458710E+02 -0.11286206367E+02  0.18983964533E+03  0.19131715285E+03  0.47000000000E+01 0.  1.
          5    1    5    5  503    0  0.32938822519E+01  0.46796553047E+02  0.24162926235E+03  0.24618602207E+03  0.47000000000E+01 0.  1.
         -5    1    5    5    0  503  0.36360886866E+02 -0.88392821857E+01  0.75545893448E+01  0.38463083904E+02  0.47000000000E+01 0.  1.
<mgrwt>
<rscale>  0 0.27565300E+03</rscale>
<asrwt>0</asrwt>
<pdfrwt beam="1">  1        2 0.56559404E-02 0.27565300E+03</pdfrwt>
<pdfrwt beam="2">  1       -2 0.79493918E-01 0.27565300E+03</pdfrwt>
<totfact> 0.19255213E+03</totfact>
</mgrwt>
</event>
<event>
 9    1  0.2065703E-002  0.2670021E+03  0.7818608E-02  0.1103008E+00
          2   -1    0    0  501    0  0.00000000000E+00  0.00000000000E+00  0.13660974596E+04  0.13660974596E+04  0.00000000000E+00 0. -1.
         -2   -1    0    0    0  501 -0.00000000000E+00 -0.00000000000E+00 -0.13046307369E+02  0.13046307369E+02  0.00000000000E+00 0. -1.
         36    2    1    2    0    0  0.00000000000E+00  0.00000000000E+00  0.13530511522E+04  0.13791437669E+04  0.26700207754E+03 0.  0.
         25    2    3    3    0    0 -0.33902387543E+02  0.11679311625E+02  0.57721404936E+03  0.59209173340E+03  0.12692826233E+03 0.  0.
         25    2    3    3    0    0  0.33902387543E+02 -0.11679311625E+02  0.77583710283E+03  0.78705203353E+03  0.12744377251E+03 0.  0.
          5    1    4    4  502    0 -0.15968729091E+02  0.61453957639E+02  0.17189611940E+03  0.18330836065E+03  0.47000000000E+01 0. -1.
         -5    1    4    4    0  502 -0.17933658452E+02 -0.49774646014E+02  0.40531792996E+03  0.40878337275E+03  0.47000000000E+01 0. -1.
          5    1    5    5  503    0 -0.94265877363E+01  0.17646201363E+02  0.17773428440E+02  0.27170457071E+02  0.47000000000E+01 0. -1.
         -5    1    5    5    0  503  0.43328975279E+02 -0.29325512989E+02  0.75806367439E+03  0.75988157646E+03  0.47000000000E+01 0. -1.
<mgrwt>
<rscale>  0 0.26700208E+03</rscale>
<asrwt>0</asrwt>
<pdfrwt beam="1">  1        2 0.21016873E+00 0.26700208E+03</pdfrwt>
<pdfrwt beam="2">  1       -2 0.20071253E-02 0.26700208E+03</pdfrwt>
<totfact> 0.12386182E+04</totfact>
</mgrwt>
</event>
<event>
 9    1  0.2065703E-002  0.2805358E+03  0.7818608E-02  0.1095397E+00
          1   -1    0    0  501    0  0.00000000000E+00  0.00000000000E+00  0.10932702523E+03  0.10932702523E+03  0.00000000000E+00 0.  1.
         -1   -1    0    0    0  501 -0.00000000000E+00 -0.00000000000E+00 -0.17996536925E+03  0.17996536925E+03  0.00000000000E+00 0.  1.
         36    2    1    2    0    0  0.00000000000E+00  0.35527136788E-14 -0.70638344023E+02  0.28929239448E+03  0.28053576217E+03 0.  0.
         25    2    3    3    0    0  0.40351023348E+02 -0.30322422862E+02 -0.85925378848E+02  0.16194620636E+03  0.12765480254E+03 0.  0.
         25    2    3    3    0    0 -0.40351023348E+02  0.30322422862E+02  0.15287034825E+02  0.12734618812E+03  0.11591248329E+03 0.  0.
          5    1    4    4  502    0  0.63912494073E+02 -0.46998301018E+01 -0.10414816953E+03  0.12237575952E+03  0.47000000000E+01 0. -1.
         -5    1    4    4    0  502 -0.23561470725E+02 -0.25622592760E+02  0.18222790686E+02  0.39570446837E+02  0.47000000000E+01 0. -1.
          5    1    5    5  503    0 -0.59533782631E+02  0.19994890222E+02 -0.35208252719E+02  0.72151077392E+02  0.47000000000E+01 0. -1.
         -5    1    5    5    0  503  0.19182759283E+02  0.10327532639E+02  0.50495287544E+02  0.55195110728E+02  0.47000000000E+01 0. -1.
<mgrwt>
<rscale>  0 0.28053576E+03</rscale>
<asrwt>0</asrwt>
<pdfrwt beam="1">  1        1 0.16819542E-01 0.28053576E+03</pdfrwt>
<pdfrwt beam="2">  1       -1 0.27686980E-01 0.28053576E+03</pdfrwt>
<totfact> 0.37368265E+03</totfact>
</mgrwt>
</event>
<event>
 9    1  0.2065703E-002  0.2751732E+03  0.7818608E-02  0.1098355E+00
         -2   -1    0    0    0  501 -0.00000000000E+00  0.00000000000E+00  0.13029769374E+02  0.13029769374E+02  0.00000000000E+00 0. -1.
          2   -1    0    0  501    0  0.00000000000E+00 -0.00000000000E+00 -0.14528330053E+04  0.14528330053E+04  0.00000000000E+00 0. -1.
         36    2    1    2    0    0  0.00000000000E+00  0.00000000000E+00 -0.14398032359E+04  0.14658627747E+04  0.27517324723E+03 0.  0.
         25    2    3    3    0    0 -0.16177710946E+02 -0.42413700198E+02 -0.97045769956E+03  0.97900971593E+03  0.12087694958E+03 0.  0.
         25    2    3    3    0    0  0.16177710946E+02  0.42413700198E+02 -0.46934553638E+03  0.48685305877E+03  0.12116116545E+03 0.  0.
          5    1    4    4  502    0 -0.46760099068E+02 -0.25667112715E+02 -0.18066201422E+03  0.18843078549E+03  0.47000000000E+01 0. -1.
         -5    1    4    4    0  502  0.30582388122E+02 -0.16746587483E+02 -0.78979568535E+03  0.79057893044E+03  0.47000000000E+01 0. -1.
          5    1    5    5  503    0  0.23464382601E+02 -0.38901130514E+02 -0.21047318147E+03  0.21537159823E+03  0.47000000000E+01 0.  1.
         -5    1    5    5    0  503 -0.72866716552E+01  0.81314830712E+02 -0.25887235492E+03  0.27148146054E+03  0.47000000000E+01 0.  1.
<mgrwt>
<rscale>  0 0.27517325E+03</rscale>
<asrwt>0</asrwt>
<pdfrwt beam="1">  1        2 0.22351275E+00 0.27517325E+03</pdfrwt>
<pdfrwt beam="2">  1       -2 0.20045801E-02 0.27517325E+03</pdfrwt>
<totfact> 0.11144354E+04</totfact>
</mgrwt>
</event>
<event>
 9    1  0.2065703E-002  0.2748840E+03  0.7818608E-02  0.1098516E+00
         -2   -1    0    0    0  501 -0.00000000000E+00  0.00000000000E+00  0.45214780366E+02  0.45214780366E+02  0.00000000000E+00 0.  1.
          2   -1    0    0  501    0  0.00000000000E+00 -0.00000000000E+00 -0.41779055864E+03  0.41779055864E+03  0.00000000000E+00 0.  1.
         36    2    1    2    0    0  0.71054273576E-14  0.00000000000E+00 -0.37257577827E+03  0.46300533900E+03  0.27488403626E+03 0.  0.
         25    2    3    3    0    0  0.28542857566E+02 -0.36773301261E+02 -0.13353684624E+03  0.18889797503E+03  0.12523332329E+03 0.  0.
         25    2    3    3    0    0 -0.28542857566E+02  0.36773301261E+02 -0.23903893203E+03  0.27410736397E+03  0.12581043500E+03 0.  0.
          5    1    4    4  502    0 -0.23162838620E+02 -0.63623357358E+02 -0.10190085472E+03  0.12243497412E+03  0.47000000000E+01 0.  1.
         -5    1    4    4    0  502  0.51705696185E+02  0.26850056097E+02 -0.31635991522E+02  0.66463000910E+02  0.47000000000E+01 0.  1.
          5    1    5    5  503    0 -0.74230156308E+02  0.14901223177E+02 -0.18471058858E+03  0.19968037984E+03  0.47000000000E+01 0. -1.
         -5    1    5    5    0  503  0.45687298743E+02  0.21872078084E+02 -0.54328343447E+02  0.74426984138E+02  0.47000000000E+01 0. -1.
<mgrwt>
<rscale>  0 0.27488404E+03</rscale>
<asrwt>0</asrwt>
<pdfrwt beam="1">  1        2 0.64275468E-01 0.27488404E+03</pdfrwt>
<pdfrwt beam="2">  1       -2 0.69561204E-02 0.27488404E+03</pdfrwt>
<totfact> 0.88960653E+03</totfact>
</mgrwt>
</event>
<event>
 9    1  0.2065703E-002  0.2753286E+03  0.7818608E-02  0.1098268E+00
          2   -1    0    0  501    0  0.00000000000E+00  0.00000000000E+00  0.54038258295E+03  0.54038258295E+03  0.00000000000E+00 0. -1.
         -2   -1    0    0    0  501 -0.00000000000E+00 -0.00000000000E+00 -0.35070455169E+02  0.35070455169E+02  0.00000000000E+00 0. -1.
         36    2    1    2    0    0  0.00000000000E+00  0.00000000000E+00  0.50531212778E+03  0.57545303812E+03  0.27532862655E+03 0.  0.
         25    2    3    3    0    0 -0.27319793029E-01  0.51189906904E+02  0.21039924204E+03  0.25128154481E+03  0.12749182874E+03 0.  0.
         25    2    3    3    0    0  0.27319793029E-01 -0.51189906904E+02  0.29491288574E+03  0.32417149331E+03  0.12447144084E+03 0.  0.
          5    1    4    4  502    0  0.14217416085E+02 -0.13338834570E+02 -0.90859230730E+01  0.22015981148E+02  0.47000000000E+01 0. -1.
         -5    1    4    4    0  502 -0.14244735878E+02  0.64528741474E+02  0.21948516511E+03  0.22926556366E+03  0.47000000000E+01 0. -1.
          5    1    5    5  503    0 -0.51118400274E+02 -0.62790503229E+02  0.16089034136E+03  0.18017638604E+03  0.47000000000E+01 0. -1.
         -5    1    5    5    0  503  0.51145720067E+02  0.11600596325E+02  0.13402254438E+03  0.14399510728E+03  0.47000000000E+01 0. -1.
<mgrwt>
<rscale>  0 0.27532863E+03</rscale>
<asrwt>0</asrwt>
<pdfrwt beam="1">  1        2 0.83135776E-01 0.27532863E+03</pdfrwt>
<pdfrwt beam="2">  1       -2 0.53954550E-02 0.27532863E+03</pdfrwt>
<totfact> 0.98766482E+03</totfact>
</mgrwt>
</event>
<event>
 9    1  0.2065703E-002  0.2741551E+03  0.7818608E-02  0.1098925E+00
         -1   -1    0    0    0  501 -0.00000000000E+00  0.00000000000E+00  0.30321847531E+03  0.30321847531E+03  0.00000000000E+00 0. -1.
          1   -1    0    0  501    0  0.00000000000E+00 -0.00000000000E+00 -0.61969360208E+02  0.61969360208E+02  0.00000000000E+00 0. -1.
         36    2    1    2    0    0  0.00000000000E+00 -0.71054273576E-14  0.24124911510E+03  0.36518783552E+03  0.27415510149E+03 0.  0.
         25    2    3    3    0    0 -0.19209173239E+02 -0.42957245255E+02  0.18313002653E+03  0.22712569725E+03  0.12583782611E+03 0.  0.
         25    2    3    3    0    0  0.19209173239E+02  0.42957245255E+02  0.58119088576E+02  0.13806213827E+03  0.11605605675E+03 0.  0.
          5    1    4    4  502    0 -0.70256526367E+02 -0.29007104911E+02  0.13710273105E+03  0.15683316134E+03  0.47000000000E+01 0.  1.
         -5    1    4    4    0  502  0.51047353127E+02 -0.13950140344E+02  0.46027295474E+02  0.70292535917E+02  0.47000000000E+01 0.  1.
          5    1    5    5  503    0 -0.14237082090E+01  0.52771463304E+02  0.86425956837E+02  0.10138239640E+03  0.47000000000E+01 0.  1.
         -5    1    5    5    0  503  0.20632881448E+02 -0.98142180486E+01 -0.28306868261E+02  0.36679741868E+02  0.47000000000E+01 0.  1.
<mgrwt>
<rscale>  0 0.27415510E+03</rscale>
<asrwt>0</asrwt>
<pdfrwt beam="1">  1        1 0.95337479E-02 0.27415510E+03</pdfrwt>
<pdfrwt beam="2">  1       -1 0.46648996E-01 0.27415510E+03</pdfrwt>
<totfact> 0.31842163E+03</totfact>
</mgrwt>
</event>
<event>
 9    1  0.2065703E-002  0.2768477E+03  0.7818608E-02  0.1097423E+00
          1   -1    0    0  501    0  0.00000000000E+00  0.00000000000E+00  0.88044565301E+03  0.88044565301E+03  0.00000000000E+00 0.  1.
         -1   -1    0    0    0  501 -0.00000000000E+00 -0.00000000000E+00 -0.21763022893E+02  0.21763022893E+02  0.00000000000E+00 0.  1.
         36    2    1    2    0    0 -0.35527136788E-14  0.48849813084E-14  0.85868263012E+03  0.90220867591E+03  0.27684767583E+03 0.  0.
         25    2    3    3    0    0  0.13253049018E+02 -0.37996057158E+01  0.57419593149E+03  0.58718744394E+03  0.12205755310E+03 0.  0.
         25    2    3    3    0    0 -0.13253049018E+02  0.37996057158E+01  0.28448669863E+03  0.31502123197E+03  0.13459425909E+03 0.  0.
          5    1    4    4  502    0  0.35085381174E+02 -0.51019362559E+02  0.41553680064E+03  0.42015102286E+03  0.47000000000E+01 0.  1.
         -5    1    4    4    0  502 -0.21832332156E+02  0.47219756844E+02  0.15865913085E+03  0.16703642108E+03  0.47000000000E+01 0.  1.
          5    1    5    5  503    0  0.56333650332E+02  0.16121469895E+01  0.18537531322E+03  0.19380963838E+03  0.47000000000E+01 0.  1.
         -5    1    5    5    0  503 -0.69586699350E+02  0.21874587263E+01  0.99111385415E+02  0.12121159359E+03  0.47000000000E+01 0.  1.
<mgrwt>
<rscale>  0 0.27684768E+03</rscale>
<asrwt>0</asrwt>
<pdfrwt beam="1">  1        1 0.13545315E+00 0.27684768E+03</pdfrwt>
<pdfrwt beam="2">  1       -1 0.33481581E-02 0.27684768E+03</pdfrwt>
<totfact> 0.63372634E+03</totfact>
</mgrwt>
</event>
<event>
 9    1  0.2065703E-002  0.2736299E+03  0.7818608E-02  0.1099220E+00
         -2   -1    0    0    0  501 -0.00000000000E+00  0.00000000000E+00  0.10481160004E+04  0.10481160004E+04  0.00000000000E+00 0.  1.
          2   -1    0    0  501    0  0.00000000000E+00 -0.00000000000E+00 -0.17859030795E+02  0.17859030795E+02  0.00000000000E+00 0.  1.
         36    2    1    2    0    0  0.17763568394E-14  0.53290705182E-14  0.10302569696E+04  0.10659750312E+04  0.27362993935E+03 0.  0.
         25    2    3    3    0    0  0.79368380760E+01  0.15582718602E+02  0.24196535200E+03  0.26774401582E+03  0.11328641543E+03 0.  0.
         25    2    3    3    0    0 -0.79368380760E+01 -0.15582718602E+02  0.78829161757E+03  0.79823101534E+03  0.12435137717E+03 0.  0.
          5    1    4    4  502    0  0.19235723099E+02 -0.14959738365E+02  0.13121412465E+01  0.24851932113E+02  0.47000000000E+01 0.  1.
         -5    1    4    4    0  502 -0.11298885024E+02  0.30542456967E+02  0.24065321076E+03  0.24289208371E+03  0.47000000000E+01 0.  1.
          5    1    5    5  503    0 -0.24292936615E+02 -0.66372456550E+02  0.39388078142E+03  0.40019946243E+03  0.47000000000E+01 0.  1.
         -5    1    5    5    0  503  0.16356098539E+02  0.50789737948E+02  0.39441083615E+03  0.39803155291E+03  0.47000000000E+01 0.  1.
<mgrwt>
<rscale>  0 0.27362994E+03</rscale>
<asrwt>0</asrwt>
<pdfrwt beam="1">  1        2 0.27475440E-02 0.27362994E+03</pdfrwt>
<pdfrwt beam="2">  1       -2 0.16124857E+00 0.27362994E+03</pdfrwt>
<totfact> 0.92695130E+02</totfact>
</mgrwt>
</event>
<event>
 9    1  0.2065703E-002  0.2695026E+03  0.7818608E-02  0.1101565E+00
         -1   -1    0    0    0  501 -0.00000000000E+00  0.00000000000E+00  0.45297995883E+02  0.45297995883E+02  0.00000000000E+00 0.  1.
          1   -1    0    0  501    0  0.00000000000E+00 -0.00000000000E+00 -0.40085470058E+03  0.40085470058E+03  0.00000000000E+00 0.  1.
         36    2    1    2    0    0 -0.35527136788E-14  0.71054273576E-14 -0.35555670469E+03  0.44615269646E+03  0.26950261280E+03 0.  0.
         25    2    3    3    0    0  0.66188861793E+01  0.11331462688E+02 -0.25703464654E+03  0.28644943247E+03  0.12575474600E+03 0.  0.
         25    2    3    3    0    0 -0.66188861793E+01 -0.11331462688E+02 -0.98522058157E+02  0.15970326399E+03  0.12500529942E+03 0.  0.
          5    1    4    4  502    0 -0.16774290897E+02 -0.51464161940E+02 -0.15536709091E+03  0.16459331620E+03  0.47000000000E+01 0. -1.
         -5    1    4    4    0  502  0.23393177077E+02  0.62795624628E+02 -0.10166755563E+03  0.12185611627E+03  0.47000000000E+01 0. -1.
          5    1    5    5  503    0 -0.18526599916E+02 -0.64795172140E+02 -0.71775710225E+02  0.98567194418E+02  0.47000000000E+01 0.  1.
         -5    1    5    5    0  503  0.11907713737E+02  0.53463709452E+02 -0.26746347932E+02  0.61136069570E+02  0.47000000000E+01 0.  1.
<mgrwt>
<rscale>  0 0.26950261E+03</rscale>
<asrwt>0</asrwt>
<pdfrwt beam="1">  1        1 0.61669953E-01 0.26950261E+03</pdfrwt>
<pdfrwt beam="2">  1       -1 0.69689226E-02 0.26950261E+03</pdfrwt>
<totfact> 0.63838403E+03</totfact>
</mgrwt>
</event>
<event>
 9    1  0.2065703E-002  0.2749603E+03  0.7818608E-02  0.1098474E+00
          2   -1    0    0  501    0  0.00000000000E+00  0.00000000000E+00  0.81346264138E+03  0.81346264138E+03  0.00000000000E+00 0. -1.
         -2   -1    0    0    0  501 -0.00000000000E+00 -0.00000000000E+00 -0.23234978835E+02  0.23234978835E+02  0.00000000000E+00 0. -1.
         36    2    1    2    0    0  0.71054273576E-14  0.71054273576E-14  0.79022766255E+03  0.83669762022E+03  0.27496026808E+03 0.  0.
         25    2    3    3    0    0 -0.52104403539E+02 -0.35013469440E+02  0.33075608753E+03  0.35933914230E+03  0.12563525715E+03 0.  0.
         25    2    3    3    0    0  0.52104403539E+02  0.35013469440E+02  0.45947157501E+03  0.47735847792E+03  0.11320855216E+03 0.  0.
          5    1    4    4  502    0  0.22616699749E+02  0.17970967943E+02  0.18375095088E+03  0.18606711893E+03  0.47000000000E+01 0. -1.
         -5    1    4    4    0  502 -0.74721103288E+02 -0.52984437382E+02  0.14700513665E+03  0.17327202337E+03  0.47000000000E+01 0. -1.
          5    1    5    5  503    0  0.70879043978E+01  0.58888028815E+02  0.36592315006E+03  0.37072884980E+03  0.47000000000E+01 0.  1.
         -5    1    5    5    0  503  0.45016499142E+02 -0.23874559375E+02  0.93548424957E+02  0.10662962812E+03  0.47000000000E+01 0.  1.
<mgrwt>
<rscale>  0 0.27496027E+03</rscale>
<asrwt>0</asrwt>
<pdfrwt beam="1">  1        2 0.12514808E+00 0.27496027E+03</pdfrwt>
<pdfrwt beam="2">  1       -2 0.35746128E-02 0.27496027E+03</pdfrwt>
<totfact> 0.11268435E+04</totfact>
</mgrwt>
</event>
<event>
 9    1  0.2065703E-002  0.2732170E+03  0.7818608E-02  0.1099452E+00
         -2   -1    0    0    0  501 -0.00000000000E+00  0.00000000000E+00  0.20313497498E+02  0.20313497498E+02  0.00000000000E+00 0.  1.
          2   -1    0    0  501    0  0.00000000000E+00 -0.00000000000E+00 -0.91869353898E+03  0.91869353898E+03  0.00000000000E+00 0.  1.
         36    2    1    2    0    0  0.17763568394E-14 -0.71054273576E-14 -0.89838004148E+03  0.93900703647E+03  0.27321697535E+03 0.  0.
         25    2    3    3    0    0  0.13608387314E+02 -0.46032102897E+02 -0.36641513453E+03  0.38992236463E+03  0.12439958570E+03 0.  0.
         25    2    3    3    0    0 -0.13608387314E+02  0.46032102897E+02 -0.53196490695E+03  0.54908467185E+03  0.12729168052E+03 0.  0.
          5    1    4    4  502    0  0.63128447864E+01  0.12543111488E+02  0.35671947722E+01  0.15231432423E+02  0.47000000000E+01 0. -1.
         -5    1    4    4    0  502  0.72955425272E+01 -0.58575214386E+02 -0.36998232930E+03  0.37469093220E+03  0.47000000000E+01 0. -1.
          5    1    5    5  503    0  0.16016222274E+02  0.68987613872E+02 -0.15792081015E+03  0.17313833348E+03  0.47000000000E+01 0. -1.
         -5    1    5    5    0  503 -0.29624609587E+02 -0.22955510974E+02 -0.37404409680E+03  0.37594633837E+03  0.47000000000E+01 0. -1.
<mgrwt>
<rscale>  0 0.27321698E+03</rscale>
<asrwt>0</asrwt>
<pdfrwt beam="1">  1        2 0.14133745E+00 0.27321698E+03</pdfrwt>
<pdfrwt beam="2">  1       -2 0.31251538E-02 0.27321698E+03</pdfrwt>
<totfact> 0.11734397E+04</totfact>
</mgrwt>
</event>
<event>
 9    1  0.2065703E-002  0.2746870E+03  0.7818608E-02  0.1098627E+00
          1   -1    0    0  501    0  0.00000000000E+00  0.00000000000E+00  0.30408583039E+03  0.30408583039E+03  0.00000000000E+00 0. -1.
         -1   -1    0    0    0  501 -0.00000000000E+00 -0.00000000000E+00 -0.62032603007E+02  0.62032603007E+02  0.00000000000E+00 0. -1.
         36    2    1    2    0    0  0.00000000000E+00  0.00000000000E+00  0.24205322738E+03  0.36611843340E+03  0.27468698984E+03 0.  0.
         25    2    3    3    0    0 -0.15296916238E+02 -0.57570517039E+02  0.10960932565E+03  0.17786685986E+03  0.12678349848E+03 0.  0.
         25    2    3    3    0    0  0.15296916238E+02  0.57570517039E+02  0.13244390173E+03  0.18825157354E+03  0.11978692648E+03 0.  0.
          5    1    4    4  502    0  0.37070745450E+02 -0.15266463679E+02  0.10231494857E+03  0.10998974399E+03  0.47000000000E+01 0.  1.
         -5    1    4    4    0  502 -0.52367661688E+02 -0.42304053360E+02  0.72943770750E+01  0.67877115866E+02  0.47000000000E+01 0.  1.
          5    1    5    5  503    0  0.19030404812E+02 -0.27857416948E+02  0.82161289605E+02  0.88942450471E+02  0.47000000000E+01 0. -1.
         -5    1    5    5    0  503 -0.37334885742E+01  0.85427933987E+02  0.50282612128E+02  0.99309123068E+02  0.47000000000E+01 0. -1.
<mgrwt>
<rscale>  0 0.27468699E+03</rscale>
<asrwt>0</asrwt>
<pdfrwt beam="1">  1        1 0.46782435E-01 0.27468699E+03</pdfrwt>
<pdfrwt beam="2">  1       -1 0.95434775E-02 0.27468699E+03</pdfrwt>
<totfact> 0.56079186E+03</totfact>
</mgrwt>
</event>
<event>
 9    1  0.2065703E-002  0.2756381E+03  0.7818608E-02  0.1098095E+00
         -2   -1    0    0    0  501 -0.00000000000E+00  0.00000000000E+00  0.12139308278E+02  0.12139308278E+02  0.00000000000E+00 0.  1.
          2   -1    0    0  501    0  0.00000000000E+00 -0.00000000000E+00 -0.15646766739E+04  0.15646766739E+04  0.00000000000E+00 0.  1.
         36    2    1    2    0    0  0.00000000000E+00  0.14210854715E-13 -0.15525373657E+04  0.15768159822E+04  0.27563811421E+03 0.  0.
         25    2    3    3    0    0  0.39852215759E+02 -0.67669963203E+02 -0.83787538476E+03  0.84975315385E+03  0.11780424046E+03 0.  0.
         25    2    3    3    0    0 -0.39852215759E+02  0.67669963203E+02 -0.71466198091E+03  0.72706282837E+03  0.10821823519E+03 0.  0.
          5    1    4    4  502    0  0.60811944214E+02  0.34855943956E+00 -0.23964581742E+03  0.24728611336E+03  0.47000000000E+01 0. -1.
         -5    1    4    4    0  502 -0.20959728455E+02 -0.68018522643E+02 -0.59822956734E+03  0.60246704049E+03  0.47000000000E+01 0. -1.
          5    1    5    5  503    0 -0.59125759171E+02  0.12656387466E+02 -0.19742557471E+03  0.20653083811E+03  0.47000000000E+01 0. -1.
         -5    1    5    5    0  503  0.19273543412E+02  0.55013575737E+02 -0.51723640620E+03  0.52053199026E+03  0.47000000000E+01 0. -1.
<mgrwt>
<rscale>  0 0.27563811E+03</rscale>
<asrwt>0</asrwt>
<pdfrwt beam="1">  1        2 0.24071944E+00 0.27563811E+03</pdfrwt>
<pdfrwt beam="2">  1       -2 0.18675862E-02 0.27563811E+03</pdfrwt>
<totfact> 0.10775622E+04</totfact>
</mgrwt>
</event>
<event>
 9    1  0.2065703E-002  0.2748540E+03  0.7818608E-02  0.1098533E+00
         -2   -1    0    0    0  501 -0.00000000000E+00  0.00000000000E+00  0.49268773351E+02  0.49268773351E+02  0.00000000000E+00 0.  1.
          2   -1    0    0  501    0  0.00000000000E+00 -0.00000000000E+00 -0.38332959112E+03  0.38332959112E+03  0.00000000000E+00 0.  1.
         36    2    1    2    0    0  0.00000000000E+00  0.00000000000E+00 -0.33406081777E+03  0.43259836447E+03  0.27485398846E+03 0.  0.
         25    2    3    3    0    0  0.47292406594E+02 -0.29805227299E+01 -0.16228051614E+03  0.21170333083E+03  0.12742793700E+03 0.  0.
         25    2    3    3    0    0 -0.47292406594E+02  0.29805227299E+01 -0.17178030163E+03  0.22089503364E+03  0.13053998860E+03 0.  0.
          5    1    4    4  502    0  0.22056181909E+02  0.41408056609E+02 -0.63723279817E+01  0.47579395503E+02  0.47000000000E+01 0.  1.
         -5    1    4    4    0  502  0.25236224685E+02 -0.44388579339E+02 -0.15590818816E+03  0.16412393532E+03  0.47000000000E+01 0.  1.
          5    1    5    5  503    0  0.36496308777E+02 -0.25101516345E+02 -0.89904481003E+02  0.10033430311E+03  0.47000000000E+01 0.  1.
         -5    1    5    5    0  503 -0.83788715371E+02  0.28082039075E+02 -0.81875820626E+02  0.12056073053E+03  0.47000000000E+01 0.  1.
<mgrwt>
<rscale>  0 0.27485399E+03</rscale>
<asrwt>0</asrwt>
<pdfrwt beam="1">  1        2 0.58973782E-01 0.27485399E+03</pdfrwt>
<pdfrwt beam="2">  1       -2 0.75798114E-02 0.27485399E+03</pdfrwt>
<totfact> 0.85498033E+03</totfact>
</mgrwt>
</event>
<event>
 9    1  0.2065703E-002  0.2746414E+03  0.7818608E-02  0.1098652E+00
          3   -1    0    0  501    0  0.00000000000E+00  0.00000000000E+00  0.10755873743E+04  0.10755873743E+04  0.00000000000E+00 0. -1.
         -3   -1    0    0    0  501 -0.00000000000E+00 -0.00000000000E+00 -0.17531792810E+02  0.17531792810E+02  0.00000000000E+00 0. -1.
         36    2    1    2    0    0 -0.17763568394E-14 -0.71054273576E-14  0.10580555815E+04  0.10931191671E+04  0.27464140253E+03 0.  0.
         25    2    3    3    0    0  0.57706185153E+01 -0.40442003640E+02  0.54085952887E+03  0.55653747029E+03  0.12464377309E+03 0.  0.
         25    2    3    3    0    0 -0.57706185153E+01  0.40442003640E+02  0.51719605266E+03  0.53658169686E+03  0.13696461157E+03 0.  0.
          5    1    4    4  502    0  0.56007268216E+01 -0.62295485701E+02  0.52592892249E+03  0.52965594227E+03  0.47000000000E+01 0. -1.
         -5    1    4    4    0  502  0.16989169368E+00  0.21853482061E+02  0.14930606383E+02  0.26881528014E+02  0.47000000000E+01 0. -1.
          5    1    5    5  503    0 -0.34832884947E+02  0.46424766401E+02  0.49696094853E+03  0.50036073305E+03  0.47000000000E+01 0. -1.
         -5    1    5    5    0  503  0.29062266432E+02 -0.59827627616E+01  0.20235104125E+02  0.36220963811E+02  0.47000000000E+01 0. -1.
<mgrwt>
<rscale>  0 0.27464140E+03</rscale>
<asrwt>0</asrwt>
<pdfrwt beam="1">  1        3 0.16547493E+00 0.27464140E+03</pdfrwt>
<pdfrwt beam="2">  1       -3 0.26971997E-02 0.27464140E+03</pdfrwt>
<totfact> 0.40681343E+02</totfact>
</mgrwt>
</event>
<event>
 9    1  0.2065703E-002  0.2692773E+03  0.7818608E-02  0.1101694E+00
         -1   -1    0    0    0  501 -0.00000000000E+00  0.00000000000E+00  0.91807344640E+01  0.91807344640E+01  0.00000000000E+00 0.  1.
          1   -1    0    0  501    0  0.00000000000E+00 -0.00000000000E+00 -0.19745228327E+04  0.19745228327E+04  0.00000000000E+00 0.  1.
         36    2    1    2    0    0  0.71054273576E-14  0.00000000000E+00 -0.19653420983E+04  0.19837035672E+04  0.26927732783E+03 0.  0.
         25    2    3    3    0    0  0.42910414206E+02  0.35750333200E+01 -0.10728589088E+04  0.10811055563E+04  0.12613049234E+03 0.  0.
         25    2    3    3    0    0 -0.42910414206E+02 -0.35750333200E+01 -0.89248318943E+03  0.90259801088E+03  0.12768258038E+03 0.  0.
          5    1    4    4  502    0 -0.42653869404E+02 -0.54662353999E+01 -0.49083104085E+03  0.49273363287E+03  0.47000000000E+01 0. -1.
         -5    1    4    4    0  502  0.85564283610E+02  0.90412687199E+01 -0.58202786798E+03  0.58837192343E+03  0.47000000000E+01 0. -1.
          5    1    5    5  503    0  0.17543901611E+02  0.21051572781E+02 -0.47165936974E+02  0.54751007397E+02  0.47000000000E+01 0.  1.
         -5    1    5    5    0  503 -0.60454315817E+02 -0.24626606101E+02 -0.84531725245E+03  0.84784700349E+03  0.47000000000E+01 0.  1.
<mgrwt>
<rscale>  0 0.26927733E+03</rscale>
<asrwt>0</asrwt>
<pdfrwt beam="1">  1        1 0.30377303E+00 0.26927733E+03</pdfrwt>
<pdfrwt beam="2">  1       -1 0.14124193E-02 0.26927733E+03</pdfrwt>
<totfact> 0.39928788E+03</totfact>
</mgrwt>
</event>
<event>
 9    1  0.2065703E-002  0.2759109E+03  0.7818608E-02  0.1097944E+00
         -1   -1    0    0    0  501 -0.00000000000E+00  0.00000000000E+00  0.38051120523E+02  0.38051120523E+02  0.00000000000E+00 0. -1.
          1   -1    0    0  501    0  0.00000000000E+00 -0.00000000000E+00 -0.50016156759E+03  0.50016156759E+03  0.00000000000E+00 0. -1.
         36    2    1    2    0    0  0.00000000000E+00  0.00000000000E+00 -0.46211044706E+03  0.53821268811E+03  0.27591091381E+03 0.  0.
         25    2    3    3    0    0 -0.68076745765E+01  0.25965765887E+02 -0.27662142135E+03  0.30489542232E+03  0.12538437851E+03 0.  0.
         25    2    3    3    0    0  0.68076745765E+01 -0.25965765887E+02 -0.18548902571E+03  0.23331726579E+03  0.13896115436E+03 0.  0.
          5    1    4    4  502    0 -0.59679647197E+02 -0.30510728122E+01 -0.19007599644E+03  0.19930364712E+03  0.47000000000E+01 0.  1.
         -5    1    4    4    0  502  0.52871972620E+02  0.29016838700E+02 -0.86545424913E+02  0.10559177520E+03  0.47000000000E+01 0.  1.
          5    1    5    5  503    0 -0.18538338772E+02  0.40662227007E+02 -0.14367766428E+03  0.15054051920E+03  0.47000000000E+01 0. -1.
         -5    1    5    5    0  503  0.25346013348E+02 -0.66627992894E+02 -0.41811361437E+02  0.82776746583E+02  0.47000000000E+01 0. -1.
<mgrwt>
<rscale>  0 0.27591091E+03</rscale>
<asrwt>0</asrwt>
<pdfrwt beam="1">  1        1 0.76947929E-01 0.27591091E+03</pdfrwt>
<pdfrwt beam="2">  1       -1 0.58540189E-02 0.27591091E+03</pdfrwt>
<totfact> 0.62315438E+03</totfact>
</mgrwt>
</event>
<event>
 9    1  0.2065703E-002  0.2751836E+03  0.7818608E-02  0.1098349E+00
         -2   -1    0    0    0  501 -0.00000000000E+00  0.00000000000E+00  0.57920329284E+02  0.57920329284E+02  0.00000000000E+00 0. -1.
          2   -1    0    0  501    0  0.00000000000E+00 -0.00000000000E+00 -0.32685409891E+03  0.32685409891E+03  0.00000000000E+00 0. -1.
         36    2    1    2    0    0  0.00000000000E+00 -0.35527136788E-14 -0.26893376962E+03  0.38477442819E+03  0.27518355355E+03 0.  0.
         25    2    3    3    0    0  0.13685817268E+01 -0.10258006793E+02 -0.58734110278E+02  0.14143072722E+03  0.12824139415E+03 0.  0.
         25    2    3    3    0    0 -0.13685817268E+01  0.10258006793E+02 -0.21019965934E+03  0.24334370097E+03  0.12216857326E+03 0.  0.
          5    1    4    4  502    0 -0.44429586728E+02  0.36214296788E+02 -0.48474429291E+02  0.75215183067E+02  0.47000000000E+01 0.  1.
         -5    1    4    4    0  502  0.45798168455E+02 -0.46472303581E+02 -0.10259680987E+02  0.66215544156E+02  0.47000000000E+01 0.  1.
          5    1    5    5  503    0  0.23805211933E+02 -0.11226192241E+02 -0.20814318205E+03  0.20985325764E+03  0.47000000000E+01 0.  1.
         -5    1    5    5    0  503 -0.25173793659E+02  0.21484199034E+02 -0.20564772912E+01  0.33490443326E+02  0.47000000000E+01 0.  1.
<mgrwt>
<rscale>  0 0.27518355E+03</rscale>
<asrwt>0</asrwt>
<pdfrwt beam="1">  1        2 0.50285246E-01 0.27518355E+03</pdfrwt>
<pdfrwt beam="2">  1       -2 0.89108199E-02 0.27518355E+03</pdfrwt>
<totfact> 0.78840424E+03</totfact>
</mgrwt>
</event>
<event>
 9    1  0.2065703E-002  0.2755349E+03  0.7818608E-02  0.1098153E+00
          2   -1    0    0  501    0  0.00000000000E+00  0.00000000000E+00  0.81659640788E+03  0.81659640788E+03  0.00000000000E+00 0. -1.
         -2   -1    0    0    0  501 -0.00000000000E+00 -0.00000000000E+00 -0.23242658972E+02  0.23242658972E+02  0.00000000000E+00 0. -1.
         36    2    1    2    0    0  0.00000000000E+00  0.00000000000E+00  0.79335374891E+03  0.83983906685E+03  0.27553491123E+03 0.  0.
         25    2    3    3    0    0 -0.53783622163E+02  0.19126856488E+02  0.39807510408E+03  0.42226079644E+03  0.12877063745E+03 0.  0.
         25    2    3    3    0    0  0.53783622163E+02 -0.19126856488E+02  0.39527864483E+03  0.41757827042E+03  0.12193395840E+03 0.  0.
          5    1    4    4  502    0  0.17447851911E+02  0.11447709264E+02  0.40790850877E+01  0.21776283403E+02  0.47000000000E+01 0. -1.
         -5    1    4    4    0  502 -0.71231474074E+02  0.76791472237E+01  0.39399601899E+03  0.40048451303E+03  0.47000000000E+01 0. -1.
          5    1    5    5  503    0  0.62835381725E+02 -0.45757136791E+01  0.39477841853E+03  0.39980159090E+03  0.47000000000E+01 0. -1.
         -5    1    5    5    0  503 -0.90517595619E+01 -0.14551142809E+02  0.50022630410E+00  0.17776679515E+02  0.47000000000E+01 0. -1.
<mgrwt>
<rscale>  0 0.27553491E+03</rscale>
<asrwt>0</asrwt>
<pdfrwt beam="1">  1        2 0.12563019E+00 0.27553491E+03</pdfrwt>
<pdfrwt beam="2">  1       -2 0.35757943E-02 0.27553491E+03</pdfrwt>
<totfact> 0.11208271E+04</totfact>
</mgrwt>
</event>
<event>
 9    1  0.2065703E-002  0.2746377E+03  0.7818608E-02  0.1098654E+00
         -2   -1    0    0    0  501 -0.00000000000E+00  0.00000000000E+00  0.11746832244E+02  0.11746832244E+02  0.00000000000E+00 0.  1.
          2   -1    0    0  501    0  0.00000000000E+00 -0.00000000000E+00 -0.16052384420E+04  0.16052384420E+04  0.00000000000E+00 0.  1.
         36    2    1    2    0    0  0.71054273576E-14  0.35527136788E-14 -0.15934916098E+04  0.16169852743E+04  0.27463770091E+03 0.  0.
         25    2    3    3    0    0 -0.36279402813E+02 -0.28323181983E+02 -0.64062168861E+03  0.65488115600E+03  0.12788581962E+03 0.  0.
         25    2    3    3    0    0  0.36279402813E+02  0.28323181983E+02 -0.95286992116E+03  0.96210411826E+03  0.12475916805E+03 0.  0.
          5    1    4    4  502    0 -0.74915042339E+01 -0.27659828027E+02 -0.61605595272E+03  0.61673999027E+03  0.47000000000E+01 0.  1.
         -5    1    4    4    0  502 -0.28787898579E+02 -0.66335395579E+00 -0.24565735892E+02  0.38141165726E+02  0.47000000000E+01 0.  1.
          5    1    5    5  503    0  0.65258691458E+01 -0.28628639728E+02 -0.60516385292E+02  0.67427804870E+02  0.47000000000E+01 0. -1.
         -5    1    5    5    0  503  0.29753533667E+02  0.56951821711E+02 -0.89235353587E+03  0.89467631339E+03  0.47000000000E+01 0. -1.
<mgrwt>
<rscale>  0 0.27463770E+03</rscale>
<asrwt>0</asrwt>
<pdfrwt beam="1">  1        2 0.24695966E+00 0.27463770E+03</pdfrwt>
<pdfrwt beam="2">  1       -2 0.18072057E-02 0.27463770E+03</pdfrwt>
<totfact> 0.10760871E+04</totfact>
</mgrwt>
</event>
<event>
 9    1  0.2065703E-002  0.2758658E+03  0.7818608E-02  0.1097969E+00
         -2   -1    0    0    0  501 -0.00000000000E+00  0.00000000000E+00  0.12145985529E+02  0.12145985529E+02  0.00000000000E+00 0.  1.
          2   -1    0    0  501    0  0.00000000000E+00 -0.00000000000E+00 -0.15664014216E+04  0.15664014216E+04  0.00000000000E+00 0.  1.
         36    2    1    2    0    0  0.71054273576E-14  0.35527136788E-14 -0.15542554361E+04  0.15785474071E+04  0.27586582970E+03 0.  0.
         25    2    3    3    0    0  0.25613615041E+02  0.15813385192E+02 -0.45395108243E+03  0.47095054337E+03  0.12172390330E+03 0.  0.
         25    2    3    3    0    0 -0.25613615041E+02 -0.15813385192E+02 -0.11003043537E+04  0.11075968638E+04  0.12326808809E+03 0.  0.
          5    1    4    4  502    0  0.63996008060E+01  0.43221563588E+01  0.57282921943E+01  0.10702301506E+02  0.47000000000E+01 0. -1.
         -5    1    4    4    0  502  0.19214014235E+02  0.11491228833E+02 -0.45967937462E+03  0.46024824186E+03  0.47000000000E+01 0. -1.
          5    1    5    5  503    0  0.16670723872E+02  0.16656953533E+02 -0.89834527115E+03  0.89866661412E+03  0.47000000000E+01 0. -1.
         -5    1    5    5    0  503 -0.42284338913E+02 -0.32470338724E+02 -0.20195908250E+03  0.20893024965E+03  0.47000000000E+01 0. -1.
<mgrwt>
<rscale>  0 0.27586583E+03</rscale>
<asrwt>0</asrwt>
<pdfrwt beam="1">  1        2 0.24098491E+00 0.27586583E+03</pdfrwt>
<pdfrwt beam="2">  1       -2 0.18686125E-02 0.27586583E+03</pdfrwt>
<totfact> 0.10744381E+04</totfact>
</mgrwt>
</event>
<event>
 9    1  0.2065703E-002  0.2744971E+03  0.7818608E-02  0.1098733E+00
          2   -1    0    0  501    0  0.00000000000E+00  0.00000000000E+00  0.38554336385E+03  0.38554336385E+03  0.00000000000E+00 0. -1.
         -2   -1    0    0    0  501 -0.00000000000E+00 -0.00000000000E+00 -0.48858730363E+02  0.48858730363E+02  0.00000000000E+00 0. -1.
         36    2    1    2    0    0 -0.71054273576E-14 -0.17763568394E-14  0.33668463349E+03  0.43440209421E+03  0.27449706197E+03 0.  0.
         25    2    3    3    0    0  0.72920695613E+01  0.89258128586E+01  0.83395065301E+02  0.15064014455E+03  0.12491946133E+03 0.  0.
         25    2    3    3    0    0 -0.72920695613E+01 -0.89258128586E+01  0.25328956819E+03  0.28376194967E+03  0.12740641394E+03 0.  0.
          5    1    4    4  502    0  0.65937505821E+02  0.49409605842E+01  0.39962279459E+02  0.77403110692E+02  0.47000000000E+01 0. -1.
         -5    1    4    4    0  502 -0.58645436259E+02  0.39848522744E+01  0.43432785843E+02  0.73237033854E+02  0.47000000000E+01 0. -1.
          5    1    5    5  503    0  0.50797209186E+02  0.25976614866E+02  0.14544523672E+03  0.15630594316E+03  0.47000000000E+01 0.  1.
         -5    1    5    5    0  503 -0.58089278747E+02 -0.34902427725E+02  0.10784433146E+03  0.12745600651E+03  0.47000000000E+01 0.  1.
<mgrwt>
<rscale>  0 0.27449706E+03</rscale>
<asrwt>0</asrwt>
<pdfrwt beam="1">  1        2 0.59314362E-01 0.27449706E+03</pdfrwt>
<pdfrwt beam="2">  1       -2 0.75167280E-02 0.27449706E+03</pdfrwt>
<totfact> 0.86074126E+03</totfact>
</mgrwt>
</event>
<event>
 9    1  0.2065703E-002  0.2747798E+03  0.7818608E-02  0.1098575E+00
          2   -1    0    0  501    0  0.00000000000E+00  0.00000000000E+00  0.29952970979E+02  0.29952970979E+02  0.00000000000E+00 0.  1.
         -2   -1    0    0    0  501 -0.00000000000E+00 -0.00000000000E+00 -0.63018756400E+03  0.63018756400E+03  0.00000000000E+00 0.  1.
         36    2    1    2    0    0  0.00000000000E+00  0.00000000000E+00 -0.60023459302E+03  0.66014053498E+03  0.27477983780E+03 0.  0.
         25    2    3    3    0    0 -0.44124422060E+02  0.24904747188E+02 -0.34915454827E+03  0.37445800903E+03  0.12546988041E+03 0.  0.
         25    2    3    3    0    0  0.44124422060E+02 -0.24904747188E+02 -0.25108004475E+03  0.28568252596E+03  0.12651523904E+03 0.  0.
          5    1    4    4  502    0  0.20690288959E+02 -0.11448326350E+02 -0.81971253811E+01  0.25464388819E+02  0.47000000000E+01 0. -1.
         -5    1    4    4    0  502 -0.64814711019E+02  0.36353073538E+02 -0.34095742289E+03  0.34899362021E+03  0.47000000000E+01 0. -1.
          5    1    5    5  503    0 -0.29836883507E+02 -0.34380317130E+02 -0.16721253835E+03  0.17336195893E+03  0.47000000000E+01 0.  1.
         -5    1    5    5    0  503  0.73961305566E+02  0.94755699421E+01 -0.83867506405E+02  0.11232056703E+03  0.47000000000E+01 0.  1.
<mgrwt>
<rscale>  0 0.27477984E+03</rscale>
<asrwt>0</asrwt>
<pdfrwt beam="1">  1        2 0.46081495E-02 0.27477984E+03</pdfrwt>
<pdfrwt beam="2">  1       -2 0.96951930E-01 0.27477984E+03</pdfrwt>
<totfact> 0.16137507E+03</totfact>
</mgrwt>
</event>
<event>
 9    1  0.2065703E-002  0.2709052E+03  0.7818608E-02  0.1100763E+00
          2   -1    0    0  501    0  0.00000000000E+00  0.00000000000E+00  0.42945639106E+03  0.42945639106E+03  0.00000000000E+00 0.  1.
         -2   -1    0    0    0  501 -0.00000000000E+00 -0.00000000000E+00 -0.42722413511E+02  0.42722413511E+02  0.00000000000E+00 0.  1.
         36    2    1    2    0    0 -0.35527136788E-14 -0.35527136788E-14  0.38673397755E+03  0.47217880457E+03  0.27090524929E+03 0.  0.
         25    2    3    3    0    0  0.33935822182E+01  0.14120558996E+02  0.92020317682E+02  0.15288337269E+03  0.12122161602E+03 0.  0.
         25    2    3    3    0    0 -0.33935822182E+01 -0.14120558996E+02  0.29471365987E+03  0.31929543189E+03  0.12199395445E+03 0.  0.
          5    1    4    4  502    0 -0.35329511808E+02  0.39949196667E+02  0.46027696537E+01  0.53734422928E+02  0.47000000000E+01 0.  1.
         -5    1    4    4    0  502  0.38723094027E+02 -0.25828637671E+02  0.87417548028E+02  0.99148949758E+02  0.47000000000E+01 0.  1.
          5    1    5    5  503    0 -0.26406844007E+02 -0.29830595371E+02  0.28729197695E+03  0.29007922340E+03  0.47000000000E+01 0.  1.
         -5    1    5    5    0  503  0.23013261788E+02  0.15710036375E+02  0.74216829260E+01  0.29216208489E+02  0.47000000000E+01 0.  1.
<mgrwt>
<rscale>  0 0.27090525E+03</rscale>
<asrwt>0</asrwt>
<pdfrwt beam="1">  1        2 0.66070211E-01 0.27090525E+03</pdfrwt>
<pdfrwt beam="2">  1       -2 0.65726793E-02 0.27090525E+03</pdfrwt>
<totfact> 0.94172368E+03</totfact>
</mgrwt>
</event>
<event>
 9    1  0.2065703E-002  0.2746109E+03  0.7818608E-02  0.1098669E+00
          2   -1    0    0  501    0  0.00000000000E+00  0.00000000000E+00  0.93231026809E+02  0.93231026809E+02  0.00000000000E+00 0. -1.
         -2   -1    0    0    0  501 -0.00000000000E+00 -0.00000000000E+00 -0.20221579994E+03  0.20221579994E+03  0.00000000000E+00 0. -1.
         36    2    1    2    0    0  0.14210854715E-13 -0.35527136788E-14 -0.10898477313E+03  0.29544682675E+03  0.27461090048E+03 0.  0.
         25    2    3    3    0    0  0.28918048080E+02 -0.15242391616E+02 -0.88295970222E+02  0.16346430498E+03  0.13362565861E+03 0.  0.
         25    2    3    3    0    0 -0.28918048080E+02  0.15242391616E+02 -0.20688802912E+02  0.13198252177E+03  0.12618548046E+03 0.  0.
          5    1    4    4  502    0 -0.35443748399E+02 -0.46088405484E+02 -0.13299070248E+02  0.59827716738E+02  0.47000000000E+01 0.  1.
         -5    1    4    4    0  502  0.64361796479E+02  0.30846013868E+02 -0.74996899974E+02  0.10363658825E+03  0.47000000000E+01 0.  1.
          5    1    5    5  503    0 -0.13476879086E+02 -0.23526594104E+02 -0.65211346023E+02  0.70779492441E+02  0.47000000000E+01 0. -1.
         -5    1    5    5    0  503 -0.15441168994E+02  0.38768985720E+02  0.44522543111E+02  0.61203029327E+02  0.47000000000E+01 0. -1.
<mgrwt>
<rscale>  0 0.27461090E+03</rscale>
<asrwt>0</asrwt>
<pdfrwt beam="1">  1        2 0.14343235E-01 0.27461090E+03</pdfrwt>
<pdfrwt beam="2">  1       -2 0.31110123E-01 0.27461090E+03</pdfrwt>
<totfact> 0.39121952E+03</totfact>
</mgrwt>
</event>
<event>
 9    1  0.2065703E-002  0.2718099E+03  0.7818608E-02  0.1100248E+00
         -1   -1    0    0    0  501 -0.00000000000E+00  0.00000000000E+00  0.83855980428E+02  0.83855980428E+02  0.00000000000E+00 0.  1.
          1   -1    0    0  501    0  0.00000000000E+00 -0.00000000000E+00 -0.22026047101E+03  0.22026047101E+03  0.00000000000E+00 0.  1.
         36    2    1    2    0    0  0.17763568394E-14  0.00000000000E+00 -0.13640449058E+03  0.30411645144E+03  0.27180991701E+03 0.  0.
         25    2    3    3    0    0 -0.14867269364E+02  0.47608194208E+02 -0.71662193968E+02  0.14892228750E+03  0.12064328334E+03 0.  0.
         25    2    3    3    0    0  0.14867269364E+02 -0.47608194208E+02 -0.64742296614E+02  0.15519416394E+03  0.13193213292E+03 0.  0.
          5    1    4    4  502    0  0.37811069963E+02  0.43754994133E+02  0.21233444848E+01  0.58058376787E+02  0.47000000000E+01 0. -1.
         -5    1    4    4    0  502 -0.52678339328E+02  0.38532000751E+01 -0.73785538452E+02  0.90863910712E+02  0.47000000000E+01 0. -1.
          5    1    5    5  503    0  0.15226949172E+02  0.18552862614E+02  0.30522726259E+02  0.39112600406E+02  0.47000000000E+01 0.  1.
         -5    1    5    5    0  503 -0.35967980808E+00 -0.66161056822E+02 -0.95265022873E+02  0.11608156353E+03  0.47000000000E+01 0.  1.
<mgrwt>
<rscale>  0 0.27180992E+03</rscale>
<asrwt>0</asrwt>
<pdfrwt beam="1">  1        1 0.33886226E-01 0.27180992E+03</pdfrwt>
<pdfrwt beam="2">  1       -1 0.12900920E-01 0.27180992E+03</pdfrwt>
<totfact> 0.52599218E+03</totfact>
</mgrwt>
</event>
<event>
 9    1  0.2065703E-002  0.2751176E+03  0.7818608E-02  0.1098386E+00
         -1   -1    0    0    0  501 -0.00000000000E+00  0.00000000000E+00  0.55346012205E+03  0.55346012205E+03  0.00000000000E+00 0.  1.
          1   -1    0    0  501    0  0.00000000000E+00 -0.00000000000E+00 -0.34189311532E+02  0.34189311532E+02  0.00000000000E+00 0.  1.
         36    2    1    2    0    0  0.71054273576E-14  0.35527136788E-14  0.51927081052E+03  0.58764943358E+03  0.27511757874E+03 0.  0.
         25    2    3    3    0    0  0.49769822161E+02  0.13474748423E+02  0.34807587260E+03  0.37252608568E+03  0.12231217183E+03 0.  0.
         25    2    3    3    0    0 -0.49769822161E+02 -0.13474748423E+02  0.17119493791E+03  0.21512334791E+03  0.11963170150E+03 0.  0.
          5    1    4    4  502    0  0.67459608730E+02  0.50496639653E+02  0.28416019118E+03  0.29642842927E+03  0.47000000000E+01 0.  1.
         -5    1    4    4    0  502 -0.17689786569E+02 -0.37021891231E+02  0.63915681421E+02  0.76097656407E+02  0.47000000000E+01 0.  1.
          5    1    5    5  503    0 -0.48498827501E+02 -0.11308550057E+02  0.18953511147E+03  0.19602466185E+03  0.47000000000E+01 0. -1.
         -5    1    5    5    0  503 -0.12709946602E+01 -0.21661983658E+01 -0.18340173559E+02  0.19098686053E+02  0.47000000000E+01 0. -1.
<mgrwt>
<rscale>  0 0.27511758E+03</rscale>
<asrwt>0</asrwt>
<pdfrwt beam="1">  1        1 0.52598945E-02 0.27511758E+03</pdfrwt>
<pdfrwt beam="2">  1       -1 0.85147705E-01 0.27511758E+03</pdfrwt>
<totfact> 0.22156869E+03</totfact>
</mgrwt>
</event>
<event>
 9    1  0.2065703E-002  0.2753276E+03  0.7818608E-02  0.1098269E+00
          1   -1    0    0  501    0  0.00000000000E+00  0.00000000000E+00  0.27136535018E+03  0.27136535018E+03  0.00000000000E+00 0. -1.
         -1   -1    0    0    0  501 -0.00000000000E+00 -0.00000000000E+00 -0.69836900559E+02  0.69836900559E+02  0.00000000000E+00 0. -1.
         36    2    1    2    0    0  0.00000000000E+00  0.00000000000E+00  0.20152844962E+03  0.34120225074E+03  0.27532755021E+03 0.  0.
         25    2    3    3    0    0  0.30325156200E+02 -0.48906576571E+02  0.10476890867E+03  0.17399031044E+03  0.12643035858E+03 0.  0.
         25    2    3    3    0    0 -0.30325156200E+02  0.48906576571E+02  0.96759540952E+02  0.16721194030E+03  0.12363638576E+03 0.  0.
          5    1    4    4  502    0 -0.47680123411E+02 -0.12893438418E+02  0.57018116326E+02  0.75583004122E+02  0.47000000000E+01 0.  1.
         -5    1    4    4    0  502  0.78005279610E+02 -0.36013138153E+02  0.47750792341E+02  0.98407306313E+02  0.47000000000E+01 0.  1.
          5    1    5    5  503    0 -0.24173436552E+01  0.86765185720E+02  0.76466680621E+02  0.11577255395E+03  0.47000000000E+01 0. -1.
         -5    1    5    5    0  503 -0.27907812544E+02 -0.37858609148E+02  0.20292860330E+02  0.51439386350E+02  0.47000000000E+01 0. -1.
<mgrwt>
<rscale>  0 0.27532755E+03</rscale>
<asrwt>0</asrwt>
<pdfrwt beam="1">  1        1 0.41748515E-01 0.27532755E+03</pdfrwt>
<pdfrwt beam="2">  1       -1 0.10744139E-01 0.27532755E+03</pdfrwt>
<totfact> 0.53870282E+03</totfact>
</mgrwt>
</event>
<event>
 9    1  0.2065703E-002  0.2752394E+03  0.7818608E-02  0.1098318E+00
         -2   -1    0    0    0  501 -0.00000000000E+00  0.00000000000E+00  0.79601443572E+02  0.79601443572E+02  0.00000000000E+00 0.  1.
          2   -1    0    0  501    0  0.00000000000E+00 -0.00000000000E+00 -0.23792512182E+03  0.23792512182E+03  0.00000000000E+00 0.  1.
         36    2    1    2    0    0 -0.35527136788E-14  0.00000000000E+00 -0.15832367825E+03  0.31752656539E+03  0.27523940967E+03 0.  0.
         25    2    3    3    0    0 -0.10347145733E+02  0.68027611598E+02 -0.94637422721E+02  0.16132719115E+03  0.11106485250E+03 0.  0.
         25    2    3    3    0    0  0.10347145733E+02 -0.68027611598E+02 -0.63686255525E+02  0.15619937424E+03  0.12492992438E+03 0.  0.
          5    1    4    4  502    0 -0.45704321098E+02  0.25834264420E+02 -0.91981393680E+02  0.10601396591E+03  0.47000000000E+01 0.  1.
         -5    1    4    4    0  502  0.35357175365E+02  0.42193347179E+02 -0.26560290417E+01  0.55313225238E+02  0.47000000000E+01 0.  1.
          5    1    5    5  503    0 -0.23374017860E+02 -0.49467815707E+02  0.24297907358E+02  0.60049044986E+02  0.47000000000E+01 0. -1.
         -5    1    5    5    0  503  0.33721163593E+02 -0.18559795892E+02 -0.87984162882E+02  0.96150329254E+02  0.47000000000E+01 0. -1.
<mgrwt>
<rscale>  0 0.27523941E+03</rscale>
<asrwt>0</asrwt>
<pdfrwt beam="1">  1        2 0.36603864E-01 0.27523941E+03</pdfrwt>
<pdfrwt beam="2">  1       -2 0.12246376E-01 0.27523941E+03</pdfrwt>
<totfact> 0.66834496E+03</totfact>
</mgrwt>
</event>
<event>
 9    1  0.2065703E-002  0.2744312E+03  0.7818608E-02  0.1098770E+00
          2   -1    0    0  501    0  0.00000000000E+00  0.00000000000E+00  0.11762926356E+03  0.11762926356E+03  0.00000000000E+00 0.  1.
         -2   -1    0    0    0  501 -0.00000000000E+00 -0.00000000000E+00 -0.16006322092E+03  0.16006322092E+03  0.00000000000E+00 0.  1.
         36    2    1    2    0    0  0.00000000000E+00  0.00000000000E+00 -0.42433957352E+02  0.27769248448E+03  0.27443118482E+03 0.  0.
         25    2    3    3    0    0  0.43113146224E+02  0.53188791273E+01 -0.23929497597E+02  0.13803906516E+03  0.12882208197E+03 0.  0.
         25    2    3    3    0    0 -0.43113146224E+02 -0.53188791273E+01 -0.18504459756E+02  0.13965341932E+03  0.13142917730E+03 0.  0.
          5    1    4    4  502    0  0.46932631971E+01  0.61890632395E+02 -0.30240976835E+02  0.69203206411E+02  0.47000000000E+01 0. -1.
         -5    1    4    4    0  502  0.38419883027E+02 -0.56571753267E+02  0.63114792385E+01  0.68835858749E+02  0.47000000000E+01 0. -1.
          5    1    5    5  503    0 -0.59784018207E+02 -0.54457357004E+02 -0.29851385076E+02  0.86330340876E+02  0.47000000000E+01 0.  1.
         -5    1    5    5    0  503  0.16670871984E+02  0.49138477876E+02  0.11346925320E+02  0.53323078446E+02  0.47000000000E+01 0.  1.
<mgrwt>
<rscale>  0 0.27443118E+03</rscale>
<asrwt>0</asrwt>
<pdfrwt beam="1">  1        2 0.18096810E-01 0.27443118E+03</pdfrwt>
<pdfrwt beam="2">  1       -2 0.24625111E-01 0.27443118E+03</pdfrwt>
<totfact> 0.45265831E+03</totfact>
</mgrwt>
</event>
<event>
 9    1  0.2065703E-002  0.2752039E+03  0.7818608E-02  0.1098338E+00
         -2   -1    0    0    0  501 -0.00000000000E+00  0.00000000000E+00  0.27373003383E+02  0.27373003383E+02  0.00000000000E+00 0. -1.
          2   -1    0    0  501    0  0.00000000000E+00 -0.00000000000E+00 -0.69171435201E+03  0.69171435201E+03  0.00000000000E+00 0. -1.
         36    2    1    2    0    0  0.71054273576E-14  0.35527136788E-14 -0.66434134862E+03  0.71908735539E+03  0.27520391928E+03 0.  0.
         25    2    3    3    0    0  0.55213958309E+02  0.47049910920E+01 -0.28074123869E+03  0.31206081385E+03  0.12448128496E+03 0.  0.
         25    2    3    3    0    0 -0.55213958309E+02 -0.47049910920E+01 -0.38360010994E+03  0.40702654154E+03  0.12430142012E+03 0.  0.
          5    1    4    4  502    0 -0.19320894789E+00 -0.41971097874E+02 -0.32130632423E+02  0.53066730880E+02  0.47000000000E+01 0.  1.
         -5    1    4    4    0  502  0.55407167257E+02  0.46676088966E+02 -0.24861060626E+03  0.25899408297E+03  0.47000000000E+01 0.  1.
          5    1    5    5  503    0 -0.91872220578E+02 -0.23040245274E+02 -0.26593726177E+03  0.28234035315E+03  0.47000000000E+01 0.  1.
         -5    1    5    5    0  503  0.36658262269E+02  0.18335254182E+02 -0.11766284816E+03  0.12468618839E+03  0.47000000000E+01 0.  1.
<mgrwt>
<rscale>  0 0.27520392E+03</rscale>
<asrwt>0</asrwt>
<pdfrwt beam="1">  1        2 0.10641758E+00 0.27520392E+03</pdfrwt>
<pdfrwt beam="2">  1       -2 0.42112319E-02 0.27520392E+03</pdfrwt>
<totfact> 0.10776555E+04</totfact>
</mgrwt>
</event>
<event>
 9    1  0.2065703E-002  0.2754382E+03  0.7818608E-02  0.1098207E+00
          1   -1    0    0  501    0  0.00000000000E+00  0.00000000000E+00  0.25004946940E+02  0.25004946940E+02  0.00000000000E+00 0. -1.
         -1   -1    0    0    0  501 -0.00000000000E+00 -0.00000000000E+00 -0.75851204519E+03  0.75851204519E+03  0.00000000000E+00 0. -1.
         36    2    1    2    0    0 -0.17763568394E-14  0.26645352591E-14 -0.73350709825E+03  0.78351699213E+03  0.27543822134E+03 0.  0.
         25    2    3    3    0    0  0.23218029482E+01  0.12643695493E+01 -0.52327464864E+03  0.53818175331E+03  0.12576268244E+03 0.  0.
         25    2    3    3    0    0 -0.23218029482E+01 -0.12643695493E+01 -0.21023244961E+03  0.24533523881E+03  0.12643064160E+03 0.  0.
          5    1    4    4  502    0 -0.73436603074E+01  0.40792262263E+01 -0.52651950092E+03  0.52660748598E+03  0.47000000000E+01 0.  1.
         -5    1    4    4    0  502  0.96654632555E+01 -0.28148566770E+01  0.32448522857E+01  0.11574267338E+02  0.47000000000E+01 0.  1.
          5    1    5    5  503    0 -0.15720602378E+02 -0.61566652411E+02 -0.92874354753E+02  0.11262915164E+03  0.47000000000E+01 0. -1.
         -5    1    5    5    0  503  0.13398799430E+02  0.60302282862E+02 -0.11735809486E+03  0.13270608717E+03  0.47000000000E+01 0. -1.
<mgrwt>
<rscale>  0 0.27543822E+03</rscale>
<asrwt>0</asrwt>
<pdfrwt beam="1">  1        1 0.38469148E-02 0.27543822E+03</pdfrwt>
<pdfrwt beam="2">  1       -1 0.11669416E+00 0.27543822E+03</pdfrwt>
<totfact> 0.16964114E+03</totfact>
</mgrwt>
</event>
<event>
 9    1  0.2065703E-002  0.2744193E+03  0.7818608E-02  0.1098777E+00
          2   -1    0    0  501    0  0.00000000000E+00  0.00000000000E+00  0.43189549710E+03  0.43189549710E+03  0.00000000000E+00 0. -1.
         -2   -1    0    0    0  501 -0.00000000000E+00 -0.00000000000E+00 -0.43590388027E+02  0.43590388027E+02  0.00000000000E+00 0. -1.
         36    2    1    2    0    0  0.35527136788E-14  0.00000000000E+00  0.38830510907E+03  0.47548588513E+03  0.27441933099E+03 0.  0.
         25    2    3    3    0    0 -0.11909049338E+02 -0.13155314229E+02  0.29017120196E+03  0.31758373062E+03  0.12784839364E+03 0.  0.
         25    2    3    3    0    0  0.11909049338E+02  0.13155314229E+02  0.98133907113E+02  0.15790215451E+03  0.12242523811E+03 0.  0.
          5    1    4    4  502    0  0.18265077047E+02  0.48194591866E+02  0.70402973768E+02  0.87378489573E+02  0.47000000000E+01 0.  1.
         -5    1    4    4    0  502 -0.30174126384E+02 -0.61349906095E+02  0.21976822819E+03  0.23020524104E+03  0.47000000000E+01 0.  1.
          5    1    5    5  503    0 -0.51142200948E+02 -0.83979853945E+01  0.21674287213E+02  0.56373004201E+02  0.47000000000E+01 0.  1.
         -5    1    5    5    0  503  0.63051250286E+02  0.21553299624E+02  0.76459619900E+02  0.10152915031E+03  0.47000000000E+01 0.  1.
<mgrwt>
<rscale>  0 0.27441933E+03</rscale>
<asrwt>0</asrwt>
<pdfrwt beam="1">  1        2 0.66445458E-01 0.27441933E+03</pdfrwt>
<pdfrwt beam="2">  1       -2 0.67062138E-02 0.27441933E+03</pdfrwt>
<totfact> 0.90775822E+03</totfact>
</mgrwt>
</event>
<event>
 9    1  0.2065703E-002  0.2737716E+03  0.7818608E-02  0.1099140E+00
          1   -1    0    0  501    0  0.00000000000E+00  0.00000000000E+00  0.20388701366E+02  0.20388701366E+02  0.00000000000E+00 0. -1.
         -1   -1    0    0    0  501 -0.00000000000E+00 -0.00000000000E+00 -0.91902495219E+03  0.91902495219E+03  0.00000000000E+00 0. -1.
         36    2    1    2    0    0  0.71054273576E-14 -0.17763568394E-14 -0.89863625082E+03  0.93941365356E+03  0.27377162233E+03 0.  0.
         25    2    3    3    0    0 -0.23607446810E+02 -0.12414594913E+02 -0.22031651905E+03  0.24897640795E+03  0.11286473956E+03 0.  0.
         25    2    3    3    0    0  0.23607446810E+02  0.12414594913E+02 -0.67831973177E+03  0.69043724561E+03  0.12599403914E+03 0.  0.
          5    1    4    4  502    0 -0.45393697563E+02 -0.17475742392E+02 -0.22077318468E+03  0.22611695741E+03  0.47000000000E+01 0. -1.
         -5    1    4    4    0  502  0.21786250753E+02  0.50611474782E+01  0.45666563134E+00  0.22859450544E+02  0.47000000000E+01 0. -1.
          5    1    5    5  503    0 -0.40150639303E+02 -0.18264920775E+02 -0.12592902795E+03  0.13351363694E+03  0.47000000000E+01 0. -1.
         -5    1    5    5    0  503  0.63758086113E+02  0.30679515688E+02 -0.55239070382E+03  0.55692360867E+03  0.47000000000E+01 0. -1.
<mgrwt>
<rscale>  0 0.27377162E+03</rscale>
<asrwt>0</asrwt>
<pdfrwt beam="1">  1        1 0.31367234E-02 0.27377162E+03</pdfrwt>
<pdfrwt beam="2">  1       -1 0.14138845E+00 0.27377162E+03</pdfrwt>
<totfact> 0.14101989E+03</totfact>
</mgrwt>
</event>
<event>
 9    1  0.2065703E-002  0.2747785E+03  0.7818608E-02  0.1098575E+00
         -1   -1    0    0    0  501 -0.00000000000E+00  0.00000000000E+00  0.37714052599E+02  0.37714052599E+02  0.00000000000E+00 0. -1.
          1   -1    0    0  501    0  0.00000000000E+00 -0.00000000000E+00 -0.50049795509E+03  0.50049795509E+03  0.00000000000E+00 0. -1.
         36    2    1    2    0    0  0.35527136788E-14  0.00000000000E+00 -0.46278390249E+03  0.53821200769E+03  0.27477850137E+03 0.  0.
         25    2    3    3    0    0 -0.22087183071E+02  0.21574264867E+02 -0.14662913108E+03  0.19702338637E+03  0.12792505670E+03 0.  0.
         25    2    3    3    0    0  0.22087183071E+02 -0.21574264867E+02 -0.31615477141E+03  0.34118862133E+03  0.12450920960E+03 0.  0.
          5    1    4    4  502    0 -0.26069995552E+02  0.21476864328E+02  0.13571806426E+02  0.36704009306E+02  0.47000000000E+01 0. -1.
         -5    1    4    4    0  502  0.39828124809E+01  0.97400538637E-01 -0.16020093751E+03  0.16031937706E+03  0.47000000000E+01 0. -1.
          5    1    5    5  503    0  0.32584415734E+02 -0.61562568497E+02 -0.10579526783E+03  0.12675339318E+03  0.47000000000E+01 0.  1.
         -5    1    5    5    0  503 -0.10497232663E+02  0.39988303630E+02 -0.21035950358E+03  0.21443522814E+03  0.47000000000E+01 0.  1.
<mgrwt>
<rscale>  0 0.27477850E+03</rscale>
<asrwt>0</asrwt>
<pdfrwt beam="1">  1        1 0.76999687E-01 0.27477850E+03</pdfrwt>
<pdfrwt beam="2">  1       -1 0.58021618E-02 0.27477850E+03</pdfrwt>
<totfact> 0.63092092E+03</totfact>
</mgrwt>
</event>
<event>
 9    1  0.2065703E-002  0.2744127E+03  0.7818608E-02  0.1098780E+00
          3   -1    0    0  501    0  0.00000000000E+00  0.00000000000E+00  0.49942963853E+02  0.49942963853E+02  0.00000000000E+00 0. -1.
         -3   -1    0    0    0  501 -0.00000000000E+00 -0.00000000000E+00 -0.37694172744E+03  0.37694172744E+03  0.00000000000E+00 0. -1.
         36    2    1    2    0    0  0.00000000000E+00  0.00000000000E+00 -0.32699876358E+03  0.42688469129E+03  0.27441273344E+03 0.  0.
         25    2    3    3    0    0  0.11420750387E+02 -0.55428542192E+02 -0.15959607081E+03  0.21005382922E+03  0.12429379921E+03 0.  0.
         25    2    3    3    0    0 -0.11420750387E+02  0.55428542192E+02 -0.16740269277E+03  0.21683086207E+03  0.12565510086E+03 0.  0.
          5    1    4    4  502    0  0.17762069346E+02  0.25214355151E+02 -0.14848605587E+00  0.31198827883E+02  0.47000000000E+01 0.  1.
         -5    1    4    4    0  502 -0.63413189595E+01 -0.80642897343E+02 -0.15944758475E+03  0.17885500133E+03  0.47000000000E+01 0.  1.
          5    1    5    5  503    0 -0.15145689582E+01 -0.39026545217E+02 -0.72509008929E+02  0.82492493759E+02  0.47000000000E+01 0. -1.
         -5    1    5    5    0  503 -0.99061814287E+01  0.94455087409E+02 -0.94893683844E+02  0.13433836831E+03  0.47000000000E+01 0. -1.
<mgrwt>
<rscale>  0 0.27441273E+03</rscale>
<asrwt>0</asrwt>
<pdfrwt beam="1">  1        3 0.76835331E-02 0.27441273E+03</pdfrwt>
<pdfrwt beam="2">  1       -3 0.57991033E-01 0.27441273E+03</pdfrwt>
<totfact> 0.85530100E+02</totfact>
</mgrwt>
</event>
<event>
 9    1  0.2065703E-002  0.2759695E+03  0.7818608E-02  0.1097911E+00
          3   -1    0    0  501    0  0.00000000000E+00  0.00000000000E+00  0.84640243524E+02  0.84640243524E+02  0.00000000000E+00 0. -1.
         -3   -1    0    0    0  501 -0.00000000000E+00 -0.00000000000E+00 -0.22494969524E+03  0.22494969524E+03  0.00000000000E+00 0. -1.
         36    2    1    2    0    0 -0.71054273576E-14  0.71054273576E-14 -0.14030945171E+03  0.30958993876E+03  0.27596954169E+03 0.  0.
         25    2    3    3    0    0 -0.35753886923E+02 -0.31799235930E+02 -0.53530928625E+02  0.14496514938E+03  0.12593570733E+03 0.  0.
         25    2    3    3    0    0  0.35753886923E+02  0.31799235930E+02 -0.86778523087E+02  0.16462478938E+03  0.13145827236E+03 0.  0.
          5    1    4    4  502    0 -0.48007408517E+02  0.28705814374E+02  0.91383748785E+01  0.56871213692E+02  0.47000000000E+01 0.  1.
         -5    1    4    4    0  502  0.12253521593E+02 -0.60505050304E+02 -0.62669303504E+02  0.88093935690E+02  0.47000000000E+01 0.  1.
          5    1    5    5  503    0 -0.19958781180E+02  0.69353755715E+02 -0.40295683127E+02  0.82789663948E+02  0.47000000000E+01 0. -1.
         -5    1    5    5    0  503  0.55712668103E+02 -0.37554519785E+02 -0.46482839960E+02  0.81835125430E+02  0.47000000000E+01 0. -1.
<mgrwt>
<rscale>  0 0.27596954E+03</rscale>
<asrwt>0</asrwt>
<pdfrwt beam="1">  1        3 0.13021576E-01 0.27596954E+03</pdfrwt>
<pdfrwt beam="2">  1       -3 0.34607645E-01 0.27596954E+03</pdfrwt>
<totfact> 0.98704075E+02</totfact>
</mgrwt>
</event>
<event>
 9    1  0.2065703E-002  0.2742593E+03  0.7818608E-02  0.1098866E+00
         -2   -1    0    0    0  501 -0.00000000000E+00  0.00000000000E+00  0.11861993072E+02  0.11861993072E+02  0.00000000000E+00 0.  1.
          2   -1    0    0  501    0  0.00000000000E+00 -0.00000000000E+00 -0.15852766779E+04  0.15852766779E+04  0.00000000000E+00 0.  1.
         36    2    1    2    0    0 -0.35527136788E-14  0.35527136788E-14 -0.15734146849E+04  0.15971386710E+04  0.27425930045E+03 0.  0.
         25    2    3    3    0    0 -0.46810719427E+01  0.18636673325E+02 -0.76444235308E+03  0.77828264119E+03  0.14485344449E+03 0.  0.
         25    2    3    3    0    0  0.46810719427E+01 -0.18636673325E+02 -0.80897233179E+03  0.81885602982E+03  0.12537833122E+03 0.  0.
          5    1    4    4  502    0  0.20839740086E+02  0.40973478603E+02 -0.72322214101E+03  0.72469681658E+03  0.47000000000E+01 0. -1.
         -5    1    4    4    0  502 -0.25520812028E+02 -0.22336805278E+02 -0.41220212065E+02  0.53585824612E+02  0.47000000000E+01 0. -1.
          5    1    5    5  503    0 -0.26555858755E+02 -0.47310294714E+02 -0.17106676804E+03  0.17952550445E+03  0.47000000000E+01 0. -1.
         -5    1    5    5    0  503  0.31236930698E+02  0.28673621389E+02 -0.63790556376E+03  0.63933052537E+03  0.47000000000E+01 0. -1.
<mgrwt>
<rscale>  0 0.27425930E+03</rscale>
<asrwt>0</asrwt>
<pdfrwt beam="1">  1        2 0.24388867E+00 0.27425930E+03</pdfrwt>
<pdfrwt beam="2">  1       -2 0.18249224E-02 0.27425930E+03</pdfrwt>
<totfact> 0.10869230E+04</totfact>
</mgrwt>
</event>
<event>
 9    1  0.2065703E-002  0.2756578E+03  0.7818608E-02  0.1098084E+00
         -1   -1    0    0    0  501 -0.00000000000E+00  0.00000000000E+00  0.44974643660E+02  0.44974643660E+02  0.00000000000E+00 0. -1.
          1   -1    0    0  501    0  0.00000000000E+00 -0.00000000000E+00 -0.42238922198E+03  0.42238922198E+03  0.00000000000E+00 0. -1.
         36    2    1    2    0    0  0.00000000000E+00  0.00000000000E+00 -0.37741457832E+03  0.46736386564E+03  0.27565779325E+03 0.  0.
         25    2    3    3    0    0  0.27093390724E+01  0.27619320520E+01 -0.25655374711E+03  0.28557228052E+03  0.12536639686E+03 0.  0.
         25    2    3    3    0    0 -0.27093390724E+01 -0.27619320520E+01 -0.12086083122E+03  0.18179158512E+03  0.13574192835E+03 0.  0.
          5    1    4    4  502    0  0.12418878809E+02 -0.51302954112E+02 -0.19874862516E+03  0.20569231306E+03  0.47000000000E+01 0.  1.
         -5    1    4    4    0  502 -0.97095397371E+01  0.54064886164E+02 -0.57805121948E+02  0.79879967459E+02  0.47000000000E+01 0.  1.
          5    1    5    5  503    0  0.53126111282E+01  0.33758283377E+02 -0.13664688298E+03  0.14093369420E+03  0.47000000000E+01 0. -1.
         -5    1    5    5    0  503 -0.80219502006E+01 -0.36520215429E+02  0.15786051762E+02  0.40857890918E+02  0.47000000000E+01 0. -1.
<mgrwt>
<rscale>  0 0.27565779E+03</rscale>
<asrwt>0</asrwt>
<pdfrwt beam="1">  1        1 0.64982957E-01 0.27565779E+03</pdfrwt>
<pdfrwt beam="2">  1       -1 0.69191760E-02 0.27565779E+03</pdfrwt>
<totfact> 0.60377357E+03</totfact>
</mgrwt>
</event>
<event>
 9    1  0.2065703E-002  0.2740320E+03  0.7818608E-02  0.1098994E+00
         -2   -1    0    0    0  501 -0.00000000000E+00  0.00000000000E+00  0.31608396036E+02  0.31608396036E+02  0.00000000000E+00 0.  1.
          2   -1    0    0  501    0  0.00000000000E+00 -0.00000000000E+00 -0.59393672614E+03  0.59393672614E+03  0.00000000000E+00 0.  1.
         36    2    1    2    0    0 -0.21316282073E-13  0.00000000000E+00 -0.56232833011E+03  0.62554512218E+03  0.27403202193E+03 0.  0.
         25    2    3    3    0    0  0.60458817491E+02 -0.24857042064E+02 -0.27444790544E+03  0.30506461462E+03  0.11605871421E+03 0.  0.
         25    2    3    3    0    0 -0.60458817491E+02  0.24857042064E+02 -0.28788042467E+03  0.32048050756E+03  0.12473762729E+03 0.  0.
          5    1    4    4  502    0 -0.45421963840E+01  0.76184399456E+01  0.83414008620E+01  0.13051480511E+02  0.47000000000E+01 0. -1.
         -5    1    4    4    0  502  0.65001013875E+02 -0.32475482009E+02 -0.28278930630E+03  0.29201313411E+03  0.47000000000E+01 0. -1.
          5    1    5    5  503    0 -0.54006225594E+02  0.45223084246E+02 -0.29003193695E+03  0.29850027504E+03  0.47000000000E+01 0. -1.
         -5    1    5    5    0  503 -0.64525918976E+01 -0.20366042183E+02  0.21515122737E+01  0.21980232516E+02  0.47000000000E+01 0. -1.
<mgrwt>
<rscale>  0 0.27403202E+03</rscale>
<asrwt>0</asrwt>
<pdfrwt beam="1">  1        2 0.91374882E-01 0.27403202E+03</pdfrwt>
<pdfrwt beam="2">  1       -2 0.48628301E-02 0.27403202E+03</pdfrwt>
<totfact> 0.10379454E+04</totfact>
</mgrwt>
</event>
<event>
 9    1  0.2065703E-002  0.2749913E+03  0.7818608E-02  0.1098456E+00
          3   -1    0    0  501    0  0.00000000000E+00  0.00000000000E+00  0.83328758873E+03  0.83328758873E+03  0.00000000000E+00 0. -1.
         -3   -1    0    0    0  501 -0.00000000000E+00 -0.00000000000E+00 -0.22687308765E+02  0.22687308765E+02  0.00000000000E+00 0. -1.
         36    2    1    2    0    0  0.00000000000E+00 -0.71054273576E-14  0.81060027996E+03  0.85597489749E+03  0.27499129307E+03 0.  0.
         25    2    3    3    0    0  0.17197732158E+02 -0.48131704292E+01  0.26793373385E+03  0.29479109639E+03  0.12163213464E+03 0.  0.
         25    2    3    3    0    0 -0.17197732158E+02  0.48131704292E+01  0.54266654612E+03  0.56118380111E+03  0.14184974356E+03 0.  0.
          5    1    4    4  502    0  0.60503574462E+02 -0.11837774317E+02  0.22457084188E+03  0.23292695947E+03  0.47000000000E+01 0.  1.
         -5    1    4    4    0  502 -0.43305842304E+02  0.70246038879E+01  0.43362891966E+02  0.61864136922E+02  0.47000000000E+01 0.  1.
          5    1    5    5  503    0 -0.18282467634E+02  0.68041954055E+02  0.18657386026E+03  0.19948897580E+03  0.47000000000E+01 0. -1.
         -5    1    5    5    0  503  0.10847354760E+01 -0.63228783626E+02  0.35609268586E+03  0.36169482531E+03  0.47000000000E+01 0. -1.
<mgrwt>
<rscale>  0 0.27499129E+03</rscale>
<asrwt>0</asrwt>
<pdfrwt beam="1">  1        3 0.12819807E+00 0.27499129E+03</pdfrwt>
<pdfrwt beam="2">  1       -3 0.34903558E-02 0.27499129E+03</pdfrwt>
<totfact> 0.51587927E+02</totfact>
</mgrwt>
</event>
<event>
 9    1  0.2065703E-002  0.2746385E+03  0.7818608E-02  0.1098654E+00
          2   -1    0    0  501    0  0.00000000000E+00  0.00000000000E+00  0.15292476659E+04  0.15292476659E+04  0.00000000000E+00 0.  1.
         -2   -1    0    0    0  501 -0.00000000000E+00 -0.00000000000E+00 -0.12330619558E+02  0.12330619558E+02  0.00000000000E+00 0.  1.
         36    2    1    2    0    0  0.71054273576E-14  0.00000000000E+00  0.15169170464E+04  0.15415782855E+04  0.27463846183E+03 0.  0.
         25    2    3    3    0    0  0.66929975728E+01 -0.55978148483E+02  0.65977597522E+03  0.67405936234E+03  0.12598943275E+03 0.  0.
         25    2    3    3    0    0 -0.66929975728E+01  0.55978148483E+02  0.85714107117E+03  0.86751892316E+03  0.12132566435E+03 0.  0.
          5    1    4    4  502    0 -0.40487756529E+02  0.97281125068E+01  0.99638772095E+02  0.10809194931E+03  0.47000000000E+01 0.  1.
         -5    1    4    4    0  502  0.47180754102E+02 -0.65706260990E+02  0.56013720312E+03  0.56596741303E+03  0.47000000000E+01 0.  1.
          5    1    5    5  503    0 -0.55452109207E+02 -0.38873357393E+01  0.40181399972E+03  0.40566812565E+03  0.47000000000E+01 0. -1.
         -5    1    5    5    0  503  0.48759111634E+02  0.59865484223E+02  0.45532707145E+03  0.46185079751E+03  0.47000000000E+01 0. -1.
<mgrwt>
<rscale>  0 0.27463846E+03</rscale>
<asrwt>0</asrwt>
<pdfrwt beam="1">  1        2 0.23526872E+00 0.27463846E+03</pdfrwt>
<pdfrwt beam="2">  1       -2 0.18970196E-02 0.27463846E+03</pdfrwt>
<totfact> 0.10997674E+04</totfact>
</mgrwt>
</event>
<event>
 9    1  0.2065703E-002  0.2751163E+03  0.7818608E-02  0.1098387E+00
          1   -1    0    0  501    0  0.00000000000E+00  0.00000000000E+00  0.18588415647E+04  0.18588415647E+04  0.00000000000E+00 0.  1.
         -1   -1    0    0    0  501 -0.00000000000E+00 -0.00000000000E+00 -0.10179592752E+02  0.10179592752E+02  0.00000000000E+00 0.  1.
         36    2    1    2    0    0  0.00000000000E+00  0.00000000000E+00  0.18486619719E+04  0.18690211574E+04  0.27511633989E+03 0.  0.
         25    2    3    3    0    0  0.44861121760E+02  0.33563812138E+02  0.82827535037E+03  0.83948340442E+03  0.12471279220E+03 0.  0.
         25    2    3    3    0    0 -0.44861121760E+02 -0.33563812138E+02  0.10203866216E+04  0.10295377530E+04  0.12498030920E+03 0.  0.
          5    1    4    4  502    0  0.28677362339E+02  0.32390670719E+02  0.81910797409E+03  0.82026307358E+03  0.47000000000E+01 0. -1.
         -5    1    4    4    0  502  0.16183759421E+02  0.11731414188E+01  0.91673762781E+01  0.19220330840E+02  0.47000000000E+01 0. -1.
          5    1    5    5  503    0 -0.22604650776E+01  0.39485631694E+02  0.56078877301E+03  0.56220135427E+03  0.47000000000E+01 0.  1.
         -5    1    5    5    0  503 -0.42600656682E+02 -0.73049443831E+02  0.45959784854E+03  0.46733639873E+03  0.47000000000E+01 0.  1.
<mgrwt>
<rscale>  0 0.27511634E+03</rscale>
<asrwt>0</asrwt>
<pdfrwt beam="1">  1        1 0.28597536E+00 0.27511634E+03</pdfrwt>
<pdfrwt beam="2">  1       -1 0.15660927E-02 0.27511634E+03</pdfrwt>
<totfact> 0.40840003E+03</totfact>
</mgrwt>
</event>
<event>
 9    1  0.2065703E-002  0.2747326E+03  0.7818608E-02  0.1098601E+00
          1   -1    0    0  501    0  0.00000000000E+00  0.00000000000E+00  0.83277874553E+02  0.83277874553E+02  0.00000000000E+00 0.  1.
         -1   -1    0    0    0  501 -0.00000000000E+00 -0.00000000000E+00 -0.22658472576E+03  0.22658472576E+03  0.00000000000E+00 0.  1.
         36    2    1    2    0    0  0.35527136788E-14  0.53290705182E-14 -0.14330685121E+03  0.30986260032E+03  0.27473255626E+03 0.  0.
         25    2    3    3    0    0  0.74082396596E+01 -0.37983305708E+01 -0.10334768720E+02  0.12806364619E+03  0.12737417595E+03 0.  0.
         25    2    3    3    0    0 -0.74082396596E+01  0.37983305708E+01 -0.13297208249E+03  0.18179895413E+03  0.12369307043E+03 0.  0.
          5    1    4    4  502    0 -0.50432893208E+02 -0.84840604733E+00 -0.38367817695E+02  0.63548217480E+02  0.47000000000E+01 0. -1.
         -5    1    4    4    0  502  0.57841132868E+02 -0.29499245235E+01  0.28033048975E+02  0.64515428705E+02  0.47000000000E+01 0. -1.
          5    1    5    5  503    0  0.31066236721E+02 -0.43037022631E+02 -0.27263819566E+02  0.59855678413E+02  0.47000000000E+01 0.  1.
         -5    1    5    5    0  503 -0.38474476381E+02  0.46835353202E+02 -0.10570826292E+03  0.12194327572E+03  0.47000000000E+01 0.  1.
<mgrwt>
<rscale>  0 0.27473256E+03</rscale>
<asrwt>0</asrwt>
<pdfrwt beam="1">  1        1 0.12811981E-01 0.27473256E+03</pdfrwt>
<pdfrwt beam="2">  1       -1 0.34859188E-01 0.27473256E+03</pdfrwt>
<totfact> 0.36018395E+03</totfact>
</mgrwt>
</event>
<event>
 9    1  0.2065703E-002  0.2717697E+03  0.7818608E-02  0.1100271E+00
         -2   -1    0    0    0  501 -0.00000000000E+00  0.00000000000E+00  0.15330524520E+02  0.15330524520E+02  0.00000000000E+00 0. -1.
          2   -1    0    0  501    0  0.00000000000E+00 -0.00000000000E+00 -0.12044400929E+04  0.12044400929E+04  0.00000000000E+00 0. -1.
         36    2    1    2    0    0  0.00000000000E+00  0.00000000000E+00 -0.11891095684E+04  0.12197706174E+04  0.27176974355E+03 0.  0.
         25    2    3    3    0    0 -0.22874173182E+02 -0.73717177730E+02 -0.71450708659E+03  0.72938445981E+03  0.12459479662E+03 0.  0.
         25    2    3    3    0    0  0.22874173182E+02  0.73717177730E+02 -0.47460248180E+03  0.49038615761E+03  0.96299624900E+02 0.  0.
          5    1    4    4  502    0 -0.36538540250E+02 -0.10235483492E+03 -0.62280918874E+03  0.63223805068E+03  0.47000000000E+01 0. -1.
         -5    1    4    4    0  502  0.13664367068E+02  0.28637657194E+02 -0.91697897850E+02  0.97146409131E+02  0.47000000000E+01 0. -1.
          5    1    5    5  503    0 -0.32451360936E+02  0.17756339396E+02 -0.83951225363E+02  0.91860092833E+02  0.47000000000E+01 0.  1.
         -5    1    5    5    0  503  0.55325534119E+02  0.55960838334E+02 -0.39065125643E+03  0.39852606478E+03  0.47000000000E+01 0.  1.
<mgrwt>
<rscale>  0 0.27176974E+03</rscale>
<asrwt>0</asrwt>
<pdfrwt beam="1">  1        2 0.18529849E+00 0.27176974E+03</pdfrwt>
<pdfrwt beam="2">  1       -2 0.23585420E-02 0.27176974E+03</pdfrwt>
<totfact> 0.12014738E+04</totfact>
</mgrwt>
</event>
<event>
 9    1  0.2065703E-002  0.2764500E+03  0.7818608E-02  0.1097644E+00
         -1   -1    0    0    0  501 -0.00000000000E+00  0.00000000000E+00  0.16947335883E+02  0.16947335883E+02  0.00000000000E+00 0.  1.
          1   -1    0    0  501    0  0.00000000000E+00 -0.00000000000E+00 -0.11273837872E+04  0.11273837872E+04  0.00000000000E+00 0.  1.
         36    2    1    2    0    0  0.00000000000E+00 -0.35527136788E-14 -0.11104364513E+04  0.11443311231E+04  0.27645000786E+03 0.  0.
         25    2    3    3    0    0 -0.52208773861E+02  0.26862153442E+02 -0.56026797428E+03  0.57687990112E+03  0.12426940877E+03 0.  0.
         25    2    3    3    0    0  0.52208773861E+02 -0.26862153442E+02 -0.55016847703E+03  0.56745122196E+03  0.12596906298E+03 0.  0.
          5    1    4    4  502    0 -0.77690820842E+02  0.24853993560E+01 -0.19636979639E+03  0.21124684089E+03  0.47000000000E+01 0. -1.
         -5    1    4    4    0  502  0.25482046981E+02  0.24376754086E+02 -0.36389817789E+03  0.36563306023E+03  0.47000000000E+01 0. -1.
          5    1    5    5  503    0  0.38111087044E+02  0.18294396298E+02 -0.48459652301E+03  0.48645967974E+03  0.47000000000E+01 0.  1.
         -5    1    5    5    0  503  0.14097686816E+02 -0.45156549740E+02 -0.65571954016E+02  0.80991542222E+02  0.47000000000E+01 0.  1.
<mgrwt>
<rscale>  0 0.27645001E+03</rscale>
<asrwt>0</asrwt>
<pdfrwt beam="1">  1        1 0.17344367E+00 0.27645001E+03</pdfrwt>
<pdfrwt beam="2">  1       -1 0.26072823E-02 0.27645001E+03</pdfrwt>
<totfact> 0.59835103E+03</totfact>
</mgrwt>
</event>
<event>
 9    1  0.2065703E-002  0.2759008E+03  0.7818608E-02  0.1097949E+00
          1   -1    0    0  501    0  0.00000000000E+00  0.00000000000E+00  0.40602046786E+02  0.40602046786E+02  0.00000000000E+00 0.  1.
         -1   -1    0    0    0  501 -0.00000000000E+00 -0.00000000000E+00 -0.46870329239E+03  0.46870329239E+03  0.00000000000E+00 0.  1.
         36    2    1    2    0    0  0.35527136788E-14 -0.35527136788E-14 -0.42810124561E+03  0.50930533918E+03  0.27590080106E+03 0.  0.
         25    2    3    3    0    0 -0.14654753059E+02 -0.95545473062E+01 -0.29522539953E+03  0.32482478584E+03  0.13433932338E+03 0.  0.
         25    2    3    3    0    0  0.14654753059E+02  0.95545473062E+01 -0.13287584608E+03  0.18448055334E+03  0.12677157776E+03 0.  0.
          5    1    4    4  502    0  0.22102674289E+02  0.22294461126E+02 -0.26600336263E+03  0.26789074291E+03  0.47000000000E+01 0.  1.
         -5    1    4    4    0  502 -0.36757427348E+02 -0.31849008433E+02 -0.29222036900E+02  0.56934042926E+02  0.47000000000E+01 0.  1.
          5    1    5    5  503    0  0.25056275023E+02  0.47961886919E+02 -0.99896042572E+01  0.55227182692E+02  0.47000000000E+01 0.  1.
         -5    1    5    5    0  503 -0.10401521964E+02 -0.38407339613E+02 -0.12288624182E+03  0.12925337065E+03  0.47000000000E+01 0.  1.
<mgrwt>
<rscale>  0 0.27590080E+03</rscale>
<asrwt>0</asrwt>
<pdfrwt beam="1">  1        1 0.62464679E-02 0.27590080E+03</pdfrwt>
<pdfrwt beam="2">  1       -1 0.72108209E-01 0.27590080E+03</pdfrwt>
<totfact> 0.24627121E+03</totfact>
</mgrwt>
</event>
<event>
 9    1  0.2065703E-002  0.2750734E+03  0.7818608E-02  0.1098411E+00
         -1   -1    0    0    0  501 -0.00000000000E+00  0.00000000000E+00  0.18538295481E+03  0.18538295481E+03  0.00000000000E+00 0.  1.
          1   -1    0    0  501    0  0.00000000000E+00 -0.00000000000E+00 -0.10203930688E+03  0.10203930688E+03  0.00000000000E+00 0.  1.
         36    2    1    2    0    0 -0.17763568394E-14  0.00000000000E+00  0.83343647928E+02  0.28742226169E+03  0.27507343177E+03 0.  0.
         25    2    3    3    0    0  0.12992427714E+02  0.60830800088E+02  0.31323273617E+02  0.14411909519E+03  0.12617439008E+03 0.  0.
         25    2    3    3    0    0 -0.12992427714E+02 -0.60830800088E+02  0.52020374312E+02  0.14330316649E+03  0.11815451225E+03 0.  0.
          5    1    4    4  502    0  0.14677225935E+02  0.31847834747E+02  0.79871798920E+02  0.87357311096E+02  0.47000000000E+01 0.  1.
         -5    1    4    4    0  502 -0.16847982215E+01  0.28982965341E+02 -0.48548525303E+02  0.56761784099E+02  0.47000000000E+01 0.  1.
          5    1    5    5  503    0  0.35167160749E+00 -0.20809377636E+02 -0.38110469434E+02  0.43676672847E+02  0.47000000000E+01 0.  1.
         -5    1    5    5    0  503 -0.13344099321E+02 -0.40021422451E+02  0.90130843746E+02  0.99626493645E+02  0.47000000000E+01 0.  1.
<mgrwt>
<rscale>  0 0.27507343E+03</rscale>
<asrwt>0</asrwt>
<pdfrwt beam="1">  1        1 0.15698355E-01 0.27507343E+03</pdfrwt>
<pdfrwt beam="2">  1       -1 0.28520455E-01 0.27507343E+03</pdfrwt>
<totfact> 0.38872909E+03</totfact>
</mgrwt>
</event>
<event>
 9    1  0.2065703E-002  0.2751405E+03  0.7818608E-02  0.1098373E+00
         -2   -1    0    0    0  501 -0.00000000000E+00  0.00000000000E+00  0.13501119420E+02  0.13501119420E+02  0.00000000000E+00 0. -1.
          2   -1    0    0  501    0  0.00000000000E+00 -0.00000000000E+00 -0.14017779281E+04  0.14017779281E+04  0.00000000000E+00 0. -1.
         36    2    1    2    0    0  0.71054273576E-14 -0.71054273576E-14 -0.13882768086E+04  0.14152790475E+04  0.27514048199E+03 0.  0.
         25    2    3    3    0    0  0.45183985219E+02 -0.32165154289E+02 -0.81325691883E+03  0.82405092085E+03  0.12081769100E+03 0.  0.
         25    2    3    3    0    0 -0.45183985219E+02  0.32165154289E+02 -0.57501988981E+03  0.59122812663E+03  0.12580395212E+03 0.  0.
          5    1    4    4  502    0  0.19911409074E+02 -0.64494371788E+02 -0.70405777979E+03  0.70730151667E+03  0.47000000000E+01 0.  1.
         -5    1    4    4    0  502  0.25272576145E+02  0.32329217499E+02 -0.10919913904E+03  0.11674940418E+03  0.47000000000E+01 0.  1.
          5    1    5    5  503    0 -0.17121777531E+02  0.52274522687E+02 -0.94484229000E+02  0.10943098518E+03  0.47000000000E+01 0. -1.
         -5    1    5    5    0  503 -0.28062207688E+02 -0.20109368398E+02 -0.48053566081E+03  0.48179714145E+03  0.47000000000E+01 0. -1.
<mgrwt>
<rscale>  0 0.27514048E+03</rscale>
<asrwt>0</asrwt>
<pdfrwt beam="1">  1        2 0.21565820E+00 0.27514048E+03</pdfrwt>
<pdfrwt beam="2">  1       -2 0.20770948E-02 0.27514048E+03</pdfrwt>
<totfact> 0.11270434E+04</totfact>
</mgrwt>
</event>
<event>
 9    1  0.2065703E-002  0.2748478E+03  0.7818608E-02  0.1098537E+00
         -2   -1    0    0    0  501 -0.00000000000E+00  0.00000000000E+00  0.17489144191E+02  0.17489144191E+02  0.00000000000E+00 0.  1.
          2   -1    0    0  501    0  0.00000000000E+00 -0.00000000000E+00 -0.10798313140E+04  0.10798313140E+04  0.00000000000E+00 0.  1.
         36    2    1    2    0    0  0.35527136788E-14 -0.17763568394E-14 -0.10623421698E+04  0.10973204582E+04  0.27484778007E+03 0.  0.
         25    2    3    3    0    0  0.58771874030E+01 -0.33199592003E+01 -0.71054353411E+03  0.72180873472E+03  0.12684704249E+03 0.  0.
         25    2    3    3    0    0 -0.58771874030E+01  0.33199592003E+01 -0.35179863567E+03  0.37551172345E+03  0.13115338701E+03 0.  0.
          5    1    4    4  502    0 -0.16841000033E+02 -0.50254564527E+02 -0.15652352294E+03  0.16532042757E+03  0.47000000000E+01 0. -1.
         -5    1    4    4    0  502  0.22718187436E+02  0.46934605327E+02 -0.55402001117E+03  0.55648830715E+03  0.47000000000E+01 0. -1.
          5    1    5    5  503    0 -0.42020054491E+02 -0.85943444304E+01 -0.32753033754E+02  0.54170092816E+02  0.47000000000E+01 0.  1.
         -5    1    5    5    0  503  0.36142867088E+02  0.11914303631E+02 -0.31904560192E+03  0.32134163063E+03  0.47000000000E+01 0.  1.
<mgrwt>
<rscale>  0 0.27484778E+03</rscale>
<asrwt>0</asrwt>
<pdfrwt beam="1">  1        2 0.16612794E+00 0.27484778E+03</pdfrwt>
<pdfrwt beam="2">  1       -2 0.26906369E-02 0.27484778E+03</pdfrwt>
<totfact> 0.11676626E+04</totfact>
</mgrwt>
</event>
<event>
 9    1  0.2065703E-002  0.2745843E+03  0.7818608E-02  0.1098684E+00
         -2   -1    0    0    0  501 -0.00000000000E+00  0.00000000000E+00  0.12853230032E+02  0.12853230032E+02  0.00000000000E+00 0.  1.
          2   -1    0    0  501    0  0.00000000000E+00 -0.00000000000E+00 -0.14664900790E+04  0.14664900790E+04  0.00000000000E+00 0.  1.
         36    2    1    2    0    0 -0.35527136788E-14  0.00000000000E+00 -0.14536368490E+04  0.14793433090E+04  0.27458429908E+03 0.  0.
         25    2    3    3    0    0  0.17592077108E+02 -0.33449339980E+02 -0.94769967805E+03  0.95643004783E+03  0.12326969254E+03 0.  0.
         25    2    3    3    0    0 -0.17592077108E+02  0.33449339980E+02 -0.50593717091E+03  0.52291326119E+03  0.12663932367E+03 0.  0.
          5    1    4    4  502    0 -0.44693937839E+02  0.13439915614E+02 -0.47625942860E+03  0.47856380216E+03  0.47000000000E+01 0. -1.
         -5    1    4    4    0  502  0.62286014947E+02 -0.46889255594E+02 -0.47144024945E+03  0.47786624567E+03  0.47000000000E+01 0. -1.
          5    1    5    5  503    0 -0.11723902276E+02  0.12645757814E+02 -0.14398369728E+01  0.17931207594E+02  0.47000000000E+01 0. -1.
         -5    1    5    5    0  503 -0.58681748320E+01  0.20803582166E+02 -0.50449733393E+03  0.50498205360E+03  0.47000000000E+01 0. -1.
<mgrwt>
<rscale>  0 0.27458430E+03</rscale>
<asrwt>0</asrwt>
<pdfrwt beam="1">  1        2 0.22561379E+00 0.27458430E+03</pdfrwt>
<pdfrwt beam="2">  1       -2 0.19774206E-02 0.27458430E+03</pdfrwt>
<totfact> 0.11178934E+04</totfact>
</mgrwt>
</event>
<event>
 9    1  0.2065703E-002  0.2728193E+03  0.7818608E-02  0.1099677E+00
         -1   -1    0    0    0  501 -0.00000000000E+00  0.00000000000E+00  0.16224766121E+02  0.16224766121E+02  0.00000000000E+00 0.  1.
          1   -1    0    0  501    0  0.00000000000E+00 -0.00000000000E+00 -0.11468638623E+04  0.11468638623E+04  0.00000000000E+00 0.  1.
         36    2    1    2    0    0  0.17763568394E-14  0.00000000000E+00 -0.11306390962E+04  0.11630886284E+04  0.27281933904E+03 0.  0.
         25    2    3    3    0    0 -0.15030146221E+02 -0.17525048813E+02 -0.79075818895E+03  0.80049230948E+03  0.12229632667E+03 0.  0.
         25    2    3    3    0    0  0.15030146221E+02  0.17525048813E+02 -0.33988090722E+03  0.36259631893E+03  0.12419350538E+03 0.  0.
          5    1    4    4  502    0  0.12111339675E+02 -0.53159924228E+02 -0.18147468385E+03  0.18954633463E+03  0.47000000000E+01 0. -1.
         -5    1    4    4    0  502 -0.27141485897E+02  0.35634875415E+02 -0.60928350509E+03  0.61094597485E+03  0.47000000000E+01 0. -1.
          5    1    5    5  503    0  0.46829122368E+01 -0.33163597727E+02 -0.28510986777E+03  0.28710883055E+03  0.47000000000E+01 0. -1.
         -5    1    5    5    0  503  0.10347233985E+02  0.50688646541E+02 -0.54771039453E+02  0.75487488381E+02  0.47000000000E+01 0. -1.
<mgrwt>
<rscale>  0 0.27281934E+03</rscale>
<asrwt>0</asrwt>
<pdfrwt beam="1">  1        1 0.17644064E+00 0.27281934E+03</pdfrwt>
<pdfrwt beam="2">  1       -1 0.24961173E-02 0.27281934E+03</pdfrwt>
<totfact> 0.61771822E+03</totfact>
</mgrwt>
</event>
<event>
 9    1  0.2065703E-002  0.2749981E+03  0.7818608E-02  0.1098453E+00
          2   -1    0    0  501    0  0.00000000000E+00  0.00000000000E+00  0.35331880667E+03  0.35331880667E+03  0.00000000000E+00 0.  1.
         -2   -1    0    0    0  501 -0.00000000000E+00 -0.00000000000E+00 -0.53509722912E+02  0.53509722912E+02  0.00000000000E+00 0.  1.
         36    2    1    2    0    0  0.00000000000E+00  0.00000000000E+00  0.29980908376E+03  0.40682852958E+03  0.27499811959E+03 0.  0.
         25    2    3    3    0    0 -0.28876543027E+02  0.39253342144E+02  0.15347338990E+03  0.21129866363E+03  0.13681507314E+03 0.  0.
         25    2    3    3    0    0  0.28876543027E+02 -0.39253342144E+02  0.14633569386E+03  0.19552986595E+03  0.12017950564E+03 0.  0.
          5    1    4    4  502    0  0.45550956386E+02  0.25210002695E+02  0.16687545195E+02  0.54872561706E+02  0.47000000000E+01 0.  1.
         -5    1    4    4    0  502 -0.74427499413E+02  0.14043339449E+02  0.13678584470E+03  0.15642610192E+03  0.47000000000E+01 0.  1.
          5    1    5    5  503    0  0.39010401960E+02  0.12042366950E+02  0.13593517666E+03  0.14201159219E+03  0.47000000000E+01 0.  1.
         -5    1    5    5    0  503 -0.10133858932E+02 -0.51295709094E+02  0.10400517197E+02  0.53518273760E+02  0.47000000000E+01 0.  1.
<mgrwt>
<rscale>  0 0.27499812E+03</rscale>
<asrwt>0</asrwt>
<pdfrwt beam="1">  1        2 0.54356738E-01 0.27499812E+03</pdfrwt>
<pdfrwt beam="2">  1       -2 0.82322653E-02 0.27499812E+03</pdfrwt>
<totfact> 0.82088855E+03</totfact>
</mgrwt>
</event>
<event>
 9    1  0.2065703E-002  0.2731521E+03  0.7818608E-02  0.1099489E+00
          2   -1    0    0  501    0  0.00000000000E+00  0.00000000000E+00  0.41622831031E+03  0.41622831031E+03  0.00000000000E+00 0.  1.
         -2   -1    0    0    0  501 -0.00000000000E+00 -0.00000000000E+00 -0.44814391157E+02  0.44814391157E+02  0.00000000000E+00 0.  1.
         36    2    1    2    0    0 -0.35527136788E-14  0.00000000000E+00  0.37141391915E+03  0.46104270147E+03  0.27315210641E+03 0.  0.
         25    2    3    3    0    0  0.26145090049E+02  0.18819996813E+02  0.14486009471E+03  0.19892185083E+03  0.13246772319E+03 0.  0.
         25    2    3    3    0    0 -0.26145090049E+02 -0.18819996813E+02  0.22655382444E+03  0.26212085063E+03  0.12783953596E+03 0.  0.
          5    1    4    4  502    0 -0.28798677499E+02 -0.43452454839E+02  0.66678648342E+02  0.84767988073E+02  0.47000000000E+01 0. -1.
         -5    1    4    4    0  502  0.54943767548E+02  0.62272451652E+02  0.78181446366E+02  0.11415386276E+03  0.47000000000E+01 0. -1.
          5    1    5    5  503    0  0.16080423885E+02  0.45186146401E+02  0.49332957322E+02  0.68965198013E+02  0.47000000000E+01 0. -1.
         -5    1    5    5    0  503 -0.42225513934E+02 -0.64006143214E+02  0.17722086712E+03  0.19315565262E+03  0.47000000000E+01 0. -1.
<mgrwt>
<rscale>  0 0.27315211E+03</rscale>
<asrwt>0</asrwt>
<pdfrwt beam="1">  1        2 0.64035122E-01 0.27315211E+03</pdfrwt>
<pdfrwt beam="2">  1       -2 0.68945220E-02 0.27315211E+03</pdfrwt>
<totfact> 0.90540743E+03</totfact>
</mgrwt>
</event>
<event>
 9    1  0.2065703E-002  0.2745991E+03  0.7818608E-02  0.1098676E+00
          1   -1    0    0  501    0  0.00000000000E+00  0.00000000000E+00  0.17331486368E+03  0.17331486368E+03  0.00000000000E+00 0. -1.
         -1   -1    0    0    0  501 -0.00000000000E+00 -0.00000000000E+00 -0.10876828435E+03  0.10876828435E+03  0.00000000000E+00 0. -1.
         36    2    1    2    0    0  0.71054273576E-14 -0.14210854715E-13  0.64546579330E+02  0.28208314804E+03  0.27459905590E+03 0.  0.
         25    2    3    3    0    0 -0.25281404036E+02  0.58082429828E+02  0.12697936267E+02  0.13348240138E+03  0.11680580400E+03 0.  0.
         25    2    3    3    0    0  0.25281404036E+02 -0.58082429828E+02  0.51848643064E+02  0.14860074665E+03  0.12402089370E+03 0.  0.
          5    1    4    4  502    0 -0.67610399032E+02  0.57145368657E+02 -0.12460143600E+01  0.88658906873E+02  0.47000000000E+01 0. -1.
         -5    1    4    4    0  502  0.42328994996E+02  0.93706117087E+00  0.13943950627E+02  0.44823494510E+02  0.47000000000E+01 0. -1.
          5    1    5    5  503    0 -0.46278622295E+02 -0.14875182950E-02  0.11725296709E+02  0.47971694432E+02  0.47000000000E+01 0. -1.
         -5    1    5    5    0  503  0.71560026331E+02 -0.58080942309E+02  0.40123346355E+02  0.10062905222E+03  0.47000000000E+01 0. -1.
<mgrwt>
<rscale>  0 0.27459906E+03</rscale>
<asrwt>0</asrwt>
<pdfrwt beam="1">  1        1 0.26663825E-01 0.27459906E+03</pdfrwt>
<pdfrwt beam="2">  1       -1 0.16733582E-01 0.27459906E+03</pdfrwt>
<totfact> 0.47153387E+03</totfact>
</mgrwt>
</event>
<event>
 9    1  0.2065703E-002  0.2752666E+03  0.7818608E-02  0.1098303E+00
         -2   -1    0    0    0  501 -0.00000000000E+00  0.00000000000E+00  0.35288702856E+02  0.35288702856E+02  0.00000000000E+00 0.  1.
          2   -1    0    0  501    0  0.00000000000E+00 -0.00000000000E+00 -0.53679842342E+03  0.53679842342E+03  0.00000000000E+00 0.  1.
         36    2    1    2    0    0  0.00000000000E+00  0.00000000000E+00 -0.50150972057E+03  0.57208712628E+03  0.27526656214E+03 0.  0.
         25    2    3    3    0    0  0.32516430270E+02  0.16680344124E+02 -0.15034382054E+03  0.19802166518E+03  0.12358706804E+03 0.  0.
         25    2    3    3    0    0 -0.32516430270E+02 -0.16680344124E+02 -0.35116590003E+03  0.37406546110E+03  0.12357964124E+03 0.  0.
          5    1    4    4  502    0  0.41273432595E+02 -0.17300732295E+02 -0.14988014704E+01  0.45023860140E+02  0.47000000000E+01 0.  1.
         -5    1    4    4    0  502 -0.87570023246E+01  0.33981076419E+02 -0.14884501907E+03  0.15299780504E+03  0.47000000000E+01 0.  1.
          5    1    5    5  503    0  0.64127369601E+01 -0.23570166725E+01  0.85642132672E+01  0.11921177450E+02  0.47000000000E+01 0.  1.
         -5    1    5    5    0  503 -0.38929167230E+02 -0.14323327452E+02 -0.35973011329E+03  0.36214428365E+03  0.47000000000E+01 0.  1.
<mgrwt>
<rscale>  0 0.27526656E+03</rscale>
<asrwt>0</asrwt>
<pdfrwt beam="1">  1        2 0.82584366E-01 0.27526656E+03</pdfrwt>
<pdfrwt beam="2">  1       -2 0.54290317E-02 0.27526656E+03</pdfrwt>
<totfact> 0.98576426E+03</totfact>
</mgrwt>
</event>
<event>
 9    1  0.2065703E-002  0.2728540E+03  0.7818608E-02  0.1099657E+00
          2   -1    0    0  501    0  0.00000000000E+00  0.00000000000E+00  0.13735762019E+03  0.13735762019E+03  0.00000000000E+00 0. -1.
         -2   -1    0    0    0  501 -0.00000000000E+00 -0.00000000000E+00 -0.13550269240E+03  0.13550269240E+03  0.00000000000E+00 0. -1.
         36    2    1    2    0    0  0.00000000000E+00  0.71054273576E-14  0.18549277905E+01  0.27286031259E+03  0.27285400754E+03 0.  0.
         25    2    3    3    0    0  0.64219804673E+02  0.42609020604E+02 -0.81646515090E+00  0.14125780752E+03  0.11837816361E+03 0.  0.
         25    2    3    3    0    0 -0.64219804673E+02 -0.42609020604E+02  0.26713929414E+01  0.13160250507E+03  0.10664131963E+03 0.  0.
          5    1    4    4  502    0 -0.52061025518E+01  0.66273794966E+02  0.84489647411E+01  0.67177335524E+02  0.47000000000E+01 0.  1.
         -5    1    4    4    0  502  0.69425907225E+02 -0.23664774362E+02 -0.92654298920E+01  0.74080471993E+02  0.47000000000E+01 0.  1.
          5    1    5    5  503    0 -0.35930590757E+02  0.86530671073E+01 -0.43221300377E+02  0.57061841267E+02  0.47000000000E+01 0.  1.
         -5    1    5    5    0  503 -0.28289213916E+02 -0.51262087711E+02  0.45892693318E+02  0.74540663805E+02  0.47000000000E+01 0.  1.
<mgrwt>
<rscale>  0 0.27285401E+03</rscale>
<asrwt>0</asrwt>
<pdfrwt beam="1">  1        2 0.21131942E-01 0.27285401E+03</pdfrwt>
<pdfrwt beam="2">  1       -2 0.20846568E-01 0.27285401E+03</pdfrwt>
<totfact> 0.50609087E+03</totfact>
</mgrwt>
</event>
<event>
 9    1  0.2065703E-002  0.2742717E+03  0.7818608E-02  0.1098859E+00
          2   -1    0    0  501    0  0.00000000000E+00  0.00000000000E+00  0.10447816927E+04  0.10447816927E+04  0.00000000000E+00 0. -1.
         -2   -1    0    0    0  501 -0.00000000000E+00 -0.00000000000E+00 -0.18000169553E+02  0.18000169553E+02  0.00000000000E+00 0. -1.
         36    2    1    2    0    0  0.00000000000E+00 -0.71054273576E-14  0.10267815231E+04  0.10627818622E+04  0.27427174564E+03 0.  0.
         25    2    3    3    0    0 -0.70428655518E+01  0.59030679919E+01  0.28352034616E+03  0.30905160611E+03  0.12265667689E+03 0.  0.
         25    2    3    3    0    0  0.70428655518E+01 -0.59030679919E+01  0.74326117697E+03  0.75373025612E+03  0.12485060528E+03 0.  0.
          5    1    4    4  502    0  0.24018919285E+02  0.52514559660E+02  0.86050644966E+02  0.10373760629E+03  0.47000000000E+01 0.  1.
         -5    1    4    4    0  502 -0.31061784836E+02 -0.46611491668E+02  0.19746970119E+03  0.20531399982E+03  0.47000000000E+01 0.  1.
          5    1    5    5  503    0  0.41503769394E+02  0.34371139228E+02  0.56796993842E+03  0.57053998899E+03  0.47000000000E+01 0. -1.
         -5    1    5    5    0  503 -0.34460903842E+02 -0.40274207220E+02  0.17529123855E+03  0.18319026714E+03  0.47000000000E+01 0. -1.
<mgrwt>
<rscale>  0 0.27427175E+03</rscale>
<asrwt>0</asrwt>
<pdfrwt beam="1">  1        2 0.16073560E+00 0.27427175E+03</pdfrwt>
<pdfrwt beam="2">  1       -2 0.27692577E-02 0.27427175E+03</pdfrwt>
<totfact> 0.11738805E+04</totfact>
</mgrwt>
</event>
<event>
 9    1  0.2065703E-002  0.2750201E+03  0.7818608E-02  0.1098440E+00
         -2   -1    0    0    0  501 -0.00000000000E+00  0.00000000000E+00  0.11400346958E+02  0.11400346958E+02  0.00000000000E+00 0. -1.
          2   -1    0    0  501    0  0.00000000000E+00 -0.00000000000E+00 -0.16586344432E+04  0.16586344432E+04  0.00000000000E+00 0. -1.
         36    2    1    2    0    0  0.00000000000E+00  0.00000000000E+00 -0.16472340962E+04  0.16700347901E+04  0.27502005838E+03 0.  0.
         25    2    3    3    0    0  0.19966399659E+02  0.79550388401E+01 -0.12237076532E+04  0.12284638261E+04  0.10583483217E+03 0.  0.
         25    2    3    3    0    0 -0.19966399659E+02 -0.79550388401E+01 -0.42352644298E+03  0.44157096403E+03  0.12307854651E+03 0.  0.
          5    1    4    4  502    0 -0.11934732448E+02 -0.34634111653E+02 -0.20119828818E+03  0.20456001734E+03  0.47000000000E+01 0. -1.
         -5    1    4    4    0  502  0.31901132107E+02  0.42589150493E+02 -0.10225093651E+04  0.10239038088E+04  0.47000000000E+01 0. -1.
          5    1    5    5  503    0 -0.46404710572E+02  0.42920474554E+02 -0.16581767247E+03  0.17751944908E+03  0.47000000000E+01 0. -1.
         -5    1    5    5    0  503  0.26438310913E+02 -0.50875513394E+02 -0.25770877051E+03  0.26405151494E+03  0.47000000000E+01 0. -1.
<mgrwt>
<rscale>  0 0.27502006E+03</rscale>
<asrwt>0</asrwt>
<pdfrwt beam="1">  1        2 0.25517460E+00 0.27502006E+03</pdfrwt>
<pdfrwt beam="2">  1       -2 0.17538991E-02 0.27502006E+03</pdfrwt>
<totfact> 0.10536818E+04</totfact>
</mgrwt>
</event>
<event>
 9    1  0.2065703E-002  0.2756117E+03  0.7818608E-02  0.1098110E+00
          2   -1    0    0  501    0  0.00000000000E+00  0.00000000000E+00  0.21622378785E+03  0.21622378785E+03  0.00000000000E+00 0. -1.
         -2   -1    0    0    0  501 -0.00000000000E+00 -0.00000000000E+00 -0.87827796022E+02  0.87827796022E+02  0.00000000000E+00 0. -1.
         36    2    1    2    0    0  0.00000000000E+00  0.00000000000E+00  0.12839599183E+03  0.30405158387E+03  0.27561174673E+03 0.  0.
         25    2    3    3    0    0 -0.29896984876E+02 -0.27963473224E+02  0.22729030399E+02  0.13464871247E+03  0.12624532232E+03 0.  0.
         25    2    3    3    0    0  0.29896984876E+02  0.27963473224E+02  0.10566696143E+03  0.16940287140E+03  0.12592077096E+03 0.  0.
          5    1    4    4  502    0 -0.60691389480E+02  0.22598887935E+02  0.35354237717E+02  0.73933528371E+02  0.47000000000E+01 0.  1.
         -5    1    4    4    0  502  0.30794404604E+02 -0.50562361159E+02 -0.12625207317E+02  0.60715184103E+02  0.47000000000E+01 0.  1.
          5    1    5    5  503    0  0.63040013857E+02 -0.25086847917E+02  0.68307015078E+02  0.96391553543E+02  0.47000000000E+01 0.  1.
         -5    1    5    5    0  503 -0.33143028982E+02  0.53050321142E+02  0.37359946350E+02  0.73011317853E+02  0.47000000000E+01 0.  1.
<mgrwt>
<rscale>  0 0.27561175E+03</rscale>
<asrwt>0</asrwt>
<pdfrwt beam="1">  1        2 0.33265198E-01 0.27561175E+03</pdfrwt>
<pdfrwt beam="2">  1       -2 0.13511969E-01 0.27561175E+03</pdfrwt>
<totfact> 0.63196796E+03</totfact>
</mgrwt>
</event>
<event>
 9    1  0.2065703E-002  0.2738321E+03  0.7818608E-02  0.1099106E+00
          3   -1    0    0  501    0  0.00000000000E+00  0.00000000000E+00  0.18589787152E+03  0.18589787152E+03  0.00000000000E+00 0. -1.
         -3   -1    0    0    0  501 -0.00000000000E+00 -0.00000000000E+00 -0.10084037526E+03  0.10084037526E+03  0.00000000000E+00 0. -1.
         36    2    1    2    0    0 -0.35527136788E-14  0.71054273576E-14  0.85057496259E+02  0.28673824678E+03  0.27383214657E+03 0.  0.
         25    2    3    3    0    0 -0.21872455829E+02  0.51739547689E+02  0.18117994048E+02  0.13435614069E+03  0.12069766242E+03 0.  0.
         25    2    3    3    0    0  0.21872455829E+02 -0.51739547689E+02  0.66939502212E+02  0.15238210609E+03  0.12483598912E+03 0.  0.
          5    1    4    4  502    0 -0.23114580385E+02  0.11861584891E+02 -0.49272302270E+02  0.55900185988E+02  0.47000000000E+01 0. -1.
         -5    1    4    4    0  502  0.12421245569E+01  0.39877962799E+02  0.67390296318E+02  0.78455954702E+02  0.47000000000E+01 0. -1.
          5    1    5    5  503    0 -0.42773004841E+02 -0.93898156542E-01 -0.41010315836E+01  0.43225538979E+02  0.47000000000E+01 0. -1.
         -5    1    5    5    0  503  0.64645460670E+02 -0.51645649533E+02  0.71040533795E+02  0.10915656711E+03  0.47000000000E+01 0. -1.
<mgrwt>
<rscale>  0 0.27383215E+03</rscale>
<asrwt>0</asrwt>
<pdfrwt beam="1">  1        3 0.28599673E-01 0.27383215E+03</pdfrwt>
<pdfrwt beam="2">  1       -3 0.15513904E-01 0.27383215E+03</pdfrwt>
<totfact> 0.10447463E+03</totfact>
</mgrwt>
</event>
<event>
 9    1  0.2065703E-002  0.2748614E+03  0.7818608E-02  0.1098529E+00
          4   -1    0    0  501    0  0.00000000000E+00  0.00000000000E+00  0.53078132914E+02  0.53078132914E+02  0.00000000000E+00 0. -1.
         -4   -1    0    0    0  501 -0.00000000000E+00 -0.00000000000E+00 -0.35583763124E+03  0.35583763124E+03  0.00000000000E+00 0. -1.
         36    2    1    2    0    0  0.35527136788E-14 -0.35527136788E-14 -0.30275949833E+03  0.40891576416E+03  0.27486139843E+03 0.  0.
         25    2    3    3    0    0  0.29673919130E+02 -0.63476693778E+01 -0.22448417011E+03  0.25853405666E+03  0.12460289499E+03 0.  0.
         25    2    3    3    0    0 -0.29673919130E+02  0.63476693778E+01 -0.78275328220E+02  0.15038170750E+03  0.12476696902E+03 0.  0.
          5    1    4    4  502    0  0.11524389925E+02 -0.51894202819E+02 -0.37633836538E+02  0.65300960957E+02  0.47000000000E+01 0.  1.
         -5    1    4    4    0  502  0.18149529205E+02  0.45546533441E+02 -0.18685033357E+03  0.19323309570E+03  0.47000000000E+01 0.  1.
          5    1    5    5  503    0  0.16701177551E+02  0.37052561839E+02 -0.84830330878E+02  0.94181190836E+02  0.47000000000E+01 0. -1.
         -5    1    5    5    0  503 -0.46375096681E+02 -0.30704892461E+02  0.65550026581E+01  0.56200516662E+02  0.47000000000E+01 0. -1.
<mgrwt>
<rscale>  0 0.27486140E+03</rscale>
<asrwt>0</asrwt>
<pdfrwt beam="1">  1        4 0.81658669E-02 0.27486140E+03</pdfrwt>
<pdfrwt beam="2">  1       -4 0.54744249E-01 0.27486140E+03</pdfrwt>
<totfact> 0.64311299E+02</totfact>
</mgrwt>
</event>
<event>
 9    1  0.2065703E-002  0.2742351E+03  0.7818608E-02  0.1098880E+00
         -1   -1    0    0    0  501 -0.00000000000E+00  0.00000000000E+00  0.95417840491E+02  0.95417840491E+02  0.00000000000E+00 0.  1.
          1   -1    0    0  501    0  0.00000000000E+00 -0.00000000000E+00 -0.19704097792E+03  0.19704097792E+03  0.00000000000E+00 0.  1.
         36    2    1    2    0    0  0.14210854715E-13  0.00000000000E+00 -0.10162313743E+03  0.29245881841E+03  0.27423511520E+03 0.  0.
         25    2    3    3    0    0  0.45941695477E+02  0.14700417882E+02 -0.59386521309E+02  0.14904034978E+03  0.12790435989E+03 0.  0.
         25    2    3    3    0    0 -0.45941695477E+02 -0.14700417882E+02 -0.42236616122E+02  0.14341846864E+03  0.12828945294E+03 0.  0.
          5    1    4    4  502    0 -0.21239722974E+02  0.48332092498E+02 -0.50557590887E+02  0.73248051125E+02  0.47000000000E+01 0.  1.
         -5    1    4    4    0  502  0.67181418451E+02 -0.33631674616E+02 -0.88289304220E+01  0.75792298652E+02  0.47000000000E+01 0.  1.
          5    1    5    5  503    0 -0.18395740348E+02  0.49254209164E+02  0.13055536167E+02  0.54377545071E+02  0.47000000000E+01 0. -1.
         -5    1    5    5    0  503 -0.27545955130E+02 -0.63954627046E+02 -0.55292152290E+02  0.89040923566E+02  0.47000000000E+01 0. -1.
<mgrwt>
<rscale>  0 0.27423512E+03</rscale>
<asrwt>0</asrwt>
<pdfrwt beam="1">  1        1 0.30313996E-01 0.27423512E+03</pdfrwt>
<pdfrwt beam="2">  1       -1 0.14679668E-01 0.27423512E+03</pdfrwt>
<totfact> 0.49382579E+03</totfact>
</mgrwt>
</event>
<event>
 9    1  0.2065703E-002  0.2756809E+03  0.7818608E-02  0.1098072E+00
         -1   -1    0    0    0  501 -0.00000000000E+00  0.00000000000E+00  0.63205004478E+02  0.63205004478E+02  0.00000000000E+00 0. -1.
          1   -1    0    0  501    0  0.00000000000E+00 -0.00000000000E+00 -0.30060903725E+03  0.30060903725E+03  0.00000000000E+00 0. -1.
         36    2    1    2    0    0 -0.71054273576E-14  0.35527136788E-14 -0.23740403277E+03  0.36381404173E+03  0.27568094272E+03 0.  0.
         25    2    3    3    0    0  0.32834039369E+02 -0.20324417438E+01 -0.89597256553E+02  0.15821265020E+03  0.12617990863E+03 0.  0.
         25    2    3    3    0    0 -0.32834039369E+02  0.20324417438E+01 -0.14780677622E+03  0.20560139153E+03  0.13907869765E+03 0.  0.
          5    1    4    4  502    0  0.62945733602E+02 -0.39117708234E+02 -0.26313174025E+02  0.78783460215E+02  0.47000000000E+01 0.  1.
         -5    1    4    4    0  502 -0.30111694233E+02  0.37085266490E+02 -0.63284082528E+02  0.79429189985E+02  0.47000000000E+01 0.  1.
          5    1    5    5  503    0  0.33526881795E+02  0.31662047234E+02 -0.67343556680E+01  0.46839925109E+02  0.47000000000E+01 0.  1.
         -5    1    5    5    0  503 -0.66360921163E+02 -0.29629605491E+02 -0.14107242055E+03  0.15876146642E+03  0.47000000000E+01 0.  1.
<mgrwt>
<rscale>  0 0.27568094E+03</rscale>
<asrwt>0</asrwt>
<pdfrwt beam="1">  1        1 0.46247545E-01 0.27568094E+03</pdfrwt>
<pdfrwt beam="2">  1       -1 0.97238468E-02 0.27568094E+03</pdfrwt>
<totfact> 0.55283375E+03</totfact>
</mgrwt>
</event>
<event>
 9    1  0.2065703E-002  0.2776894E+03  0.7818608E-02  0.1096958E+00
         -1   -1    0    0    0  501 -0.00000000000E+00  0.00000000000E+00  0.46117912674E+01  0.46117912674E+01  0.00000000000E+00 0.  1.
          1   -1    0    0  501    0  0.00000000000E+00 -0.00000000000E+00 -0.41801231501E+04  0.41801231501E+04  0.00000000000E+00 0.  1.
         36    2    1    2    0    0 -0.71054273576E-14  0.35527136788E-14 -0.41755113588E+04  0.41847349414E+04  0.27768943401E+03 0.  0.
         25    2    3    3    0    0  0.53640297571E+02 -0.30019022459E+02 -0.19493344603E+04  0.19542044145E+04  0.12341649828E+03 0.  0.
         25    2    3    3    0    0 -0.53640297571E+02  0.30019022459E+02 -0.22261768985E+04  0.22305305269E+04  0.12499769914E+03 0.  0.
          5    1    4    4  502    0 -0.31638059084E+02 -0.23401056152E+02 -0.10633451143E+04  0.10640834076E+04  0.47000000000E+01 0.  1.
         -5    1    4    4    0  502  0.85278356655E+02 -0.66179663071E+01 -0.88598934604E+03  0.89012100688E+03  0.47000000000E+01 0.  1.
          5    1    5    5  503    0 -0.14995256360E+02 -0.15865133538E+02 -0.17987631912E+04  0.17989017950E+04  0.47000000000E+01 0.  1.
         -5    1    5    5    0  503 -0.38645041212E+02  0.45884155997E+02 -0.42741370732E+03  0.43162873188E+03  0.47000000000E+01 0.  1.
<mgrwt>
<rscale>  0 0.27768943E+03</rscale>
<asrwt>0</asrwt>
<pdfrwt beam="1">  1        1 0.64309524E+00 0.27768943E+03</pdfrwt>
<pdfrwt beam="2">  1       -1 0.70950704E-03 0.27768943E+03</pdfrwt>
<totfact> 0.27055603E+02</totfact>
</mgrwt>
</event>
<event>
 9    1  0.2065703E-002  0.2767026E+03  0.7818608E-02  0.1097504E+00
         -2   -1    0    0    0  501 -0.00000000000E+00  0.00000000000E+00  0.16464092032E+02  0.16464092032E+02  0.00000000000E+00 0.  1.
          2   -1    0    0  501    0  0.00000000000E+00 -0.00000000000E+00 -0.11625956307E+04  0.11625956307E+04  0.00000000000E+00 0.  1.
         36    2    1    2    0    0  0.00000000000E+00  0.00000000000E+00 -0.11461315387E+04  0.11790597228E+04  0.27670259457E+03 0.  0.
         25    2    3    3    0    0  0.14673460111E+02 -0.43634067183E+01 -0.82980963073E+03  0.83921763401E+03  0.12436986865E+03 0.  0.
         25    2    3    3    0    0 -0.14673460111E+02  0.43634067183E+01 -0.31632190797E+03  0.33984208876E+03  0.12328319463E+03 0.  0.
          5    1    4    4  502    0  0.36940548416E+02  0.47086336681E+02 -0.58273566975E+03  0.58581966339E+03  0.47000000000E+01 0.  1.
         -5    1    4    4    0  502 -0.22267088305E+02 -0.51449743400E+02 -0.24707396098E+03  0.25339797062E+03  0.47000000000E+01 0.  1.
          5    1    5    5  503    0 -0.91136639315E+01 -0.31723004737E+02 -0.15482701000E+02  0.36758834721E+02  0.47000000000E+01 0. -1.
         -5    1    5    5    0  503 -0.55597961791E+01  0.36086411456E+02 -0.30083920697E+03  0.30308325404E+03  0.47000000000E+01 0. -1.
<mgrwt>
<rscale>  0 0.27670259E+03</rscale>
<asrwt>0</asrwt>
<pdfrwt beam="1">  1        2 0.17886093E+00 0.27670259E+03</pdfrwt>
<pdfrwt beam="2">  1       -2 0.25329363E-02 0.27670259E+03</pdfrwt>
<totfact> 0.11429107E+04</totfact>
</mgrwt>
</event>
<event>
 9    1  0.2065703E-002  0.2738099E+03  0.7818608E-02  0.1099119E+00
          2   -1    0    0  501    0  0.00000000000E+00  0.00000000000E+00  0.13728715623E+03  0.13728715623E+03  0.00000000000E+00 0.  1.
         -2   -1    0    0    0  501 -0.00000000000E+00 -0.00000000000E+00 -0.13652380384E+03  0.13652380384E+03  0.00000000000E+00 0.  1.
         36    2    1    2    0    0 -0.35527136788E-14 -0.35527136788E-14  0.76335238409E+00  0.27381096007E+03  0.27380989600E+03 0.  0.
         25    2    3    3    0    0 -0.24226727794E+02  0.22503605043E+02  0.43443708072E+02  0.13698564423E+03  0.12563584033E+03 0.  0.
         25    2    3    3    0    0  0.24226727794E+02 -0.22503605043E+02 -0.42680355688E+02  0.13682531584E+03  0.12572274143E+03 0.  0.
          5    1    4    4  502    0  0.36382708645E+02  0.12133420244E+02 -0.24087750055E+02  0.45532747313E+02  0.47000000000E+01 0. -1.
         -5    1    4    4    0  502 -0.60609436439E+02  0.10370184799E+02  0.67531458128E+02  0.91452896920E+02  0.47000000000E+01 0. -1.
          5    1    5    5  503    0 -0.27085899944E+02  0.38471132791E+02 -0.22433056375E+01  0.47337051599E+02  0.47000000000E+01 0. -1.
         -5    1    5    5    0  503  0.51312627738E+02 -0.60974737834E+02 -0.40437050051E+02  0.89488264236E+02  0.47000000000E+01 0. -1.
<mgrwt>
<rscale>  0 0.27380990E+03</rscale>
<asrwt>0</asrwt>
<pdfrwt beam="1">  1        2 0.21121101E-01 0.27380990E+03</pdfrwt>
<pdfrwt beam="2">  1       -2 0.21003662E-01 0.27380990E+03</pdfrwt>
<totfact> 0.49994847E+03</totfact>
</mgrwt>
</event>
<event>
 9    1  0.2065703E-002  0.2749165E+03  0.7818608E-02  0.1098498E+00
          2   -1    0    0  501    0  0.00000000000E+00  0.00000000000E+00  0.10640354849E+04  0.10640354849E+04  0.00000000000E+00 0. -1.
         -2   -1    0    0    0  501 -0.00000000000E+00 -0.00000000000E+00 -0.17757652798E+02  0.17757652798E+02  0.00000000000E+00 0. -1.
         36    2    1    2    0    0 -0.14210854715E-13 -0.35527136788E-14  0.10462778321E+04  0.10817931377E+04  0.27491651610E+03 0.  0.
         25    2    3    3    0    0  0.49578250791E+02 -0.27317507714E+02  0.59262479941E+03  0.60821733828E+03  0.12457900520E+03 0.  0.
         25    2    3    3    0    0 -0.49578250791E+02  0.27317507714E+02  0.45365303271E+03  0.47357579943E+03  0.12356664007E+03 0.  0.
          5    1    4    4  502    0  0.85288290693E+02 -0.28869934339E+02  0.51228877119E+03  0.52016289826E+03  0.47000000000E+01 0. -1.
         -5    1    4    4    0  502 -0.35710039903E+02  0.15524266253E+01  0.80336028217E+02  0.88054440024E+02  0.47000000000E+01 0. -1.
          5    1    5    5  503    0 -0.29379520320E+02 -0.47260007220E+00  0.14581965270E+02  0.33137641380E+02  0.47000000000E+01 0.  1.
         -5    1    5    5    0  503 -0.20198730470E+02  0.27790107786E+02  0.43907106744E+03  0.44043815805E+03  0.47000000000E+01 0.  1.
<mgrwt>
<rscale>  0 0.27491652E+03</rscale>
<asrwt>0</asrwt>
<pdfrwt beam="1">  1        2 0.16369772E+00 0.27491652E+03</pdfrwt>
<pdfrwt beam="2">  1       -2 0.27319474E-02 0.27491652E+03</pdfrwt>
<totfact> 0.11664982E+04</totfact>
</mgrwt>
</event>
<event>
 9    1  0.2065703E-002  0.2735120E+03  0.7818608E-02  0.1099286E+00
          2   -1    0    0  501    0  0.00000000000E+00  0.00000000000E+00  0.14637354782E+02  0.14637354782E+02  0.00000000000E+00 0.  1.
         -2   -1    0    0    0  501 -0.00000000000E+00 -0.00000000000E+00 -0.12777041482E+04  0.12777041482E+04  0.00000000000E+00 0.  1.
         36    2    1    2    0    0 -0.71054273576E-14 -0.17763568394E-14 -0.12630667935E+04  0.12923415030E+04  0.27351203940E+03 0.  0.
         25    2    3    3    0    0  0.38199982089E+02 -0.44740548105E+01 -0.48608338690E+03  0.50325621763E+03  0.12454118099E+03 0.  0.
         25    2    3    3    0    0 -0.38199982089E+02  0.44740548105E+01 -0.77698340655E+03  0.78908528539E+03  0.13218592119E+03 0.  0.
          5    1    4    4  502    0 -0.37154205787E+01 -0.46236854199E+02 -0.36952764936E+03  0.37245727900E+03  0.47000000000E+01 0.  1.
         -5    1    4    4    0  502  0.41915402668E+02  0.41762799389E+02 -0.11655573754E+03  0.13079893863E+03  0.47000000000E+01 0.  1.
          5    1    5    5  503    0 -0.86426640503E+02  0.59706732927E+01 -0.42373261151E+03  0.43252355911E+03  0.47000000000E+01 0. -1.
         -5    1    5    5    0  503  0.48226658413E+02 -0.14966184821E+01 -0.35325079504E+03  0.35656172627E+03  0.47000000000E+01 0. -1.
<mgrwt>
<rscale>  0 0.27351204E+03</rscale>
<asrwt>0</asrwt>
<pdfrwt beam="1">  1        2 0.22518995E-02 0.27351204E+03</pdfrwt>
<pdfrwt beam="2">  1       -2 0.19656998E+00 0.27351204E+03</pdfrwt>
<totfact> 0.70473218E+02</totfact>
</mgrwt>
</event>
<event>
 9    1  0.2065703E-002  0.2722284E+03  0.7818608E-02  0.1100011E+00
         -2   -1    0    0    0  501 -0.00000000000E+00  0.00000000000E+00  0.82393984161E+02  0.82393984161E+02  0.00000000000E+00 0.  1.
          2   -1    0    0  501    0  0.00000000000E+00 -0.00000000000E+00 -0.22485962259E+03  0.22485962259E+03  0.00000000000E+00 0.  1.
         36    2    1    2    0    0  0.35527136788E-14 -0.71054273576E-14 -0.14246563843E+03  0.30725360675E+03  0.27222843483E+03 0.  0.
         25    2    3    3    0    0  0.27647716032E+02 -0.78901777958E+01 -0.11516667318E+03  0.17049788505E+03  0.12239082926E+03 0.  0.
         25    2    3    3    0    0 -0.27647716032E+02  0.78901777958E+01 -0.27298965255E+02  0.13675572171E+03  0.13088255349E+03 0.  0.
          5    1    4    4  502    0  0.35402532822E+02  0.40352384550E+02 -0.10825651997E+03  0.12092649993E+03  0.47000000000E+01 0. -1.
         -5    1    4    4    0  502 -0.77548167904E+01 -0.48242562345E+02 -0.69101532075E+01  0.49571385117E+02  0.47000000000E+01 0. -1.
          5    1    5    5  503    0  0.27935891488E+02  0.24828789644E+02  0.35010601320E+02  0.51426792950E+02  0.47000000000E+01 0.  1.
         -5    1    5    5    0  503 -0.55583607520E+02 -0.16938611848E+02 -0.62309566575E+02  0.85328928758E+02  0.47000000000E+01 0.  1.
<mgrwt>
<rscale>  0 0.27222843E+03</rscale>
<asrwt>0</asrwt>
<pdfrwt beam="1">  1        2 0.34593788E-01 0.27222843E+03</pdfrwt>
<pdfrwt beam="2">  1       -2 0.12675998E-01 0.27222843E+03</pdfrwt>
<totfact> 0.67168547E+03</totfact>
</mgrwt>
</event>
<event>
 8    1  0.2065703E-002  0.2552726E+03  0.7818608E-02  0.1110017E+00
          2   -1    0    0  501    0  0.00000000000E+00  0.00000000000E+00  0.44674003144E+02  0.44674003144E+02  0.00000000000E+00 0.  1.
         -2   -1    0    0    0  501 -0.00000000000E+00 -0.00000000000E+00 -0.36466461491E+03  0.36466461491E+03  0.00000000000E+00 0.  1.
         25    2    1    2    0    0 -0.85960639666E+01 -0.66112990654E+01 -0.18625102300E+03  0.22490838697E+03  0.12560548305E+03 0.  0.
         25    2    1    2    0    0  0.85960639666E+01  0.66112990654E+01 -0.13373958877E+03  0.18443023108E+03  0.12653312192E+03 0.  0.
          5    1    3    3  502    0 -0.42379835862E+02  0.16243914600E+02 -0.17704525698E+03  0.18283059992E+03  0.47000000000E+01 0. -1.
         -5    1    3    3    0  502  0.33783771895E+02 -0.22855213665E+02 -0.92057660239E+01  0.42077787053E+02  0.47000000000E+01 0. -1.
          5    1    4    4  503    0 -0.27485518110E+02 -0.57006829303E+01  0.14042825565E+02  0.31737083066E+02  0.47000000000E+01 0.  1.
         -5    1    4    4    0  503  0.36081582077E+02  0.12311981996E+02 -0.14778241433E+03  0.15269314802E+03  0.47000000000E+01 0.  1.
<mgrwt>
<rscale>  0 0.25527262E+03</rscale>
<asrwt>0</asrwt>
<pdfrwt beam="1">  1        2 0.68729238E-02 0.25527262E+03</pdfrwt>
<pdfrwt beam="2">  1       -2 0.56102247E-01 0.25527262E+03</pdfrwt>
<totfact> 0.31213967E+03</totfact>
</mgrwt>
</event>
<event>
 9    1  0.2065703E-002  0.2746806E+03  0.7818608E-02  0.1098630E+00
          2   -1    0    0  501    0  0.00000000000E+00  0.00000000000E+00  0.52377691720E+03  0.52377691720E+03  0.00000000000E+00 0. -1.
         -2   -1    0    0    0  501 -0.00000000000E+00 -0.00000000000E+00 -0.36012206348E+02  0.36012206348E+02  0.00000000000E+00 0. -1.
         36    2    1    2    0    0  0.71054273576E-14 -0.17763568394E-14  0.48776471086E+03  0.55978912355E+03  0.27468063217E+03 0.  0.
         25    2    3    3    0    0 -0.36784161111E+02  0.66201226703E+00  0.33405784494E+03  0.35816366858E+03  0.12382672151E+03 0.  0.
         25    2    3    3    0    0  0.36784161111E+02 -0.66201226703E+00  0.15370686592E+03  0.20162545497E+03  0.12519389239E+03 0.  0.
          5    1    4    4  502    0 -0.31642008282E+02 -0.42162483569E+02  0.29523988118E+03  0.29994594371E+03  0.47000000000E+01 0.  1.
         -5    1    4    4    0  502 -0.51421528288E+01  0.42824495836E+02  0.38817963757E+02  0.58217724874E+02  0.47000000000E+01 0.  1.
          5    1    5    5  503    0 -0.44929715494E+02  0.86572970596E+01  0.73125208895E+02  0.86388739444E+02  0.47000000000E+01 0. -1.
         -5    1    5    5    0  503  0.81713876604E+02 -0.93193093267E+01  0.80581657025E+02  0.11523671552E+03  0.47000000000E+01 0. -1.
<mgrwt>
<rscale>  0 0.27468063E+03</rscale>
<asrwt>0</asrwt>
<pdfrwt beam="1">  1        2 0.80581059E-01 0.27468063E+03</pdfrwt>
<pdfrwt beam="2">  1       -2 0.55403398E-02 0.27468063E+03</pdfrwt>
<totfact> 0.98251950E+03</totfact>
</mgrwt>
</event>
<event>
 9    1  0.2065703E-002  0.2747871E+03  0.7818608E-02  0.1098571E+00
          2   -1    0    0  501    0  0.00000000000E+00  0.00000000000E+00  0.56681959063E+03  0.56681959063E+03  0.00000000000E+00 0.  1.
         -2   -1    0    0    0  501 -0.00000000000E+00 -0.00000000000E+00 -0.33303336419E+02  0.33303336419E+02  0.00000000000E+00 0.  1.
         36    2    1    2    0    0  0.71054273576E-14  0.00000000000E+00  0.53351625421E+03  0.60012292705E+03  0.27478707041E+03 0.  0.
         25    2    3    3    0    0  0.20025868351E+02  0.82508622793E+01  0.40754117513E+03  0.42707222481E+03  0.12582433646E+03 0.  0.
         25    2    3    3    0    0 -0.20025868351E+02 -0.82508622793E+01  0.12597507908E+03  0.17305070224E+03  0.11665210184E+03 0.  0.
          5    1    4    4  502    0  0.19545450949E+02  0.13305349161E+02  0.41568658582E+03  0.41638501966E+03  0.47000000000E+01 0. -1.
         -5    1    4    4    0  502  0.48041740206E+00 -0.50544868816E+01 -0.81454106902E+01  0.10687205146E+02  0.47000000000E+01 0. -1.
          5    1    5    5  503    0 -0.61890666555E+02  0.19566259509E+02  0.89982662861E+02  0.11105072144E+03  0.47000000000E+01 0.  1.
         -5    1    5    5    0  503  0.41864798205E+02 -0.27817121789E+02  0.35992416223E+02  0.61999980798E+02  0.47000000000E+01 0.  1.
<mgrwt>
<rscale>  0 0.27478707E+03</rscale>
<asrwt>0</asrwt>
<pdfrwt beam="1">  1        2 0.87203007E-01 0.27478707E+03</pdfrwt>
<pdfrwt beam="2">  1       -2 0.51235906E-02 0.27478707E+03</pdfrwt>
<totfact> 0.10118912E+04</totfact>
</mgrwt>
</event>
<event>
 9    1  0.2065703E-002  0.2751240E+03  0.7818608E-02  0.1098382E+00
         -1   -1    0    0    0  501 -0.00000000000E+00  0.00000000000E+00  0.13093591503E+03  0.13093591503E+03  0.00000000000E+00 0.  1.
          1   -1    0    0  501    0  0.00000000000E+00 -0.00000000000E+00 -0.14452339723E+03  0.14452339723E+03  0.00000000000E+00 0.  1.
         36    2    1    2    0    0 -0.17763568394E-14  0.88817841970E-15 -0.13587482199E+02  0.27545931227E+03  0.27512399576E+03 0.  0.
         25    2    3    3    0    0 -0.62020207220E+01  0.71779195406E+01  0.60529973589E+02  0.13796185451E+03  0.12361071154E+03 0.  0.
         25    2    3    3    0    0  0.62020207220E+01 -0.71779195406E+01 -0.74117455788E+02  0.13749745776E+03  0.11542168794E+03 0.  0.
          5    1    4    4  502    0  0.36523308922E+02 -0.20259724810E+02  0.74103127145E+02  0.85192558341E+02  0.47000000000E+01 0.  1.
         -5    1    4    4    0  502 -0.42725329644E+02  0.27437644351E+02 -0.13573153556E+02  0.52769296169E+02  0.47000000000E+01 0.  1.
          5    1    5    5  503    0  0.48765779247E+01  0.25158752572E+01 -0.10474991158E+03  0.10499878388E+03  0.47000000000E+01 0. -1.
         -5    1    5    5    0  503  0.13254427973E+01 -0.96937947978E+01  0.30632455789E+02  0.32498673878E+02  0.47000000000E+01 0. -1.
<mgrwt>
<rscale>  0 0.27512400E+03</rscale>
<asrwt>0</asrwt>
<pdfrwt beam="1">  1        1 0.22234369E-01 0.27512400E+03</pdfrwt>
<pdfrwt beam="2">  1       -1 0.20143987E-01 0.27512400E+03</pdfrwt>
<totfact> 0.44071028E+03</totfact>
</mgrwt>
</event>
<event>
 9    1  0.2065703E-002  0.2750939E+03  0.7818608E-02  0.1098399E+00
          2   -1    0    0  501    0  0.00000000000E+00  0.00000000000E+00  0.10323271753E+04  0.10323271753E+04  0.00000000000E+00 0. -1.
         -2   -1    0    0    0  501 -0.00000000000E+00 -0.00000000000E+00 -0.18326710199E+02  0.18326710199E+02  0.00000000000E+00 0. -1.
         36    2    1    2    0    0  0.00000000000E+00  0.00000000000E+00  0.10140004651E+04  0.10506538855E+04  0.27509388195E+03 0.  0.
         25    2    3    3    0    0  0.37296124852E+01 -0.68284563090E+01  0.32335830343E+03  0.34852937173E+03  0.12981368470E+03 0.  0.
         25    2    3    3    0    0 -0.37296124852E+01  0.68284563090E+01  0.69064216164E+03  0.70212451373E+03  0.12622083637E+03 0.  0.
          5    1    4    4  502    0 -0.31255912383E+02  0.24689354351E+02  0.28445428868E+03  0.28726786911E+03  0.47000000000E+01 0.  1.
         -5    1    4    4    0  502  0.34985524868E+02 -0.31517810660E+02  0.38904014757E+02  0.61261502620E+02  0.47000000000E+01 0.  1.
          5    1    5    5  503    0  0.61064761585E+02  0.32306553805E+01  0.32381766490E+03  0.32957444127E+03  0.47000000000E+01 0.  1.
         -5    1    5    5    0  503 -0.64794374071E+02  0.35978009285E+01  0.36682449674E+03  0.37255007246E+03  0.47000000000E+01 0.  1.
<mgrwt>
<rscale>  0 0.27509388E+03</rscale>
<asrwt>0</asrwt>
<pdfrwt beam="1">  1        2 0.15881952E+00 0.27509388E+03</pdfrwt>
<pdfrwt beam="2">  1       -2 0.28194947E-02 0.27509388E+03</pdfrwt>
<totfact> 0.11629719E+04</totfact>
</mgrwt>
</event>
<event>
 9    1  0.2065703E-002  0.2750345E+03  0.7818608E-02  0.1098432E+00
          2   -1    0    0  501    0  0.00000000000E+00  0.00000000000E+00  0.84900462126E+03  0.84900462126E+03  0.00000000000E+00 0.  1.
         -2   -1    0    0    0  501 -0.00000000000E+00 -0.00000000000E+00 -0.22274309456E+02  0.22274309456E+02  0.00000000000E+00 0.  1.
         36    2    1    2    0    0  0.35527136788E-14 -0.71054273576E-14  0.82673031181E+03  0.87127893072E+03  0.27503448266E+03 0.  0.
         25    2    3    3    0    0 -0.12575316217E+02 -0.25191086668E+02  0.32828132301E+03  0.35122294293E+03  0.12163962834E+03 0.  0.
         25    2    3    3    0    0  0.12575316217E+02  0.25191086668E+02  0.49844898880E+03  0.52005598778E+03  0.14565063189E+03 0.  0.
          5    1    4    4  502    0  0.29710140175E+02 -0.62373955443E+01  0.28802996244E+03  0.28966350615E+03  0.47000000000E+01 0. -1.
         -5    1    4    4    0  502 -0.42285456393E+02 -0.18953691124E+02  0.40251360566E+02  0.61559436782E+02  0.47000000000E+01 0. -1.
          5    1    5    5  503    0  0.24336941300E+02 -0.46051149293E+02  0.81235307853E+02  0.96613975723E+02  0.47000000000E+01 0. -1.
         -5    1    5    5    0  503 -0.11761625082E+02  0.71242235961E+02  0.41721368095E+03  0.42344201206E+03  0.47000000000E+01 0. -1.
<mgrwt>
<rscale>  0 0.27503448E+03</rscale>
<asrwt>0</asrwt>
<pdfrwt beam="1">  1        2 0.13061607E+00 0.27503448E+03</pdfrwt>
<pdfrwt beam="2">  1       -2 0.34268175E-02 0.27503448E+03</pdfrwt>
<totfact> 0.11357907E+04</totfact>
</mgrwt>
</event>
<event>
 9    1  0.2065703E-002  0.2754866E+03  0.7818608E-02  0.1098180E+00
         -1   -1    0    0    0  501 -0.00000000000E+00  0.00000000000E+00  0.19234195587E+03  0.19234195587E+03  0.00000000000E+00 0.  1.
          1   -1    0    0  501    0  0.00000000000E+00 -0.00000000000E+00 -0.98643172524E+02  0.98643172524E+02  0.00000000000E+00 0.  1.
         36    2    1    2    0    0  0.00000000000E+00  0.00000000000E+00  0.93698783342E+02  0.29098512839E+03  0.27548662934E+03 0.  0.
         25    2    3    3    0    0  0.55753643911E+02 -0.95277378337E+01  0.78709199758E+02  0.16069054070E+03  0.12816811283E+03 0.  0.
         25    2    3    3    0    0 -0.55753643911E+02  0.95277378337E+01  0.14989583584E+02  0.13029458769E+03  0.11641625903E+03 0.  0.
          5    1    4    4  502    0  0.60003402214E+02  0.21624273371E+02  0.10261647232E+03  0.12091421698E+03  0.47000000000E+01 0.  1.
         -5    1    4    4    0  502 -0.42497583033E+01 -0.31152011204E+02 -0.23907272562E+02  0.39776323725E+02  0.47000000000E+01 0.  1.
          5    1    5    5  503    0 -0.11819435456E+02  0.36696338975E+02 -0.39269505953E+02  0.55231371941E+02  0.47000000000E+01 0.  1.
         -5    1    5    5    0  503 -0.43934208454E+02 -0.27168601141E+02  0.54259089537E+02  0.75063215745E+02  0.47000000000E+01 0.  1.
<mgrwt>
<rscale>  0 0.27548663E+03</rscale>
<asrwt>0</asrwt>
<pdfrwt beam="1">  1        1 0.15175873E-01 0.27548663E+03</pdfrwt>
<pdfrwt beam="2">  1       -1 0.29591070E-01 0.27548663E+03</pdfrwt>
<totfact> 0.38177471E+03</totfact>
</mgrwt>
</event>
<event>
 9    1  0.2065703E-002  0.2743845E+03  0.7818608E-02  0.1098796E+00
          2   -1    0    0  501    0  0.00000000000E+00  0.00000000000E+00  0.29184741529E+03  0.29184741529E+03  0.00000000000E+00 0. -1.
         -2   -1    0    0    0  501 -0.00000000000E+00 -0.00000000000E+00 -0.64491642817E+02  0.64491642817E+02  0.00000000000E+00 0. -1.
         36    2    1    2    0    0  0.00000000000E+00  0.00000000000E+00  0.22735577247E+03  0.35633905810E+03  0.27438454230E+03 0.  0.
         25    2    3    3    0    0 -0.24391933030E+02  0.50163479887E+02  0.10404874305E+03  0.17149268135E+03  0.12438753038E+03 0.  0.
         25    2    3    3    0    0  0.24391933030E+02 -0.50163479887E+02  0.12330702942E+03  0.18484637675E+03  0.12590559314E+03 0.  0.
          5    1    4    4  502    0  0.33171520316E+01 -0.35001117482E+02  0.18427125510E+01  0.35518548846E+02  0.47000000000E+01 0. -1.
         -5    1    4    4    0  502 -0.27709085062E+02  0.85164597368E+02  0.10220603050E+03  0.13597413250E+03  0.47000000000E+01 0. -1.
          5    1    5    5  503    0  0.32434806455E+02 -0.49123685842E+01 -0.16916806947E+02  0.37207746400E+02  0.47000000000E+01 0. -1.
         -5    1    5    5    0  503 -0.80428734246E+01 -0.45251111302E+02  0.14022383637E+03  0.14763863036E+03  0.47000000000E+01 0. -1.
<mgrwt>
<rscale>  0 0.27438454E+03</rscale>
<asrwt>0</asrwt>
<pdfrwt beam="1">  1        2 0.44899602E-01 0.27438454E+03</pdfrwt>
<pdfrwt beam="2">  1       -2 0.99217914E-02 0.27438454E+03</pdfrwt>
<totfact> 0.75128886E+03</totfact>
</mgrwt>
</event>
<event>
 9    1  0.2065703E-002  0.2757027E+03  0.7818608E-02  0.1098059E+00
          1   -1    0    0  501    0  0.00000000000E+00  0.00000000000E+00  0.58616704152E+02  0.58616704152E+02  0.00000000000E+00 0. -1.
         -1   -1    0    0    0  501 -0.00000000000E+00 -0.00000000000E+00 -0.32419081653E+03  0.32419081653E+03  0.00000000000E+00 0. -1.
         36    2    1    2    0    0  0.00000000000E+00  0.00000000000E+00 -0.26557411238E+03  0.38280752069E+03  0.27570271802E+03 0.  0.
         25    2    3    3    0    0 -0.36075324128E+02  0.31970590198E+02 -0.83079424637E+02  0.15804503734E+03  0.12550894542E+03 0.  0.
         25    2    3    3    0    0  0.36075324128E+02 -0.31970590198E+02 -0.18249468775E+03  0.22476248335E+03  0.12202587929E+03 0.  0.
          5    1    4    4  502    0  0.88618119462E+01 -0.39294173050E+02 -0.13565123983E+01  0.40577011627E+02  0.47000000000E+01 0.  1.
         -5    1    4    4    0  502 -0.44937136074E+02  0.71264763248E+02 -0.81722912238E+02  0.11746802571E+03  0.47000000000E+01 0.  1.
          5    1    5    5  503    0  0.21866760848E+02 -0.78685471833E+02 -0.12185618812E+03  0.14676709199E+03  0.47000000000E+01 0. -1.
         -5    1    5    5    0  503  0.14208563280E+02  0.46714881635E+02 -0.60638499626E+02  0.77995391361E+02  0.47000000000E+01 0. -1.
<mgrwt>
<rscale>  0 0.27570272E+03</rscale>
<asrwt>0</asrwt>
<pdfrwt beam="1">  1        1 0.90179545E-02 0.27570272E+03</pdfrwt>
<pdfrwt beam="2">  1       -1 0.49875510E-01 0.27570272E+03</pdfrwt>
<totfact> 0.30362462E+03</totfact>
</mgrwt>
</event>
<event>
 9    1  0.2065703E-002  0.2748559E+03  0.7818608E-02  0.1098532E+00
          1   -1    0    0  501    0  0.00000000000E+00  0.00000000000E+00  0.12995974848E+03  0.12995974848E+03  0.00000000000E+00 0.  1.
         -1   -1    0    0    0  501 -0.00000000000E+00 -0.00000000000E+00 -0.14532529039E+03  0.14532529039E+03  0.00000000000E+00 0.  1.
         36    2    1    2    0    0  0.00000000000E+00  0.00000000000E+00 -0.15365541906E+02  0.27528503887E+03  0.27485587632E+03 0.  0.
         25    2    3    3    0    0 -0.24144660224E+02 -0.22872443069E+02 -0.53824194029E+02  0.14185680566E+03  0.12696533456E+03 0.  0.
         25    2    3    3    0    0  0.24144660224E+02  0.22872443069E+02  0.38458652124E+02  0.13342823321E+03  0.12336090234E+03 0.  0.
          5    1    4    4  502    0 -0.67086761734E+02 -0.40212116796E+01  0.37199506108E+01  0.67473934048E+02  0.47000000000E+01 0. -1.
         -5    1    4    4    0  502  0.42942101510E+02 -0.18851231389E+02 -0.57544144640E+02  0.74382871612E+02  0.47000000000E+01 0. -1.
          5    1    5    5  503    0  0.34975685528E+02  0.10000508632E+00 -0.38547638127E+02  0.52262022391E+02  0.47000000000E+01 0.  1.
         -5    1    5    5    0  503 -0.10831025304E+02  0.22772437983E+02  0.77006290251E+02  0.81166210821E+02  0.47000000000E+01 0.  1.
<mgrwt>
<rscale>  0 0.27485588E+03</rscale>
<asrwt>0</asrwt>
<pdfrwt beam="1">  1        1 0.19993807E-01 0.27485588E+03</pdfrwt>
<pdfrwt beam="2">  1       -1 0.22357737E-01 0.27485588E+03</pdfrwt>
<totfact> 0.42594782E+03</totfact>
</mgrwt>
</event>
<event>
 9    1  0.2065703E-002  0.2740362E+03  0.7818608E-02  0.1098992E+00
         -2   -1    0    0    0  501 -0.00000000000E+00  0.00000000000E+00  0.21649377415E+02  0.21649377415E+02  0.00000000000E+00 0. -1.
          2   -1    0    0  501    0  0.00000000000E+00 -0.00000000000E+00 -0.86718257579E+03  0.86718257579E+03  0.00000000000E+00 0. -1.
         36    2    1    2    0    0 -0.71054273576E-14  0.88817841970E-15 -0.84553319838E+03  0.88883195321E+03  0.27403622294E+03 0.  0.
         25    2    3    3    0    0 -0.51798738561E+02  0.38340371567E+01 -0.48640757458E+03  0.50459593860E+03  0.12380195266E+03 0.  0.
         25    2    3    3    0    0  0.51798738561E+02 -0.38340371567E+01 -0.35912562380E+03  0.38423601461E+03  0.12636570776E+03 0.  0.
          5    1    4    4  502    0 -0.53520068555E+02  0.21958881046E+01 -0.70550886045E+02  0.88705902760E+02  0.47000000000E+01 0.  1.
         -5    1    4    4    0  502  0.17213299943E+01  0.16381490521E+01 -0.41585668854E+03  0.41589003584E+03  0.47000000000E+01 0.  1.
          5    1    5    5  503    0  0.72711671764E+02  0.11088927664E+02 -0.34821761768E+03  0.35593194685E+03  0.47000000000E+01 0. -1.
         -5    1    5    5    0  503 -0.20912933203E+02 -0.14922964821E+02 -0.10908006117E+02  0.28304067758E+02  0.47000000000E+01 0. -1.
<mgrwt>
<rscale>  0 0.27403622E+03</rscale>
<asrwt>0</asrwt>
<pdfrwt beam="1">  1        2 0.13341269E+00 0.27403622E+03</pdfrwt>
<pdfrwt beam="2">  1       -2 0.33306737E-02 0.27403622E+03</pdfrwt>
<totfact> 0.11525447E+04</totfact>
</mgrwt>
</event>
<event>
 9    1  0.2065703E-002  0.2733996E+03  0.7818608E-02  0.1099350E+00
         -2   -1    0    0    0  501 -0.00000000000E+00  0.00000000000E+00  0.58202517130E+03  0.58202517130E+03  0.00000000000E+00 0. -1.
          2   -1    0    0  501    0  0.00000000000E+00 -0.00000000000E+00 -0.32106568638E+02  0.32106568638E+02  0.00000000000E+00 0. -1.
         36    2    1    2    0    0 -0.10658141036E-13  0.71054273576E-14  0.54991860266E+03  0.61413173994E+03  0.27339956921E+03 0.  0.
         25    2    3    3    0    0  0.28496106592E+02 -0.47942298926E+02  0.40852660663E+03  0.43089399573E+03  0.12516051739E+03 0.  0.
         25    2    3    3    0    0 -0.28496106592E+02  0.47942298926E+02  0.14139199603E+03  0.18323774421E+03  0.10234198671E+03 0.  0.
          5    1    4    4  502    0  0.47617636550E+02  0.23406152512E+02  0.96668945659E+02  0.11037328635E+03  0.47000000000E+01 0.  1.
         -5    1    4    4    0  502 -0.19121529958E+02 -0.71348451437E+02  0.31185766097E+03  0.32052070937E+03  0.47000000000E+01 0.  1.
          5    1    5    5  503    0 -0.50948632159E+02  0.36873267146E+02  0.31620955955E+02  0.70550519519E+02  0.47000000000E+01 0. -1.
         -5    1    5    5    0  503  0.22452525566E+02  0.11069031780E+02  0.10977104008E+03  0.11268722469E+03  0.47000000000E+01 0. -1.
<mgrwt>
<rscale>  0 0.27339957E+03</rscale>
<asrwt>0</asrwt>
<pdfrwt beam="1">  1        2 0.49394725E-02 0.27339957E+03</pdfrwt>
<pdfrwt beam="2">  1       -2 0.89542326E-01 0.27339957E+03</pdfrwt>
<totfact> 0.17642874E+03</totfact>
</mgrwt>
</event>
<event>
 9    1  0.2065703E-002  0.2750897E+03  0.7818608E-02  0.1098401E+00
         -1   -1    0    0    0  501 -0.00000000000E+00  0.00000000000E+00  0.47208090852E+02  0.47208090852E+02  0.00000000000E+00 0.  1.
          1   -1    0    0  501    0  0.00000000000E+00 -0.00000000000E+00 -0.40074869051E+03  0.40074869051E+03  0.00000000000E+00 0.  1.
         36    2    1    2    0    0  0.00000000000E+00  0.00000000000E+00 -0.35354059966E+03  0.44795678137E+03  0.27508966240E+03 0.  0.
         25    2    3    3    0    0 -0.48418370800E+02 -0.18121124945E+02 -0.11181659540E+03  0.17166745553E+03  0.11955772865E+03 0.  0.
         25    2    3    3    0    0  0.48418370800E+02  0.18121124945E+02 -0.24172400426E+03  0.27628932584E+03  0.12342035300E+03 0.  0.
          5    1    4    4  502    0  0.32985605348E+02 -0.30990607735E+02 -0.55351319958E+02  0.71654215152E+02  0.47000000000E+01 0. -1.
         -5    1    4    4    0  502 -0.81403976147E+02  0.12869482790E+02 -0.56465275442E+02  0.10001324038E+03  0.47000000000E+01 0. -1.
          5    1    5    5  503    0  0.38054565887E+02 -0.42381820995E+02 -0.53623985294E+02  0.78370852582E+02  0.47000000000E+01 0. -1.
         -5    1    5    5    0  503  0.10363804913E+02  0.60502945940E+02 -0.18810001897E+03  0.19791847326E+03  0.47000000000E+01 0. -1.
<mgrwt>
<rscale>  0 0.27508966E+03</rscale>
<asrwt>0</asrwt>
<pdfrwt beam="1">  1        1 0.61653642E-01 0.27508966E+03</pdfrwt>
<pdfrwt beam="2">  1       -1 0.72627835E-02 0.27508966E+03</pdfrwt>
<totfact> 0.60017006E+03</totfact>
</mgrwt>
</event>
<event>
 9    1  0.2065703E-002  0.2751072E+03  0.7818608E-02  0.1098392E+00
          2   -1    0    0  501    0  0.00000000000E+00  0.00000000000E+00  0.57495742812E+03  0.57495742812E+03  0.00000000000E+00 0.  1.
         -2   -1    0    0    0  501 -0.00000000000E+00 -0.00000000000E+00 -0.32908503323E+02  0.32908503323E+02  0.00000000000E+00 0.  1.
         36    2    1    2    0    0 -0.17763568394E-14  0.14210854715E-13  0.54204892479E+03  0.60786593144E+03  0.27510716773E+03 0.  0.
         25    2    3    3    0    0 -0.47523048749E+01  0.53781054081E+02  0.30351739562E+03  0.33208796306E+03  0.12346910377E+03 0.  0.
         25    2    3    3    0    0  0.47523048749E+01 -0.53781054081E+02  0.23853152917E+03  0.27577796838E+03  0.12744101088E+03 0.  0.
          5    1    4    4  502    0  0.28313193780E+01  0.65202254516E+02  0.62016469235E+02  0.90152553041E+02  0.47000000000E+01 0. -1.
         -5    1    4    4    0  502 -0.75836242529E+01 -0.11421200434E+02  0.24150092639E+03  0.24193541002E+03  0.47000000000E+01 0. -1.
          5    1    5    5  503    0 -0.56887935311E+02 -0.18440686904E+02  0.15388436333E+03  0.16516289957E+03  0.47000000000E+01 0.  1.
         -5    1    5    5    0  503  0.61640240186E+02 -0.35340367177E+02  0.84647165842E+02  0.11061506881E+03  0.47000000000E+01 0.  1.
<mgrwt>
<rscale>  0 0.27510717E+03</rscale>
<asrwt>0</asrwt>
<pdfrwt beam="1">  1        2 0.88454981E-01 0.27510717E+03</pdfrwt>
<pdfrwt beam="2">  1       -2 0.50628471E-02 0.27510717E+03</pdfrwt>
<totfact> 0.10137366E+04</totfact>
</mgrwt>
</event>
<event>
 9    1  0.2065703E-002  0.2750318E+03  0.7818608E-02  0.1098434E+00
         -2   -1    0    0    0  501 -0.00000000000E+00  0.00000000000E+00  0.13283378558E+02  0.13283378558E+02  0.00000000000E+00 0. -1.
          2   -1    0    0  501    0  0.00000000000E+00 -0.00000000000E+00 -0.14236307261E+04  0.14236307261E+04  0.00000000000E+00 0. -1.
         36    2    1    2    0    0 -0.71054273576E-14  0.71054273576E-14 -0.14103473475E+04  0.14369141046E+04  0.27503182261E+03 0.  0.
         25    2    3    3    0    0  0.44507093265E+02 -0.22493305236E+02 -0.60878208071E+03  0.62332012071E+03  0.12419952077E+03 0.  0.
         25    2    3    3    0    0 -0.44507093265E+02  0.22493305236E+02 -0.80156526682E+03  0.81359398394E+03  0.13015937764E+03 0.  0.
          5    1    4    4  502    0 -0.11478140430E+02  0.42801382827E+02 -0.27580459234E+03  0.27938140460E+03  0.47000000000E+01 0.  1.
         -5    1    4    4    0  502  0.55985233695E+02 -0.65294688063E+02 -0.33297748837E+03  0.34393871611E+03  0.47000000000E+01 0.  1.
          5    1    5    5  503    0  0.39030533761E+01 -0.49377582860E+02 -0.21759530532E+03  0.22321108040E+03  0.47000000000E+01 0. -1.
         -5    1    5    5    0  503 -0.48410146641E+02  0.71870888096E+02 -0.58396996150E+03  0.59038290354E+03  0.47000000000E+01 0. -1.
<mgrwt>
<rscale>  0 0.27503182E+03</rscale>
<asrwt>0</asrwt>
<pdfrwt beam="1">  1        2 0.21902010E+00 0.27503182E+03</pdfrwt>
<pdfrwt beam="2">  1       -2 0.20435968E-02 0.27503182E+03</pdfrwt>
<totfact> 0.11232889E+04</totfact>
</mgrwt>
</event>
<event>
 9    1  0.2065703E-002  0.2739768E+03  0.7818608E-02  0.1099025E+00
         -2   -1    0    0    0  501 -0.00000000000E+00  0.00000000000E+00  0.20261200760E+02  0.20261200760E+02  0.00000000000E+00 0.  1.
          2   -1    0    0  501    0  0.00000000000E+00 -0.00000000000E+00 -0.92619475713E+03  0.92619475713E+03  0.00000000000E+00 0.  1.
         36    2    1    2    0    0  0.00000000000E+00 -0.71054273576E-14 -0.90593355637E+03  0.94645595789E+03  0.27397677213E+03 0.  0.
         25    2    3    3    0    0  0.47951923399E+02  0.20461365213E+02 -0.51625729171E+03  0.53372320857E+03  0.12498326966E+03 0.  0.
         25    2    3    3    0    0 -0.47951923399E+02 -0.20461365213E+02 -0.38967626465E+03  0.41273274932E+03  0.12562912362E+03 0.  0.
          5    1    4    4  502    0 -0.39511308579E+02  0.23637072249E+02 -0.14252155691E+03  0.14984771895E+03  0.47000000000E+01 0.  1.
         -5    1    4    4    0  502  0.87463231978E+02 -0.31757070368E+01 -0.37373573480E+03  0.38387548962E+03  0.47000000000E+01 0.  1.
          5    1    5    5  503    0  0.29047511747E+01  0.33962675818E+02 -0.26647613758E+03  0.26868852381E+03  0.47000000000E+01 0. -1.
         -5    1    5    5    0  503 -0.50856674574E+02 -0.54424041030E+02 -0.12320012707E+03  0.14404422551E+03  0.47000000000E+01 0. -1.
<mgrwt>
<rscale>  0 0.27397677E+03</rscale>
<asrwt>0</asrwt>
<pdfrwt beam="1">  1        2 0.14249151E+00 0.27397677E+03</pdfrwt>
<pdfrwt beam="2">  1       -2 0.31171075E-02 0.27397677E+03</pdfrwt>
<totfact> 0.11651641E+04</totfact>
</mgrwt>
</event>
<event>
 9    1  0.2065703E-002  0.2729732E+03  0.7818608E-02  0.1099590E+00
          1   -1    0    0  501    0  0.00000000000E+00  0.00000000000E+00  0.68556522879E+03  0.68556522879E+03  0.00000000000E+00 0.  1.
         -1   -1    0    0    0  501 -0.00000000000E+00 -0.00000000000E+00 -0.27172597597E+02  0.27172597597E+02  0.00000000000E+00 0.  1.
         36    2    1    2    0    0 -0.71054273576E-14 -0.35527136788E-14  0.65839263120E+03  0.71273782639E+03  0.27297317149E+03 0.  0.
         25    2    3    3    0    0 -0.47428538460E+02 -0.11879428919E+02  0.28519504553E+03  0.31630253028E+03  0.12775167153E+03 0.  0.
         25    2    3    3    0    0  0.47428538460E+02  0.11879428919E+02  0.37319758567E+03  0.39643529611E+03  0.12447457154E+03 0.  0.
          5    1    4    4  502    0  0.35261465280E+02 -0.22400032130E+02  0.43059921557E+02  0.60177896421E+02  0.47000000000E+01 0.  1.
         -5    1    4    4    0  502 -0.82690003740E+02  0.10520603211E+02  0.24213512397E+03  0.25612463386E+03  0.47000000000E+01 0.  1.
          5    1    5    5  503    0  0.62581791049E+02 -0.10070720000E+02  0.80884786297E+02  0.10287049444E+03  0.47000000000E+01 0.  1.
         -5    1    5    5    0  503 -0.15153252589E+02  0.21950148919E+02  0.29231279937E+03  0.29356480167E+03  0.47000000000E+01 0.  1.
<mgrwt>
<rscale>  0 0.27297317E+03</rscale>
<asrwt>0</asrwt>
<pdfrwt beam="1">  1        1 0.10547156E+00 0.27297317E+03</pdfrwt>
<pdfrwt beam="2">  1       -1 0.41804001E-02 0.27297317E+03</pdfrwt>
<totfact> 0.66704833E+03</totfact>
</mgrwt>
</event>
<event>
 9    1  0.2065703E-002  0.2778525E+03  0.7818608E-02  0.1096868E+00
         -2   -1    0    0    0  501 -0.00000000000E+00  0.00000000000E+00  0.84074017682E+01  0.84074017682E+01  0.00000000000E+00 0.  1.
          2   -1    0    0  501    0  0.00000000000E+00 -0.00000000000E+00 -0.22956554561E+04  0.22956554561E+04  0.00000000000E+00 0.  1.
         36    2    1    2    0    0  0.17763568394E-14 -0.17763568394E-14 -0.22872480544E+04  0.23040628579E+04  0.27785246258E+03 0.  0.
         25    2    3    3    0    0 -0.37989751732E+00 -0.57369341424E+01 -0.15719718250E+04  0.15774262161E+04  0.13093888685E+03 0.  0.
         25    2    3    3    0    0  0.37989751732E+00  0.57369341424E+01 -0.71527622941E+03  0.72663664179E+03  0.12785799974E+03 0.  0.
          5    1    4    4  502    0 -0.15625421283E+02  0.10180368088E+02 -0.32319434448E+02  0.37608902240E+02  0.47000000000E+01 0.  1.
         -5    1    4    4    0  502  0.15245523765E+02 -0.15917302231E+02 -0.15396523905E+04  0.15398173139E+04  0.47000000000E+01 0.  1.
          5    1    5    5  503    0 -0.15694518105E+02  0.59813168011E+02 -0.50790815054E+03  0.51168028333E+03  0.47000000000E+01 0. -1.
         -5    1    5    5    0  503  0.16074415622E+02 -0.54076233868E+02 -0.20736807887E+03  0.21495635846E+03  0.47000000000E+01 0. -1.
<mgrwt>
<rscale>  0 0.27785246E+03</rscale>
<asrwt>0</asrwt>
<pdfrwt beam="1">  1        2 0.35317780E+00 0.27785246E+03</pdfrwt>
<pdfrwt beam="2">  1       -2 0.12934463E-02 0.27785246E+03</pdfrwt>
<totfact> 0.75851395E+03</totfact>
</mgrwt>
</event>
<event>
 9    1  0.2065703E-002  0.2678277E+03  0.7818608E-02  0.1102529E+00
         -1   -1    0    0    0  501 -0.00000000000E+00  0.00000000000E+00  0.46106907749E+02  0.46106907749E+02  0.00000000000E+00 0. -1.
          1   -1    0    0  501    0  0.00000000000E+00 -0.00000000000E+00 -0.38894200999E+03  0.38894200999E+03  0.00000000000E+00 0. -1.
         36    2    1    2    0    0  0.00000000000E+00  0.35527136788E-14 -0.34283510224E+03  0.43504891774E+03  0.26782765633E+03 0.  0.
         25    2    3    3    0    0  0.43222960184E+02 -0.17296085235E+02 -0.18111413552E+03  0.22436125780E+03  0.12396880682E+03 0.  0.
         25    2    3    3    0    0 -0.43222960184E+02  0.17296085235E+02 -0.16172096672E+03  0.21068765994E+03  0.12676056218E+03 0.  0.
          5    1    4    4  502    0 -0.96241735342E+01  0.42320186036E+02 -0.10653376260E+03  0.11513103594E+03  0.47000000000E+01 0.  1.
         -5    1    4    4    0  502  0.52847133718E+02 -0.59616271271E+02 -0.74580372916E+02  0.10923022186E+03  0.47000000000E+01 0.  1.
          5    1    5    5  503    0 -0.53527754187E+02  0.20256898681E+02 -0.97265607429E+01  0.58243097414E+02  0.47000000000E+01 0. -1.
         -5    1    5    5    0  503  0.10304794003E+02 -0.29608134462E+01 -0.15199440598E+03  0.15244456253E+03  0.47000000000E+01 0. -1.
<mgrwt>
<rscale>  0 0.26782766E+03</rscale>
<asrwt>0</asrwt>
<pdfrwt beam="1">  1        1 0.59837233E-01 0.26782766E+03</pdfrwt>
<pdfrwt beam="2">  1       -1 0.70933703E-02 0.26782766E+03</pdfrwt>
<totfact> 0.64579751E+03</totfact>
</mgrwt>
</event>
<event>
 9    1  0.2065703E-002  0.2738193E+03  0.7818608E-02  0.1099113E+00
         -3   -1    0    0    0  501 -0.00000000000E+00  0.00000000000E+00  0.26084293401E+03  0.26084293401E+03  0.00000000000E+00 0. -1.
          3   -1    0    0  501    0  0.00000000000E+00 -0.00000000000E+00 -0.71860329176E+02  0.71860329176E+02  0.00000000000E+00 0. -1.
         36    2    1    2    0    0  0.00000000000E+00 -0.71054273576E-14  0.18898260484E+03  0.33270326319E+03  0.27381934995E+03 0.  0.
         25    2    3    3    0    0  0.41540524641E+02  0.12110297297E+02  0.46710466711E+02  0.14063558771E+03  0.12539627723E+03 0.  0.
         25    2    3    3    0    0 -0.41540524641E+02 -0.12110297297E+02  0.14227213813E+03  0.19206767548E+03  0.12155803630E+03 0.  0.
          5    1    4    4  502    0 -0.96034691344E+01  0.60039679943E+02  0.11512931567E+02  0.62061480649E+02  0.47000000000E+01 0.  1.
         -5    1    4    4    0  502  0.51143993776E+02 -0.47929382647E+02  0.35197535144E+02  0.78574107061E+02  0.47000000000E+01 0.  1.
          5    1    5    5  503    0  0.26905162590E+02  0.35973101787E+02  0.46560749162E+02  0.64868676483E+02  0.47000000000E+01 0.  1.
         -5    1    5    5    0  503 -0.68445687232E+02 -0.48083399084E+02  0.95711388964E+02  0.12719899900E+03  0.47000000000E+01 0.  1.
<mgrwt>
<rscale>  0 0.27381935E+03</rscale>
<asrwt>0</asrwt>
<pdfrwt beam="1">  1        3 0.11055435E-01 0.27381935E+03</pdfrwt>
<pdfrwt beam="2">  1       -3 0.40129682E-01 0.27381935E+03</pdfrwt>
<totfact> 0.97843042E+02</totfact>
</mgrwt>
</event>
<event>
 9    1  0.2065703E-002  0.2746741E+03  0.7818608E-02  0.1098634E+00
         -1   -1    0    0    0  501 -0.00000000000E+00  0.00000000000E+00  0.29571536191E+03  0.29571536191E+03  0.00000000000E+00 0. -1.
          1   -1    0    0  501    0  0.00000000000E+00 -0.00000000000E+00 -0.63782498109E+02  0.63782498109E+02  0.00000000000E+00 0. -1.
         36    2    1    2    0    0  0.00000000000E+00  0.00000000000E+00  0.23193286380E+03  0.35949786002E+03  0.27467409424E+03 0.  0.
         25    2    3    3    0    0  0.19431758402E+02  0.41959490198E+02  0.78378823632E+02  0.15481306337E+03  0.12524237520E+03 0.  0.
         25    2    3    3    0    0 -0.19431758402E+02 -0.41959490198E+02  0.15355404017E+03  0.20468479665E+03  0.12719603246E+03 0.  0.
          5    1    4    4  502    0  0.17728283973E+02  0.21266846476E+02 -0.31898902589E+02  0.42499421149E+02  0.47000000000E+01 0. -1.
         -5    1    4    4    0  502  0.17034744290E+01  0.20692643722E+02  0.11027772622E+03  0.11231364222E+03  0.47000000000E+01 0. -1.
          5    1    5    5  503    0 -0.54965383070E+02 -0.59651890161E+02  0.14109334412E+03  0.16281573355E+03  0.47000000000E+01 0. -1.
         -5    1    5    5    0  503  0.35533624668E+02  0.17692399964E+02  0.12460696047E+02  0.41869063096E+02  0.47000000000E+01 0. -1.
<mgrwt>
<rscale>  0 0.27467409E+03</rscale>
<asrwt>0</asrwt>
<pdfrwt beam="1">  1        1 0.98126922E-02 0.27467409E+03</pdfrwt>
<pdfrwt beam="2">  1       -1 0.45494670E-01 0.27467409E+03</pdfrwt>
<totfact> 0.32060285E+03</totfact>
</mgrwt>
</event>
<event>
 9    1  0.2065703E-002  0.2723477E+03  0.7818608E-02  0.1099943E+00
          2   -1    0    0  501    0  0.00000000000E+00  0.00000000000E+00  0.43614835997E+03  0.43614835997E+03  0.00000000000E+00 0.  1.
         -2   -1    0    0    0  501 -0.00000000000E+00 -0.00000000000E+00 -0.42516077744E+02  0.42516077744E+02  0.00000000000E+00 0.  1.
         36    2    1    2    0    0  0.00000000000E+00 -0.71054273576E-14  0.39363228222E+03  0.47866443771E+03  0.27234770115E+03 0.  0.
         25    2    3    3    0    0  0.20051043836E+02  0.55970620829E+02  0.23545249340E+03  0.27101809703E+03  0.12032529873E+03 0.  0.
         25    2    3    3    0    0 -0.20051043836E+02 -0.55970620829E+02  0.15817978882E+03  0.20764634068E+03  0.12067063624E+03 0.  0.
          5    1    4    4  502    0 -0.35566012019E+02  0.24665013639E+02  0.18348770228E+03  0.18858189467E+03  0.47000000000E+01 0. -1.
         -5    1    4    4    0  502  0.55617055855E+02  0.31305607190E+02  0.51964791121E+02  0.82436202361E+02  0.47000000000E+01 0. -1.
          5    1    5    5  503    0 -0.17014016099E+02 -0.22817240161E+02 -0.14104989347E+02  0.32111429693E+02  0.47000000000E+01 0.  1.
         -5    1    5    5    0  503 -0.30370277365E+01 -0.33153380668E+02  0.17228477816E+03  0.17553491098E+03  0.47000000000E+01 0.  1.
<mgrwt>
<rscale>  0 0.27234770E+03</rscale>
<asrwt>0</asrwt>
<pdfrwt beam="1">  1        2 0.67099744E-01 0.27234770E+03</pdfrwt>
<pdfrwt beam="2">  1       -2 0.65409354E-02 0.27234770E+03</pdfrwt>
<totfact> 0.93304217E+03</totfact>
</mgrwt>
</event>
<event>
 8    1  0.2065703E-002  0.2559570E+03  0.7818608E-02  0.1109597E+00
          2   -1    0    0  501    0  0.00000000000E+00  0.00000000000E+00  0.49522228386E+03  0.49522228386E+03  0.00000000000E+00 0. -1.
         -2   -1    0    0    0  501 -0.00000000000E+00 -0.00000000000E+00 -0.33073022030E+02  0.33073022030E+02  0.00000000000E+00 0. -1.
         25    2    1    2    0    0 -0.40369126970E+02  0.16283761963E+02  0.24039872341E+03  0.26992607328E+03  0.11477678991E+03 0.  0.
         25    2    1    2    0    0  0.40369126970E+02 -0.16283761963E+02  0.22175053842E+03  0.25836923261E+03  0.12524588518E+03 0.  0.
          5    1    3    3  502    0  0.31697865018E+02 -0.24536055437E+00  0.14831911388E+03  0.15174143926E+03  0.47000000000E+01 0.  1.
         -5    1    3    3    0  502 -0.72066991988E+02  0.16529122517E+02  0.92079609536E+02  0.11818463402E+03  0.47000000000E+01 0.  1.
          5    1    4    4  503    0  0.11754076165E+02 -0.45389278451E+02  0.17879655180E+02  0.50399573154E+02  0.47000000000E+01 0.  1.
         -5    1    4    4    0  503  0.28615050805E+02  0.29105516488E+02  0.20387088324E+03  0.20796965946E+03  0.47000000000E+01 0.  1.
<mgrwt>
<rscale>  0 0.25595701E+03</rscale>
<asrwt>0</asrwt>
<pdfrwt beam="1">  1        2 0.76188038E-01 0.25595701E+03</pdfrwt>
<pdfrwt beam="2">  1       -2 0.50881576E-02 0.25595701E+03</pdfrwt>
<totfact> 0.11876345E+04</totfact>
</mgrwt>
</event>
<event>
 9    1  0.2065703E-002  0.2745956E+03  0.7818608E-02  0.1098678E+00
          1   -1    0    0  501    0  0.00000000000E+00  0.00000000000E+00  0.26234130472E+04  0.26234130472E+04  0.00000000000E+00 0. -1.
         -1   -1    0    0    0  501 -0.00000000000E+00 -0.00000000000E+00 -0.71855603288E+01  0.71855603288E+01  0.00000000000E+00 0. -1.
         36    2    1    2    0    0 -0.71054273576E-14  0.00000000000E+00  0.26162274869E+04  0.26305986075E+04  0.27459564977E+03 0.  0.
         25    2    3    3    0    0  0.46565362780E+02 -0.11207732853E+02  0.15212814026E+04  0.15276638671E+04  0.13101846778E+03 0.  0.
         25    2    3    3    0    0 -0.46565362780E+02  0.11207732853E+02  0.10949460843E+04  0.11029347404E+04  0.12354824048E+03 0.  0.
          5    1    4    4  502    0  0.76341262225E+02 -0.42643246339E+02  0.73888221943E+03  0.74405339792E+03  0.47000000000E+01 0. -1.
         -5    1    4    4    0  502 -0.29775899446E+02  0.31435513487E+02  0.78239918313E+03  0.78361046921E+03  0.47000000000E+01 0. -1.
          5    1    5    5  503    0 -0.71252629777E+02  0.19487000732E+02  0.36091556743E+03  0.36842749254E+03  0.47000000000E+01 0. -1.
         -5    1    5    5    0  503  0.24687266997E+02 -0.82792678790E+01  0.73403051689E+03  0.73450724786E+03  0.47000000000E+01 0. -1.
<mgrwt>
<rscale>  0 0.27459565E+03</rscale>
<asrwt>0</asrwt>
<pdfrwt beam="1">  1        1 0.40360124E+00 0.27459565E+03</pdfrwt>
<pdfrwt beam="2">  1       -1 0.11054729E-02 0.27459565E+03</pdfrwt>
<totfact> 0.21330053E+03</totfact>
</mgrwt>
</event>
<event>
 9    1  0.2065703E-002  0.2750765E+03  0.7818608E-02  0.1098409E+00
         -2   -1    0    0    0  501 -0.00000000000E+00  0.00000000000E+00  0.16218977278E+02  0.16218977278E+02  0.00000000000E+00 0.  1.
          2   -1    0    0  501    0  0.00000000000E+00 -0.00000000000E+00 -0.11663356206E+04  0.11663356206E+04  0.00000000000E+00 0.  1.
         36    2    1    2    0    0 -0.71054273576E-14  0.00000000000E+00 -0.11501166433E+04  0.11825545979E+04  0.27507650520E+03 0.  0.
         25    2    3    3    0    0  0.27901748793E+00  0.40443098412E+02 -0.39743789108E+03  0.41887803685E+03  0.12596114652E+03 0.  0.
         25    2    3    3    0    0 -0.27901748793E+00 -0.40443098412E+02 -0.75267875223E+03  0.76367656102E+03  0.12264119912E+03 0.  0.
          5    1    4    4  502    0  0.21258385271E+02  0.18039430551E+02 -0.96895474338E+01  0.29888414618E+02  0.47000000000E+01 0. -1.
         -5    1    4    4    0  502 -0.20979367783E+02  0.22403667861E+02 -0.38774834365E+03  0.38898962224E+03  0.47000000000E+01 0. -1.
          5    1    5    5  503    0  0.36167881627E+02 -0.57489093483E+02 -0.24202635515E+03  0.25141988410E+03  0.47000000000E+01 0. -1.
         -5    1    5    5    0  503 -0.36446899115E+02  0.17045995071E+02 -0.51065239708E+03  0.51225667692E+03  0.47000000000E+01 0. -1.
<mgrwt>
<rscale>  0 0.27507651E+03</rscale>
<asrwt>0</asrwt>
<pdfrwt beam="1">  1        2 0.17943631E+00 0.27507651E+03</pdfrwt>
<pdfrwt beam="2">  1       -2 0.24952265E-02 0.27507651E+03</pdfrwt>
<totfact> 0.11626113E+04</totfact>
</mgrwt>
</event>
<event>
 9    1  0.2065703E-002  0.2749268E+03  0.7818608E-02  0.1098492E+00
         -1   -1    0    0    0  501 -0.00000000000E+00  0.00000000000E+00  0.18242518591E+02  0.18242518591E+02  0.00000000000E+00 0.  1.
          1   -1    0    0  501    0  0.00000000000E+00 -0.00000000000E+00 -0.10358324715E+04  0.10358324715E+04  0.00000000000E+00 0.  1.
         36    2    1    2    0    0  0.00000000000E+00  0.00000000000E+00 -0.10175899529E+04  0.10540749901E+04  0.27492684931E+03 0.  0.
         25    2    3    3    0    0  0.71643978700E+01  0.35013110794E+02 -0.65471754259E+03  0.66826536506E+03  0.12902050624E+03 0.  0.
         25    2    3    3    0    0 -0.71643978700E+01 -0.35013110794E+02 -0.36287241033E+03  0.38580962505E+03  0.12607709577E+03 0.  0.
          5    1    4    4  502    0 -0.40055735131E+02  0.53959896470E+02 -0.20804963115E+03  0.21868441043E+03  0.47000000000E+01 0. -1.
         -5    1    4    4    0  502  0.47220133001E+02 -0.18946785676E+02 -0.44666791145E+03  0.44958095463E+03  0.47000000000E+01 0. -1.
          5    1    5    5  503    0 -0.40124750799E+02  0.23282726439E+02 -0.25136273398E+03  0.25565092414E+03  0.47000000000E+01 0. -1.
         -5    1    5    5    0  503  0.32960352929E+02 -0.58295837233E+02 -0.11150967635E+03  0.13015870091E+03  0.47000000000E+01 0. -1.
<mgrwt>
<rscale>  0 0.27492685E+03</rscale>
<asrwt>0</asrwt>
<pdfrwt beam="1">  1        1 0.15935889E+00 0.27492685E+03</pdfrwt>
<pdfrwt beam="2">  1       -1 0.28065404E-02 0.27492685E+03</pdfrwt>
<totfact> 0.62556701E+03</totfact>
</mgrwt>
</event>
<event>
 9    1  0.2065703E-002  0.2751382E+03  0.7818608E-02  0.1098374E+00
         -1   -1    0    0    0  501 -0.00000000000E+00  0.00000000000E+00  0.12752046025E+03  0.12752046025E+03  0.00000000000E+00 0. -1.
          1   -1    0    0  501    0  0.00000000000E+00 -0.00000000000E+00 -0.14840960426E+03  0.14840960426E+03  0.00000000000E+00 0. -1.
         36    2    1    2    0    0  0.35527136788E-14  0.00000000000E+00 -0.20889144008E+02  0.27593006451E+03  0.27513822738E+03 0.  0.
         25    2    3    3    0    0 -0.19054307109E+02 -0.21855019666E+02  0.30447854573E+02  0.13329450759E+03  0.12648970473E+03 0.  0.
         25    2    3    3    0    0  0.19054307109E+02  0.21855019666E+02 -0.51336998581E+02  0.14263555692E+03  0.12987958335E+03 0.  0.
          5    1    4    4  502    0  0.15170335672E+02 -0.69276733633E+02  0.18005531509E+02  0.73319124873E+02  0.47000000000E+01 0.  1.
         -5    1    4    4    0  502 -0.34224642781E+02  0.47421713967E+02  0.12442323064E+02  0.59975382719E+02  0.47000000000E+01 0.  1.
          5    1    5    5  503    0  0.48866873343E+02  0.20473685648E+02 -0.83185064240E+02  0.98736963833E+02  0.47000000000E+01 0. -1.
         -5    1    5    5    0  503 -0.29812566233E+02  0.13813340184E+01  0.31848065659E+02  0.43898593090E+02  0.47000000000E+01 0. -1.
<mgrwt>
<rscale>  0 0.27513823E+03</rscale>
<asrwt>0</asrwt>
<pdfrwt beam="1">  1        1 0.22832247E-01 0.27513823E+03</pdfrwt>
<pdfrwt beam="2">  1       -1 0.19618532E-01 0.27513823E+03</pdfrwt>
<totfact> 0.44469045E+03</totfact>
</mgrwt>
</event>
<event>
 9    1  0.2065703E-002  0.2794989E+03  0.7818608E-02  0.1095963E+00
         -4   -1    0    0    0  501 -0.00000000000E+00  0.00000000000E+00  0.22432814613E+02  0.22432814613E+02  0.00000000000E+00 0.  1.
          4   -1    0    0  501    0  0.00000000000E+00 -0.00000000000E+00 -0.87059563234E+03  0.87059563234E+03  0.00000000000E+00 0.  1.
         36    2    1    2    0    0  0.00000000000E+00 -0.71054273576E-14 -0.84816281772E+03  0.89302844695E+03  0.27949891179E+03 0.  0.
         25    2    3    3    0    0  0.29157783922E+02  0.38669807895E+02 -0.62112192430E+03  0.63537152116E+03  0.12473569916E+03 0.  0.
         25    2    3    3    0    0 -0.29157783922E+02 -0.38669807895E+02 -0.22704089342E+03  0.25765692579E+03  0.11177653473E+03 0.  0.
          5    1    4    4  502    0  0.76789874741E+02  0.13433232936E+02 -0.31736536112E+03  0.32683328938E+03  0.47000000000E+01 0. -1.
         -5    1    4    4    0  502 -0.47632090820E+02  0.25236574959E+02 -0.30375656318E+03  0.30853823178E+03  0.47000000000E+01 0. -1.
          5    1    5    5  503    0  0.28796192193E+02  0.22804162656E+02 -0.75509148217E+02  0.84100963037E+02  0.47000000000E+01 0.  1.
         -5    1    5    5    0  503 -0.57953976114E+02 -0.61473970551E+02 -0.15153174520E+03  0.17355596275E+03  0.47000000000E+01 0.  1.
<mgrwt>
<rscale>  0 0.27949891E+03</rscale>
<asrwt>0</asrwt>
<pdfrwt beam="1">  1        4 0.13393775E+00 0.27949891E+03</pdfrwt>
<pdfrwt beam="2">  1       -4 0.34512032E-02 0.27949891E+03</pdfrwt>
<totfact> 0.34198654E+02</totfact>
</mgrwt>
</event>
<event>
 9    1  0.2065703E-002  0.2751529E+03  0.7818608E-02  0.1098366E+00
         -2   -1    0    0    0  501 -0.00000000000E+00  0.00000000000E+00  0.16235942433E+03  0.16235942433E+03  0.00000000000E+00 0. -1.
          2   -1    0    0  501    0  0.00000000000E+00 -0.00000000000E+00 -0.11657642261E+03  0.11657642261E+03  0.00000000000E+00 0. -1.
         36    2    1    2    0    0  0.00000000000E+00  0.00000000000E+00  0.45783001715E+02  0.27893584694E+03  0.27515290924E+03 0.  0.
         25    2    3    3    0    0 -0.22939753163E+02  0.70523754714E+02  0.43240424291E+02  0.15166077889E+03  0.12502569858E+03 0.  0.
         25    2    3    3    0    0  0.22939753163E+02 -0.70523754714E+02  0.25425774241E+01  0.12727506805E+03  0.10340525128E+03 0.  0.
          5    1    4    4  502    0  0.47194008634E+02  0.22234966122E+02 -0.67419955829E+01  0.52812997206E+02  0.47000000000E+01 0.  1.
         -5    1    4    4    0  502 -0.70133761797E+02  0.48288788592E+02  0.49982419874E+02  0.98847781684E+02  0.47000000000E+01 0.  1.
          5    1    5    5  503    0  0.33649504241E+02 -0.94461672776E+02  0.50631443535E+01  0.10051379104E+03  0.47000000000E+01 0. -1.
         -5    1    5    5    0  503 -0.10709751078E+02  0.23937918062E+02 -0.25205669294E+01  0.26761277005E+02  0.47000000000E+01 0. -1.
<mgrwt>
<rscale>  0 0.27515291E+03</rscale>
<asrwt>0</asrwt>
<pdfrwt beam="1">  1        2 0.17934834E-01 0.27515291E+03</pdfrwt>
<pdfrwt beam="2">  1       -2 0.24978373E-01 0.27515291E+03</pdfrwt>
<totfact> 0.44610419E+03</totfact>
</mgrwt>
</event>
<event>
 9    1  0.2065703E-002  0.2751324E+03  0.7818608E-02  0.1098378E+00
         -1   -1    0    0    0  501 -0.00000000000E+00  0.00000000000E+00  0.14949484428E+02  0.14949484428E+02  0.00000000000E+00 0. -1.
          1   -1    0    0  501    0  0.00000000000E+00 -0.00000000000E+00 -0.12658939569E+04  0.12658939569E+04  0.00000000000E+00 0. -1.
         36    2    1    2    0    0  0.00000000000E+00 -0.35527136788E-14 -0.12509444724E+04  0.12808434413E+04  0.27513241900E+03 0.  0.
         25    2    3    3    0    0 -0.22063872097E+02 -0.31682464804E+02 -0.43337306931E+03  0.45266721650E+03  0.12491916850E+03 0.  0.
         25    2    3    3    0    0  0.22063872097E+02  0.31682464804E+02 -0.81757140312E+03  0.82817622479E+03  0.12634186592E+03 0.  0.
          5    1    4    4  502    0 -0.49515301096E+02  0.14502115135E+02 -0.34694745227E+03  0.35079438567E+03  0.47000000000E+01 0. -1.
         -5    1    4    4    0  502  0.27451428999E+02 -0.46184579939E+02 -0.86425617046E+02  0.10187283082E+03  0.47000000000E+01 0. -1.
          5    1    5    5  503    0  0.36996565059E+02  0.43551446050E+02 -0.79927910481E+03  0.80133304666E+03  0.47000000000E+01 0.  1.
         -5    1    5    5    0  503 -0.14932692962E+02 -0.11868981246E+02 -0.18292298311E+02  0.26843178136E+02  0.47000000000E+01 0.  1.
<mgrwt>
<rscale>  0 0.27513242E+03</rscale>
<asrwt>0</asrwt>
<pdfrwt beam="1">  1        1 0.19475295E+00 0.27513242E+03</pdfrwt>
<pdfrwt beam="2">  1       -1 0.22999203E-02 0.27513242E+03</pdfrwt>
<totfact> 0.57524332E+03</totfact>
</mgrwt>
</event>
<event>
 9    1  0.2065703E-002  0.2748390E+03  0.7818608E-02  0.1098542E+00
          2   -1    0    0  501    0  0.00000000000E+00  0.00000000000E+00  0.22815139973E+03  0.22815139973E+03  0.00000000000E+00 0.  1.
         -2   -1    0    0    0  501 -0.00000000000E+00 -0.00000000000E+00 -0.82770120573E+02  0.82770120573E+02  0.00000000000E+00 0.  1.
         36    2    1    2    0    0  0.00000000000E+00  0.00000000000E+00  0.14538127916E+03  0.31092152030E+03  0.27483899916E+03 0.  0.
         25    2    3    3    0    0 -0.53346356622E+01  0.59477282594E+02  0.56103152364E+02  0.15124093170E+03  0.12712297287E+03 0.  0.
         25    2    3    3    0    0  0.53346356622E+01 -0.59477282594E+02  0.89278126793E+02  0.15968058861E+03  0.11815794926E+03 0.  0.
          5    1    4    4  502    0  0.31723724370E+02  0.70569994239E+02  0.75065423787E+02  0.10790471085E+03  0.47000000000E+01 0.  1.
         -5    1    4    4    0  502 -0.37058360032E+02 -0.11092711645E+02 -0.18962271422E+02  0.43336220848E+02  0.47000000000E+01 0.  1.
          5    1    5    5  503    0 -0.89737905891E+01 -0.47266904478E+02 -0.17308016905E+02  0.51345366156E+02  0.47000000000E+01 0.  1.
         -5    1    5    5    0  503  0.14308426251E+02 -0.12210378115E+02  0.10658614370E+03  0.10833522245E+03  0.47000000000E+01 0.  1.
<mgrwt>
<rscale>  0 0.27483900E+03</rscale>
<asrwt>0</asrwt>
<pdfrwt beam="1">  1        2 0.35100215E-01 0.27483900E+03</pdfrwt>
<pdfrwt beam="2">  1       -2 0.12733865E-01 0.27483900E+03</pdfrwt>
<totfact> 0.65653205E+03</totfact>
</mgrwt>
</event>
<event>
 9    1  0.2065703E-002  0.2738901E+03  0.7818608E-02  0.1099074E+00
         -1   -1    0    0    0  501 -0.00000000000E+00  0.00000000000E+00  0.29606593055E+03  0.29606593055E+03  0.00000000000E+00 0. -1.
          1   -1    0    0  501    0  0.00000000000E+00 -0.00000000000E+00 -0.63343833841E+02  0.63343833841E+02  0.00000000000E+00 0. -1.
         36    2    1    2    0    0  0.00000000000E+00 -0.71054273576E-14  0.23272209671E+03  0.35940976439E+03  0.27389013207E+03 0.  0.
         25    2    3    3    0    0 -0.42551452853E+02 -0.26748464532E+02  0.16556321399E+03  0.21217483118E+03  0.12280421273E+03 0.  0.
         25    2    3    3    0    0  0.42551452853E+02  0.26748464532E+02  0.67158882725E+02  0.14723493322E+03  0.12100290714E+03 0.  0.
          5    1    4    4  502    0  0.40757740822E+02 -0.11574768059E+02  0.85526316020E+02  0.95561547835E+02  0.47000000000E+01 0. -1.
         -5    1    4    4    0  502 -0.83309193675E+02 -0.15173696472E+02  0.80036897966E+02  0.11661328334E+03  0.47000000000E+01 0. -1.
          5    1    5    5  503    0  0.37793236775E+02  0.19193758196E+01  0.99126899925E+02  0.10620849796E+03  0.47000000000E+01 0.  1.
         -5    1    5    5    0  503  0.47582160787E+01  0.24829088712E+02 -0.31968017200E+02  0.41026435261E+02  0.47000000000E+01 0.  1.
<mgrwt>
<rscale>  0 0.27389013E+03</rscale>
<asrwt>0</asrwt>
<pdfrwt beam="1">  1        1 0.97452054E-02 0.27389013E+03</pdfrwt>
<pdfrwt beam="2">  1       -1 0.45548604E-01 0.27389013E+03</pdfrwt>
<totfact> 0.32287339E+03</totfact>
</mgrwt>
</event>
<event>
 9    1  0.2065703E-002  0.2744845E+03  0.7818608E-02  0.1098740E+00
         -2   -1    0    0    0  501 -0.00000000000E+00  0.00000000000E+00  0.16983797860E+02  0.16983797860E+02  0.00000000000E+00 0.  1.
          2   -1    0    0  501    0  0.00000000000E+00 -0.00000000000E+00 -0.11090239205E+04  0.11090239205E+04  0.00000000000E+00 0.  1.
         36    2    1    2    0    0  0.00000000000E+00 -0.35527136788E-14 -0.10920401226E+04  0.11260077184E+04  0.27448452115E+03 0.  0.
         25    2    3    3    0    0 -0.19926838928E+02  0.11413960733E+02 -0.75181651180E+03  0.76293911669E+03  0.12775238136E+03 0.  0.
         25    2    3    3    0    0  0.19926838928E+02 -0.11413960733E+02 -0.34022361084E+03  0.36306860167E+03  0.12465691614E+03 0.  0.
          5    1    4    4  502    0  0.23368571457E+02  0.75076401873E+01 -0.26945571678E+02  0.36750627561E+02  0.47000000000E+01 0.  1.
         -5    1    4    4    0  502 -0.43295410384E+02  0.39063205460E+01 -0.72487094013E+03  0.72618848913E+03  0.47000000000E+01 0.  1.
          5    1    5    5  503    0  0.45979364767E+02 -0.46076284761E+02 -0.10348108546E+03  0.12234194313E+03  0.47000000000E+01 0. -1.
         -5    1    5    5    0  503 -0.26052525839E+02  0.34662324027E+02 -0.23674252538E+03  0.24072665854E+03  0.47000000000E+01 0. -1.
<mgrwt>
<rscale>  0 0.27448452E+03</rscale>
<asrwt>0</asrwt>
<pdfrwt beam="1">  1        2 0.17061904E+00 0.27448452E+03</pdfrwt>
<pdfrwt beam="2">  1       -2 0.26128924E-02 0.27448452E+03</pdfrwt>
<totfact> 0.11721770E+04</totfact>
</mgrwt>
</event>
<event>
 9    1  0.2065703E-002  0.2750347E+03  0.7818608E-02  0.1098432E+00
         -1   -1    0    0    0  501 -0.00000000000E+00  0.00000000000E+00  0.10331440468E+02  0.10331440468E+02  0.00000000000E+00 0.  1.
          1   -1    0    0  501    0  0.00000000000E+00 -0.00000000000E+00 -0.18304342697E+04  0.18304342697E+04  0.00000000000E+00 0.  1.
         36    2    1    2    0    0 -0.53290705182E-14 -0.71054273576E-14 -0.18201028292E+04  0.18407657102E+04  0.27503470827E+03 0.  0.
         25    2    3    3    0    0  0.93067453484E+01 -0.25844870591E+02 -0.70220415564E+03  0.71569234020E+03  0.13553699409E+03 0.  0.
         25    2    3    3    0    0 -0.93067453484E+01  0.25844870591E+02 -0.11178986736E+04  0.11250733700E+04  0.12384696429E+03 0.  0.
          5    1    4    4  502    0 -0.24981464577E+02  0.49010574891E+02 -0.31520767317E+03  0.32000637064E+03  0.47000000000E+01 0. -1.
         -5    1    4    4    0  502  0.34288209925E+02 -0.74855445482E+02 -0.38699648247E+03  0.39568596956E+03  0.47000000000E+01 0. -1.
          5    1    5    5  503    0  0.13776299817E+02  0.69302751872E+02 -0.47160392956E+03  0.47689098778E+03  0.47000000000E+01 0. -1.
         -5    1    5    5    0  503 -0.23083045166E+02 -0.43457881280E+02 -0.64629474404E+03  0.64818238220E+03  0.47000000000E+01 0. -1.
<mgrwt>
<rscale>  0 0.27503471E+03</rscale>
<asrwt>0</asrwt>
<pdfrwt beam="1">  1        1 0.28160492E+00 0.27503471E+03</pdfrwt>
<pdfrwt beam="2">  1       -1 0.15894543E-02 0.27503471E+03</pdfrwt>
<totfact> 0.41703174E+03</totfact>
</mgrwt>
</event>
<event>
 9    1  0.2065703E-002  0.2619965E+03  0.7818608E-02  0.1105950E+00
         -1   -1    0    0    0  501 -0.00000000000E+00  0.00000000000E+00  0.17805316003E+02  0.17805316003E+02  0.00000000000E+00 0.  1.
          1   -1    0    0  501    0  0.00000000000E+00 -0.00000000000E+00 -0.96378757997E+03  0.96378757997E+03  0.00000000000E+00 0.  1.
         36    2    1    2    0    0  0.00000000000E+00  0.00000000000E+00 -0.94598226397E+03  0.98159289597E+03  0.26199650701E+03 0.  0.
         25    2    3    3    0    0 -0.31819239618E+02  0.17564783978E+02 -0.45370870846E+03  0.47193654881E+03  0.12470576702E+03 0.  0.
         25    2    3    3    0    0  0.31819239618E+02 -0.17564783978E+02 -0.49227355551E+03  0.50965634716E+03  0.12686746274E+03 0.  0.
          5    1    4    4  502    0 -0.55305643868E+02 -0.38136977345E+02 -0.19806665900E+03  0.20920237735E+03  0.47000000000E+01 0.  1.
         -5    1    4    4    0  502  0.23486404250E+02  0.55701761323E+02 -0.25564204946E+03  0.26273417146E+03  0.47000000000E+01 0.  1.
          5    1    5    5  503    0  0.56876333395E+02  0.36880704604E+02 -0.19890842874E+03  0.21019456866E+03  0.47000000000E+01 0.  1.
         -5    1    5    5    0  503 -0.25057093777E+02 -0.54445488582E+02 -0.29336512677E+03  0.29946177850E+03  0.47000000000E+01 0.  1.
<mgrwt>
<rscale>  0 0.26199651E+03</rscale>
<asrwt>0</asrwt>
<pdfrwt beam="1">  1        1 0.14827500E+00 0.26199651E+03</pdfrwt>
<pdfrwt beam="2">  1       -1 0.27392795E-02 0.26199651E+03</pdfrwt>
<totfact> 0.73317180E+03</totfact>
</mgrwt>
</event>
<event>
 9    1  0.2065703E-002  0.2746567E+03  0.7818608E-02  0.1098644E+00
          1   -1    0    0  501    0  0.00000000000E+00  0.00000000000E+00  0.38942203072E+03  0.38942203072E+03  0.00000000000E+00 0.  1.
         -1   -1    0    0    0  501 -0.00000000000E+00 -0.00000000000E+00 -0.48428359654E+02  0.48428359654E+02  0.00000000000E+00 0.  1.
         36    2    1    2    0    0 -0.71054273576E-14 -0.71054273576E-14  0.34099367106E+03  0.43785039037E+03  0.27465665956E+03 0.  0.
         25    2    3    3    0    0 -0.35807478133E+02  0.32135278142E+02  0.20690132712E+03  0.24654824595E+03  0.12515201485E+03 0.  0.
         25    2    3    3    0    0  0.35807478133E+02 -0.32135278142E+02  0.13409234394E+03  0.19130214442E+03  0.12767498646E+03 0.  0.
          5    1    4    4  502    0 -0.62184933583E+02  0.11919989696E+02  0.37256661067E+02  0.73615222019E+02  0.47000000000E+01 0. -1.
         -5    1    4    4    0  502  0.26377455450E+02  0.20215288445E+02  0.16964466606E+03  0.17293302393E+03  0.47000000000E+01 0. -1.
          5    1    5    5  503    0 -0.37373186470E+02  0.22876000955E+02  0.34720233032E+02  0.56103930954E+02  0.47000000000E+01 0. -1.
         -5    1    5    5    0  503  0.73180664603E+02 -0.55011279097E+02  0.99372110906E+02  0.13519821347E+03  0.47000000000E+01 0. -1.
<mgrwt>
<rscale>  0 0.27465666E+03</rscale>
<asrwt>0</asrwt>
<pdfrwt beam="1">  1        1 0.59911079E-01 0.27465666E+03</pdfrwt>
<pdfrwt beam="2">  1       -1 0.74505171E-02 0.27465666E+03</pdfrwt>
<totfact> 0.59888039E+03</totfact>
</mgrwt>
</event>
<event>
 9    1  0.2065703E-002  0.2735715E+03  0.7818608E-02  0.1099253E+00
          2   -1    0    0  501    0  0.00000000000E+00  0.00000000000E+00  0.24957166963E+03  0.24957166963E+03  0.00000000000E+00 0. -1.
         -2   -1    0    0    0  501 -0.00000000000E+00 -0.00000000000E+00 -0.74969821485E+02  0.74969821485E+02  0.00000000000E+00 0. -1.
         36    2    1    2    0    0  0.17763568394E-14  0.71054273576E-14  0.17460184814E+03  0.32454149111E+03  0.27357151547E+03 0.  0.
         25    2    3    3    0    0  0.15861663157E+02 -0.42379908213E+02  0.70428542776E+02  0.15692316615E+03  0.13272924116E+03 0.  0.
         25    2    3    3    0    0 -0.15861663157E+02  0.42379908213E+02  0.10417330537E+03  0.16761832496E+03  0.12327277207E+03 0.  0.
          5    1    4    4  502    0  0.29865896702E+02  0.16808469550E+02  0.87070350079E+02  0.93690086440E+02  0.47000000000E+01 0. -1.
         -5    1    4    4    0  502 -0.14004233545E+02 -0.59188377762E+02 -0.16641807303E+02  0.63233079710E+02  0.47000000000E+01 0. -1.
          5    1    5    5  503    0 -0.37587628385E+02  0.67710346850E+02  0.24908037597E+02  0.81486325326E+02  0.47000000000E+01 0.  1.
         -5    1    5    5    0  503  0.21725965228E+02 -0.25330438637E+02  0.79265267768E+02  0.86131999634E+02  0.47000000000E+01 0.  1.
<mgrwt>
<rscale>  0 0.27357152E+03</rscale>
<asrwt>0</asrwt>
<pdfrwt beam="1">  1        2 0.38395641E-01 0.27357152E+03</pdfrwt>
<pdfrwt beam="2">  1       -2 0.11533819E-01 0.27357152E+03</pdfrwt>
<totfact> 0.69894647E+03</totfact>
</mgrwt>
</event>
<event>
 9    1  0.2065703E-002  0.2750599E+03  0.7818608E-02  0.1098418E+00
          1   -1    0    0  501    0  0.00000000000E+00  0.00000000000E+00  0.33032456508E+02  0.33032456508E+02  0.00000000000E+00 0.  1.
         -1   -1    0    0    0  501 -0.00000000000E+00 -0.00000000000E+00 -0.57260312975E+03  0.57260312975E+03  0.00000000000E+00 0.  1.
         36    2    1    2    0    0  0.00000000000E+00  0.00000000000E+00 -0.53957067325E+03  0.60563558626E+03  0.27505990606E+03 0.  0.
         25    2    3    3    0    0 -0.20653129302E+02 -0.27045948440E+02 -0.32531889718E+03  0.35383330044E+03  0.13493548298E+03 0.  0.
         25    2    3    3    0    0  0.20653129302E+02  0.27045948440E+02 -0.21425177607E+03  0.25180228582E+03  0.12783791502E+03 0.  0.
          5    1    4    4  502    0  0.77632357737E+01  0.52872007318E+02 -0.11069310742E+03  0.12300719905E+03  0.47000000000E+01 0. -1.
         -5    1    4    4    0  502 -0.28416365076E+02 -0.79917955758E+02 -0.21462578975E+03  0.23082610139E+03  0.47000000000E+01 0. -1.
          5    1    5    5  503    0  0.16533931218E+02  0.34815408028E+02 -0.22995003220E+03  0.23320504031E+03  0.47000000000E+01 0. -1.
         -5    1    5    5    0  503  0.41191980833E+01 -0.77694595878E+01  0.15698256127E+02  0.18597245511E+02  0.47000000000E+01 0. -1.
<mgrwt>
<rscale>  0 0.27505991E+03</rscale>
<asrwt>0</asrwt>
<pdfrwt beam="1">  1        1 0.50819163E-02 0.27505991E+03</pdfrwt>
<pdfrwt beam="2">  1       -1 0.88092790E-01 0.27505991E+03</pdfrwt>
<totfact> 0.21619248E+03</totfact>
</mgrwt>
</event>
<event>
 9    1  0.2065703E-002  0.2748934E+03  0.7818608E-02  0.1098511E+00
         -2   -1    0    0    0  501 -0.00000000000E+00  0.00000000000E+00  0.27844196146E+02  0.27844196146E+02  0.00000000000E+00 0. -1.
          2   -1    0    0  501    0  0.00000000000E+00 -0.00000000000E+00 -0.67847516646E+03  0.67847516646E+03  0.00000000000E+00 0. -1.
         36    2    1    2    0    0 -0.35527136788E-14  0.00000000000E+00 -0.65063097032E+03  0.70631936261E+03  0.27489340199E+03 0.  0.
         25    2    3    3    0    0  0.15638339081E+02 -0.43029248103E+02 -0.33248320781E+03  0.35695790878E+03  0.12156393923E+03 0.  0.
         25    2    3    3    0    0 -0.15638339081E+02  0.43029248103E+02 -0.31814776251E+03  0.34936145383E+03  0.13689175576E+03 0.  0.
          5    1    4    4  502    0 -0.94086507564E+01 -0.82362951576E+02 -0.21248111143E+03  0.22812823414E+03  0.47000000000E+01 0. -1.
         -5    1    4    4    0  502  0.25046989837E+02  0.39333703473E+02 -0.12000209639E+03  0.12882967463E+03  0.47000000000E+01 0. -1.
          5    1    5    5  503    0 -0.49942459690E+02  0.80661910345E+00 -0.35430007374E+02  0.61418851640E+02  0.47000000000E+01 0.  1.
         -5    1    5    5    0  503  0.34304120609E+02  0.42222628999E+02 -0.28271775513E+03  0.28794260219E+03  0.47000000000E+01 0.  1.
<mgrwt>
<rscale>  0 0.27489340E+03</rscale>
<asrwt>0</asrwt>
<pdfrwt beam="1">  1        2 0.10438079E+00 0.27489340E+03</pdfrwt>
<pdfrwt beam="2">  1       -2 0.42837225E-02 0.27489340E+03</pdfrwt>
<totfact> 0.10749761E+04</totfact>
</mgrwt>
</event>
<event>
 8    1  0.2065703E-002  0.3879245E+03  0.7818608E-02  0.1048043E+00
          2   -1    0    0  501    0  0.00000000000E+00  0.00000000000E+00  0.11102515806E+04  0.11102515806E+04  0.00000000000E+00 0. -1.
         -2   -1    0    0    0  501 -0.00000000000E+00 -0.00000000000E+00 -0.33885435332E+02  0.33885435332E+02  0.00000000000E+00 0. -1.
         25    2    1    2    0    0 -0.14496442270E+03 -0.14965466115E+02  0.47484032092E+03  0.51245079889E+03  0.12607078126E+03 0.  0.
         25    2    1    2    0    0  0.14496442270E+03  0.14965466115E+02  0.60152582436E+03  0.63168621705E+03  0.12631512349E+03 0.  0.
          5    1    3    3  502    0  0.11646082216E+02  0.32730865810E+01  0.15784750723E+03  0.15838014353E+03  0.47000000000E+01 0. -1.
         -5    1    3    3    0  502 -0.15661050491E+03 -0.18238552696E+02  0.31699281369E+03  0.35407065536E+03  0.47000000000E+01 0. -1.
          5    1    4    4  503    0  0.35711781989E+02  0.16883803246E+02  0.40357158342E+03  0.40552744313E+03  0.47000000000E+01 0.  1.
         -5    1    4    4    0  503  0.10925264071E+03 -0.19183371312E+01  0.19795424094E+03  0.22615877393E+03  0.47000000000E+01 0.  1.
<mgrwt>
<rscale>  0 0.38792452E+03</rscale>
<asrwt>0</asrwt>
<pdfrwt beam="1">  1        2 0.17080791E+00 0.38792452E+03</pdfrwt>
<pdfrwt beam="2">  1       -2 0.52131447E-02 0.38792452E+03</pdfrwt>
<totfact> 0.41549067E+03</totfact>
</mgrwt>
</event>
<event>
 9    1  0.2065703E-002  0.2743726E+03  0.7818608E-02  0.1098803E+00
         -2   -1    0    0    0  501 -0.00000000000E+00  0.00000000000E+00  0.22407882756E+03  0.22407882756E+03  0.00000000000E+00 0. -1.
          2   -1    0    0  501    0  0.00000000000E+00 -0.00000000000E+00 -0.83988647039E+02  0.83988647039E+02  0.00000000000E+00 0. -1.
         36    2    1    2    0    0  0.71054273576E-14  0.71054273576E-14  0.14009018052E+03  0.30806747460E+03  0.27437257557E+03 0.  0.
         25    2    3    3    0    0  0.25804329525E+02 -0.36167077320E+02  0.25972518080E+02  0.13375798039E+03  0.12346134909E+03 0.  0.
         25    2    3    3    0    0 -0.25804329525E+02  0.36167077320E+02  0.11411766244E+03  0.17430949421E+03  0.12404450003E+03 0.  0.
          5    1    4    4  502    0 -0.47563754420E+02  0.27906814078E+01  0.65971570687E+01  0.48329195303E+02  0.47000000000E+01 0.  1.
         -5    1    4    4    0  502  0.73368083946E+02 -0.38957758728E+02  0.19375361012E+02  0.85428785086E+02  0.47000000000E+01 0.  1.
          5    1    5    5  503    0  0.37364027357E+02  0.53954362349E+02  0.61500387721E+02  0.90064040808E+02  0.47000000000E+01 0.  1.
         -5    1    5    5    0  503 -0.63168356882E+02 -0.17787285029E+02  0.52617274717E+02  0.84245453400E+02  0.47000000000E+01 0.  1.
<mgrwt>
<rscale>  0 0.27437258E+03</rscale>
<asrwt>0</asrwt>
<pdfrwt beam="1">  1        2 0.12921330E-01 0.27437258E+03</pdfrwt>
<pdfrwt beam="2">  1       -2 0.34473666E-01 0.27437258E+03</pdfrwt>
<totfact> 0.36694985E+03</totfact>
</mgrwt>
</event>
<event>
 9    1  0.2065703E-002  0.2752224E+03  0.7818608E-02  0.1098327E+00
         -2   -1    0    0    0  501 -0.00000000000E+00  0.00000000000E+00  0.30573763748E+02  0.30573763748E+02  0.00000000000E+00 0.  1.
          2   -1    0    0  501    0  0.00000000000E+00 -0.00000000000E+00 -0.61938223717E+03  0.61938223717E+03  0.00000000000E+00 0.  1.
         36    2    1    2    0    0  0.00000000000E+00  0.71054273576E-14 -0.58880847342E+03  0.64995600092E+03  0.27522242778E+03 0.  0.
         25    2    3    3    0    0 -0.18898541030E+02  0.46495534140E+02 -0.24561873037E+03  0.28080446791E+03  0.12650533167E+03 0.  0.
         25    2    3    3    0    0  0.18898541030E+02 -0.46495534140E+02 -0.34318974305E+03  0.36915153301E+03  0.12639092151E+03 0.  0.
          5    1    4    4  502    0  0.28486112788E+02  0.11672489139E+02 -0.31934454248E+01  0.31304851352E+02  0.47000000000E+01 0. -1.
         -5    1    4    4    0  502 -0.47384653818E+02  0.34823045001E+02 -0.24242528494E+03  0.24949961655E+03  0.47000000000E+01 0. -1.
          5    1    5    5  503    0  0.40891152052E+02  0.30382339946E+02 -0.18351108782E+03  0.19050874586E+03  0.47000000000E+01 0.  1.
         -5    1    5    5    0  503 -0.21992611022E+02 -0.76877874086E+02 -0.15967865524E+03  0.17864278715E+03  0.47000000000E+01 0.  1.
<mgrwt>
<rscale>  0 0.27522243E+03</rscale>
<asrwt>0</asrwt>
<pdfrwt beam="1">  1        2 0.95289566E-01 0.27522243E+03</pdfrwt>
<pdfrwt beam="2">  1       -2 0.47036564E-02 0.27522243E+03</pdfrwt>
<totfact> 0.10397853E+04</totfact>
</mgrwt>
</event>
<event>
 9    1  0.2065703E-002  0.2728402E+03  0.7818608E-02  0.1099665E+00
          1   -1    0    0  501    0  0.00000000000E+00  0.00000000000E+00  0.12414320566E+04  0.12414320566E+04  0.00000000000E+00 0. -1.
         -1   -1    0    0    0  501 -0.00000000000E+00 -0.00000000000E+00 -0.14991111835E+02  0.14991111835E+02  0.00000000000E+00 0. -1.
         36    2    1    2    0    0  0.00000000000E+00  0.00000000000E+00  0.12264409447E+04  0.12564231684E+04  0.27284022281E+03 0.  0.
         25    2    3    3    0    0 -0.25052493411E+02  0.40549320440E+01  0.43319910582E+03  0.45255621433E+03  0.12845852227E+03 0.  0.
         25    2    3    3    0    0  0.25052493411E+02 -0.40549320440E+01  0.79324183890E+03  0.80386695406E+03  0.12777086895E+03 0.  0.
          5    1    4    4  502    0 -0.48880453183E+02  0.54581279346E+02  0.27840445499E+03  0.28792281139E+03  0.47000000000E+01 0.  1.
         -5    1    4    4    0  502  0.23827959772E+02 -0.50526347302E+02  0.15479465083E+03  0.16463340294E+03  0.47000000000E+01 0.  1.
          5    1    5    5  503    0 -0.79692863143E+01  0.31762798810E+02  0.56292081561E+02  0.65293746708E+02  0.47000000000E+01 0.  1.
         -5    1    5    5    0  503  0.33021779726E+02 -0.35817730854E+02  0.73694975734E+03  0.73857320735E+03  0.47000000000E+01 0.  1.
<mgrwt>
<rscale>  0 0.27284022E+03</rscale>
<asrwt>0</asrwt>
<pdfrwt beam="1">  1        1 0.19098947E+00 0.27284022E+03</pdfrwt>
<pdfrwt beam="2">  1       -1 0.23063259E-02 0.27284022E+03</pdfrwt>
<totfact> 0.59554951E+03</totfact>
</mgrwt>
</event>
<event>
 9    1  0.2065703E-002  0.2774924E+03  0.7818608E-02  0.1097066E+00
         -1   -1    0    0    0  501 -0.00000000000E+00  0.00000000000E+00  0.34489588975E+02  0.34489588975E+02  0.00000000000E+00 0. -1.
          1   -1    0    0  501    0  0.00000000000E+00 -0.00000000000E+00 -0.55815413406E+03  0.55815413406E+03  0.00000000000E+00 0. -1.
         36    2    1    2    0    0  0.35527136788E-14  0.00000000000E+00 -0.52366454509E+03  0.59264372304E+03  0.27749239030E+03 0.  0.
         25    2    3    3    0    0  0.15284289783E+02  0.35752889514E+02 -0.36244732245E+03  0.38559329954E+03  0.12570701044E+03 0.  0.
         25    2    3    3    0    0 -0.15284289783E+02 -0.35752889514E+02 -0.16121722264E+03  0.20705042350E+03  0.12396373007E+03 0.  0.
          5    1    4    4  502    0  0.44801441409E+02 -0.27931495022E+02 -0.22535577943E+03  0.23150519408E+03  0.47000000000E+01 0. -1.
         -5    1    4    4    0  502 -0.29517151627E+02  0.63684384536E+02 -0.13709154303E+03  0.15408810546E+03  0.47000000000E+01 0. -1.
          5    1    5    5  503    0  0.39344808163E+02 -0.42490143536E+02 -0.13274273053E+03  0.14490047873E+03  0.47000000000E+01 0. -1.
         -5    1    5    5    0  503 -0.54629097946E+02  0.67372540217E+01 -0.28474492105E+02  0.62149944769E+02  0.47000000000E+01 0. -1.
<mgrwt>
<rscale>  0 0.27749239E+03</rscale>
<asrwt>0</asrwt>
<pdfrwt beam="1">  1        1 0.85869855E-01 0.27749239E+03</pdfrwt>
<pdfrwt beam="2">  1       -1 0.53060913E-02 0.27749239E+03</pdfrwt>
<totfact> 0.62342236E+03</totfact>
</mgrwt>
</event>
<event>
 9    1  0.2065703E-002  0.2731399E+03  0.7818608E-02  0.1099496E+00
          1   -1    0    0  501    0  0.00000000000E+00  0.00000000000E+00  0.84072373527E+02  0.84072373527E+02  0.00000000000E+00 0. -1.
         -1   -1    0    0    0  501 -0.00000000000E+00 -0.00000000000E+00 -0.22184875161E+03  0.22184875161E+03  0.00000000000E+00 0. -1.
         36    2    1    2    0    0 -0.71054273576E-14  0.00000000000E+00 -0.13777637809E+03  0.30592112514E+03  0.27313989904E+03 0.  0.
         25    2    3    3    0    0  0.48821393918E+02  0.25099443109E+02 -0.47314559976E+02  0.14303013934E+03  0.12331035084E+03 0.  0.
         25    2    3    3    0    0 -0.48821393918E+02 -0.25099443109E+02 -0.90461818110E+02  0.16289098580E+03  0.12384111664E+03 0.  0.
          5    1    4    4  502    0  0.97402290311E+01 -0.22719732563E+02  0.33068556690E+02  0.41553312153E+02  0.47000000000E+01 0.  1.
         -5    1    4    4    0  502  0.39081164887E+02  0.47819175672E+02 -0.80383116666E+02  0.10147682719E+03  0.47000000000E+01 0.  1.
          5    1    5    5  503    0  0.96447130314E+01 -0.40720699510E+02  0.12011020203E+02  0.43789844306E+02  0.47000000000E+01 0.  1.
         -5    1    5    5    0  503 -0.58466106949E+02  0.15621256401E+02 -0.10247283831E+03  0.11910114149E+03  0.47000000000E+01 0.  1.
<mgrwt>
<rscale>  0 0.27313990E+03</rscale>
<asrwt>0</asrwt>
<pdfrwt beam="1">  1        1 0.12934211E-01 0.27313990E+03</pdfrwt>
<pdfrwt beam="2">  1       -1 0.34130578E-01 0.27313990E+03</pdfrwt>
<totfact> 0.36888982E+03</totfact>
</mgrwt>
</event>
<event>
 9    1  0.2065703E-002  0.2752802E+03  0.7818608E-02  0.1098295E+00
         -1   -1    0    0    0  501 -0.00000000000E+00  0.00000000000E+00  0.11507755832E+02  0.11507755832E+02  0.00000000000E+00 0. -1.
          1   -1    0    0  501    0  0.00000000000E+00 -0.00000000000E+00 -0.16462639724E+04  0.16462639724E+04  0.00000000000E+00 0. -1.
         36    2    1    2    0    0  0.10658141036E-13  0.00000000000E+00 -0.16347562165E+04  0.16577717282E+04  0.27528024869E+03 0.  0.
         25    2    3    3    0    0 -0.23894581111E+02 -0.18997913733E+02 -0.12260693285E+04  0.12324922865E+04  0.12189900101E+03 0.  0.
         25    2    3    3    0    0  0.23894581111E+02  0.18997913733E+02 -0.40868688805E+03  0.42527944164E+03  0.11360351792E+03 0.  0.
          5    1    4    4  502    0 -0.33554542509E+02  0.23332142100E+02 -0.10593330035E+04  0.10601315005E+04  0.47000000000E+01 0. -1.
         -5    1    4    4    0  502  0.96599613978E+01 -0.42330055834E+02 -0.16673632502E+03  0.17236078603E+03  0.47000000000E+01 0. -1.
          5    1    5    5  503    0  0.52340783575E+02  0.14264480487E+02 -0.38150935904E+03  0.38537580888E+03  0.47000000000E+01 0.  1.
         -5    1    5    5    0  503 -0.28446202464E+02  0.47334332465E+01 -0.27177529010E+02  0.39903632767E+02  0.47000000000E+01 0.  1.
<mgrwt>
<rscale>  0 0.27528025E+03</rscale>
<asrwt>0</asrwt>
<pdfrwt beam="1">  1        1 0.25327115E+00 0.27528025E+03</pdfrwt>
<pdfrwt beam="2">  1       -1 0.17704256E-02 0.27528025E+03</pdfrwt>
<totfact> 0.46979352E+03</totfact>
</mgrwt>
</event>
<event>
 9    1  0.2065703E-002  0.2753038E+03  0.7818608E-02  0.1098282E+00
         -2   -1    0    0    0  501 -0.00000000000E+00  0.00000000000E+00  0.28939008968E+03  0.28939008968E+03  0.00000000000E+00 0. -1.
          2   -1    0    0  501    0  0.00000000000E+00 -0.00000000000E+00 -0.65475815984E+02  0.65475815984E+02  0.00000000000E+00 0. -1.
         36    2    1    2    0    0  0.00000000000E+00  0.14210854715E-13  0.22391427370E+03  0.35486590566E+03  0.27530384857E+03 0.  0.
         25    2    3    3    0    0 -0.39292098290E+02  0.51050443922E+02  0.11187181535E+03  0.17827177830E+03  0.12294513840E+03 0.  0.
         25    2    3    3    0    0  0.39292098290E+02 -0.51050443922E+02  0.11204245835E+03  0.17659412736E+03  0.12034100105E+03 0.  0.
          5    1    4    4  502    0 -0.49551512053E+02  0.23052075472E+02 -0.72996372148E+01  0.55336472907E+02  0.47000000000E+01 0. -1.
         -5    1    4    4    0  502  0.10259413762E+02  0.27998368450E+02  0.11917145257E+03  0.12293530540E+03  0.47000000000E+01 0. -1.
          5    1    5    5  503    0 -0.16110013117E+02  0.22790514888E+02 -0.36211511718E+01  0.28533188173E+02  0.47000000000E+01 0. -1.
         -5    1    5    5    0  503  0.55402111407E+02 -0.73840958810E+02  0.11566360952E+03  0.14806093919E+03  0.47000000000E+01 0. -1.
<mgrwt>
<rscale>  0 0.27530385E+03</rscale>
<asrwt>0</asrwt>
<pdfrwt beam="1">  1        2 0.10073203E-01 0.27530385E+03</pdfrwt>
<pdfrwt beam="2">  1       -2 0.44521551E-01 0.27530385E+03</pdfrwt>
<totfact> 0.30593812E+03</totfact>
</mgrwt>
</event>
<event>
 9    1  0.2065703E-002  0.2760042E+03  0.7818608E-02  0.1097892E+00
          2   -1    0    0  501    0  0.00000000000E+00  0.00000000000E+00  0.29069386204E+03  0.29069386204E+03  0.00000000000E+00 0. -1.
         -2   -1    0    0    0  501 -0.00000000000E+00 -0.00000000000E+00 -0.65514235505E+02  0.65514235505E+02  0.00000000000E+00 0. -1.
         36    2    1    2    0    0 -0.71054273576E-14 -0.71054273576E-14  0.22517962654E+03  0.35620809755E+03  0.27600424734E+03 0.  0.
         25    2    3    3    0    0  0.47873098410E+02 -0.35554789992E+02  0.13570148287E+03  0.19209774227E+03  0.12219113506E+03 0.  0.
         25    2    3    3    0    0 -0.47873098410E+02  0.35554789992E+02  0.89478143665E+02  0.16411035528E+03  0.12397537608E+03 0.  0.
          5    1    4    4  502    0  0.87806775893E+02 -0.27318159214E+02  0.74674937087E+02  0.11855272221E+03  0.47000000000E+01 0.  1.
         -5    1    4    4    0  502 -0.39933677484E+02 -0.82366307787E+01  0.61026545787E+02  0.73545020053E+02  0.47000000000E+01 0.  1.
          5    1    5    5  503    0  0.36795973000E+02  0.34063676174E+02  0.48493922320E+02  0.69914434600E+02  0.47000000000E+01 0. -1.
         -5    1    5    5    0  503 -0.84669071409E+02  0.14911138187E+01  0.40984221344E+02  0.94195920681E+02  0.47000000000E+01 0. -1.
<mgrwt>
<rscale>  0 0.27600425E+03</rscale>
<asrwt>0</asrwt>
<pdfrwt beam="1">  1        2 0.44722132E-01 0.27600425E+03</pdfrwt>
<pdfrwt beam="2">  1       -2 0.10079113E-01 0.27600425E+03</pdfrwt>
<totfact> 0.73602879E+03</totfact>
</mgrwt>
</event>
<event>
 9    1  0.2065703E-002  0.2745874E+03  0.7818608E-02  0.1098682E+00
          1   -1    0    0  501    0  0.00000000000E+00  0.00000000000E+00  0.97987862926E+02  0.97987862926E+02  0.00000000000E+00 0. -1.
         -1   -1    0    0    0  501 -0.00000000000E+00 -0.00000000000E+00 -0.19236622326E+03  0.19236622326E+03  0.00000000000E+00 0. -1.
         36    2    1    2    0    0 -0.28421709430E-13 -0.71054273576E-14 -0.94378360336E+02  0.29035408619E+03  0.27458736400E+03 0.  0.
         25    2    3    3    0    0 -0.58430861368E+02 -0.18996967634E+02 -0.50346679053E+02  0.14724337163E+03  0.12397891780E+03 0.  0.
         25    2    3    3    0    0  0.58430861368E+02  0.18996967634E+02 -0.44031681283E+02  0.14311071456E+03  0.12151887641E+03 0.  0.
          5    1    4    4  502    0 -0.71993049276E+02 -0.46498009995E+02 -0.69796613055E+02  0.11062875427E+03  0.47000000000E+01 0.  1.
         -5    1    4    4    0  502  0.13562187908E+02  0.27501042361E+02  0.19449934003E+02  0.36614617361E+02  0.47000000000E+01 0.  1.
          5    1    5    5  503    0  0.81718127099E+01 -0.49771628418E+02 -0.20224064438E+02  0.54544443353E+02  0.47000000000E+01 0.  1.
         -5    1    5    5    0  503  0.50259048658E+02  0.68768596052E+02 -0.23807616846E+02  0.88566271203E+02  0.47000000000E+01 0.  1.
<mgrwt>
<rscale>  0 0.27458736E+03</rscale>
<asrwt>0</asrwt>
<pdfrwt beam="1">  1        1 0.15075056E-01 0.27458736E+03</pdfrwt>
<pdfrwt beam="2">  1       -1 0.29594804E-01 0.27458736E+03</pdfrwt>
<totfact> 0.38500718E+03</totfact>
</mgrwt>
</event>
<event>
 9    1  0.2065703E-002  0.2744448E+03  0.7818608E-02  0.1098762E+00
          2   -1    0    0  501    0  0.00000000000E+00  0.00000000000E+00  0.17557687259E+03  0.17557687259E+03  0.00000000000E+00 0. -1.
         -2   -1    0    0    0  501 -0.00000000000E+00 -0.00000000000E+00 -0.10724638751E+03  0.10724638751E+03  0.00000000000E+00 0. -1.
         36    2    1    2    0    0  0.71054273576E-14 -0.71054273576E-14  0.68330485081E+02  0.28282326010E+03  0.27444478727E+03 0.  0.
         25    2    3    3    0    0  0.28890502153E+02 -0.19452509767E+02 -0.11491239211E+02  0.12976954450E+03  0.12447901370E+03 0.  0.
         25    2    3    3    0    0 -0.28890502153E+02  0.19452509767E+02  0.79821724293E+02  0.15305371560E+03  0.12586052176E+03 0.  0.
          5    1    4    4  502    0  0.57327660416E+01 -0.70533716396E+02  0.50653049164E+01  0.71102862594E+02  0.47000000000E+01 0. -1.
         -5    1    4    4    0  502  0.23157736111E+02  0.51081206630E+02 -0.16556544128E+02  0.58666681907E+02  0.47000000000E+01 0. -1.
          5    1    5    5  503    0 -0.15848443408E+02 -0.41154134673E+02 -0.83873767644E+01  0.45136172281E+02  0.47000000000E+01 0. -1.
         -5    1    5    5    0  503 -0.13042058744E+02  0.60606644440E+02  0.88209101057E+02  0.10791754332E+03  0.47000000000E+01 0. -1.
<mgrwt>
<rscale>  0 0.27444479E+03</rscale>
<asrwt>0</asrwt>
<pdfrwt beam="1">  1        2 0.27011827E-01 0.27444479E+03</pdfrwt>
<pdfrwt beam="2">  1       -2 0.16499444E-01 0.27444479E+03</pdfrwt>
<totfact> 0.57101977E+03</totfact>
</mgrwt>
</event>
<event>
 9    1  0.2065703E-002  0.2753097E+03  0.7818608E-02  0.1098279E+00
         -2   -1    0    0    0  501 -0.00000000000E+00  0.00000000000E+00  0.59044177571E+02  0.59044177571E+02  0.00000000000E+00 0. -1.
          2   -1    0    0  501    0  0.00000000000E+00 -0.00000000000E+00 -0.32092680327E+03  0.32092680327E+03  0.00000000000E+00 0. -1.
         36    2    1    2    0    0  0.00000000000E+00  0.17763568394E-14 -0.26188262570E+03  0.37997098084E+03  0.27530971039E+03 0.  0.
         25    2    3    3    0    0 -0.45311302812E+02 -0.41980236351E+01 -0.16407598693E+03  0.21310461446E+03  0.12814799902E+03 0.  0.
         25    2    3    3    0    0  0.45311302812E+02  0.41980236351E+01 -0.97806638762E+02  0.16686636638E+03  0.12730871171E+03 0.  0.
          5    1    4    4  502    0 -0.46833513064E+02  0.93444949310E+01  0.40903464092E+00  0.47989111690E+02  0.47000000000E+01 0. -1.
         -5    1    4    4    0  502  0.15222102525E+01 -0.13542518566E+02 -0.16448502158E+03  0.16511550277E+03  0.47000000000E+01 0. -1.
          5    1    5    5  503    0  0.55876300006E+02  0.21480699238E+02 -0.12138699647E+03  0.13542700711E+03  0.47000000000E+01 0. -1.
         -5    1    5    5    0  503 -0.10564997194E+02 -0.17282675603E+02  0.23580357706E+02  0.31439359269E+02  0.47000000000E+01 0. -1.
<mgrwt>
<rscale>  0 0.27530971E+03</rscale>
<asrwt>0</asrwt>
<pdfrwt beam="1">  1        2 0.49373356E-01 0.27530971E+03</pdfrwt>
<pdfrwt beam="2">  1       -2 0.90837193E-02 0.27530971E+03</pdfrwt>
<totfact> 0.78011318E+03</totfact>
</mgrwt>
</event>
<event>
 9    1  0.2065703E-002  0.2747965E+03  0.7818608E-02  0.1098565E+00
         -1   -1    0    0    0  501 -0.00000000000E+00  0.00000000000E+00  0.99249144327E+01  0.99249144327E+01  0.00000000000E+00 0.  1.
          1   -1    0    0  501    0  0.00000000000E+00 -0.00000000000E+00 -0.19021100558E+04  0.19021100558E+04  0.00000000000E+00 0.  1.
         36    2    1    2    0    0  0.71054273576E-14 -0.71054273576E-14 -0.18921851414E+04  0.19120349702E+04  0.27479650322E+03 0.  0.
         25    2    3    3    0    0 -0.58796897737E+02  0.21621170266E+02 -0.10959988127E+04  0.11045854042E+04  0.12235590453E+03 0.  0.
         25    2    3    3    0    0  0.58796897737E+02 -0.21621170266E+02 -0.79618632863E+03  0.80744956607E+03  0.11890156293E+03 0.  0.
          5    1    4    4  502    0 -0.94414020674E+02  0.20728911034E+02 -0.91119390907E+03  0.91631879004E+03  0.47000000000E+01 0. -1.
         -5    1    4    4    0  502  0.35617122937E+02  0.89225923175E+00 -0.18480490367E+03  0.18826661413E+03  0.47000000000E+01 0. -1.
          5    1    5    5  503    0  0.25047992795E+02 -0.69507629111E+02 -0.38123042876E+03  0.38835221419E+03  0.47000000000E+01 0. -1.
         -5    1    5    5    0  503  0.33748904942E+02  0.47886458845E+02 -0.41495589986E+03  0.41909735188E+03  0.47000000000E+01 0. -1.
<mgrwt>
<rscale>  0 0.27479650E+03</rscale>
<asrwt>0</asrwt>
<pdfrwt beam="1">  1        1 0.29263240E+00 0.27479650E+03</pdfrwt>
<pdfrwt beam="2">  1       -1 0.15269095E-02 0.27479650E+03</pdfrwt>
<totfact> 0.39721004E+03</totfact>
</mgrwt>
</event>
<event>
 9    1  0.2065703E-002  0.2751101E+03  0.7818608E-02  0.1098390E+00
         -2   -1    0    0    0  501 -0.00000000000E+00  0.00000000000E+00  0.22834912543E+03  0.22834912543E+03  0.00000000000E+00 0. -1.
          2   -1    0    0  501    0  0.00000000000E+00 -0.00000000000E+00 -0.82861695635E+02  0.82861695635E+02  0.00000000000E+00 0. -1.
         36    2    1    2    0    0  0.00000000000E+00  0.00000000000E+00  0.14548742980E+03  0.31121082107E+03  0.27511012871E+03 0.  0.
         25    2    3    3    0    0  0.24594575097E+02 -0.44242741867E+02  0.52624608334E+02  0.14815377191E+03  0.12891034635E+03 0.  0.
         25    2    3    3    0    0 -0.24594575097E+02  0.44242741867E+02  0.92862821466E+02  0.16305704916E+03  0.12410392556E+03 0.  0.
          5    1    4    4  502    0  0.72631349322E+02 -0.58705749301E+00  0.20741475537E+02  0.75683263330E+02  0.47000000000E+01 0. -1.
         -5    1    4    4    0  502 -0.48036774225E+02 -0.43655684374E+02  0.31883132798E+02  0.72470508575E+02  0.47000000000E+01 0. -1.
          5    1    5    5  503    0  0.12761602045E+02  0.30704005650E+01 -0.27255338352E+02  0.30614201199E+02  0.47000000000E+01 0. -1.
         -5    1    5    5    0  503 -0.37356177142E+02  0.41172341302E+02  0.12011815982E+03  0.13244284796E+03  0.47000000000E+01 0. -1.
<mgrwt>
<rscale>  0 0.27511013E+03</rscale>
<asrwt>0</asrwt>
<pdfrwt beam="1">  1        2 0.12747953E-01 0.27511013E+03</pdfrwt>
<pdfrwt beam="2">  1       -2 0.35130634E-01 0.27511013E+03</pdfrwt>
<totfact> 0.36013162E+03</totfact>
</mgrwt>
</event>
<event>
 9    1  0.2065703E-002  0.2749459E+03  0.7818608E-02  0.1098482E+00
         -1   -1    0    0    0  501 -0.00000000000E+00  0.00000000000E+00  0.71041743233E+01  0.71041743233E+01  0.00000000000E+00 0.  1.
          1   -1    0    0  501    0  0.00000000000E+00 -0.00000000000E+00 -0.26602400581E+04  0.26602400581E+04  0.00000000000E+00 0.  1.
         36    2    1    2    0    0 -0.62172489379E-14  0.71054273576E-14 -0.26531358837E+04  0.26673442324E+04  0.27494587914E+03 0.  0.
         25    2    3    3    0    0 -0.79588574331E+01  0.28563725834E+02 -0.86626718495E+03  0.87570177310E+03  0.12472180982E+03 0.  0.
         25    2    3    3    0    0  0.79588574331E+01 -0.28563725834E+02 -0.17868686988E+04  0.17916424593E+04  0.12729385436E+03 0.  0.
          5    1    4    4  502    0 -0.33597198449E+02  0.69694872811E+02 -0.60387775607E+03  0.60883214543E+03  0.47000000000E+01 0.  1.
         -5    1    4    4    0  502  0.25638341016E+02 -0.41131146978E+02 -0.26238942888E+03  0.26686962766E+03  0.47000000000E+01 0.  1.
          5    1    5    5  503    0  0.75415449937E+01  0.48619322960E+02 -0.92199427959E+03  0.92331806820E+03  0.47000000000E+01 0.  1.
         -5    1    5    5    0  503  0.41731243941E+00 -0.77183048793E+02 -0.86487441920E+03  0.86832439109E+03  0.47000000000E+01 0.  1.
<mgrwt>
<rscale>  0 0.27494588E+03</rscale>
<asrwt>0</asrwt>
<pdfrwt beam="1">  1        1 0.40926780E+00 0.27494588E+03</pdfrwt>
<pdfrwt beam="2">  1       -1 0.10929496E-02 0.27494588E+03</pdfrwt>
<totfact> 0.20481168E+03</totfact>
</mgrwt>
</event>
<event>
 9    1  0.2065703E-002  0.2755845E+03  0.7818608E-02  0.1098125E+00
          1   -1    0    0  501    0  0.00000000000E+00  0.00000000000E+00  0.80659684334E+02  0.80659684334E+02  0.00000000000E+00 0. -1.
         -1   -1    0    0    0  501 -0.00000000000E+00 -0.00000000000E+00 -0.23539279929E+03  0.23539279929E+03  0.00000000000E+00 0. -1.
         36    2    1    2    0    0  0.00000000000E+00  0.00000000000E+00 -0.15473311495E+03  0.31605248362E+03  0.27558453429E+03 0.  0.
         25    2    3    3    0    0 -0.63221087558E+01 -0.37287421348E+02 -0.23908859204E+02  0.13520235629E+03  0.12758417907E+03 0.  0.
         25    2    3    3    0    0  0.63221087558E+01  0.37287421348E+02 -0.13082425575E+03  0.18085012733E+03  0.11900194038E+03 0.  0.
          5    1    4    4  502    0  0.46309800364E+02 -0.31093509893E+02  0.26479917838E+02  0.61924793225E+02  0.47000000000E+01 0. -1.
         -5    1    4    4    0  502 -0.52631909120E+02 -0.61939114554E+01 -0.50388777042E+02  0.73277563064E+02  0.47000000000E+01 0. -1.
          5    1    5    5  503    0  0.11441152312E+02 -0.40304554631E+02 -0.23605609201E+02  0.48318442400E+02  0.47000000000E+01 0.  1.
         -5    1    5    5    0  503 -0.51190435562E+01  0.77591975979E+02 -0.10721864655E+03  0.13253168493E+03  0.47000000000E+01 0.  1.
<mgrwt>
<rscale>  0 0.27558453E+03</rscale>
<asrwt>0</asrwt>
<pdfrwt beam="1">  1        1 0.12409182E-01 0.27558453E+03</pdfrwt>
<pdfrwt beam="2">  1       -1 0.36214276E-01 0.27558453E+03</pdfrwt>
<totfact> 0.35165339E+03</totfact>
</mgrwt>
</event>
<event>
 9    1  0.2065703E-002  0.2759543E+03  0.7818608E-02  0.1097919E+00
          2   -1    0    0  501    0  0.00000000000E+00  0.00000000000E+00  0.50723853047E+03  0.50723853047E+03  0.00000000000E+00 0. -1.
         -2   -1    0    0    0  501 -0.00000000000E+00 -0.00000000000E+00 -0.37532028153E+02  0.37532028153E+02  0.00000000000E+00 0. -1.
         36    2    1    2    0    0  0.00000000000E+00  0.00000000000E+00  0.46970650232E+03  0.54477055863E+03  0.27595427742E+03 0.  0.
         25    2    3    3    0    0 -0.11930597673E+02  0.11588018138E+02  0.13164885984E+03  0.18353527648E+03  0.12679571795E+03 0.  0.
         25    2    3    3    0    0  0.11930597673E+02 -0.11588018138E+02  0.33805764248E+03  0.36123528215E+03  0.12621940463E+03 0.  0.
          5    1    4    4  502    0  0.96370854528E+01  0.56370267274E+02  0.11887607666E+03  0.13200034868E+03  0.47000000000E+01 0. -1.
         -5    1    4    4    0  502 -0.21567683125E+02 -0.44782249136E+02  0.12772783176E+02  0.51534927798E+02  0.47000000000E+01 0. -1.
          5    1    5    5  503    0 -0.34936207687E+01  0.44074882143E+02  0.47932640339E+02  0.65379114646E+02  0.47000000000E+01 0.  1.
         -5    1    5    5    0  503  0.15424218441E+02 -0.55662900281E+02  0.29012500214E+03  0.29585616750E+03  0.47000000000E+01 0.  1.
<mgrwt>
<rscale>  0 0.27595428E+03</rscale>
<asrwt>0</asrwt>
<pdfrwt beam="1">  1        2 0.78036692E-01 0.27595428E+03</pdfrwt>
<pdfrwt beam="2">  1       -2 0.57741586E-02 0.27595428E+03</pdfrwt>
<totfact> 0.95639970E+03</totfact>
</mgrwt>
</event>
<event>
 9    1  0.2065703E-002  0.2747312E+03  0.7818608E-02  0.1098602E+00
          1   -1    0    0  501    0  0.00000000000E+00  0.00000000000E+00  0.21116530742E+04  0.21116530742E+04  0.00000000000E+00 0.  1.
         -1   -1    0    0    0  501 -0.00000000000E+00 -0.00000000000E+00 -0.89358013671E+01  0.89358013671E+01  0.00000000000E+00 0.  1.
         36    2    1    2    0    0 -0.71054273576E-14  0.00000000000E+00  0.21027172728E+04  0.21205888755E+04  0.27473123177E+03 0.  0.
         25    2    3    3    0    0 -0.62877702596E+02  0.14336211501E+02  0.10422949911E+04  0.10507245891E+04  0.11612140765E+03 0.  0.
         25    2    3    3    0    0  0.62877702596E+02 -0.14336211501E+02  0.10604222817E+04  0.10698642864E+04  0.12631327454E+03 0.  0.
          5    1    4    4  502    0  0.11335464951E+02  0.40526925229E+02  0.59734409769E+03  0.59884303910E+03  0.47000000000E+01 0.  1.
         -5    1    4    4    0  502 -0.74213167546E+02 -0.26190713728E+02  0.44495089339E+03  0.45188155002E+03  0.47000000000E+01 0.  1.
          5    1    5    5  503    0 -0.73422754573E+01 -0.58013098499E+02  0.40408004793E+03  0.40831630355E+03  0.47000000000E+01 0. -1.
         -5    1    5    5    0  503  0.70219978053E+02  0.43676886997E+02  0.65634223380E+03  0.66154798288E+03  0.47000000000E+01 0. -1.
<mgrwt>
<rscale>  0 0.27473123E+03</rscale>
<asrwt>0</asrwt>
<pdfrwt beam="1">  1        1 0.32486930E+00 0.27473123E+03</pdfrwt>
<pdfrwt beam="2">  1       -1 0.13747404E-02 0.27473123E+03</pdfrwt>
<totfact> 0.33824522E+03</totfact>
</mgrwt>
</event>
<event>
 9    1  0.2065703E-002  0.2755296E+03  0.7818608E-02  0.1098156E+00
         -2   -1    0    0    0  501 -0.00000000000E+00  0.00000000000E+00  0.20282600109E+03  0.20282600109E+03  0.00000000000E+00 0.  1.
          2   -1    0    0  501    0  0.00000000000E+00 -0.00000000000E+00 -0.93573479044E+02  0.93573479044E+02  0.00000000000E+00 0.  1.
         36    2    1    2    0    0  0.00000000000E+00  0.00000000000E+00  0.10925252205E+03  0.29639948014E+03  0.27552955967E+03 0.  0.
         25    2    3    3    0    0  0.42834649632E+02 -0.41711644792E+01  0.19272685906E+02  0.13664131874E+03  0.12824666757E+03 0.  0.
         25    2    3    3    0    0 -0.42834649632E+02  0.41711644792E+01  0.89979836143E+02  0.15975816139E+03  0.12479620746E+03 0.  0.
          5    1    4    4  502    0  0.51303019463E+02 -0.38441566761E+02  0.56168214700E+02  0.85362241089E+02  0.47000000000E+01 0.  1.
         -5    1    4    4    0  502 -0.84683698306E+01  0.34270402282E+02 -0.36895528794E+02  0.51279077655E+02  0.47000000000E+01 0.  1.
          5    1    5    5  503    0 -0.47360926688E+02 -0.31996101318E+02  0.10532972956E+03  0.11993018722E+03  0.47000000000E+01 0.  1.
         -5    1    5    5    0  503  0.45262770553E+01  0.36167265797E+02 -0.15349893417E+02  0.39827974178E+02  0.47000000000E+01 0.  1.
<mgrwt>
<rscale>  0 0.27552956E+03</rscale>
<asrwt>0</asrwt>
<pdfrwt beam="1">  1        2 0.14395920E-01 0.27552956E+03</pdfrwt>
<pdfrwt beam="2">  1       -2 0.31204000E-01 0.27552956E+03</pdfrwt>
<totfact> 0.38741683E+03</totfact>
</mgrwt>
</event>
<event>
 9    1  0.2065703E-002  0.2748892E+03  0.7818608E-02  0.1098514E+00
          3   -1    0    0  501    0  0.00000000000E+00  0.00000000000E+00  0.10895189273E+04  0.10895189273E+04  0.00000000000E+00 0. -1.
         -3   -1    0    0    0  501 -0.00000000000E+00 -0.00000000000E+00 -0.17338857506E+02  0.17338857506E+02  0.00000000000E+00 0. -1.
         36    2    1    2    0    0  0.35527136788E-14  0.35527136788E-14  0.10721800698E+04  0.11068577848E+04  0.27488916625E+03 0.  0.
         25    2    3    3    0    0 -0.43596904045E+00 -0.80296974898E+01  0.73784565949E+03  0.74945000571E+03  0.13112752463E+03 0.  0.
         25    2    3    3    0    0  0.43596904045E+00  0.80296974898E+01  0.33433441030E+03  0.35740777909E+03  0.12607996089E+03 0.  0.
          5    1    4    4  502    0  0.36917935320E+02  0.32048589430E+02  0.12749947655E+03  0.13663181384E+03  0.47000000000E+01 0. -1.
         -5    1    4    4    0  502 -0.37353904360E+02 -0.40078286920E+02  0.61034618294E+03  0.61281819187E+03  0.47000000000E+01 0. -1.
          5    1    5    5  503    0 -0.24285968602E+02 -0.14898548673E+02  0.31859643491E+03  0.31990241225E+03  0.47000000000E+01 0.  1.
         -5    1    5    5    0  503  0.24721937643E+02  0.22928246163E+02  0.15737975384E+02  0.37505366844E+02  0.47000000000E+01 0.  1.
<mgrwt>
<rscale>  0 0.27488917E+03</rscale>
<asrwt>0</asrwt>
<pdfrwt beam="1">  1        3 0.16761824E+00 0.27488917E+03</pdfrwt>
<pdfrwt beam="2">  1       -3 0.26675174E-02 0.27488917E+03</pdfrwt>
<totfact> 0.40022826E+02</totfact>
</mgrwt>
</event>
<event>
 9    1  0.2065703E-002  0.2744839E+03  0.7818608E-02  0.1098740E+00
         -2   -1    0    0    0  501 -0.00000000000E+00  0.00000000000E+00  0.42352004974E+02  0.42352004974E+02  0.00000000000E+00 0. -1.
          2   -1    0    0  501    0  0.00000000000E+00 -0.00000000000E+00 -0.44473357652E+03  0.44473357652E+03  0.00000000000E+00 0. -1.
         36    2    1    2    0    0  0.00000000000E+00 -0.10658141036E-13 -0.40238157155E+03  0.48708558150E+03  0.27448394230E+03 0.  0.
         25    2    3    3    0    0 -0.39401368524E+02 -0.94224788266E+01 -0.25812977837E+03  0.29006985006E+03  0.12596937915E+03 0.  0.
         25    2    3    3    0    0  0.39401368524E+02  0.94224788266E+01 -0.14425179318E+03  0.19701573144E+03  0.12792719668E+03 0.  0.
          5    1    4    4  502    0  0.23770625828E+02 -0.36369498247E+02 -0.18310576158E+03  0.18824875292E+03  0.47000000000E+01 0. -1.
         -5    1    4    4    0  502 -0.63171994352E+02  0.26947019420E+02 -0.75024016794E+02  0.10182109714E+03  0.47000000000E+01 0. -1.
          5    1    5    5  503    0  0.32478637524E+02  0.67316151924E+02 -0.70197256197E+02  0.10264536513E+03  0.47000000000E+01 0.  1.
         -5    1    5    5    0  503  0.69227309997E+01 -0.57893673098E+02 -0.74054536981E+02  0.94370366306E+02  0.47000000000E+01 0.  1.
<mgrwt>
<rscale>  0 0.27448394E+03</rscale>
<asrwt>0</asrwt>
<pdfrwt beam="1">  1        2 0.68420550E-01 0.27448394E+03</pdfrwt>
<pdfrwt beam="2">  1       -2 0.65156931E-02 0.27448394E+03</pdfrwt>
<totfact> 0.91902719E+03</totfact>
</mgrwt>
</event>
<event>
 9    1  0.2065703E-002  0.2744678E+03  0.7818608E-02  0.1098749E+00
          2   -1    0    0  501    0  0.00000000000E+00  0.00000000000E+00  0.62687671194E+03  0.62687671194E+03  0.00000000000E+00 0.  1.
         -2   -1    0    0    0  501 -0.00000000000E+00 -0.00000000000E+00 -0.30042807828E+02  0.30042807828E+02  0.00000000000E+00 0.  1.
         36    2    1    2    0    0  0.14210854715E-13 -0.14210854715E-13  0.59683390411E+03  0.65691951977E+03  0.27446775103E+03 0.  0.
         25    2    3    3    0    0 -0.44183512864E+02  0.36358621529E+02  0.24335377381E+03  0.27830192323E+03  0.12229787030E+03 0.  0.
         25    2    3    3    0    0  0.44183512864E+02 -0.36358621529E+02  0.35348013030E+03  0.37861759653E+03  0.12299979561E+03 0.  0.
          5    1    4    4  502    0 -0.28136121416E+02  0.81523838532E+02  0.14462379588E+03  0.16845150612E+03  0.47000000000E+01 0. -1.
         -5    1    4    4    0  502 -0.16047391447E+02 -0.45165217003E+02  0.98729977927E+02  0.10985041712E+03  0.47000000000E+01 0. -1.
          5    1    5    5  503    0  0.50567643357E+02 -0.31082518929E+02  0.58460019588E+02  0.83443833971E+02  0.47000000000E+01 0. -1.
         -5    1    5    5    0  503 -0.63841304933E+01 -0.52761025999E+01  0.29502011071E+03  0.29517376256E+03  0.47000000000E+01 0. -1.
<mgrwt>
<rscale>  0 0.27446775E+03</rscale>
<asrwt>0</asrwt>
<pdfrwt beam="1">  1        2 0.96442561E-01 0.27446775E+03</pdfrwt>
<pdfrwt beam="2">  1       -2 0.46219709E-02 0.27446775E+03</pdfrwt>
<totfact> 0.10526794E+04</totfact>
</mgrwt>
</event>
<event>
 9    1  0.2065703E-002  0.2751794E+03  0.7818608E-02  0.1098351E+00
         -1   -1    0    0    0  501 -0.00000000000E+00  0.00000000000E+00  0.98552225780E+03  0.98552225780E+03  0.00000000000E+00 0.  1.
          1   -1    0    0  501    0  0.00000000000E+00 -0.00000000000E+00 -0.19209026943E+02  0.19209026943E+02  0.00000000000E+00 0.  1.
         36    2    1    2    0    0  0.71054273576E-14 -0.17763568394E-14  0.96631323086E+03  0.10047312847E+04  0.27517938588E+03 0.  0.
         25    2    3    3    0    0 -0.40630235420E+02  0.21717885337E+01  0.32895309937E+03  0.35379915461E+03  0.12372617960E+03 0.  0.
         25    2    3    3    0    0  0.40630235420E+02 -0.21717885337E+01  0.63736013148E+03  0.65093213014E+03  0.12581402203E+03 0.  0.
          5    1    4    4  502    0 -0.51717113005E+02  0.45909880929E+02  0.27353603928E+03  0.28218155809E+03  0.47000000000E+01 0.  1.
         -5    1    4    4    0  502  0.11086877586E+02 -0.43738092395E+02  0.55417060096E+02  0.71617596516E+02  0.47000000000E+01 0.  1.
          5    1    5    5  503    0  0.83986348321E+02 -0.10548772207E+02  0.34759442542E+03  0.35778339520E+03  0.47000000000E+01 0. -1.
         -5    1    5    5    0  503 -0.43356112901E+02  0.83769836735E+01  0.28976570607E+03  0.29314873494E+03  0.47000000000E+01 0. -1.
<mgrwt>
<rscale>  0 0.27517939E+03</rscale>
<asrwt>0</asrwt>
<pdfrwt beam="1">  1        1 0.29552357E-02 0.27517939E+03</pdfrwt>
<pdfrwt beam="2">  1       -1 0.15161877E+00 0.27517939E+03</pdfrwt>
<totfact> 0.12791642E+03</totfact>
</mgrwt>
</event>
<event>
 9    1  0.2065703E-002  0.2767055E+03  0.7818608E-02  0.1097502E+00
          2   -1    0    0  501    0  0.00000000000E+00  0.00000000000E+00  0.92091979595E+02  0.92091979595E+02  0.00000000000E+00 0. -1.
         -2   -1    0    0    0  501 -0.00000000000E+00 -0.00000000000E+00 -0.20785177336E+03  0.20785177336E+03  0.00000000000E+00 0. -1.
         36    2    1    2    0    0  0.35527136788E-14  0.00000000000E+00 -0.11575979377E+03  0.29994375296E+03  0.27670548438E+03 0.  0.
         25    2    3    3    0    0  0.70433364427E+01 -0.31684281138E+02 -0.93171635842E+02  0.16873174307E+03  0.13687930864E+03 0.  0.
         25    2    3    3    0    0 -0.70433364427E+01  0.31684281138E+02 -0.22588157927E+02  0.13121200989E+03  0.12511140796E+03 0.  0.
          5    1    4    4  502    0  0.38364244998E+02  0.10950156964E+02 -0.10662635637E+03  0.11394292916E+03  0.47000000000E+01 0. -1.
         -5    1    4    4    0  502 -0.31320908555E+02 -0.42634438102E+02  0.13454720529E+02  0.54788813908E+02  0.47000000000E+01 0. -1.
          5    1    5    5  503    0  0.31279621773E+02  0.25168674749E+02 -0.63057091813E+02  0.74901026393E+02  0.47000000000E+01 0.  1.
         -5    1    5    5    0  503 -0.38322958215E+02  0.65156063894E+01  0.40468933886E+02  0.56310983501E+02  0.47000000000E+01 0.  1.
<mgrwt>
<rscale>  0 0.27670548E+03</rscale>
<asrwt>0</asrwt>
<pdfrwt beam="1">  1        2 0.14167997E-01 0.27670548E+03</pdfrwt>
<pdfrwt beam="2">  1       -2 0.31977196E-01 0.27670548E+03</pdfrwt>
<totfact> 0.37759776E+03</totfact>
</mgrwt>
</event>
<event>
 9    1  0.2065703E-002  0.2752286E+03  0.7818608E-02  0.1098324E+00
         -2   -1    0    0    0  501 -0.00000000000E+00  0.00000000000E+00  0.55740444264E+02  0.55740444264E+02  0.00000000000E+00 0.  1.
          2   -1    0    0  501    0  0.00000000000E+00 -0.00000000000E+00 -0.33974788012E+03  0.33974788012E+03  0.00000000000E+00 0.  1.
         36    2    1    2    0    0  0.00000000000E+00  0.35527136788E-14 -0.28400743585E+03  0.39548832438E+03  0.27522861607E+03 0.  0.
         25    2    3    3    0    0 -0.44665489978E+02 -0.25494992608E+02 -0.18818452107E+03  0.23192735767E+03  0.12542680982E+03 0.  0.
         25    2    3    3    0    0  0.44665489978E+02  0.25494992608E+02 -0.95822914788E+02  0.16356096671E+03  0.12216856466E+03 0.  0.
          5    1    4    4  502    0  0.43037207022E+02 -0.15457229293E+02 -0.50330877290E+02  0.68164612039E+02  0.47000000000E+01 0.  1.
         -5    1    4    4    0  502 -0.87702697000E+02 -0.10037763315E+02 -0.13785364378E+03  0.16376274563E+03  0.47000000000E+01 0.  1.
          5    1    5    5  503    0  0.14177581566E+02 -0.47474095013E+02 -0.55913072091E+02  0.74854225980E+02  0.47000000000E+01 0.  1.
         -5    1    5    5    0  503  0.30487908412E+02  0.72969087621E+02 -0.39909842696E+02  0.88706740734E+02  0.47000000000E+01 0.  1.
<mgrwt>
<rscale>  0 0.27522862E+03</rscale>
<asrwt>0</asrwt>
<pdfrwt beam="1">  1        2 0.52268904E-01 0.27522862E+03</pdfrwt>
<pdfrwt beam="2">  1       -2 0.85754531E-02 0.27522862E+03</pdfrwt>
<totfact> 0.80323672E+03</totfact>
</mgrwt>
</event>
<event>
 9    1  0.2065703E-002  0.2751880E+03  0.7818608E-02  0.1098347E+00
          1   -1    0    0  501    0  0.00000000000E+00  0.00000000000E+00  0.41750946571E+02  0.41750946571E+02  0.00000000000E+00 0.  1.
         -1   -1    0    0    0  501 -0.00000000000E+00 -0.00000000000E+00 -0.45345339787E+03  0.45345339787E+03  0.00000000000E+00 0.  1.
         36    2    1    2    0    0 -0.71054273576E-14  0.00000000000E+00 -0.41170245130E+03  0.49520434444E+03  0.27518799819E+03 0.  0.
         25    2    3    3    0    0 -0.53590286460E+02  0.72827535117E+01 -0.28441263266E+03  0.31163601037E+03  0.11533212925E+03 0.  0.
         25    2    3    3    0    0  0.53590286460E+02 -0.72827535117E+01 -0.12728981864E+03  0.18356833408E+03  0.12070492138E+03 0.  0.
          5    1    4    4  502    0 -0.41667936145E+02 -0.24416849913E+02 -0.27034172511E+03  0.27466186083E+03  0.47000000000E+01 0. -1.
         -5    1    4    4    0  502 -0.11922350315E+02  0.31699603425E+02 -0.14070907557E+02  0.36974149535E+02  0.47000000000E+01 0. -1.
          5    1    5    5  503    0  0.82770846836E+02  0.16650345137E+02 -0.11665332766E+03  0.14407753445E+03  0.47000000000E+01 0. -1.
         -5    1    5    5    0  503 -0.29180560377E+02 -0.23933098649E+02 -0.10636490979E+02  0.39490799627E+02  0.47000000000E+01 0. -1.
<mgrwt>
<rscale>  0 0.27518800E+03</rscale>
<asrwt>0</asrwt>
<pdfrwt beam="1">  1        1 0.64232226E-02 0.27518800E+03</pdfrwt>
<pdfrwt beam="2">  1       -1 0.69762061E-01 0.27518800E+03</pdfrwt>
<totfact> 0.25324970E+03</totfact>
</mgrwt>
</event>
<event>
 9    1  0.2065703E-002  0.2753596E+03  0.7818608E-02  0.1098251E+00
         -2   -1    0    0    0  501 -0.00000000000E+00  0.00000000000E+00  0.72029047298E+02  0.72029047298E+02  0.00000000000E+00 0.  1.
          2   -1    0    0  501    0  0.00000000000E+00 -0.00000000000E+00 -0.26316790617E+03  0.26316790617E+03  0.00000000000E+00 0.  1.
         36    2    1    2    0    0  0.71054273576E-14 -0.71054273576E-14 -0.19113885887E+03  0.33519695346E+03  0.27535964527E+03 0.  0.
         25    2    3    3    0    0  0.29981212070E+02 -0.11252660152E+00 -0.15770753986E+03  0.20189080043E+03  0.12243096598E+03 0.  0.
         25    2    3    3    0    0 -0.29981212070E+02  0.11252660152E+00 -0.33431319005E+02  0.13330615303E+03  0.12551490591E+03 0.  0.
          5    1    4    4  502    0 -0.29816190037E+02  0.31678626878E+02 -0.19487868382E+02  0.47899974982E+02  0.47000000000E+01 0.  1.
         -5    1    4    4    0  502  0.59797402107E+02 -0.31791153479E+02 -0.13821967148E+03  0.15399082545E+03  0.47000000000E+01 0.  1.
          5    1    5    5  503    0 -0.11446034320E+02  0.47591936360E+02 -0.58408241649E+02  0.76351927289E+02  0.47000000000E+01 0. -1.
         -5    1    5    5    0  503 -0.18535177750E+02 -0.47479409759E+02  0.24976922644E+02  0.56954225743E+02  0.47000000000E+01 0. -1.
<mgrwt>
<rscale>  0 0.27535965E+03</rscale>
<asrwt>0</asrwt>
<pdfrwt beam="1">  1        2 0.40487370E-01 0.27535965E+03</pdfrwt>
<pdfrwt beam="2">  1       -2 0.11081392E-01 0.27535965E+03</pdfrwt>
<totfact> 0.70405042E+03</totfact>
</mgrwt>
</event>
<event>
 9    1  0.2065703E-002  0.2719313E+03  0.7818608E-02  0.1100179E+00
          2   -1    0    0  501    0  0.00000000000E+00  0.00000000000E+00  0.14764184726E+04  0.14764184726E+04  0.00000000000E+00 0. -1.
         -2   -1    0    0    0  501 -0.00000000000E+00 -0.00000000000E+00 -0.12521287998E+02  0.12521287998E+02  0.00000000000E+00 0. -1.
         36    2    1    2    0    0  0.00000000000E+00  0.00000000000E+00  0.14638971846E+04  0.14889397606E+04  0.27193132149E+03 0.  0.
         25    2    3    3    0    0  0.43834390312E+02  0.37825887492E+02  0.66649052539E+03  0.68026977079E+03  0.12330891731E+03 0.  0.
         25    2    3    3    0    0 -0.43834390312E+02 -0.37825887492E+02  0.79740665922E+03  0.80866998981E+03  0.12139819072E+03 0.  0.
          5    1    4    4  502    0  0.31800834926E+02  0.82662258941E+02  0.47195880975E+03  0.48022031429E+03  0.47000000000E+01 0.  1.
         -5    1    4    4    0  502  0.12033555386E+02 -0.44836371449E+02  0.19453171564E+03  0.20004945651E+03  0.47000000000E+01 0.  1.
          5    1    5    5  503    0 -0.61586796500E+02 -0.59145931259E+02  0.34690026775E+03  0.35728568464E+03  0.47000000000E+01 0.  1.
         -5    1    5    5    0  503  0.17752406188E+02  0.21320043767E+02  0.45050639147E+03  0.45138430517E+03  0.47000000000E+01 0.  1.
<mgrwt>
<rscale>  0 0.27193132E+03</rscale>
<asrwt>0</asrwt>
<pdfrwt beam="1">  1        2 0.22714117E+00 0.27193132E+03</pdfrwt>
<pdfrwt beam="2">  1       -2 0.19263532E-02 0.27193132E+03</pdfrwt>
<totfact> 0.11473068E+04</totfact>
</mgrwt>
</event>
<event>
 9    1  0.2065703E-002  0.2740744E+03  0.7818608E-02  0.1098970E+00
         -1   -1    0    0    0  501 -0.00000000000E+00  0.00000000000E+00  0.54036519252E+02  0.54036519252E+02  0.00000000000E+00 0.  1.
          1   -1    0    0  501    0  0.00000000000E+00 -0.00000000000E+00 -0.34752788623E+03  0.34752788623E+03  0.00000000000E+00 0.  1.
         36    2    1    2    0    0  0.00000000000E+00  0.00000000000E+00 -0.29349136698E+03  0.40156440549E+03  0.27407442285E+03 0.  0.
         25    2    3    3    0    0  0.21196939322E+02  0.27458449109E+02 -0.11396993654E+03  0.18050355911E+03  0.13560645911E+03 0.  0.
         25    2    3    3    0    0 -0.21196939322E+02 -0.27458449109E+02 -0.17952143044E+03  0.22106084638E+03  0.12424442502E+03 0.  0.
          5    1    4    4  502    0  0.18412198010E+02  0.82463440318E+02 -0.71769473877E+02  0.11096024245E+03  0.47000000000E+01 0. -1.
         -5    1    4    4    0  502  0.27847413125E+01 -0.55004991210E+02 -0.42200462661E+02  0.69543316652E+02  0.47000000000E+01 0. -1.
          5    1    5    5  503    0 -0.46005053403E+02  0.24728922343E+02 -0.14356064214E+03  0.15283891033E+03  0.47000000000E+01 0. -1.
         -5    1    5    5    0  503  0.24808114080E+02 -0.52187371452E+02 -0.35960788306E+02  0.68221936053E+02  0.47000000000E+01 0. -1.
<mgrwt>
<rscale>  0 0.27407442E+03</rscale>
<asrwt>0</asrwt>
<pdfrwt beam="1">  1        1 0.53465831E-01 0.27407442E+03</pdfrwt>
<pdfrwt beam="2">  1       -1 0.83133102E-02 0.27407442E+03</pdfrwt>
<totfact> 0.58560181E+03</totfact>
</mgrwt>
</event>
<event>
 9    1  0.2065703E-002  0.2750096E+03  0.7818608E-02  0.1098446E+00
          2   -1    0    0  501    0  0.00000000000E+00  0.00000000000E+00  0.14585819654E+04  0.14585819654E+04  0.00000000000E+00 0. -1.
         -2   -1    0    0    0  501 -0.00000000000E+00 -0.00000000000E+00 -0.12962976604E+02  0.12962976604E+02  0.00000000000E+00 0. -1.
         36    2    1    2    0    0  0.35527136788E-14  0.71054273576E-14  0.14456189888E+04  0.14715449420E+04  0.27500955541E+03 0.  0.
         25    2    3    3    0    0  0.25196642699E+02  0.15380643880E+02  0.48539516589E+03  0.50300133834E+03  0.12857077543E+03 0.  0.
         25    2    3    3    0    0 -0.25196642699E+02 -0.15380643880E+02  0.96022382288E+03  0.96854360363E+03  0.12318882704E+03 0.  0.
          5    1    4    4  502    0 -0.33516124796E+02  0.20784542045E+01  0.38018638615E+03  0.38169546606E+03  0.47000000000E+01 0.  1.
         -5    1    4    4    0  502  0.58712767495E+02  0.13302189675E+02  0.10520877974E+03  0.12130587229E+03  0.47000000000E+01 0.  1.
          5    1    5    5  503    0 -0.14843169513E+02  0.54078992829E+02  0.41883661865E+03  0.42260035526E+03  0.47000000000E+01 0. -1.
         -5    1    5    5    0  503 -0.10353473187E+02 -0.69459636709E+02  0.54138720423E+03  0.54594324837E+03  0.47000000000E+01 0. -1.
<mgrwt>
<rscale>  0 0.27500956E+03</rscale>
<asrwt>0</asrwt>
<pdfrwt beam="1">  1        2 0.22439710E+00 0.27500956E+03</pdfrwt>
<pdfrwt beam="2">  1       -2 0.19943052E-02 0.27500956E+03</pdfrwt>
<totfact> 0.11149043E+04</totfact>
</mgrwt>
</event>
<event>
 9    1  0.2065703E-002  0.2753965E+03  0.7818608E-02  0.1098230E+00
          2   -1    0    0  501    0  0.00000000000E+00  0.00000000000E+00  0.88856246671E+03  0.88856246671E+03  0.00000000000E+00 0. -1.
         -2   -1    0    0    0  501 -0.00000000000E+00 -0.00000000000E+00 -0.21338752088E+02  0.21338752088E+02  0.00000000000E+00 0. -1.
         36    2    1    2    0    0 -0.14210854715E-13  0.00000000000E+00  0.86722371462E+03  0.90990121880E+03  0.27539654458E+03 0.  0.
         25    2    3    3    0    0  0.33223447669E+02  0.18577742680E+02  0.57572058710E+03  0.59038478007E+03  0.12510421304E+03 0.  0.
         25    2    3    3    0    0 -0.33223447669E+02 -0.18577742680E+02  0.29150312752E+03  0.31951643873E+03  0.12517088826E+03 0.  0.
          5    1    4    4  502    0  0.45293342841E+02 -0.43619771819E+02  0.36086574211E+03  0.36633365287E+03  0.47000000000E+01 0.  1.
         -5    1    4    4    0  502 -0.12069895172E+02  0.62197514499E+02  0.21485484500E+03  0.22405112720E+03  0.47000000000E+01 0.  1.
          5    1    5    5  503    0 -0.70044187709E+02  0.15803136343E+02  0.22321579975E+03  0.23452784613E+03  0.47000000000E+01 0. -1.
         -5    1    5    5    0  503  0.36820740039E+02 -0.34380879024E+02  0.68287327769E+02  0.84988592607E+02  0.47000000000E+01 0. -1.
<mgrwt>
<rscale>  0 0.27539654E+03</rscale>
<asrwt>0</asrwt>
<pdfrwt beam="1">  1        2 0.13670189E+00 0.27539654E+03</pdfrwt>
<pdfrwt beam="2">  1       -2 0.32828856E-02 0.27539654E+03</pdfrwt>
<totfact> 0.11405204E+04</totfact>
</mgrwt>
</event>
<event>
 9    1  0.2065703E-002  0.2753079E+03  0.7818608E-02  0.1098280E+00
          1   -1    0    0  501    0  0.00000000000E+00  0.00000000000E+00  0.48065120118E+03  0.48065120118E+03  0.00000000000E+00 0. -1.
         -1   -1    0    0    0  501 -0.00000000000E+00 -0.00000000000E+00 -0.39422786677E+02  0.39422786677E+02  0.00000000000E+00 0. -1.
         36    2    1    2    0    0  0.53290705182E-14  0.00000000000E+00  0.44122841450E+03  0.52007398786E+03  0.27530789869E+03 0.  0.
         25    2    3    3    0    0  0.10752952130E+02 -0.46894027971E+02  0.16009058948E+03  0.20785786179E+03  0.12353630247E+03 0.  0.
         25    2    3    3    0    0 -0.10752952130E+02  0.46894027971E+02  0.28113782502E+03  0.31221612607E+03  0.12698723117E+03 0.  0.
          5    1    4    4  502    0  0.21764234785E+02 -0.60670146007E+02  0.21557389874E+02  0.68127524470E+02  0.47000000000E+01 0.  1.
         -5    1    4    4    0  502 -0.11011282655E+02  0.13776118036E+02  0.13853319961E+03  0.13973033732E+03  0.47000000000E+01 0.  1.
          5    1    5    5  503    0  0.22421297881E+02  0.33307918752E+02  0.14209171741E+02  0.42850001305E+02  0.47000000000E+01 0. -1.
         -5    1    5    5    0  503 -0.33174250010E+02  0.13586109218E+02  0.26692865328E+03  0.26936612476E+03  0.47000000000E+01 0. -1.
<mgrwt>
<rscale>  0 0.27530790E+03</rscale>
<asrwt>0</asrwt>
<pdfrwt beam="1">  1        1 0.73946334E-01 0.27530790E+03</pdfrwt>
<pdfrwt beam="2">  1       -1 0.60650445E-02 0.27530790E+03</pdfrwt>
<totfact> 0.62265564E+03</totfact>
</mgrwt>
</event>
<event>
 9    1  0.2065703E-002  0.2751696E+03  0.7818608E-02  0.1098357E+00
         -1   -1    0    0    0  501 -0.00000000000E+00  0.00000000000E+00  0.21468289143E+03  0.21468289143E+03  0.00000000000E+00 0. -1.
          1   -1    0    0  501    0  0.00000000000E+00 -0.00000000000E+00 -0.88174578987E+02  0.88174578987E+02  0.00000000000E+00 0. -1.
         36    2    1    2    0    0  0.00000000000E+00 -0.14210854715E-13  0.12650831244E+03  0.30285747042E+03  0.27516957366E+03 0.  0.
         25    2    3    3    0    0  0.30056831090E+02  0.51410858905E+02  0.60091489580E+02  0.14947666608E+03  0.12323066612E+03 0.  0.
         25    2    3    3    0    0 -0.30056831090E+02 -0.51410858905E+02  0.66416822863E+02  0.15338080434E+03  0.12477174068E+03 0.  0.
          5    1    4    4  502    0  0.48185524982E+02  0.14492753166E+02 -0.23850415556E+02  0.55882170988E+02  0.47000000000E+01 0.  1.
         -5    1    4    4    0  502 -0.18128693892E+02  0.36918105739E+02  0.83941905136E+02  0.93594495091E+02  0.47000000000E+01 0.  1.
          5    1    5    5  503    0  0.39930651576E+01 -0.57463224846E+02 -0.19219661693E+02  0.60905272142E+02  0.47000000000E+01 0.  1.
         -5    1    5    5    0  503 -0.34049896247E+02  0.60523659412E+01  0.85636484556E+02  0.92475532197E+02  0.47000000000E+01 0.  1.
<mgrwt>
<rscale>  0 0.27516957E+03</rscale>
<asrwt>0</asrwt>
<pdfrwt beam="1">  1        1 0.13565320E-01 0.27516957E+03</pdfrwt>
<pdfrwt beam="2">  1       -1 0.33028137E-01 0.27516957E+03</pdfrwt>
<totfact> 0.36666215E+03</totfact>
</mgrwt>
</event>
<event>
 9    1  0.2065703E-002  0.2756801E+03  0.7818608E-02  0.1098072E+00
          2   -1    0    0  501    0  0.00000000000E+00  0.00000000000E+00  0.17633122642E+04  0.17633122642E+04  0.00000000000E+00 0. -1.
         -2   -1    0    0    0  501 -0.00000000000E+00 -0.00000000000E+00 -0.10775109682E+02  0.10775109682E+02  0.00000000000E+00 0. -1.
         36    2    1    2    0    0 -0.14210854715E-13  0.00000000000E+00  0.17525371545E+04  0.17740873739E+04  0.27568012660E+03 0.  0.
         25    2    3    3    0    0  0.27364423234E+02 -0.52161368949E+02  0.87034096841E+03  0.88115881517E+03  0.12440995209E+03 0.  0.
         25    2    3    3    0    0 -0.27364423234E+02  0.52161368949E+02  0.88219618611E+03  0.89292855872E+03  0.12482660021E+03 0.  0.
          5    1    4    4  502    0  0.69892815132E+02  0.16047131454E+00  0.44812568293E+03  0.45356779985E+03  0.47000000000E+01 0. -1.
         -5    1    4    4    0  502 -0.42528391898E+02 -0.52321840263E+02  0.42221528548E+03  0.42759101532E+03  0.47000000000E+01 0. -1.
          5    1    5    5  503    0 -0.54699931746E+02  0.41500434651E+02  0.83014376791E+03  0.83299167703E+03  0.47000000000E+01 0.  1.
         -5    1    5    5    0  503  0.27335508512E+02  0.10660934298E+02  0.52052418204E+02  0.59936881689E+02  0.47000000000E+01 0.  1.
<mgrwt>
<rscale>  0 0.27568013E+03</rscale>
<asrwt>0</asrwt>
<pdfrwt beam="1">  1        2 0.27127858E+00 0.27568013E+03</pdfrwt>
<pdfrwt beam="2">  1       -2 0.16577106E-02 0.27568013E+03</pdfrwt>
<totfact> 0.10081703E+04</totfact>
</mgrwt>
</event>
<event>
 9    1  0.2065703E-002  0.2752137E+03  0.7818608E-02  0.1098332E+00
         -2   -1    0    0    0  501 -0.00000000000E+00  0.00000000000E+00  0.36737085692E+02  0.36737085692E+02  0.00000000000E+00 0. -1.
          2   -1    0    0  501    0  0.00000000000E+00 -0.00000000000E+00 -0.51543685153E+03  0.51543685153E+03  0.00000000000E+00 0. -1.
         36    2    1    2    0    0 -0.35527136788E-14  0.00000000000E+00 -0.47869976584E+03  0.55217393722E+03  0.27521371902E+03 0.  0.
         25    2    3    3    0    0 -0.11521035927E+02 -0.11548426824E+02 -0.25531271979E+03  0.28326309024E+03  0.12160301384E+03 0.  0.
         25    2    3    3    0    0  0.11521035927E+02  0.11548426824E+02 -0.22338704605E+03  0.26891084698E+03  0.14881253594E+03 0.  0.
          5    1    4    4  502    0 -0.35082393612E+02 -0.54699981730E+02 -0.19330642984E+03  0.20399100019E+03  0.47000000000E+01 0. -1.
         -5    1    4    4    0  502  0.23561357686E+02  0.43151554906E+02 -0.62006289950E+02  0.79272090045E+02  0.47000000000E+01 0. -1.
          5    1    5    5  503    0 -0.73002033793E+01 -0.63777144083E+02 -0.60183267138E+02  0.88118855645E+02  0.47000000000E+01 0.  1.
         -5    1    5    5    0  503  0.18821239306E+02  0.75325570907E+02 -0.16320377891E+03  0.18079199134E+03  0.47000000000E+01 0.  1.
<mgrwt>
<rscale>  0 0.27521372E+03</rscale>
<asrwt>0</asrwt>
<pdfrwt beam="1">  1        2 0.79297974E-01 0.27521372E+03</pdfrwt>
<pdfrwt beam="2">  1       -2 0.56518596E-02 0.27521372E+03</pdfrwt>
<totfact> 0.97050694E+03</totfact>
</mgrwt>
</event>
<event>
 9    1  0.2065703E-002  0.2754493E+03  0.7818608E-02  0.1098201E+00
          2   -1    0    0  501    0  0.00000000000E+00  0.00000000000E+00  0.13369188235E+04  0.13369188235E+04  0.00000000000E+00 0. -1.
         -2   -1    0    0    0  501 -0.00000000000E+00 -0.00000000000E+00 -0.14187904035E+02  0.14187904035E+02  0.00000000000E+00 0. -1.
         36    2    1    2    0    0  0.00000000000E+00  0.71054273576E-14  0.13227309195E+04  0.13511067276E+04  0.27544927643E+03 0.  0.
         25    2    3    3    0    0  0.27133633755E+01 -0.44859734834E+02  0.61376263556E+03  0.62812450463E+03  0.12576192728E+03 0.  0.
         25    2    3    3    0    0 -0.27133633755E+01  0.44859734834E+02  0.70896828394E+03  0.72298222295E+03  0.13434101723E+03 0.  0.
          5    1    4    4  502    0  0.41942264718E+02  0.20207440905E+02  0.36466683591E+03  0.36765674949E+03  0.47000000000E+01 0.  1.
         -5    1    4    4    0  502 -0.39228901343E+02 -0.65067175740E+02  0.24909579965E+03  0.26046775513E+03  0.47000000000E+01 0.  1.
          5    1    5    5  503    0 -0.59165039500E+02  0.26111802235E+02  0.19357192005E+03  0.20414334755E+03  0.47000000000E+01 0.  1.
         -5    1    5    5    0  503  0.56451676125E+02  0.18747932599E+02  0.51539636389E+03  0.51883887540E+03  0.47000000000E+01 0.  1.
<mgrwt>
<rscale>  0 0.27544928E+03</rscale>
<asrwt>0</asrwt>
<pdfrwt beam="1">  1        2 0.20567972E+00 0.27544928E+03</pdfrwt>
<pdfrwt beam="2">  1       -2 0.21827555E-02 0.27544928E+03</pdfrwt>
<totfact> 0.11366221E+04</totfact>
</mgrwt>
</event>
<event>
 9    1  0.2065703E-002  0.2748396E+03  0.7818608E-02  0.1098541E+00
         -1   -1    0    0    0  501 -0.00000000000E+00  0.00000000000E+00  0.20663180317E+02  0.20663180317E+02  0.00000000000E+00 0. -1.
          1   -1    0    0  501    0  0.00000000000E+00 -0.00000000000E+00 -0.91390586470E+03  0.91390586470E+03  0.00000000000E+00 0. -1.
         36    2    1    2    0    0  0.35527136788E-14  0.71054273576E-14 -0.89324268438E+03  0.93456904502E+03  0.27483960177E+03 0.  0.
         25    2    3    3    0    0  0.18735993733E+01  0.56059442720E+02 -0.39509465388E+03  0.41824407304E+03  0.12522838183E+03 0.  0.
         25    2    3    3    0    0 -0.18735993733E+01 -0.56059442720E+02 -0.49814803051E+03  0.51632497198E+03  0.12366828575E+03 0.  0.
          5    1    4    4  502    0  0.11577378927E+02 -0.34166633974E+02 -0.52983127208E+02  0.64270493609E+02  0.47000000000E+01 0. -1.
         -5    1    4    4    0  502 -0.97037795532E+01  0.90226076694E+02 -0.34211152667E+03  0.35397357943E+03  0.47000000000E+01 0. -1.
          5    1    5    5  503    0 -0.20711723432E+02 -0.33459553127E+02 -0.47958730072E+03  0.48122197185E+03  0.47000000000E+01 0. -1.
         -5    1    5    5    0  503  0.18838124059E+02 -0.22599889593E+02 -0.18560729786E+02  0.35103000126E+02  0.47000000000E+01 0. -1.
<mgrwt>
<rscale>  0 0.27483960E+03</rscale>
<asrwt>0</asrwt>
<pdfrwt beam="1">  1        1 0.14060088E+00 0.27483960E+03</pdfrwt>
<pdfrwt beam="2">  1       -1 0.31789514E-02 0.27483960E+03</pdfrwt>
<totfact> 0.64387330E+03</totfact>
</mgrwt>
</event>
<event>
 9    1  0.2065703E-002  0.2756496E+03  0.7818608E-02  0.1098089E+00
          1   -1    0    0  501    0  0.00000000000E+00  0.00000000000E+00  0.54462460430E+03  0.54462460430E+03  0.00000000000E+00 0. -1.
         -1   -1    0    0    0  501 -0.00000000000E+00 -0.00000000000E+00 -0.34878471923E+02  0.34878471923E+02  0.00000000000E+00 0. -1.
         36    2    1    2    0    0  0.00000000000E+00  0.00000000000E+00  0.50974613238E+03  0.57950307622E+03  0.27564958893E+03 0.  0.
         25    2    3    3    0    0  0.20046944461E+02 -0.25191340393E+01  0.35594986745E+03  0.38061533392E+03  0.13326476749E+03 0.  0.
         25    2    3    3    0    0 -0.20046944461E+02  0.25191340393E+01  0.15379626492E+03  0.19888774230E+03  0.12447817847E+03 0.  0.
          5    1    4    4  502    0  0.21906743172E+02 -0.61370029179E+02  0.11242592927E+03  0.13003024822E+03  0.47000000000E+01 0.  1.
         -5    1    4    4    0  502 -0.18597987109E+01  0.58850895140E+02  0.24352393818E+03  0.25058508570E+03  0.47000000000E+01 0.  1.
          5    1    5    5  503    0 -0.26810741996E+02 -0.58505918760E+02  0.79093758784E+02  0.10207679019E+03  0.47000000000E+01 0. -1.
         -5    1    5    5    0  503  0.67637975347E+01  0.61025052800E+02  0.74702506138E+02  0.96810952116E+02  0.47000000000E+01 0. -1.
<mgrwt>
<rscale>  0 0.27564959E+03</rscale>
<asrwt>0</asrwt>
<pdfrwt beam="1">  1        1 0.83788394E-01 0.27564959E+03</pdfrwt>
<pdfrwt beam="2">  1       -1 0.53659192E-02 0.27564959E+03</pdfrwt>
<totfact> 0.63366959E+03</totfact>
</mgrwt>
</event>
<event>
 9    1  0.2065703E-002  0.2750530E+03  0.7818608E-02  0.1098422E+00
          1   -1    0    0  501    0  0.00000000000E+00  0.00000000000E+00  0.77793107872E+03  0.77793107872E+03  0.00000000000E+00 0.  1.
         -1   -1    0    0    0  501 -0.00000000000E+00 -0.00000000000E+00 -0.24312614328E+02  0.24312614328E+02  0.00000000000E+00 0.  1.
         36    2    1    2    0    0  0.10658141036E-13  0.00000000000E+00  0.75361846439E+03  0.80224369305E+03  0.27505300065E+03 0.  0.
         25    2    3    3    0    0  0.27797567350E+02 -0.41448330334E+02  0.47217212144E+03  0.49064613152E+03  0.12367879880E+03 0.  0.
         25    2    3    3    0    0 -0.27797567350E+02  0.41448330334E+02  0.28144634296E+03  0.31159756153E+03  0.12405775893E+03 0.  0.
          5    1    4    4  502    0  0.13945688627E+02  0.43864893264E+02  0.18612663034E+03  0.19179109367E+03  0.47000000000E+01 0.  1.
         -5    1    4    4    0  502  0.13851878723E+02 -0.85313223599E+02  0.28604549110E+03  0.29885503784E+03  0.47000000000E+01 0.  1.
          5    1    5    5  503    0  0.43500701956E+02 -0.10292442262E+02  0.10875987680E+03  0.11768197075E+03  0.47000000000E+01 0.  1.
         -5    1    5    5    0  503 -0.71298269306E+02  0.51740772596E+02  0.17268646616E+03  0.19391559078E+03  0.47000000000E+01 0.  1.
<mgrwt>
<rscale>  0 0.27505300E+03</rscale>
<asrwt>0</asrwt>
<pdfrwt beam="1">  1        1 0.11968169E+00 0.27505300E+03</pdfrwt>
<pdfrwt beam="2">  1       -1 0.37404028E-02 0.27505300E+03</pdfrwt>
<totfact> 0.65257902E+03</totfact>
</mgrwt>
</event>
<event>
 9    1  0.2065703E-002  0.2711696E+03  0.7818608E-02  0.1100612E+00
         -2   -1    0    0    0  501 -0.00000000000E+00  0.00000000000E+00  0.24903357395E+02  0.24903357395E+02  0.00000000000E+00 0. -1.
          2   -1    0    0  501    0  0.00000000000E+00 -0.00000000000E+00 -0.73818293125E+03  0.73818293125E+03  0.00000000000E+00 0. -1.
         36    2    1    2    0    0 -0.53290705182E-14  0.00000000000E+00 -0.71327957385E+03  0.76308628864E+03  0.27116956584E+03 0.  0.
         25    2    3    3    0    0 -0.62037974274E+01  0.49812575722E+02 -0.24966472157E+03  0.28073161048E+03  0.11814391277E+03 0.  0.
         25    2    3    3    0    0  0.62037974274E+01 -0.49812575722E+02 -0.46361485228E+03  0.48235467816E+03  0.12331879210E+03 0.  0.
          5    1    4    4  502    0  0.32124563999E+02 -0.80612832524E+01 -0.16291925087E+02  0.37208718372E+02  0.47000000000E+01 0. -1.
         -5    1    4    4    0  502 -0.38328361427E+02  0.57873858974E+02 -0.23337279649E+03  0.24352289211E+03  0.47000000000E+01 0. -1.
          5    1    5    5  503    0 -0.88112639903E+01 -0.48424545526E+02 -0.46392966571E+03  0.46655696299E+03  0.47000000000E+01 0. -1.
         -5    1    5    5    0  503  0.15015061418E+02 -0.13880301958E+01  0.31481343333E+00  0.15797715173E+02  0.47000000000E+01 0. -1.
<mgrwt>
<rscale>  0 0.27116957E+03</rscale>
<asrwt>0</asrwt>
<pdfrwt beam="1">  1        2 0.11356658E+00 0.27116957E+03</pdfrwt>
<pdfrwt beam="2">  1       -2 0.38312865E-02 0.27116957E+03</pdfrwt>
<totfact> 0.11468884E+04</totfact>
</mgrwt>
</event>
<event>
 9    1  0.2065703E-002  0.2741312E+03  0.7818608E-02  0.1098938E+00
          2   -1    0    0  501    0  0.00000000000E+00  0.00000000000E+00  0.10467105577E+03  0.10467105577E+03  0.00000000000E+00 0. -1.
         -2   -1    0    0    0  501 -0.00000000000E+00 -0.00000000000E+00 -0.17948596013E+03  0.17948596013E+03  0.00000000000E+00 0. -1.
         36    2    1    2    0    0 -0.71054273576E-14 -0.71054273576E-14 -0.74814904363E+02  0.28415701591E+03  0.27413124553E+03 0.  0.
         25    2    3    3    0    0  0.21714622156E+02  0.43709318364E+02 -0.54058995734E+02  0.14498227562E+03  0.12536130143E+03 0.  0.
         25    2    3    3    0    0 -0.21714622156E+02 -0.43709318364E+02 -0.20755908629E+02  0.13917474029E+03  0.12867311788E+03 0.  0.
          5    1    4    4  502    0 -0.27939269184E+01  0.67361949844E+02  0.13737329020E+02  0.68965516912E+02  0.47000000000E+01 0.  1.
         -5    1    4    4    0  502  0.24508549074E+02 -0.23652631479E+02 -0.67796324754E+02  0.76016758704E+02  0.47000000000E+01 0.  1.
          5    1    5    5  503    0  0.19919787514E+02 -0.74949747389E+02 -0.34688295918E+02  0.85086017899E+02  0.47000000000E+01 0.  1.
         -5    1    5    5    0  503 -0.41634409670E+02  0.31240429024E+02  0.13932387289E+02  0.54088722390E+02  0.47000000000E+01 0.  1.
<mgrwt>
<rscale>  0 0.27413125E+03</rscale>
<asrwt>0</asrwt>
<pdfrwt beam="1">  1        2 0.16103239E-01 0.27413125E+03</pdfrwt>
<pdfrwt beam="2">  1       -2 0.27613225E-01 0.27413125E+03</pdfrwt>
<totfact> 0.42325342E+03</totfact>
</mgrwt>
</event>
<event>
 9    1  0.2065703E-002  0.2770524E+03  0.7818608E-02  0.1097310E+00
          2   -1    0    0  501    0  0.00000000000E+00  0.00000000000E+00  0.57872544218E+02  0.57872544218E+02  0.00000000000E+00 0. -1.
         -2   -1    0    0    0  501 -0.00000000000E+00 -0.00000000000E+00 -0.33158228813E+03  0.33158228813E+03  0.00000000000E+00 0. -1.
         36    2    1    2    0    0 -0.17763568394E-14 -0.26645352591E-14 -0.27370974391E+03  0.38945483235E+03  0.27705241838E+03 0.  0.
         25    2    3    3    0    0 -0.10374470524E+02 -0.61850967676E+01 -0.21376498612E+03  0.24867257909E+03  0.12647805043E+03 0.  0.
         25    2    3    3    0    0  0.10374470524E+02  0.61850967676E+01 -0.59944757797E+02  0.14078225326E+03  0.12680845313E+03 0.  0.
          5    1    4    4  502    0 -0.12216430550E+02  0.21961784070E+02 -0.21823662412E+03  0.21972909512E+03  0.47000000000E+01 0. -1.
         -5    1    4    4    0  502  0.18419600258E+01 -0.28146880838E+02  0.44716380056E+01  0.28943483966E+02  0.47000000000E+01 0. -1.
          5    1    5    5  503    0 -0.43911781583E+01 -0.69882227517E+01 -0.97559675932E+02  0.98020906294E+02  0.47000000000E+01 0.  1.
         -5    1    5    5    0  503  0.14765648683E+02  0.13173319519E+02  0.37614918135E+02  0.42761346968E+02  0.47000000000E+01 0.  1.
<mgrwt>
<rscale>  0 0.27705242E+03</rscale>
<asrwt>0</asrwt>
<pdfrwt beam="1">  1        2 0.89034683E-02 0.27705242E+03</pdfrwt>
<pdfrwt beam="2">  1       -2 0.51012660E-01 0.27705242E+03</pdfrwt>
<totfact> 0.27283606E+03</totfact>
</mgrwt>
</event>
<event>
 9    1  0.2065703E-002  0.2747722E+03  0.7818608E-02  0.1098579E+00
          1   -1    0    0  501    0  0.00000000000E+00  0.00000000000E+00  0.60168893581E+03  0.60168893581E+03  0.00000000000E+00 0. -1.
         -1   -1    0    0    0  501 -0.00000000000E+00 -0.00000000000E+00 -0.31369928796E+02  0.31369928796E+02  0.00000000000E+00 0. -1.
         36    2    1    2    0    0  0.00000000000E+00  0.00000000000E+00  0.57031900702E+03  0.63305886461E+03  0.27477218981E+03 0.  0.
         25    2    3    3    0    0  0.16224715213E+02 -0.53197302183E+02  0.29331208170E+03  0.32417619443E+03  0.12635281329E+03 0.  0.
         25    2    3    3    0    0 -0.16224715213E+02  0.53197302183E+02  0.27700692532E+03  0.30888267017E+03  0.12482977575E+03 0.  0.
          5    1    4    4  502    0 -0.39884703795E+02 -0.61535014774E+02  0.11044810663E+03  0.13265828997E+03  0.47000000000E+01 0.  1.
         -5    1    4    4    0  502  0.56109419008E+02  0.83377125908E+01  0.18286397507E+03  0.19151790447E+03  0.47000000000E+01 0.  1.
          5    1    5    5  503    0 -0.55556541978E+01  0.32941922949E+02  0.29872027565E+01  0.33868111277E+02  0.47000000000E+01 0. -1.
         -5    1    5    5    0  503 -0.10669061015E+02  0.20255379234E+02  0.27401972256E+03  0.27501455890E+03  0.47000000000E+01 0. -1.
<mgrwt>
<rscale>  0 0.27477219E+03</rscale>
<asrwt>0</asrwt>
<pdfrwt beam="1">  1        1 0.92567520E-01 0.27477219E+03</pdfrwt>
<pdfrwt beam="2">  1       -1 0.48261433E-02 0.27477219E+03</pdfrwt>
<totfact> 0.64787819E+03</totfact>
</mgrwt>
</event>
<event>
 9    1  0.2065703E-002  0.2741839E+03  0.7818608E-02  0.1098909E+00
         -2   -1    0    0    0  501 -0.00000000000E+00  0.00000000000E+00  0.16893650857E+02  0.16893650857E+02  0.00000000000E+00 0.  1.
          2   -1    0    0  501    0  0.00000000000E+00 -0.00000000000E+00 -0.11125010600E+04  0.11125010600E+04  0.00000000000E+00 0.  1.
         36    2    1    2    0    0  0.71054273576E-14 -0.71054273576E-14 -0.10956074092E+04  0.11293947109E+04  0.27418391263E+03 0.  0.
         25    2    3    3    0    0  0.15096252592E+02 -0.37533318976E+02 -0.59276588198E+03  0.60796804309E+03  0.12890734545E+03 0.  0.
         25    2    3    3    0    0 -0.15096252592E+02  0.37533318976E+02 -0.50284152722E+03  0.52142666781E+03  0.13190724597E+03 0.  0.
          5    1    4    4  502    0 -0.52443811928E+02 -0.45309835796E+01 -0.34445099863E+03  0.34848165472E+03  0.47000000000E+01 0. -1.
         -5    1    4    4    0  502  0.67540064521E+02 -0.33002335397E+02 -0.24831488335E+03  0.25948638837E+03  0.47000000000E+01 0. -1.
          5    1    5    5  503    0 -0.50377185104E+01 -0.20116571872E+02 -0.73936385910E+01  0.22512462399E+02  0.47000000000E+01 0. -1.
         -5    1    5    5    0  503 -0.10058534082E+02  0.57649890848E+02 -0.49544788862E+03  0.49891420541E+03  0.47000000000E+01 0. -1.
<mgrwt>
<rscale>  0 0.27418391E+03</rscale>
<asrwt>0</asrwt>
<pdfrwt beam="1">  1        2 0.17115396E+00 0.27418391E+03</pdfrwt>
<pdfrwt beam="2">  1       -2 0.25990239E-02 0.27418391E+03</pdfrwt>
<totfact> 0.11758969E+04</totfact>
</mgrwt>
</event>
<event>
 9    1  0.2065703E-002  0.2708130E+03  0.7818608E-02  0.1100815E+00
          2   -1    0    0  501    0  0.00000000000E+00  0.00000000000E+00  0.10975933886E+04  0.10975933886E+04  0.00000000000E+00 0.  1.
         -2   -1    0    0    0  501 -0.00000000000E+00 -0.00000000000E+00 -0.16704656712E+02  0.16704656712E+02  0.00000000000E+00 0.  1.
         36    2    1    2    0    0  0.00000000000E+00  0.00000000000E+00  0.10808887319E+04  0.11142980453E+04  0.27081300387E+03 0.  0.
         25    2    3    3    0    0 -0.72160652481E+01 -0.61201609353E+02  0.47882206131E+03  0.49867218315E+03  0.12492266112E+03 0.  0.
         25    2    3    3    0    0  0.72160652481E+01  0.61201609353E+02  0.60206667060E+03  0.61562586219E+03  0.11275290578E+03 0.  0.
          5    1    4    4  502    0  0.16425128325E+02  0.35471659618E+02  0.15059372630E+03  0.15565533681E+03  0.47000000000E+01 0.  1.
         -5    1    4    4    0  502 -0.23641193573E+02 -0.96673268971E+02  0.32822833501E+03  0.34301684634E+03  0.47000000000E+01 0.  1.
          5    1    5    5  503    0 -0.15421605312E+02 -0.77462359632E+01  0.40783402029E+03  0.40822605035E+03  0.47000000000E+01 0.  1.
         -5    1    5    5    0  503  0.22637670560E+02  0.68947845316E+02  0.19423265031E+03  0.20739981184E+03  0.47000000000E+01 0.  1.
<mgrwt>
<rscale>  0 0.27081300E+03</rscale>
<asrwt>0</asrwt>
<pdfrwt beam="1">  1        2 0.16886046E+00 0.27081300E+03</pdfrwt>
<pdfrwt beam="2">  1       -2 0.25699480E-02 0.27081300E+03</pdfrwt>
<totfact> 0.12194936E+04</totfact>
</mgrwt>
</event>
<event>
 9    1  0.2065703E-002  0.2755203E+03  0.7818608E-02  0.1098161E+00
         -2   -1    0    0    0  501 -0.00000000000E+00  0.00000000000E+00  0.16075924910E+02  0.16075924910E+02  0.00000000000E+00 0. -1.
          2   -1    0    0  501    0  0.00000000000E+00 -0.00000000000E+00 -0.11805143639E+04  0.11805143639E+04  0.00000000000E+00 0. -1.
         36    2    1    2    0    0  0.71054273576E-14  0.00000000000E+00 -0.11644384390E+04  0.11965902888E+04  0.27552030973E+03 0.  0.
         25    2    3    3    0    0 -0.46978546001E+02  0.32786601081E+02 -0.63858415385E+03  0.65319688956E+03  0.12487798043E+03 0.  0.
         25    2    3    3    0    0  0.46978546001E+02 -0.32786601081E+02 -0.52585428512E+03  0.54339339922E+03  0.12438533734E+03 0.  0.
          5    1    4    4  502    0  0.97071542367E+01  0.11874865828E+02 -0.51792714378E+03  0.51817550844E+03  0.47000000000E+01 0. -1.
         -5    1    4    4    0  502 -0.56685700237E+02  0.20911735252E+02 -0.12065701006E+03  0.13502138112E+03  0.47000000000E+01 0. -1.
          5    1    5    5  503    0  0.54616946621E+02 -0.58532729936E+02 -0.49800483835E+03  0.50442045989E+03  0.47000000000E+01 0. -1.
         -5    1    5    5    0  503 -0.76384006206E+01  0.25746128855E+02 -0.27849446769E+02  0.38972939335E+02  0.47000000000E+01 0. -1.
<mgrwt>
<rscale>  0 0.27552031E+03</rscale>
<asrwt>0</asrwt>
<pdfrwt beam="1">  1        2 0.18161758E+00 0.27552031E+03</pdfrwt>
<pdfrwt beam="2">  1       -2 0.24732194E-02 0.27552031E+03</pdfrwt>
<totfact> 0.11561783E+04</totfact>
</mgrwt>
</event>
<event>
 9    1  0.2065703E-002  0.2721938E+03  0.7818608E-02  0.1100031E+00
          1   -1    0    0  501    0  0.00000000000E+00  0.00000000000E+00  0.17517126064E+04  0.17517126064E+04  0.00000000000E+00 0.  1.
         -1   -1    0    0    0  501 -0.00000000000E+00 -0.00000000000E+00 -0.10573863074E+02  0.10573863074E+02  0.00000000000E+00 0.  1.
         36    2    1    2    0    0  0.00000000000E+00  0.71054273576E-14  0.17411387433E+04  0.17622864694E+04  0.27219382245E+03 0.  0.
         25    2    3    3    0    0 -0.28667041871E+02  0.40898709405E+02  0.68819594443E+03  0.70097655995E+03  0.12353127522E+03 0.  0.
         25    2    3    3    0    0  0.28667041871E+02 -0.40898709405E+02  0.10529427989E+04  0.10613099095E+04  0.12327076935E+03 0.  0.
          5    1    4    4  502    0 -0.13784602859E+02  0.45175372616E+02  0.68199834636E+03  0.68364805566E+03  0.47000000000E+01 0.  1.
         -5    1    4    4    0  502 -0.14882439013E+02 -0.42766632113E+01  0.61975980625E+01  0.17328504290E+02  0.47000000000E+01 0.  1.
          5    1    5    5  503    0 -0.26352656775E+02  0.26361683749E+02  0.17070290033E+03  0.17478836080E+03  0.47000000000E+01 0. -1.
         -5    1    5    5    0  503  0.55019698646E+02 -0.67260393154E+02  0.88223989854E+03  0.88652154869E+03  0.47000000000E+01 0. -1.
<mgrwt>
<rscale>  0 0.27219382E+03</rscale>
<asrwt>0</asrwt>
<pdfrwt beam="1">  1        1 0.26949402E+00 0.27219382E+03</pdfrwt>
<pdfrwt beam="2">  1       -1 0.16267496E-02 0.27219382E+03</pdfrwt>
<totfact> 0.45359671E+03</totfact>
</mgrwt>
</event>
<event>
 9    1  0.2065703E-002  0.2762981E+03  0.7818608E-02  0.1097728E+00
          2   -1    0    0  501    0  0.00000000000E+00  0.00000000000E+00  0.12573843765E+04  0.12573843765E+04  0.00000000000E+00 0.  1.
         -2   -1    0    0    0  501 -0.00000000000E+00 -0.00000000000E+00 -0.15178459922E+02  0.15178459922E+02  0.00000000000E+00 0.  1.
         36    2    1    2    0    0  0.00000000000E+00 -0.71054273576E-14  0.12422059166E+04  0.12725628365E+04  0.27629808806E+03 0.  0.
         25    2    3    3    0    0 -0.43893306133E+02 -0.63024886305E+02  0.54215860323E+03  0.55670411893E+03  0.10042293738E+03 0.  0.
         25    2    3    3    0    0  0.43893306133E+02  0.63024886305E+02  0.70004731337E+03  0.71585871752E+03  0.12840834816E+03 0.  0.
          5    1    4    4  502    0 -0.23234237105E+02  0.20590520871E+02  0.25338237719E+03  0.25532042299E+03  0.47000000000E+01 0.  1.
         -5    1    4    4    0  502 -0.20659069027E+02 -0.83615407176E+02  0.28877622604E+03  0.30138369594E+03  0.47000000000E+01 0.  1.
          5    1    5    5  503    0 -0.23843086639E+02  0.70406378247E+02  0.25691440920E+03  0.26749327941E+03  0.47000000000E+01 0. -1.
         -5    1    5    5    0  503  0.67736392772E+02 -0.73814919423E+01  0.44313290417E+03  0.44836543811E+03  0.47000000000E+01 0. -1.
<mgrwt>
<rscale>  0 0.27629809E+03</rscale>
<asrwt>0</asrwt>
<pdfrwt beam="1">  1        2 0.19344367E+00 0.27629809E+03</pdfrwt>
<pdfrwt beam="2">  1       -2 0.23351487E-02 0.27629809E+03</pdfrwt>
<totfact> 0.11388843E+04</totfact>
</mgrwt>
</event>
<event>
 9    1  0.2065703E-002  0.2820463E+03  0.7818608E-02  0.1094577E+00
         -2   -1    0    0    0  501 -0.00000000000E+00  0.00000000000E+00  0.22962860198E+02  0.22962860198E+02  0.00000000000E+00 0.  1.
          2   -1    0    0  501    0  0.00000000000E+00 -0.00000000000E+00 -0.86607380515E+03  0.86607380515E+03  0.00000000000E+00 0.  1.
         36    2    1    2    0    0  0.00000000000E+00 -0.71054273576E-14 -0.84311094495E+03  0.88903666535E+03  0.28204632037E+03 0.  0.
         25    2    3    3    0    0 -0.27801078743E+02  0.63959353697E+02 -0.35910229398E+03  0.38464079966E+03  0.11887130990E+03 0.  0.
         25    2    3    3    0    0  0.27801078743E+02 -0.63959353697E+02 -0.48400865097E+03  0.50439586569E+03  0.12364107813E+03 0.  0.
          5    1    4    4  502    0 -0.62570913252E+02  0.24006643578E+02 -0.28870795387E+03  0.29642167726E+03  0.47000000000E+01 0. -1.
         -5    1    4    4    0  502  0.34769834510E+02  0.39952710119E+02 -0.70394340108E+02  0.88219122400E+02  0.47000000000E+01 0. -1.
          5    1    5    5  503    0  0.59460903586E+02  0.10785439423E+02 -0.21190259898E+03  0.22040128451E+03  0.47000000000E+01 0. -1.
         -5    1    5    5    0  503 -0.31659824844E+02 -0.74744793121E+02 -0.27210605200E+03  0.28399458118E+03  0.47000000000E+01 0. -1.
<mgrwt>
<rscale>  0 0.28204632E+03</rscale>
<asrwt>0</asrwt>
<pdfrwt beam="1">  1        2 0.13324212E+00 0.28204632E+03</pdfrwt>
<pdfrwt beam="2">  1       -2 0.35327478E-02 0.28204632E+03</pdfrwt>
<totfact> 0.10581354E+04</totfact>
</mgrwt>
</event>
<event>
 9    1  0.2065703E-002  0.2742562E+03  0.7818608E-02  0.1098868E+00
         -1   -1    0    0    0  501 -0.00000000000E+00  0.00000000000E+00  0.23198798797E+02  0.23198798797E+02  0.00000000000E+00 0.  1.
          1   -1    0    0  501    0  0.00000000000E+00 -0.00000000000E+00 -0.81056427301E+03  0.81056427301E+03  0.00000000000E+00 0.  1.
         36    2    1    2    0    0  0.35527136788E-14  0.00000000000E+00 -0.78736547421E+03  0.83376307180E+03  0.27425621219E+03 0.  0.
         25    2    3    3    0    0  0.15311753723E+02  0.50525661468E+02 -0.32179161079E+03  0.34872924500E+03  0.12359188191E+03 0.  0.
         25    2    3    3    0    0 -0.15311753723E+02 -0.50525661468E+02 -0.46557386342E+03  0.48503382680E+03  0.12534551677E+03 0.  0.
          5    1    4    4  502    0 -0.19170509685E+02  0.53468989437E+01  0.14448277070E+01  0.20500616991E+02  0.47000000000E+01 0.  1.
         -5    1    4    4    0  502  0.34482263408E+02  0.45178762525E+02 -0.32323643850E+03  0.32822862801E+03  0.47000000000E+01 0.  1.
          5    1    5    5  503    0 -0.54854363405E+02 -0.34364106541E+02 -0.40831909555E+03  0.41344463571E+03  0.47000000000E+01 0.  1.
         -5    1    5    5    0  503  0.39542609682E+02 -0.16161554927E+02 -0.57254767868E+02  0.71589191095E+02  0.47000000000E+01 0.  1.
<mgrwt>
<rscale>  0 0.27425621E+03</rscale>
<asrwt>0</asrwt>
<pdfrwt beam="1">  1        1 0.12470218E+00 0.27425621E+03</pdfrwt>
<pdfrwt beam="2">  1       -1 0.35690464E-02 0.27425621E+03</pdfrwt>
<totfact> 0.65676791E+03</totfact>
</mgrwt>
</event>
<event>
 9    1  0.2065703E-002  0.2741064E+03  0.7818608E-02  0.1098952E+00
         -2   -1    0    0    0  501 -0.00000000000E+00  0.00000000000E+00  0.50279328739E+02  0.50279328739E+02  0.00000000000E+00 0.  1.
          2   -1    0    0  501    0  0.00000000000E+00 -0.00000000000E+00 -0.37358454538E+03  0.37358454538E+03  0.00000000000E+00 0.  1.
         36    2    1    2    0    0  0.14210854715E-13  0.71054273576E-14 -0.32330521664E+03  0.42386387412E+03  0.27410640393E+03 0.  0.
         25    2    3    3    0    0  0.42879286458E+02  0.98673411190E+00 -0.11554938264E+03  0.17582450932E+03  0.12539135296E+03 0.  0.
         25    2    3    3    0    0 -0.42879286458E+02 -0.98673411190E+00 -0.20775583400E+03  0.24803936480E+03  0.12853572686E+03 0.  0.
          5    1    4    4  502    0  0.61986481492E+02  0.45093130390E+02 -0.41158953179E+02  0.87131301625E+02  0.47000000000E+01 0. -1.
         -5    1    4    4    0  502 -0.19107195034E+02 -0.44106396278E+02 -0.74390429464E+02  0.88693207691E+02  0.47000000000E+01 0. -1.
          5    1    5    5  503    0 -0.25346557998E+02 -0.38905240288E+02 -0.12509032239E+02  0.48318025744E+02  0.47000000000E+01 0.  1.
         -5    1    5    5    0  503 -0.17532728460E+02  0.37918506176E+02 -0.19524680176E+03  0.19972133906E+03  0.47000000000E+01 0.  1.
<mgrwt>
<rscale>  0 0.27410640E+03</rscale>
<asrwt>0</asrwt>
<pdfrwt beam="1">  1        2 0.57474544E-01 0.27410640E+03</pdfrwt>
<pdfrwt beam="2">  1       -2 0.77352816E-02 0.27410640E+03</pdfrwt>
<totfact> 0.85168510E+03</totfact>
</mgrwt>
</event>
<event>
 9    1  0.2065703E-002  0.2749494E+03  0.7818608E-02  0.1098480E+00
          1   -1    0    0  501    0  0.00000000000E+00  0.00000000000E+00  0.23073777947E+03  0.23073777947E+03  0.00000000000E+00 0.  1.
         -1   -1    0    0    0  501 -0.00000000000E+00 -0.00000000000E+00 -0.81908108491E+02  0.81908108491E+02  0.00000000000E+00 0.  1.
         36    2    1    2    0    0  0.71054273576E-14 -0.35527136788E-14  0.14882967097E+03  0.31264588796E+03  0.27494941406E+03 0.  0.
         25    2    3    3    0    0  0.46469502060E+02  0.22846699429E+01  0.47264200192E+02  0.14084827122E+03  0.12425657547E+03 0.  0.
         25    2    3    3    0    0 -0.46469502060E+02 -0.22846699429E+01  0.10156547078E+03  0.17179761673E+03  0.13051529382E+03 0.  0.
          5    1    4    4  502    0  0.15523984089E+02 -0.21173085166E+02  0.83421560167E+02  0.87581620893E+02  0.47000000000E+01 0.  1.
         -5    1    4    4    0  502  0.30945517970E+02  0.23457755108E+02 -0.36157359975E+02  0.53266650332E+02  0.47000000000E+01 0.  1.
          5    1    5    5  503    0  0.68392429209E+01 -0.47376108218E+02 -0.43504022824E+00  0.48099377684E+02  0.47000000000E+01 0. -1.
         -5    1    5    5    0  503 -0.53308744981E+02  0.45091438275E+02  0.10200051101E+03  0.12369823905E+03  0.47000000000E+01 0. -1.
<mgrwt>
<rscale>  0 0.27494941E+03</rscale>
<asrwt>0</asrwt>
<pdfrwt beam="1">  1        1 0.35498120E-01 0.27494941E+03</pdfrwt>
<pdfrwt beam="2">  1       -1 0.12601248E-01 0.27494941E+03</pdfrwt>
<totfact> 0.51497366E+03</totfact>
</mgrwt>
</event>
<event>
 9    1  0.2065703E-002  0.2749574E+03  0.7818608E-02  0.1098475E+00
         -4   -1    0    0    0  501 -0.00000000000E+00  0.00000000000E+00  0.40966865074E+02  0.40966865074E+02  0.00000000000E+00 0. -1.
          4   -1    0    0  501    0  0.00000000000E+00 -0.00000000000E+00 -0.46135801597E+03  0.46135801597E+03  0.00000000000E+00 0. -1.
         36    2    1    2    0    0  0.00000000000E+00  0.00000000000E+00 -0.42039115090E+03  0.50232488104E+03  0.27495739009E+03 0.  0.
         25    2    3    3    0    0 -0.29359937949E+02 -0.88224261722E+02 -0.25012885648E+03  0.28101525156E+03  0.88088594327E+02 0.  0.
         25    2    3    3    0    0  0.29359937949E+02  0.88224261722E+02 -0.17026229441E+03  0.22130962949E+03  0.10650435151E+03 0.  0.
          5    1    4    4  502    0 -0.18074563369E+02 -0.51104533075E+02 -0.40639885712E+02  0.67912100928E+02  0.47000000000E+01 0. -1.
         -5    1    4    4    0  502 -0.11285374579E+02 -0.37119728648E+02 -0.20948897077E+03  0.21310315063E+03  0.47000000000E+01 0. -1.
          5    1    5    5  503    0  0.35210582129E+02 -0.11045493375E+01 -0.10380014950E+03  0.10971584279E+03  0.47000000000E+01 0.  1.
         -5    1    5    5    0  503 -0.58506441806E+01  0.89328811060E+02 -0.66462144919E+02  0.11159378670E+03  0.47000000000E+01 0.  1.
<mgrwt>
<rscale>  0 0.27495739E+03</rscale>
<asrwt>0</asrwt>
<pdfrwt beam="1">  1        4 0.70978158E-01 0.27495739E+03</pdfrwt>
<pdfrwt beam="2">  1       -4 0.63025945E-02 0.27495739E+03</pdfrwt>
<totfact> 0.56749123E+02</totfact>
</mgrwt>
</event>
<event>
 9    1  0.2065703E-002  0.2735327E+03  0.7818608E-02  0.1099275E+00
          1   -1    0    0  501    0  0.00000000000E+00  0.00000000000E+00  0.10968493724E+03  0.10968493724E+03  0.00000000000E+00 0. -1.
         -1   -1    0    0    0  501 -0.00000000000E+00 -0.00000000000E+00 -0.17053420831E+03  0.17053420831E+03  0.00000000000E+00 0. -1.
         36    2    1    2    0    0  0.71054273576E-14  0.14210854715E-13 -0.60849271069E+02  0.28021914556E+03  0.27353269594E+03 0.  0.
         25    2    3    3    0    0 -0.23258487515E+02 -0.38784356778E+02 -0.58205331318E+02  0.14641800567E+03  0.12651161298E+03 0.  0.
         25    2    3    3    0    0  0.23258487515E+02  0.38784356778E+02 -0.26439397511E+01  0.13380113988E+03  0.12589905101E+03 0.  0.
          5    1    4    4  502    0 -0.43688530590E+02 -0.38293775508E+02 -0.90659300649E+02  0.10777893923E+03  0.47000000000E+01 0. -1.
         -5    1    4    4    0  502  0.20430043075E+02 -0.49058126962E+00  0.32453969331E+02  0.38639066440E+02  0.47000000000E+01 0. -1.
          5    1    5    5  503    0  0.70486918542E+02  0.25187759810E+01 -0.16267660301E+02  0.72536037180E+02  0.47000000000E+01 0. -1.
         -5    1    5    5    0  503 -0.47228431027E+02  0.36265580797E+02  0.13623720550E+02  0.61265102705E+02  0.47000000000E+01 0. -1.
<mgrwt>
<rscale>  0 0.27353270E+03</rscale>
<asrwt>0</asrwt>
<pdfrwt beam="1">  1        1 0.16874606E-01 0.27353270E+03</pdfrwt>
<pdfrwt beam="2">  1       -1 0.26236032E-01 0.27353270E+03</pdfrwt>
<totfact> 0.40697583E+03</totfact>
</mgrwt>
</event>
<event>
 9    1  0.2065703E-002  0.2755010E+03  0.7818608E-02  0.1098172E+00
         -2   -1    0    0    0  501 -0.00000000000E+00  0.00000000000E+00  0.13363598118E+02  0.13363598118E+02  0.00000000000E+00 0. -1.
          2   -1    0    0  501    0  0.00000000000E+00 -0.00000000000E+00 -0.14199171031E+04  0.14199171031E+04  0.00000000000E+00 0. -1.
         36    2    1    2    0    0 -0.17763568394E-14  0.00000000000E+00 -0.14065535050E+04  0.14332807013E+04  0.27550100927E+03 0.  0.
         25    2    3    3    0    0 -0.75420585575E+01 -0.50108746019E+02 -0.52532056304E+03  0.54179873274E+03  0.12254143693E+03 0.  0.
         25    2    3    3    0    0  0.75420585575E+01  0.50108746019E+02 -0.88123294198E+03  0.89148196852E+03  0.12490329496E+03 0.  0.
          5    1    4    4  502    0  0.17948370740E+02 -0.41641193372E+02 -0.50677574097E+03  0.50882204613E+03  0.47000000000E+01 0.  1.
         -5    1    4    4    0  502 -0.25490429298E+02 -0.84675526467E+01 -0.18544822076E+02  0.32976686605E+02  0.47000000000E+01 0.  1.
          5    1    5    5  503    0  0.13154909052E+02  0.48921267569E+02 -0.88249375316E+03  0.88395908074E+03  0.47000000000E+01 0.  1.
         -5    1    5    5    0  503 -0.56128504943E+01  0.11874784496E+01  0.12608111815E+01  0.75228877816E+01  0.47000000000E+01 0.  1.
<mgrwt>
<rscale>  0 0.27550101E+03</rscale>
<asrwt>0</asrwt>
<pdfrwt beam="1">  1        2 0.21844877E+00 0.27550101E+03</pdfrwt>
<pdfrwt beam="2">  1       -2 0.20559383E-02 0.27550101E+03</pdfrwt>
<totfact> 0.11185824E+04</totfact>
</mgrwt>
</event>
<event>
 9    1  0.2065703E-002  0.2736366E+03  0.7818608E-02  0.1099216E+00
          1   -1    0    0  501    0  0.00000000000E+00  0.00000000000E+00  0.17695368909E+04  0.17695368909E+04  0.00000000000E+00 0. -1.
         -1   -1    0    0    0  501 -0.00000000000E+00 -0.00000000000E+00 -0.10578612551E+02  0.10578612551E+02  0.00000000000E+00 0. -1.
         36    2    1    2    0    0 -0.13322676296E-14  0.00000000000E+00  0.17589582784E+04  0.17801155035E+04  0.27363658500E+03 0.  0.
         25    2    3    3    0    0  0.37986801797E+01 -0.44157536754E+02  0.73301162351E+03  0.74487194467E+03  0.12475518320E+03 0.  0.
         25    2    3    3    0    0 -0.37986801797E+01  0.44157536754E+02  0.10259466549E+04  0.10352435588E+04  0.13114255371E+03 0.  0.
          5    1    4    4  502    0  0.34462900587E+01 -0.81885135600E+02  0.32947403400E+03  0.33954717114E+03  0.47000000000E+01 0. -1.
         -5    1    4    4    0  502  0.35239012097E+00  0.37727598845E+02  0.40353758951E+03  0.40532477353E+03  0.47000000000E+01 0. -1.
          5    1    5    5  503    0  0.99907346943E+01  0.34702288412E+01  0.37967020683E+01  0.12180402889E+02  0.47000000000E+01 0.  1.
         -5    1    5    5    0  503 -0.13789414874E+02  0.40687307913E+02  0.10221499528E+04  0.10230631559E+04  0.47000000000E+01 0.  1.
<mgrwt>
<rscale>  0 0.27363659E+03</rscale>
<asrwt>0</asrwt>
<pdfrwt beam="1">  1        1 0.27223621E+00 0.27363659E+03</pdfrwt>
<pdfrwt beam="2">  1       -1 0.16274803E-02 0.27363659E+03</pdfrwt>
<totfact> 0.44136081E+03</totfact>
</mgrwt>
</event>
<event>
 9    1  0.2065703E-002  0.2742963E+03  0.7818608E-02  0.1098846E+00
          1   -1    0    0  501    0  0.00000000000E+00  0.00000000000E+00  0.13296161573E+04  0.13296161573E+04  0.00000000000E+00 0. -1.
         -1   -1    0    0    0  501 -0.00000000000E+00 -0.00000000000E+00 -0.14146654347E+02  0.14146654347E+02  0.00000000000E+00 0. -1.
         36    2    1    2    0    0  0.00000000000E+00  0.00000000000E+00  0.13154695029E+04  0.13437628116E+04  0.27429633750E+03 0.  0.
         25    2    3    3    0    0 -0.73429542637E+01 -0.16343288386E+01  0.53105530888E+03  0.54548717354E+03  0.12441834834E+03 0.  0.
         25    2    3    3    0    0  0.73429542637E+01  0.16343288386E+01  0.78441419405E+03  0.79827563808E+03  0.14792490161E+03 0.  0.
          5    1    4    4  502    0  0.50119937517E+02  0.30217266358E+02  0.25907337878E+03  0.26564298770E+03  0.47000000000E+01 0.  1.
         -5    1    4    4    0  502 -0.57462891780E+02 -0.31851595196E+02  0.27198193010E+03  0.27984418584E+03  0.47000000000E+01 0.  1.
          5    1    5    5  503    0  0.19831948749E+02 -0.26560294917E+02  0.75388812244E+03  0.75463113281E+03  0.47000000000E+01 0. -1.
         -5    1    5    5    0  503 -0.12488994486E+02  0.28194623756E+02  0.30526071614E+02  0.43644505269E+02  0.47000000000E+01 0. -1.
<mgrwt>
<rscale>  0 0.27429634E+03</rscale>
<asrwt>0</asrwt>
<pdfrwt beam="1">  1        1 0.20455623E+00 0.27429634E+03</pdfrwt>
<pdfrwt beam="2">  1       -1 0.21764094E-02 0.27429634E+03</pdfrwt>
<totfact> 0.56412567E+03</totfact>
</mgrwt>
</event>
<event>
 9    1  0.2065703E-002  0.2748039E+03  0.7818608E-02  0.1098561E+00
          1   -1    0    0  501    0  0.00000000000E+00  0.00000000000E+00  0.18826129692E+02  0.18826129692E+02  0.00000000000E+00 0. -1.
         -1   -1    0    0    0  501 -0.00000000000E+00 -0.00000000000E+00 -0.10028244082E+04  0.10028244082E+04  0.00000000000E+00 0. -1.
         36    2    1    2    0    0  0.00000000000E+00  0.00000000000E+00 -0.98399827853E+03  0.10216505379E+04  0.27480394733E+03 0.  0.
         25    2    3    3    0    0  0.26478234445E+01 -0.32458851009E+02 -0.65134939621E+03  0.66417292147E+03  0.12573402759E+03 0.  0.
         25    2    3    3    0    0 -0.26478234445E+01  0.32458851009E+02 -0.33264888232E+03  0.35747761644E+03  0.12678477579E+03 0.  0.
          5    1    4    4  502    0  0.32006302239E+02  0.17018950773E+02 -0.61775003705E+02  0.71779447972E+02  0.47000000000E+01 0.  1.
         -5    1    4    4    0  502 -0.29358478794E+02 -0.49477801782E+02 -0.58957439250E+03  0.59239347350E+03  0.47000000000E+01 0.  1.
          5    1    5    5  503    0  0.20039408222E+02 -0.44356417925E+02 -0.15547344323E+03  0.16298205804E+03  0.47000000000E+01 0. -1.
         -5    1    5    5    0  503 -0.22687231666E+02  0.76815268934E+02 -0.17717543909E+03  0.19449555841E+03  0.47000000000E+01 0. -1.
<mgrwt>
<rscale>  0 0.27480395E+03</rscale>
<asrwt>0</asrwt>
<pdfrwt beam="1">  1        1 0.28963274E-02 0.27480395E+03</pdfrwt>
<pdfrwt beam="2">  1       -1 0.15428069E+00 0.27480395E+03</pdfrwt>
<totfact> 0.12566273E+03</totfact>
</mgrwt>
</event>
<event>
 9    1  0.2065703E-002  0.2746166E+03  0.7818608E-02  0.1098666E+00
         -2   -1    0    0    0  501 -0.00000000000E+00  0.00000000000E+00  0.29639534468E+02  0.29639534468E+02  0.00000000000E+00 0. -1.
          2   -1    0    0  501    0  0.00000000000E+00 -0.00000000000E+00 -0.63609523114E+03  0.63609523114E+03  0.00000000000E+00 0. -1.
         36    2    1    2    0    0  0.35527136788E-14 -0.14210854715E-13 -0.60645569667E+03  0.66573476560E+03  0.27461658019E+03 0.  0.
         25    2    3    3    0    0  0.17015196569E+02 -0.53477116888E+02 -0.37206567070E+03  0.39426831997E+03  0.11775111835E+03 0.  0.
         25    2    3    3    0    0 -0.17015196569E+02  0.53477116888E+02 -0.23439002597E+03  0.27146644563E+03  0.12492408850E+03 0.  0.
          5    1    4    4  502    0  0.47804376729E+02  0.93374648951E+01 -0.78959175724E+02  0.92892885175E+02  0.47000000000E+01 0.  1.
         -5    1    4    4    0  502 -0.30789180160E+02 -0.62814581783E+02 -0.29310649498E+03  0.30137543479E+03  0.47000000000E+01 0.  1.
          5    1    5    5  503    0  0.40247615103E+02  0.54150244356E+02 -0.18024226966E+03  0.19251359759E+03  0.47000000000E+01 0.  1.
         -5    1    5    5    0  503 -0.57262811672E+02 -0.67312746848E+00 -0.54147756301E+02  0.78952848040E+02  0.47000000000E+01 0.  1.
<mgrwt>
<rscale>  0 0.27461658E+03</rscale>
<asrwt>0</asrwt>
<pdfrwt beam="1">  1        2 0.97860795E-01 0.27461658E+03</pdfrwt>
<pdfrwt beam="2">  1       -2 0.45599288E-02 0.27461658E+03</pdfrwt>
<totfact> 0.10561494E+04</totfact>
</mgrwt>
</event>
<event>
 9    1  0.2065703E-002  0.2754102E+03  0.7818608E-02  0.1098223E+00
         -2   -1    0    0    0  501 -0.00000000000E+00  0.00000000000E+00  0.68092181427E+03  0.68092181427E+03  0.00000000000E+00 0. -1.
          2   -1    0    0  501    0  0.00000000000E+00 -0.00000000000E+00 -0.27848556888E+02  0.27848556888E+02  0.00000000000E+00 0. -1.
         36    2    1    2    0    0  0.35527136788E-14  0.00000000000E+00  0.65307325738E+03  0.70877037116E+03  0.27541016598E+03 0.  0.
         25    2    3    3    0    0  0.12806273156E+02 -0.50592403019E+02  0.39935528729E+03  0.42176678375E+03  0.12521574389E+03 0.  0.
         25    2    3    3    0    0 -0.12806273156E+02  0.50592403019E+02  0.25371797010E+03  0.28700358741E+03  0.12359069123E+03 0.  0.
          5    1    4    4  502    0  0.10032177485E+02  0.17342754999E+02  0.30325446999E+03  0.30395193585E+03  0.47000000000E+01 0. -1.
         -5    1    4    4    0  502  0.27740956711E+01 -0.67935158018E+02  0.96100817291E+02  0.11781484790E+03  0.47000000000E+01 0. -1.
          5    1    5    5  503    0  0.40294342667E+02 -0.17921898046E+02  0.11622099616E+03  0.12439549200E+03  0.47000000000E+01 0.  1.
         -5    1    5    5    0  503 -0.53100615823E+02  0.68514301065E+02  0.13749697393E+03  0.16260809541E+03  0.47000000000E+01 0.  1.
<mgrwt>
<rscale>  0 0.27541017E+03</rscale>
<asrwt>0</asrwt>
<pdfrwt beam="1">  1        2 0.42843939E-02 0.27541017E+03</pdfrwt>
<pdfrwt beam="2">  1       -2 0.10475719E+00 0.27541017E+03</pdfrwt>
<totfact> 0.14849157E+03</totfact>
</mgrwt>
</event>
<event>
 9    1  0.2065703E-002  0.2755203E+03  0.7818608E-02  0.1098161E+00
          2   -1    0    0  501    0  0.00000000000E+00  0.00000000000E+00  0.53636602644E+03  0.53636602644E+03  0.00000000000E+00 0. -1.
         -2   -1    0    0    0  501 -0.00000000000E+00 -0.00000000000E+00 -0.35382279361E+02  0.35382279361E+02  0.00000000000E+00 0. -1.
         36    2    1    2    0    0  0.53290705182E-14  0.00000000000E+00  0.50098374708E+03  0.57174830581E+03  0.27552025397E+03 0.  0.
         25    2    3    3    0    0 -0.15071373599E+02 -0.41718759382E+02  0.33594444308E+03  0.36197427911E+03  0.12727571926E+03 0.  0.
         25    2    3    3    0    0  0.15071373599E+02  0.41718759382E+02  0.16503930400E+03  0.20977402669E+03  0.12165348011E+03 0.  0.
          5    1    4    4  502    0 -0.23220617015E+02  0.42190599169E+02  0.15334638322E+03  0.16079939975E+03  0.47000000000E+01 0. -1.
         -5    1    4    4    0  502  0.81492434162E+01 -0.83909358551E+02  0.18259805986E+03  0.20117487936E+03  0.47000000000E+01 0. -1.
          5    1    5    5  503    0 -0.37299298085E+02  0.68496116483E+01  0.13422573285E+03  0.13955927836E+03  0.47000000000E+01 0. -1.
         -5    1    5    5    0  503  0.52370671683E+02  0.34869147734E+02  0.30813571147E+02  0.70214748330E+02  0.47000000000E+01 0. -1.
<mgrwt>
<rscale>  0 0.27552025E+03</rscale>
<asrwt>0</asrwt>
<pdfrwt beam="1">  1        2 0.82517844E-01 0.27552025E+03</pdfrwt>
<pdfrwt beam="2">  1       -2 0.54434280E-02 0.27552025E+03</pdfrwt>
<totfact> 0.98272027E+03</totfact>
</mgrwt>
</event>
<event>
 9    1  0.2065703E-002  0.2747126E+03  0.7818608E-02  0.1098612E+00
         -2   -1    0    0    0  501 -0.00000000000E+00  0.00000000000E+00  0.10621560347E+02  0.10621560347E+02  0.00000000000E+00 0. -1.
          2   -1    0    0  501    0  0.00000000000E+00 -0.00000000000E+00 -0.17762688601E+04  0.17762688601E+04  0.00000000000E+00 0. -1.
         36    2    1    2    0    0  0.00000000000E+00  0.71054273576E-14 -0.17656472998E+04  0.17868904205E+04  0.27471255442E+03 0.  0.
         25    2    3    3    0    0  0.13457905693E+02 -0.63625100204E+02 -0.79357498677E+03  0.80483678325E+03  0.11735296945E+03 0.  0.
         25    2    3    3    0    0 -0.13457905693E+02  0.63625100204E+02 -0.97207231302E+03  0.98205363723E+03  0.12359407779E+03 0.  0.
          5    1    4    4  502    0  0.51499640674E+02 -0.70072268067E+02 -0.66001145116E+03  0.66573233466E+03  0.47000000000E+01 0.  1.
         -5    1    4    4    0  502 -0.38041734982E+02  0.64471678636E+01 -0.13356353561E+03  0.13910444859E+03  0.47000000000E+01 0.  1.
          5    1    5    5  503    0  0.37418203376E+02  0.15866392833E+02 -0.11370779667E+03  0.12084460017E+03  0.47000000000E+01 0.  1.
         -5    1    5    5    0  503 -0.50876109069E+02  0.47758707370E+02 -0.85836451634E+03  0.86120903706E+03  0.47000000000E+01 0.  1.
<mgrwt>
<rscale>  0 0.27471255E+03</rscale>
<asrwt>0</asrwt>
<pdfrwt beam="1">  1        2 0.27327206E+00 0.27471255E+03</pdfrwt>
<pdfrwt beam="2">  1       -2 0.16340867E-02 0.27471255E+03</pdfrwt>
<totfact> 0.10135332E+04</totfact>
</mgrwt>
</event>
<event>
 9    1  0.2065703E-002  0.2744849E+03  0.7818608E-02  0.1098740E+00
         -2   -1    0    0    0  501 -0.00000000000E+00  0.00000000000E+00  0.13701682013E+02  0.13701682013E+02  0.00000000000E+00 0. -1.
          2   -1    0    0  501    0  0.00000000000E+00 -0.00000000000E+00 -0.13746845965E+04  0.13746845965E+04  0.00000000000E+00 0. -1.
         36    2    1    2    0    0  0.71054273576E-14 -0.71054273576E-14 -0.13609829145E+04  0.13883862785E+04  0.27448490822E+03 0.  0.
         25    2    3    3    0    0  0.36276400527E+02 -0.28368417340E+02 -0.50401313958E+03  0.52125995480E+03  0.12474755017E+03 0.  0.
         25    2    3    3    0    0 -0.36276400527E+02  0.28368417340E+02 -0.85696977493E+03  0.86712632374E+03  0.12405692980E+03 0.  0.
          5    1    4    4  502    0 -0.39710068182E+02 -0.37890995354E+02 -0.24530018193E+03  0.25140979754E+03  0.47000000000E+01 0.  1.
         -5    1    4    4    0  502  0.75986468709E+02  0.95225780141E+01 -0.25871295765E+03  0.26985015726E+03  0.47000000000E+01 0.  1.
          5    1    5    5  503    0  0.14801550923E+02 -0.20843064258E+02 -0.44365407478E+02  0.51418854695E+02  0.47000000000E+01 0. -1.
         -5    1    5    5    0  503 -0.51077951450E+02  0.49211481599E+02 -0.81260436745E+03  0.81570746904E+03  0.47000000000E+01 0. -1.
<mgrwt>
<rscale>  0 0.27448491E+03</rscale>
<asrwt>0</asrwt>
<pdfrwt beam="1">  1        2 0.21148987E+00 0.27448491E+03</pdfrwt>
<pdfrwt beam="2">  1       -2 0.21079517E-02 0.27448491E+03</pdfrwt>
<totfact> 0.11408430E+04</totfact>
</mgrwt>
</event>
<event>
 9    1  0.2065703E-002  0.2745319E+03  0.7818608E-02  0.1098714E+00
         -2   -1    0    0    0  501 -0.00000000000E+00  0.00000000000E+00  0.91425558056E+02  0.91425558056E+02  0.00000000000E+00 0. -1.
          2   -1    0    0  501    0  0.00000000000E+00 -0.00000000000E+00 -0.20609057916E+03  0.20609057916E+03  0.00000000000E+00 0. -1.
         36    2    1    2    0    0  0.71054273576E-14  0.00000000000E+00 -0.11466502110E+03  0.29751613721E+03  0.27453193774E+03 0.  0.
         25    2    3    3    0    0 -0.60727393442E+02  0.27195019535E+02 -0.40550661125E+02  0.13854359431E+03  0.11455385636E+03 0.  0.
         25    2    3    3    0    0  0.60727393442E+02 -0.27195019535E+02 -0.74114359975E+02  0.15897254290E+03  0.12390296865E+03 0.  0.
          5    1    4    4  502    0 -0.35560883999E+02  0.71303745246E+02 -0.35294967504E+02  0.87273279347E+02  0.47000000000E+01 0.  1.
         -5    1    4    4    0  502 -0.25166509443E+02 -0.44108725711E+02 -0.52556936210E+01  0.51270314967E+02  0.47000000000E+01 0.  1.
          5    1    5    5  503    0  0.28599198818E+02  0.46372500876E+02 -0.88280743798E+01  0.55392670163E+02  0.47000000000E+01 0.  1.
         -5    1    5    5    0  503  0.32128194624E+02 -0.73567520411E+02 -0.65286285595E+02  0.10357987274E+03  0.47000000000E+01 0.  1.
<mgrwt>
<rscale>  0 0.27453194E+03</rscale>
<asrwt>0</asrwt>
<pdfrwt beam="1">  1        2 0.31706243E-01 0.27453194E+03</pdfrwt>
<pdfrwt beam="2">  1       -2 0.14065470E-01 0.27453194E+03</pdfrwt>
<totfact> 0.62348208E+03</totfact>
</mgrwt>
</event>
<event>
 9    1  0.2065703E-002  0.2726121E+03  0.7818608E-02  0.1099794E+00
          2   -1    0    0  501    0  0.00000000000E+00  0.00000000000E+00  0.59668454962E+02  0.59668454962E+02  0.00000000000E+00 0.  1.
         -2   -1    0    0    0  501 -0.00000000000E+00 -0.00000000000E+00 -0.31137621267E+03  0.31137621267E+03  0.00000000000E+00 0.  1.
         36    2    1    2    0    0  0.71054273576E-14  0.00000000000E+00 -0.25170775771E+03  0.37104466763E+03  0.27261208720E+03 0.  0.
         25    2    3    3    0    0  0.52895477399E+02 -0.54013691329E+00 -0.13723810232E+03  0.19244578196E+03  0.12410825512E+03 0.  0.
         25    2    3    3    0    0 -0.52895477399E+02  0.54013691329E+00 -0.11446965539E+03  0.17859888567E+03  0.12647543904E+03 0.  0.
          5    1    4    4  502    0  0.27776107818E+02 -0.46519548479E+02 -0.10724709089E+02  0.55431849521E+02  0.47000000000E+01 0.  1.
         -5    1    4    4    0  502  0.25119369580E+02  0.45979411566E+02 -0.12651339323E+03  0.13701393244E+03  0.47000000000E+01 0.  1.
          5    1    5    5  503    0 -0.51698132611E+02 -0.45440838197E+02 -0.11293134046E+03  0.13233723720E+03  0.47000000000E+01 0.  1.
         -5    1    5    5    0  503 -0.11973447876E+01  0.45980975110E+02 -0.15383149299E+01  0.46261648473E+02  0.47000000000E+01 0.  1.
<mgrwt>
<rscale>  0 0.27261209E+03</rscale>
<asrwt>0</asrwt>
<pdfrwt beam="1">  1        2 0.91797622E-02 0.27261209E+03</pdfrwt>
<pdfrwt beam="2">  1       -2 0.47904033E-01 0.27261209E+03</pdfrwt>
<totfact> 0.29742553E+03</totfact>
</mgrwt>
</event>
<event>
 9    1  0.2065703E-002  0.2766238E+03  0.7818608E-02  0.1097547E+00
          1   -1    0    0  501    0  0.00000000000E+00  0.00000000000E+00  0.34146995248E+03  0.34146995248E+03  0.00000000000E+00 0. -1.
         -1   -1    0    0    0  501 -0.00000000000E+00 -0.00000000000E+00 -0.56023042479E+02  0.56023042479E+02  0.00000000000E+00 0. -1.
         36    2    1    2    0    0  0.00000000000E+00 -0.71054273576E-14  0.28544691000E+03  0.39749299496E+03  0.27662382871E+03 0.  0.
         25    2    3    3    0    0 -0.23561707149E+02  0.31576800163E+02  0.20950239369E+03  0.24763574077E+03  0.12601570851E+03 0.  0.
         25    2    3    3    0    0  0.23561707149E+02 -0.31576800163E+02  0.75944516314E+02  0.14985725420E+03  0.12303405514E+03 0.  0.
          5    1    4    4  502    0  0.25365879025E+02 -0.12649794708E+01 -0.39677431204E+01  0.26131608776E+02  0.47000000000E+01 0.  1.
         -5    1    4    4    0  502 -0.48927586175E+02  0.32841779634E+02  0.21347013681E+03  0.22150413199E+03  0.47000000000E+01 0.  1.
          5    1    5    5  503    0  0.71252376006E+02 -0.14941093472E+01  0.32240218035E+02  0.78362332203E+02  0.47000000000E+01 0.  1.
         -5    1    5    5    0  503 -0.47690668857E+02 -0.30082690816E+02  0.43704298279E+02  0.71494921993E+02  0.47000000000E+01 0.  1.
<mgrwt>
<rscale>  0 0.27662383E+03</rscale>
<asrwt>0</asrwt>
<pdfrwt beam="1">  1        1 0.52533837E-01 0.27662383E+03</pdfrwt>
<pdfrwt beam="2">  1       -1 0.86189298E-02 0.27662383E+03</pdfrwt>
<totfact> 0.56674949E+03</totfact>
</mgrwt>
</event>
<event>
 9    1  0.2065703E-002  0.2747306E+03  0.7818608E-02  0.1098602E+00
          2   -1    0    0  501    0  0.00000000000E+00  0.00000000000E+00  0.20447215595E+04  0.20447215595E+04  0.00000000000E+00 0.  1.
         -2   -1    0    0    0  501 -0.00000000000E+00 -0.00000000000E+00 -0.92282600866E+01  0.92282600866E+01  0.00000000000E+00 0.  1.
         36    2    1    2    0    0 -0.35527136788E-14 -0.35527136788E-14  0.20354932994E+04  0.20539498195E+04  0.27473057606E+03 0.  0.
         25    2    3    3    0    0  0.12285467380E+02 -0.18150374699E+02  0.13782398143E+04  0.13842589400E+04  0.12707264976E+03 0.  0.
         25    2    3    3    0    0 -0.12285467380E+02  0.18150374699E+02  0.65725348507E+03  0.66969087959E+03  0.12658341817E+03 0.  0.
          5    1    4    4  502    0  0.37460733987E+02 -0.32716981516E+02  0.12949186947E+04  0.12958820252E+04  0.47000000000E+01 0. -1.
         -5    1    4    4    0  502 -0.25175266606E+02  0.14566606817E+02  0.83321119646E+02  0.88376914757E+02  0.47000000000E+01 0. -1.
          5    1    5    5  503    0  0.51320513107E+02  0.13087988096E+02  0.16648851083E+03  0.17477300918E+03  0.47000000000E+01 0. -1.
         -5    1    5    5    0  503 -0.63605980487E+02  0.50623866028E+01  0.49076497424E+03  0.49491787041E+03  0.47000000000E+01 0. -1.
<mgrwt>
<rscale>  0 0.27473058E+03</rscale>
<asrwt>0</asrwt>
<pdfrwt beam="1">  1        2 0.31457219E+00 0.27473058E+03</pdfrwt>
<pdfrwt beam="2">  1       -2 0.14197339E-02 0.27473058E+03</pdfrwt>
<totfact> 0.89982078E+03</totfact>
</mgrwt>
</event>
<event>
 9    1  0.2065703E-002  0.2751237E+03  0.7818608E-02  0.1098382E+00
         -2   -1    0    0    0  501 -0.00000000000E+00  0.00000000000E+00  0.29035772610E+02  0.29035772610E+02  0.00000000000E+00 0.  1.
          2   -1    0    0  501    0  0.00000000000E+00 -0.00000000000E+00 -0.65172232226E+03  0.65172232226E+03  0.00000000000E+00 0.  1.
         36    2    1    2    0    0  0.14210854715E-13  0.00000000000E+00 -0.62268654965E+03  0.68075809487E+03  0.27512368967E+03 0.  0.
         25    2    3    3    0    0  0.39592008809E+02  0.37017240754E+02 -0.23653841067E+03  0.27187986804E+03  0.12259869349E+03 0.  0.
         25    2    3    3    0    0 -0.39592008809E+02 -0.37017240754E+02 -0.38614813898E+03  0.40887822684E+03  0.12301713648E+03 0.  0.
          5    1    4    4  502    0  0.71345848789E+02 -0.23682342785E+01 -0.80095608603E+02  0.10739290102E+03  0.47000000000E+01 0. -1.
         -5    1    4    4    0  502 -0.31753839980E+02  0.39385475033E+02 -0.15644280207E+03  0.16448696701E+03  0.47000000000E+01 0. -1.
          5    1    5    5  503    0 -0.76235985735E+02 -0.50205010515E+02 -0.31036385501E+03  0.32354332182E+03  0.47000000000E+01 0. -1.
         -5    1    5    5    0  503  0.36643976926E+02  0.13187769761E+02 -0.75784283974E+02  0.85334905014E+02  0.47000000000E+01 0. -1.
<mgrwt>
<rscale>  0 0.27512369E+03</rscale>
<asrwt>0</asrwt>
<pdfrwt beam="1">  1        2 0.10026498E+00 0.27512369E+03</pdfrwt>
<pdfrwt beam="2">  1       -2 0.44670416E-02 0.27512369E+03</pdfrwt>
<totfact> 0.10587624E+04</totfact>
</mgrwt>
</event>
<event>
 9    1  0.2065703E-002  0.2736156E+03  0.7818608E-02  0.1099228E+00
          1   -1    0    0  501    0  0.00000000000E+00  0.00000000000E+00  0.82256932566E+03  0.82256932566E+03  0.00000000000E+00 0. -1.
         -1   -1    0    0    0  501 -0.00000000000E+00 -0.00000000000E+00 -0.22753549187E+02  0.22753549187E+02  0.00000000000E+00 0. -1.
         36    2    1    2    0    0 -0.55511151231E-14 -0.10658141036E-13  0.79981577647E+03  0.84532287485E+03  0.27361558151E+03 0.  0.
         25    2    3    3    0    0  0.12393623591E+01  0.21298040526E+02  0.55305525234E+03  0.56717223922E+03  0.12393181294E+03 0.  0.
         25    2    3    3    0    0 -0.12393623591E+01 -0.21298040526E+02  0.24676052413E+03  0.27815063562E+03  0.12657755440E+03 0.  0.
          5    1    4    4  502    0  0.89621030107E-01 -0.52014571390E+02  0.23817104959E+03  0.24382998694E+03  0.47000000000E+01 0.  1.
         -5    1    4    4    0  502  0.11497413290E+01  0.73312611916E+02  0.31488420274E+03  0.32334225228E+03  0.47000000000E+01 0.  1.
          5    1    5    5  503    0  0.55023782772E+02 -0.18544086906E+02  0.62609017844E+02  0.85518880635E+02  0.47000000000E+01 0.  1.
         -5    1    5    5    0  503 -0.56263145131E+02 -0.27539536204E+01  0.18415150629E+03  0.19263175499E+03  0.47000000000E+01 0.  1.
<mgrwt>
<rscale>  0 0.27361558E+03</rscale>
<asrwt>0</asrwt>
<pdfrwt beam="1">  1        1 0.12654910E+00 0.27361558E+03</pdfrwt>
<pdfrwt beam="2">  1       -1 0.35005467E-02 0.27361558E+03</pdfrwt>
<totfact> 0.66059613E+03</totfact>
</mgrwt>
</event>
<event>
 9    1  0.2065703E-002  0.2750984E+03  0.7818608E-02  0.1098397E+00
         -1   -1    0    0    0  501 -0.00000000000E+00  0.00000000000E+00  0.28038121293E+02  0.28038121293E+02  0.00000000000E+00 0. -1.
          1   -1    0    0  501    0  0.00000000000E+00 -0.00000000000E+00 -0.67478780602E+03  0.67478780602E+03  0.00000000000E+00 0. -1.
         36    2    1    2    0    0  0.00000000000E+00 -0.71054273576E-14 -0.64674968473E+03  0.70282592732E+03  0.27509839950E+03 0.  0.
         25    2    3    3    0    0 -0.32719046207E+02 -0.45731680768E+02 -0.39154864967E+03  0.41377949082E+03  0.12141334092E+03 0.  0.
         25    2    3    3    0    0  0.32719046207E+02  0.45731680768E+02 -0.25520103506E+03  0.28904643650E+03  0.12352470014E+03 0.  0.
          5    1    4    4  502    0  0.38452081538E+02 -0.15077767069E+02 -0.58267785331E+02  0.71576018622E+02  0.47000000000E+01 0.  1.
         -5    1    4    4    0  502 -0.71171127745E+02 -0.30653913698E+02 -0.33328086434E+03  0.34220347220E+03  0.47000000000E+01 0.  1.
          5    1    5    5  503    0  0.27249669228E+02  0.87310605612E+02 -0.19602922388E+03  0.21636828081E+03  0.47000000000E+01 0. -1.
         -5    1    5    5    0  503  0.54693769788E+01 -0.41578924845E+02 -0.59171811183E+02  0.72678155689E+02  0.47000000000E+01 0. -1.
<mgrwt>
<rscale>  0 0.27509840E+03</rscale>
<asrwt>0</asrwt>
<pdfrwt beam="1">  1        1 0.10381351E+00 0.27509840E+03</pdfrwt>
<pdfrwt beam="2">  1       -1 0.43135572E-02 0.27509840E+03</pdfrwt>
<totfact> 0.65148606E+03</totfact>
</mgrwt>
</event>
<event>
 9    1  0.2065703E-002  0.2749449E+03  0.7818608E-02  0.1098482E+00
         -1   -1    0    0    0  501 -0.00000000000E+00  0.00000000000E+00  0.12232745190E+04  0.12232745190E+04  0.00000000000E+00 0. -1.
          1   -1    0    0  501    0  0.00000000000E+00 -0.00000000000E+00 -0.15449247272E+02  0.15449247272E+02  0.00000000000E+00 0. -1.
         36    2    1    2    0    0  0.00000000000E+00  0.00000000000E+00  0.12078252718E+04  0.12387237663E+04  0.27494487103E+03 0.  0.
         25    2    3    3    0    0 -0.37157770552E+02 -0.43078086942E+02  0.60553231894E+03  0.62065915628E+03  0.12374157549E+03 0.  0.
         25    2    3    3    0    0  0.37157770552E+02  0.43078086942E+02  0.60229295281E+03  0.61806461002E+03  0.12653315638E+03 0.  0.
          5    1    4    4  502    0 -0.38880517588E+02 -0.14236333449E+02  0.53321702558E+02  0.67673198548E+02  0.47000000000E+01 0.  1.
         -5    1    4    4    0  502  0.17227470359E+01 -0.28841753493E+02  0.55221061639E+03  0.55298595773E+03  0.47000000000E+01 0.  1.
          5    1    5    5  503    0  0.55389376423E+02  0.77282231028E+02  0.34776275340E+03  0.36055727548E+03  0.47000000000E+01 0.  1.
         -5    1    5    5    0  503 -0.18231605871E+02 -0.34204144086E+02  0.25453019942E+03  0.25750733454E+03  0.47000000000E+01 0.  1.
<mgrwt>
<rscale>  0 0.27494487E+03</rscale>
<asrwt>0</asrwt>
<pdfrwt beam="1">  1        1 0.23768082E-02 0.27494487E+03</pdfrwt>
<pdfrwt beam="2">  1       -1 0.18819600E+00 0.27494487E+03</pdfrwt>
<totfact> 0.95066403E+02</totfact>
</mgrwt>
</event>
<event>
 9    1  0.2065703E-002  0.2749036E+03  0.7818608E-02  0.1098505E+00
          3   -1    0    0  501    0  0.00000000000E+00  0.00000000000E+00  0.50012785116E+03  0.50012785116E+03  0.00000000000E+00 0. -1.
         -3   -1    0    0    0  501 -0.00000000000E+00 -0.00000000000E+00 -0.37776339167E+02  0.37776339167E+02  0.00000000000E+00 0. -1.
         36    2    1    2    0    0  0.71054273576E-14 -0.17763568394E-14  0.46235151200E+03  0.53790419033E+03  0.27490361462E+03 0.  0.
         25    2    3    3    0    0  0.51001649953E+02  0.56698504225E+01  0.33342159991E+03  0.35892730932E+03  0.12257868731E+03 0.  0.
         25    2    3    3    0    0 -0.51001649953E+02 -0.56698504225E+01  0.12892991208E+03  0.17897688101E+03  0.11303311995E+03 0.  0.
          5    1    4    4  502    0 -0.11226836079E+02 -0.18674845855E+01  0.26770488849E+03  0.26798792262E+03  0.47000000000E+01 0. -1.
         -5    1    4    4    0  502  0.62228486031E+02  0.75373350080E+01  0.65716711419E+02  0.90939386695E+02  0.47000000000E+01 0. -1.
          5    1    5    5  503    0  0.27138768007E+02 -0.17565247579E+02  0.67088251350E+01  0.33348897826E+02  0.47000000000E+01 0.  1.
         -5    1    5    5    0  503 -0.78140417960E+02  0.11895397157E+02  0.12222108695E+03  0.14562798319E+03  0.47000000000E+01 0.  1.
<mgrwt>
<rscale>  0 0.27490361E+03</rscale>
<asrwt>0</asrwt>
<pdfrwt beam="1">  1        3 0.76942742E-01 0.27490361E+03</pdfrwt>
<pdfrwt beam="2">  1       -3 0.58117448E-02 0.27490361E+03</pdfrwt>
<totfact> 0.73965925E+02</totfact>
</mgrwt>
</event>
<event>
 9    1  0.2065703E-002  0.2751265E+03  0.7818608E-02  0.1098381E+00
         -2   -1    0    0    0  501 -0.00000000000E+00  0.00000000000E+00  0.11990951439E+02  0.11990951439E+02  0.00000000000E+00 0. -1.
          2   -1    0    0  501    0  0.00000000000E+00 -0.00000000000E+00 -0.15781609739E+04  0.15781609739E+04  0.00000000000E+00 0. -1.
         36    2    1    2    0    0 -0.71054273576E-14 -0.71054273576E-14 -0.15661700225E+04  0.15901519253E+04  0.27512652800E+03 0.  0.
         25    2    3    3    0    0  0.39858223428E+02  0.62486131044E+02 -0.74727511702E+03  0.76078271366E+03  0.12197148171E+03 0.  0.
         25    2    3    3    0    0 -0.39858223428E+02 -0.62486131044E+02 -0.81889490545E+03  0.82936921168E+03  0.10849529282E+03 0.  0.
          5    1    4    4  502    0  0.31368692721E+02  0.20723111263E+02 -0.67968770776E+03  0.68074291205E+03  0.47000000000E+01 0.  1.
         -5    1    4    4    0  502  0.84895307063E+01  0.41763019781E+02 -0.67587409256E+02  0.80039801616E+02  0.47000000000E+01 0.  1.
          5    1    5    5  503    0 -0.26002485322E+02 -0.41294186957E+02 -0.11513009949E+03  0.12513340453E+03  0.47000000000E+01 0.  1.
         -5    1    5    5    0  503 -0.13855738105E+02 -0.21191944087E+02 -0.70376480596E+03  0.70423580715E+03  0.47000000000E+01 0.  1.
<mgrwt>
<rscale>  0 0.27512653E+03</rscale>
<asrwt>0</asrwt>
<pdfrwt beam="1">  1        2 0.24279393E+00 0.27512653E+03</pdfrwt>
<pdfrwt beam="2">  1       -2 0.18447623E-02 0.27512653E+03</pdfrwt>
<totfact> 0.10792114E+04</totfact>
</mgrwt>
</event>
<event>
 9    1  0.2065703E-002  0.2753405E+03  0.7818608E-02  0.1098261E+00
         -1   -1    0    0    0  501 -0.00000000000E+00  0.00000000000E+00  0.69973014325E+01  0.69973014325E+01  0.00000000000E+00 0.  1.
          1   -1    0    0  501    0  0.00000000000E+00 -0.00000000000E+00 -0.27086301398E+04  0.27086301398E+04  0.00000000000E+00 0.  1.
         36    2    1    2    0    0 -0.71054273576E-14 -0.35527136788E-14 -0.27016328384E+04  0.27156274413E+04  0.27534052777E+03 0.  0.
         25    2    3    3    0    0  0.57060370719E+02  0.20690318577E+02 -0.13389648742E+04  0.13459266772E+04  0.12250596205E+03 0.  0.
         25    2    3    3    0    0 -0.57060370719E+02 -0.20690318577E+02 -0.13626679642E+04  0.13697007641E+04  0.12462835699E+03 0.  0.
          5    1    4    4  502    0 -0.25896679820E+02  0.18662499507E+01 -0.78549999783E+03  0.78594303707E+03  0.47000000000E+01 0.  1.
         -5    1    4    4    0  502  0.82957050539E+02  0.18824068626E+02 -0.55346487640E+03  0.55998364012E+03  0.47000000000E+01 0.  1.
          5    1    5    5  503    0 -0.49203539681E+02  0.26365221290E+02 -0.25885537224E+03  0.26484770519E+03  0.47000000000E+01 0. -1.
         -5    1    5    5    0  503 -0.78568310380E+01 -0.47055539867E+02 -0.11038125919E+04  0.11048530589E+04  0.47000000000E+01 0. -1.
<mgrwt>
<rscale>  0 0.27534053E+03</rscale>
<asrwt>0</asrwt>
<pdfrwt beam="1">  1        1 0.41671272E+00 0.27534053E+03</pdfrwt>
<pdfrwt beam="2">  1       -1 0.10765069E-02 0.27534053E+03</pdfrwt>
<totfact> 0.19416445E+03</totfact>
</mgrwt>
</event>
<event>
 9    1  0.2065703E-002  0.2736780E+03  0.7818608E-02  0.1099193E+00
         -2   -1    0    0    0  501 -0.00000000000E+00  0.00000000000E+00  0.10002757827E+02  0.10002757827E+02  0.00000000000E+00 0.  1.
          2   -1    0    0  501    0  0.00000000000E+00 -0.00000000000E+00 -0.18719754585E+04  0.18719754585E+04  0.00000000000E+00 0.  1.
         36    2    1    2    0    0 -0.71054273576E-14  0.71054273576E-14 -0.18619727007E+04  0.18819782164E+04  0.27367803836E+03 0.  0.
         25    2    3    3    0    0  0.49832070798E+02 -0.54970398164E+01 -0.11048537794E+04  0.11129714599E+04  0.12445940704E+03 0.  0.
         25    2    3    3    0    0 -0.49832070798E+02  0.54970398164E+01 -0.75711892130E+03  0.76900675645E+03  0.12501550998E+03 0.  0.
          5    1    4    4  502    0  0.22190657463E+02 -0.56291458799E+02 -0.30280984686E+03  0.30883174540E+03  0.47000000000E+01 0.  1.
         -5    1    4    4    0  502  0.27641413336E+02  0.50794418983E+02 -0.80204393255E+03  0.80413971452E+03  0.47000000000E+01 0.  1.
          5    1    5    5  503    0  0.27383711542E+02  0.40006133444E+02 -0.22740747885E+03  0.23256528074E+03  0.47000000000E+01 0. -1.
         -5    1    5    5    0  503 -0.77215782340E+02 -0.34509093628E+02 -0.52971144246E+03  0.53644147570E+03  0.47000000000E+01 0. -1.
<mgrwt>
<rscale>  0 0.27367804E+03</rscale>
<asrwt>0</asrwt>
<pdfrwt beam="1">  1        2 0.28799606E+00 0.27367804E+03</pdfrwt>
<pdfrwt beam="2">  1       -2 0.15388867E-02 0.27367804E+03</pdfrwt>
<totfact> 0.98570876E+03</totfact>
</mgrwt>
</event>
<event>
 9    1  0.2065703E-002  0.2749411E+03  0.7818608E-02  0.1098485E+00
          3   -1    0    0  501    0  0.00000000000E+00  0.00000000000E+00  0.72162781338E+02  0.72162781338E+02  0.00000000000E+00 0. -1.
         -3   -1    0    0    0  501 -0.00000000000E+00 -0.00000000000E+00 -0.26188229004E+03  0.26188229004E+03  0.00000000000E+00 0. -1.
         36    2    1    2    0    0  0.35527136788E-14  0.00000000000E+00 -0.18971950871E+03  0.33404507138E+03  0.27494111684E+03 0.  0.
         25    2    3    3    0    0  0.11301845731E+01 -0.35928933611E+02 -0.15261793491E+03  0.20115345112E+03  0.12600917131E+03 0.  0.
         25    2    3    3    0    0 -0.11301845731E+01  0.35928933611E+02 -0.37101573800E+02  0.13289162027E+03  0.12243974179E+03 0.  0.
          5    1    4    4  502    0  0.58016488837E+02 -0.22686054287E+02 -0.39932559860E+02  0.74143572703E+02  0.47000000000E+01 0.  1.
         -5    1    4    4    0  502 -0.56886304264E+02 -0.13242879324E+02 -0.11268537505E+03  0.12700987841E+03  0.47000000000E+01 0.  1.
          5    1    5    5  503    0  0.11590311792E+02  0.28424994020E+02  0.42029032812E+02  0.52257489526E+02  0.47000000000E+01 0. -1.
         -5    1    5    5    0  503 -0.12720496365E+02  0.75039395905E+01 -0.79130606612E+02  0.80634130739E+02  0.47000000000E+01 0. -1.
<mgrwt>
<rscale>  0 0.27494112E+03</rscale>
<asrwt>0</asrwt>
<pdfrwt beam="1">  1        3 0.11101966E-01 0.27494112E+03</pdfrwt>
<pdfrwt beam="2">  1       -3 0.40289583E-01 0.27494112E+03</pdfrwt>
<totfact> 0.96446460E+02</totfact>
</mgrwt>
</event>
<event>
 9    1  0.2065703E-002  0.2833789E+03  0.7818608E-02  0.1093858E+00
         -1   -1    0    0    0  501 -0.00000000000E+00  0.00000000000E+00  0.29518837747E+02  0.29518837747E+02  0.00000000000E+00 0.  1.
          1   -1    0    0  501    0  0.00000000000E+00 -0.00000000000E+00 -0.68010452897E+03  0.68010452897E+03  0.00000000000E+00 0.  1.
         36    2    1    2    0    0  0.00000000000E+00  0.00000000000E+00 -0.65058569122E+03  0.70962336671E+03  0.28337886471E+03 0.  0.
         25    2    3    3    0    0  0.62078320801E+01  0.38211267666E+02 -0.35102379041E+03  0.38125063021E+03  0.14365132594E+03 0.  0.
         25    2    3    3    0    0 -0.62078320801E+01 -0.38211267666E+02 -0.29956190081E+03  0.32837273650E+03  0.12881259064E+03 0.  0.
          5    1    4    4  502    0  0.21347680434E+02  0.90617758702E+02 -0.23980364633E+03  0.25728424057E+03  0.47000000000E+01 0.  1.
         -5    1    4    4    0  502 -0.15139848353E+02 -0.52406491036E+02 -0.11122014409E+03  0.12396638965E+03  0.47000000000E+01 0.  1.
          5    1    5    5  503    0 -0.25906965642E+02  0.12112060654E+02 -0.56889734052E+01  0.29535187497E+02  0.47000000000E+01 0.  1.
         -5    1    5    5    0  503  0.19699133562E+02 -0.50323328320E+02 -0.29387292740E+03  0.29883754900E+03  0.47000000000E+01 0.  1.
<mgrwt>
<rscale>  0 0.28337886E+03</rscale>
<asrwt>0</asrwt>
<pdfrwt beam="1">  1        1 0.10463146E+00 0.28337886E+03</pdfrwt>
<pdfrwt beam="2">  1       -1 0.45413599E-02 0.28337886E+03</pdfrwt>
<totfact> 0.59697733E+03</totfact>
</mgrwt>
</event>
<event>
 9    1  0.2065703E-002  0.2742664E+03  0.7818608E-02  0.1098862E+00
         -2   -1    0    0    0  501 -0.00000000000E+00  0.00000000000E+00  0.98828392347E+01  0.98828392347E+01  0.00000000000E+00 0.  1.
          2   -1    0    0  501    0  0.00000000000E+00 -0.00000000000E+00 -0.19028450390E+04  0.19028450390E+04  0.00000000000E+00 0.  1.
         36    2    1    2    0    0 -0.14210854715E-13 -0.71054273576E-14 -0.18929621997E+04  0.19127278782E+04  0.27426637861E+03 0.  0.
         25    2    3    3    0    0  0.51050625926E+02  0.14293257865E+02 -0.71947657171E+03  0.73175121778E+03  0.12248609655E+03 0.  0.
         25    2    3    3    0    0 -0.51050625926E+02 -0.14293257865E+02 -0.11734856280E+04  0.11809766604E+04  0.12176571631E+03 0.  0.
          5    1    4    4  502    0  0.33101719609E+02  0.67212503959E+02 -0.34280532125E+03  0.35092851524E+03  0.47000000000E+01 0.  1.
         -5    1    4    4    0  502  0.17948906317E+02 -0.52919246095E+02 -0.37667125046E+03  0.38082270254E+03  0.47000000000E+01 0.  1.
          5    1    5    5  503    0 -0.40016557025E+02  0.39730701247E+02 -0.27355555651E+03  0.27934671281E+03  0.47000000000E+01 0.  1.
         -5    1    5    5    0  503 -0.11034068901E+02 -0.54023959111E+02 -0.89993007152E+03  0.90162994763E+03  0.47000000000E+01 0.  1.
<mgrwt>
<rscale>  0 0.27426638E+03</rscale>
<asrwt>0</asrwt>
<pdfrwt beam="1">  1        2 0.29274549E+00 0.27426638E+03</pdfrwt>
<pdfrwt beam="2">  1       -2 0.15204363E-02 0.27426638E+03</pdfrwt>
<totfact> 0.96654872E+03</totfact>
</mgrwt>
</event>
<event>
 9    1  0.2065703E-002  0.2748460E+03  0.7818608E-02  0.1098538E+00
         -1   -1    0    0    0  501 -0.00000000000E+00  0.00000000000E+00  0.18349191380E+04  0.18349191380E+04  0.00000000000E+00 0.  1.
          1   -1    0    0  501    0  0.00000000000E+00 -0.00000000000E+00 -0.10292048313E+02  0.10292048313E+02  0.00000000000E+00 0.  1.
         36    2    1    2    0    0  0.71054273576E-14  0.00000000000E+00  0.18246270897E+04  0.18452111863E+04  0.27484596718E+03 0.  0.
         25    2    3    3    0    0  0.16331071383E+02 -0.32860084464E+02  0.59918173158E+03  0.61281976368E+03  0.12321861161E+03 0.  0.
         25    2    3    3    0    0 -0.16331071383E+02  0.32860084464E+02  0.12254453581E+04  0.12323914226E+04  0.12540256714E+03 0.  0.
          5    1    4    4  502    0 -0.31753715584E+02 -0.38016317009E+02  0.10431629805E+03  0.11557473275E+03  0.47000000000E+01 0.  1.
         -5    1    4    4    0  502  0.48084786967E+02  0.51562325444E+01  0.49486543354E+03  0.49724503093E+03  0.47000000000E+01 0.  1.
          5    1    5    5  503    0  0.39328071389E+02  0.11510991015E+02  0.15873786960E+03  0.16400915023E+03  0.47000000000E+01 0. -1.
         -5    1    5    5    0  503 -0.55659142772E+02  0.21349093449E+02  0.10667074885E+04  0.10683822724E+04  0.47000000000E+01 0. -1.
<mgrwt>
<rscale>  0 0.27484597E+03</rscale>
<asrwt>0</asrwt>
<pdfrwt beam="1">  1        1 0.15833935E-02 0.27484597E+03</pdfrwt>
<pdfrwt beam="2">  1       -1 0.28229499E+00 0.27484597E+03</pdfrwt>
<totfact> 0.41971480E+02</totfact>
</mgrwt>
</event>
<event>
 9    1  0.2065703E-002  0.2741811E+03  0.7818608E-02  0.1098910E+00
         -1   -1    0    0    0  501 -0.00000000000E+00  0.00000000000E+00  0.12918000118E+03  0.12918000118E+03  0.00000000000E+00 0.  1.
          1   -1    0    0  501    0  0.00000000000E+00 -0.00000000000E+00 -0.14548554683E+03  0.14548554683E+03  0.00000000000E+00 0.  1.
         36    2    1    2    0    0 -0.71054273576E-14  0.00000000000E+00 -0.16305545650E+02  0.27466554801E+03  0.27418113072E+03 0.  0.
         25    2    3    3    0    0 -0.34217579758E+02  0.10964614048E+02  0.37041856266E+02  0.13437749602E+03  0.12407315098E+03 0.  0.
         25    2    3    3    0    0  0.34217579758E+02 -0.10964614048E+02 -0.53347401916E+02  0.14028805199E+03  0.12467448301E+03 0.  0.
          5    1    4    4  502    0 -0.25506942692E+02  0.67184473420E+02  0.22854175345E+02  0.75556342718E+02  0.47000000000E+01 0.  1.
         -5    1    4    4    0  502 -0.87106370661E+01 -0.56219859372E+02  0.14187680921E+02  0.58821153302E+02  0.47000000000E+01 0.  1.
          5    1    5    5  503    0  0.11961219675E+02  0.46981910526E+02  0.11866053818E+02  0.50132463793E+02  0.47000000000E+01 0.  1.
         -5    1    5    5    0  503  0.22256360083E+02 -0.57946524574E+02 -0.65213455735E+02  0.90155588197E+02  0.47000000000E+01 0.  1.
<mgrwt>
<rscale>  0 0.27418113E+03</rscale>
<asrwt>0</asrwt>
<pdfrwt beam="1">  1        1 0.22382392E-01 0.27418113E+03</pdfrwt>
<pdfrwt beam="2">  1       -1 0.19873846E-01 0.27418113E+03</pdfrwt>
<totfact> 0.44663221E+03</totfact>
</mgrwt>
</event>
<event>
 9    1  0.2065703E-002  0.2707003E+03  0.7818608E-02  0.1100879E+00
         -4   -1    0    0    0  501 -0.00000000000E+00  0.00000000000E+00  0.15431026369E+04  0.15431026369E+04  0.00000000000E+00 0.  1.
          4   -1    0    0  501    0  0.00000000000E+00 -0.00000000000E+00 -0.11871964572E+02  0.11871964572E+02  0.00000000000E+00 0.  1.
         36    2    1    2    0    0 -0.35527136788E-14  0.71054273576E-14  0.15312306723E+04  0.15549746015E+04  0.27070027585E+03 0.  0.
         25    2    3    3    0    0 -0.11600566066E+02  0.27048318164E+02  0.10300739691E+04  0.10380594956E+04  0.12509576295E+03 0.  0.
         25    2    3    3    0    0  0.11600566066E+02 -0.27048318164E+02  0.50115670322E+03  0.51691510588E+03  0.12319497090E+03 0.  0.
          5    1    4    4  502    0  0.47073685431E+01  0.76081764486E+02  0.58109996856E+03  0.58609714013E+03  0.47000000000E+01 0. -1.
         -5    1    4    4    0  502 -0.16307934609E+02 -0.49033446321E+02  0.44897400055E+03  0.45196235546E+03  0.47000000000E+01 0. -1.
          5    1    5    5  503    0 -0.55295923102E+02 -0.35892127527E+01  0.22214841616E+03  0.22900334137E+03  0.47000000000E+01 0. -1.
         -5    1    5    5    0  503  0.66896489167E+02 -0.23459105412E+02  0.27900828706E+03  0.28791176450E+03  0.47000000000E+01 0. -1.
<mgrwt>
<rscale>  0 0.27070028E+03</rscale>
<asrwt>0</asrwt>
<pdfrwt beam="1">  1        4 0.18264573E-02 0.27070028E+03</pdfrwt>
<pdfrwt beam="2">  1       -4 0.23740025E+00 0.27070028E+03</pdfrwt>
<totfact> 0.18549897E+02</totfact>
</mgrwt>
</event>
<event>
 9    1  0.2065703E-002  0.2754152E+03  0.7818608E-02  0.1098220E+00
          1   -1    0    0  501    0  0.00000000000E+00  0.00000000000E+00  0.87177583701E+02  0.87177583701E+02  0.00000000000E+00 0.  1.
         -1   -1    0    0    0  501 -0.00000000000E+00 -0.00000000000E+00 -0.21752584027E+03  0.21752584027E+03  0.00000000000E+00 0.  1.
         36    2    1    2    0    0 -0.71054273576E-14 -0.35527136788E-14 -0.13034825657E+03  0.30470342397E+03  0.27541515679E+03 0.  0.
         25    2    3    3    0    0  0.50906342515E+02  0.24149484432E+02 -0.87333175144E+02  0.16154067981E+03  0.12366751573E+03 0.  0.
         25    2    3    3    0    0 -0.50906342515E+02 -0.24149484432E+02 -0.43015081429E+02  0.14316274416E+03  0.12438095023E+03 0.  0.
          5    1    4    4  502    0  0.29981898280E+02  0.48882126090E+02  0.10401582218E+02  0.58469302956E+02  0.47000000000E+01 0.  1.
         -5    1    4    4    0  502  0.20924444235E+02 -0.24732641659E+02 -0.97734757362E+02  0.10307137685E+03  0.47000000000E+01 0.  1.
          5    1    5    5  503    0 -0.55071937151E+02  0.41581858668E+02 -0.11958160165E+02  0.70192996990E+02  0.47000000000E+01 0.  1.
         -5    1    5    5    0  503  0.41655946362E+01 -0.65731343099E+02 -0.31056921264E+02  0.72969747175E+02  0.47000000000E+01 0.  1.
<mgrwt>
<rscale>  0 0.27541516E+03</rscale>
<asrwt>0</asrwt>
<pdfrwt beam="1">  1        1 0.13411936E-01 0.27541516E+03</pdfrwt>
<pdfrwt beam="2">  1       -1 0.33465514E-01 0.27541516E+03</pdfrwt>
<totfact> 0.36386811E+03</totfact>
</mgrwt>
</event>
<event>
 9    1  0.2065703E-002  0.2769576E+03  0.7818608E-02  0.1097362E+00
          1   -1    0    0  501    0  0.00000000000E+00  0.00000000000E+00  0.20180526409E+02  0.20180526409E+02  0.00000000000E+00 0. -1.
         -1   -1    0    0    0  501 -0.00000000000E+00 -0.00000000000E+00 -0.95024151845E+03  0.95024151845E+03  0.00000000000E+00 0. -1.
         36    2    1    2    0    0 -0.71054273576E-14  0.71054273576E-14 -0.93006099204E+03  0.97042204486E+03  0.27695757118E+03 0.  0.
         25    2    3    3    0    0  0.20172544530E+02  0.43171264018E+02 -0.48420445144E+03  0.50357857833E+03  0.12987202997E+03 0.  0.
         25    2    3    3    0    0 -0.20172544530E+02 -0.43171264018E+02 -0.44585654060E+03  0.46684346653E+03  0.12993874655E+03 0.  0.
          5    1    4    4  502    0 -0.50122844343E+02  0.42960721303E+02 -0.27409664820E+03  0.28197337756E+03  0.47000000000E+01 0.  1.
         -5    1    4    4    0  502  0.70295388873E+02  0.21054271563E+00 -0.21010780324E+03  0.22160520077E+03  0.47000000000E+01 0.  1.
          5    1    5    5  503    0 -0.64190990049E+02  0.86281128232E+01 -0.15387304635E+03  0.16701476559E+03  0.47000000000E+01 0.  1.
         -5    1    5    5    0  503  0.44018445519E+02 -0.51799376841E+02 -0.29198349426E+03  0.29982870094E+03  0.47000000000E+01 0.  1.
<mgrwt>
<rscale>  0 0.27695757E+03</rscale>
<asrwt>0</asrwt>
<pdfrwt beam="1">  1        1 0.31046970E-02 0.27695757E+03</pdfrwt>
<pdfrwt beam="2">  1       -1 0.14619097E+00 0.27695757E+03</pdfrwt>
<totfact> 0.13129780E+03</totfact>
</mgrwt>
</event>
<event>
 9    1  0.2065703E-002  0.2725009E+03  0.7818608E-02  0.1099857E+00
          2   -1    0    0  501    0  0.00000000000E+00  0.00000000000E+00  0.28106736117E+03  0.28106736117E+03  0.00000000000E+00 0.  1.
         -2   -1    0    0    0  501 -0.00000000000E+00 -0.00000000000E+00 -0.66048900960E+02  0.66048900960E+02  0.00000000000E+00 0.  1.
         36    2    1    2    0    0  0.00000000000E+00  0.17763568394E-14  0.21501846021E+03  0.34711626213E+03  0.27250093799E+03 0.  0.
         25    2    3    3    0    0  0.30596588493E+02 -0.10462054340E+02  0.59131823520E+02  0.14411518390E+03  0.12738527336E+03 0.  0.
         25    2    3    3    0    0 -0.30596588493E+02  0.10462054340E+02  0.15588663669E+03  0.20300107823E+03  0.12594915028E+03 0.  0.
          5    1    4    4  502    0  0.76920818520E+02 -0.13326031243E+02  0.14475251945E+02  0.79536270653E+02  0.47000000000E+01 0. -1.
         -5    1    4    4    0  502 -0.46324230027E+02  0.28639769033E+01  0.44656571575E+02  0.64578913247E+02  0.47000000000E+01 0. -1.
          5    1    5    5  503    0 -0.42688988574E+02  0.52947279215E+02  0.40355071841E+02  0.79223645114E+02  0.47000000000E+01 0.  1.
         -5    1    5    5    0  503  0.12092400081E+02 -0.42485224876E+02  0.11553156485E+03  0.12377743312E+03  0.47000000000E+01 0.  1.
<mgrwt>
<rscale>  0 0.27250094E+03</rscale>
<asrwt>0</asrwt>
<pdfrwt beam="1">  1        2 0.43241132E-01 0.27250094E+03</pdfrwt>
<pdfrwt beam="2">  1       -2 0.10161370E-01 0.27250094E+03</pdfrwt>
<totfact> 0.75299998E+03</totfact>
</mgrwt>
</event>
<event>
 9    1  0.2065703E-002  0.2733318E+03  0.7818608E-02  0.1099388E+00
          2   -1    0    0  501    0  0.00000000000E+00  0.00000000000E+00  0.21356606650E+04  0.21356606650E+04  0.00000000000E+00 0.  1.
         -2   -1    0    0    0  501 -0.00000000000E+00 -0.00000000000E+00 -0.87455685124E+01  0.87455685124E+01  0.00000000000E+00 0.  1.
         36    2    1    2    0    0  0.71054273576E-14 -0.71054273576E-14  0.21269150965E+04  0.21444062336E+04  0.27333178860E+03 0.  0.
         25    2    3    3    0    0 -0.45838840281E+02 -0.39515954023E+02  0.10923330140E+04  0.11009503709E+04  0.12344065687E+03 0.  0.
         25    2    3    3    0    0  0.45838840281E+02  0.39515954023E+02  0.10345820825E+04  0.10434558627E+04  0.12156209095E+03 0.  0.
          5    1    4    4  502    0 -0.83172967348E+02 -0.40738776468E+02  0.59376204530E+03  0.60095993780E+03  0.47000000000E+01 0. -1.
         -5    1    4    4    0  502  0.37334127067E+02  0.12228224452E+01  0.49857096872E+03  0.49999043309E+03  0.47000000000E+01 0. -1.
          5    1    5    5  503    0 -0.94739714973E+01  0.70750382556E+02  0.59435842746E+03  0.59864797925E+03  0.47000000000E+01 0. -1.
         -5    1    5    5    0  503  0.55312811778E+02 -0.31234428533E+02  0.44022365505E+03  0.44480788341E+03  0.47000000000E+01 0. -1.
<mgrwt>
<rscale>  0 0.27333179E+03</rscale>
<asrwt>0</asrwt>
<pdfrwt beam="1">  1        2 0.32856276E+00 0.27333179E+03</pdfrwt>
<pdfrwt beam="2">  1       -2 0.13454738E-02 0.27333179E+03</pdfrwt>
<totfact> 0.87132931E+03</totfact>
</mgrwt>
</event>
<event>
 9    1  0.2065703E-002  0.2750626E+03  0.7818608E-02  0.1098417E+00
         -4   -1    0    0    0  501 -0.00000000000E+00  0.00000000000E+00  0.77288351769E+02  0.77288351769E+02  0.00000000000E+00 0. -1.
          4   -1    0    0  501    0  0.00000000000E+00 -0.00000000000E+00 -0.24473107034E+03  0.24473107034E+03  0.00000000000E+00 0. -1.
         36    2    1    2    0    0  0.00000000000E+00  0.35527136788E-14 -0.16744271857E+03  0.32201942211E+03  0.27506261871E+03 0.  0.
         25    2    3    3    0    0 -0.24866142702E+02  0.10628858163E+02 -0.14462726919E+03  0.19288380261E+03  0.12472295954E+03 0.  0.
         25    2    3    3    0    0  0.24866142702E+02 -0.10628858163E+02 -0.22815449380E+02  0.12913561950E+03  0.12419406513E+03 0.  0.
          5    1    4    4  502    0 -0.13118375969E+02 -0.40086020307E+02 -0.13263101730E+03  0.13925536817E+03  0.47000000000E+01 0.  1.
         -5    1    4    4    0  502 -0.11747766733E+02  0.50714878470E+02 -0.11996251886E+02  0.53628434443E+02  0.47000000000E+01 0.  1.
          5    1    5    5  503    0 -0.48800997182E+02 -0.19486099542E+02 -0.93081224518E+01  0.53572162033E+02  0.47000000000E+01 0. -1.
         -5    1    5    5    0  503  0.73667139884E+02  0.88572413792E+01 -0.13507326928E+02  0.75563457466E+02  0.47000000000E+01 0. -1.
<mgrwt>
<rscale>  0 0.27506262E+03</rscale>
<asrwt>0</asrwt>
<pdfrwt beam="1">  1        4 0.37650933E-01 0.27506262E+03</pdfrwt>
<pdfrwt beam="2">  1       -4 0.11890516E-01 0.27506262E+03</pdfrwt>
<totfact> 0.72550637E+02</totfact>
</mgrwt>
</event>
<event>
 9    1  0.2065703E-002  0.2756001E+03  0.7818608E-02  0.1098117E+00
          1   -1    0    0  501    0  0.00000000000E+00  0.00000000000E+00  0.44162410319E+03  0.44162410319E+03  0.00000000000E+00 0. -1.
         -1   -1    0    0    0  501 -0.00000000000E+00 -0.00000000000E+00 -0.42997788653E+02  0.42997788653E+02  0.00000000000E+00 0. -1.
         36    2    1    2    0    0  0.00000000000E+00  0.00000000000E+00  0.39862631454E+03  0.48462189184E+03  0.27560014407E+03 0.  0.
         25    2    3    3    0    0 -0.44242591309E+02  0.39229543699E+01  0.24276097255E+03  0.27960137826E+03  0.13142010681E+03 0.  0.
         25    2    3    3    0    0  0.44242591309E+02 -0.39229543699E+01  0.15586534198E+03  0.20502051358E+03  0.12556516118E+03 0.  0.
          5    1    4    4  502    0 -0.42152890977E+02  0.54010171089E+02  0.20631573108E+03  0.21744478769E+03  0.47000000000E+01 0.  1.
         -5    1    4    4    0  502 -0.20897003319E+01 -0.50087216719E+02  0.36445241469E+02  0.62156590575E+02  0.47000000000E+01 0.  1.
          5    1    5    5  503    0  0.83335634073E+00 -0.53817535506E+02  0.11520227574E+03  0.12724258700E+03  0.47000000000E+01 0.  1.
         -5    1    5    5    0  503  0.43409234968E+02  0.49894581136E+02  0.40663066244E+02  0.77777926584E+02  0.47000000000E+01 0.  1.
<mgrwt>
<rscale>  0 0.27560014E+03</rscale>
<asrwt>0</asrwt>
<pdfrwt beam="1">  1        1 0.67942167E-01 0.27560014E+03</pdfrwt>
<pdfrwt beam="2">  1       -1 0.66150447E-02 0.27560014E+03</pdfrwt>
<totfact> 0.61010847E+03</totfact>
</mgrwt>
</event>
<event>
 9    1  0.2065703E-002  0.2757656E+03  0.7818608E-02  0.1098024E+00
         -2   -1    0    0    0  501 -0.00000000000E+00  0.00000000000E+00  0.21727025341E+03  0.21727025341E+03  0.00000000000E+00 0. -1.
          2   -1    0    0  501    0  0.00000000000E+00 -0.00000000000E+00 -0.87502360065E+02  0.87502360065E+02  0.00000000000E+00 0. -1.
         36    2    1    2    0    0 -0.71054273576E-14  0.00000000000E+00  0.12976789334E+03  0.30477261347E+03  0.27576555220E+03 0.  0.
         25    2    3    3    0    0 -0.51390299806E+02  0.30737683093E+02  0.60261656790E+02  0.14887984393E+03  0.12226190157E+03 0.  0.
         25    2    3    3    0    0  0.51390299806E+02 -0.30737683093E+02  0.69506236551E+02  0.15589276954E+03  0.12603836955E+03 0.  0.
          5    1    4    4  502    0 -0.51303489381E+02  0.16591926070E+01 -0.25997433489E+02  0.57730039761E+02  0.47000000000E+01 0.  1.
         -5    1    4    4    0  502 -0.86810424210E-01  0.29078490486E+02  0.86259090279E+02  0.91149804173E+02  0.47000000000E+01 0.  1.
          5    1    5    5  503    0  0.43963511476E+02  0.23682163747E+02  0.84943996814E+02  0.98646884471E+02  0.47000000000E+01 0. -1.
         -5    1    5    5    0  503  0.74267883300E+01 -0.54419846840E+02 -0.15437760263E+02  0.57245885066E+02  0.47000000000E+01 0. -1.
<mgrwt>
<rscale>  0 0.27576555E+03</rscale>
<asrwt>0</asrwt>
<pdfrwt beam="1">  1        2 0.13461902E-01 0.27576555E+03</pdfrwt>
<pdfrwt beam="2">  1       -2 0.33426193E-01 0.27576555E+03</pdfrwt>
<totfact> 0.36991437E+03</totfact>
</mgrwt>
</event>
<event>
 9    1  0.2065703E-002  0.2747424E+03  0.7818608E-02  0.1098596E+00
          2   -1    0    0  501    0  0.00000000000E+00  0.00000000000E+00  0.30380490234E+03  0.30380490234E+03  0.00000000000E+00 0.  1.
         -2   -1    0    0    0  501 -0.00000000000E+00 -0.00000000000E+00 -0.62115005144E+02  0.62115005144E+02  0.00000000000E+00 0.  1.
         36    2    1    2    0    0  0.35527136788E-14  0.00000000000E+00  0.24168989720E+03  0.36591990749E+03  0.27474237439E+03 0.  0.
         25    2    3    3    0    0 -0.13215750472E+02  0.30508547664E+02  0.18454960812E+03  0.22613727958E+03  0.12638862218E+03 0.  0.
         25    2    3    3    0    0  0.13215750472E+02 -0.30508547664E+02  0.57140289074E+02  0.13978262790E+03  0.12316145049E+03 0.  0.
          5    1    4    4  502    0  0.16504719673E+02  0.35591260081E+02  0.19091791638E+03  0.19496380269E+03  0.47000000000E+01 0.  1.
         -5    1    4    4    0  502 -0.29720470145E+02 -0.50827124167E+01 -0.63683082583E+01  0.31173476887E+02  0.47000000000E+01 0.  1.
          5    1    5    5  503    0  0.29319186627E+02 -0.16497351878E+02  0.92317219556E+02  0.98368370678E+02  0.47000000000E+01 0.  1.
         -5    1    5    5    0  503 -0.16103436155E+02 -0.14011195786E+02 -0.35176930482E+02  0.41414257224E+02  0.47000000000E+01 0.  1.
<mgrwt>
<rscale>  0 0.27474237E+03</rscale>
<asrwt>0</asrwt>
<pdfrwt beam="1">  1        2 0.46739215E-01 0.27474237E+03</pdfrwt>
<pdfrwt beam="2">  1       -2 0.95561548E-02 0.27474237E+03</pdfrwt>
<totfact> 0.76372691E+03</totfact>
</mgrwt>
</event>
<event>
 9    1  0.2065703E-002  0.2769510E+03  0.7818608E-02  0.1097366E+00
          1   -1    0    0  501    0  0.00000000000E+00  0.00000000000E+00  0.18061486642E+03  0.18061486642E+03  0.00000000000E+00 0.  1.
         -1   -1    0    0    0  501 -0.00000000000E+00 -0.00000000000E+00 -0.10616766829E+03  0.10616766829E+03  0.00000000000E+00 0.  1.
         36    2    1    2    0    0 -0.17763568394E-14 -0.71054273576E-14  0.74447198128E+02  0.28678253471E+03  0.27695096480E+03 0.  0.
         25    2    3    3    0    0 -0.12304522693E+02 -0.44041920536E+02  0.51498997693E-01  0.13654274932E+03  0.12865779298E+03 0.  0.
         25    2    3    3    0    0  0.12304522693E+02  0.44041920536E+02  0.74395699130E+02  0.15023978539E+03  0.12225457465E+03 0.  0.
          5    1    4    4  502    0  0.41435427799E+02 -0.66182561538E+02 -0.60566799683E+00  0.78227124211E+02  0.47000000000E+01 0.  1.
         -5    1    4    4    0  502 -0.53739950492E+02  0.22140641002E+02  0.65716699452E+00  0.58315625104E+02  0.47000000000E+01 0.  1.
          5    1    5    5  503    0  0.96046144997E+01  0.48976528621E+02  0.10628759933E+03  0.11751635098E+03  0.47000000000E+01 0.  1.
         -5    1    5    5    0  503  0.26999081934E+01 -0.49346080851E+01 -0.31891900202E+02  0.32723434412E+02  0.47000000000E+01 0.  1.
<mgrwt>
<rscale>  0 0.27695096E+03</rscale>
<asrwt>0</asrwt>
<pdfrwt beam="1">  1        1 0.27786903E-01 0.27695096E+03</pdfrwt>
<pdfrwt beam="2">  1       -1 0.16333487E-01 0.27695096E+03</pdfrwt>
<totfact> 0.46529249E+03</totfact>
</mgrwt>
</event>
<event>
 9    1  0.2065703E-002  0.2760472E+03  0.7818608E-02  0.1097868E+00
          2   -1    0    0  501    0  0.00000000000E+00  0.00000000000E+00  0.19687943586E+04  0.19687943586E+04  0.00000000000E+00 0. -1.
         -2   -1    0    0    0  501 -0.00000000000E+00 -0.00000000000E+00 -0.96762313619E+01  0.96762313619E+01  0.00000000000E+00 0. -1.
         36    2    1    2    0    0  0.00000000000E+00  0.00000000000E+00  0.19591181273E+04  0.19784705900E+04  0.27604716784E+03 0.  0.
         25    2    3    3    0    0 -0.12137184272E+02 -0.13398913153E+02  0.65072731982E+03  0.66372467879E+03  0.12945100369E+03 0.  0.
         25    2    3    3    0    0  0.12137184272E+02  0.13398913153E+02  0.13083908074E+04  0.13147459112E+04  0.12784155779E+03 0.  0.
          5    1    4    4  502    0 -0.10719173898E+02  0.99717126887E+01  0.31353575977E+01  0.15692552701E+02  0.47000000000E+01 0.  1.
         -5    1    4    4    0  502 -0.14180103738E+01 -0.23370625842E+02  0.64759196222E+03  0.64803212608E+03  0.47000000000E+01 0.  1.
          5    1    5    5  503    0 -0.20322582233E+02 -0.51810022305E+02  0.60959927417E+03  0.61215247351E+03  0.47000000000E+01 0.  1.
         -5    1    5    5    0  503  0.32459766505E+02  0.65208935458E+02  0.69879153328E+03  0.70259343769E+03  0.47000000000E+01 0.  1.
<mgrwt>
<rscale>  0 0.27604717E+03</rscale>
<asrwt>0</asrwt>
<pdfrwt beam="1">  1        2 0.30289112E+00 0.27604717E+03</pdfrwt>
<pdfrwt beam="2">  1       -2 0.14886525E-02 0.27604717E+03</pdfrwt>
<totfact> 0.92052716E+03</totfact>
</mgrwt>
</event>
<event>
 9    1  0.2065703E-002  0.2754764E+03  0.7818608E-02  0.1098186E+00
         -2   -1    0    0    0  501 -0.00000000000E+00  0.00000000000E+00  0.51537361439E+03  0.51537361439E+03  0.00000000000E+00 0.  1.
          2   -1    0    0  501    0  0.00000000000E+00 -0.00000000000E+00 -0.36811753147E+02  0.36811753147E+02  0.00000000000E+00 0.  1.
         36    2    1    2    0    0  0.00000000000E+00  0.14210854715E-13  0.47856186124E+03  0.55218536753E+03  0.27547636030E+03 0.  0.
         25    2    3    3    0    0  0.10932943193E+02 -0.54662030926E+02  0.21851912003E+03  0.25740924788E+03  0.12410257130E+03 0.  0.
         25    2    3    3    0    0 -0.10932943193E+02  0.54662030926E+02  0.26004274121E+03  0.29477611965E+03  0.12713483626E+03 0.  0.
          5    1    4    4  502    0  0.31833521599E+02 -0.85646047808E+02  0.11316377089E+03  0.14552232696E+03  0.47000000000E+01 0. -1.
         -5    1    4    4    0  502 -0.20900578405E+02  0.30984016882E+02  0.10535534914E+03  0.11188692091E+03  0.47000000000E+01 0. -1.
          5    1    5    5  503    0 -0.41482184333E+02  0.52432904327E+02  0.53052113000E+02  0.85478639244E+02  0.47000000000E+01 0.  1.
         -5    1    5    5    0  503  0.30549241139E+02  0.22291265994E+01  0.20699062821E+03  0.20929748041E+03  0.47000000000E+01 0.  1.
<mgrwt>
<rscale>  0 0.27547636E+03</rscale>
<asrwt>0</asrwt>
<pdfrwt beam="1">  1        2 0.56633470E-02 0.27547636E+03</pdfrwt>
<pdfrwt beam="2">  1       -2 0.79288243E-01 0.27547636E+03</pdfrwt>
<totfact> 0.19331877E+03</totfact>
</mgrwt>
</event>
<event>
 9    1  0.2065703E-002  0.2743465E+03  0.7818608E-02  0.1098817E+00
         -1   -1    0    0    0  501 -0.00000000000E+00  0.00000000000E+00  0.24836938884E+03  0.24836938884E+03  0.00000000000E+00 0. -1.
          1   -1    0    0  501    0  0.00000000000E+00 -0.00000000000E+00 -0.75760131789E+02  0.75760131789E+02  0.00000000000E+00 0. -1.
         36    2    1    2    0    0 -0.71054273576E-14  0.35527136788E-14  0.17260925705E+03  0.32412952063E+03  0.27434647897E+03 0.  0.
         25    2    3    3    0    0  0.16741891816E+02 -0.24047015903E+02  0.12680076074E+03  0.20015311548E+03  0.15206671824E+03 0.  0.
         25    2    3    3    0    0 -0.16741891816E+02  0.24047015903E+02  0.45808496310E+02  0.12397640515E+03  0.11141445500E+03 0.  0.
          5    1    4    4  502    0 -0.81921567261E+01 -0.54512607644E+02  0.14597850240E+03  0.15611069466E+03  0.47000000000E+01 0.  1.
         -5    1    4    4    0  502  0.24934048542E+02  0.30465591741E+02 -0.19177741658E+02  0.44042420823E+02  0.47000000000E+01 0.  1.
          5    1    5    5  503    0  0.30511318871E+01  0.47629682502E+02  0.69782304960E+02  0.84673231582E+02  0.47000000000E+01 0.  1.
         -5    1    5    5    0  503 -0.19793023703E+02 -0.23582666599E+02 -0.23973808649E+02  0.39303173566E+02  0.47000000000E+01 0.  1.
<mgrwt>
<rscale>  0 0.27434648E+03</rscale>
<asrwt>0</asrwt>
<pdfrwt beam="1">  1        1 0.11655405E-01 0.27434648E+03</pdfrwt>
<pdfrwt beam="2">  1       -1 0.38210675E-01 0.27434648E+03</pdfrwt>
<totfact> 0.34784188E+03</totfact>
</mgrwt>
</event>
<event>
 9    1  0.2065703E-002  0.2751533E+03  0.7818608E-02  0.1098366E+00
         -2   -1    0    0    0  501 -0.00000000000E+00  0.00000000000E+00  0.63566848396E+02  0.63566848396E+02  0.00000000000E+00 0.  1.
          2   -1    0    0  501    0  0.00000000000E+00 -0.00000000000E+00 -0.29775476437E+03  0.29775476437E+03  0.00000000000E+00 0.  1.
         36    2    1    2    0    0 -0.14210854715E-13  0.00000000000E+00 -0.23418791597E+03  0.36132161277E+03  0.27515328067E+03 0.  0.
         25    2    3    3    0    0 -0.26638518697E+02 -0.32582265385E+02 -0.68222996393E+02  0.14862459263E+03  0.12515461478E+03 0.  0.
         25    2    3    3    0    0  0.26638518697E+02  0.32582265385E+02 -0.16596491958E+03  0.21269702014E+03  0.12619212792E+03 0.  0.
          5    1    4    4  502    0  0.48129993314E+02 -0.21377354224E+02 -0.11808401752E+02  0.54175786860E+02  0.47000000000E+01 0.  1.
         -5    1    4    4    0  502 -0.74768512011E+02 -0.11204911161E+02 -0.56414594641E+02  0.94448805768E+02  0.47000000000E+01 0.  1.
          5    1    5    5  503    0  0.41387449993E+02  0.52376567526E+02 -0.17391115354E+03  0.18634217228E+03  0.47000000000E+01 0. -1.
         -5    1    5    5    0  503 -0.14748931296E+02 -0.19794302141E+02  0.79462339609E+01  0.26354847861E+02  0.47000000000E+01 0. -1.
<mgrwt>
<rscale>  0 0.27515328E+03</rscale>
<asrwt>0</asrwt>
<pdfrwt beam="1">  1        2 0.45808426E-01 0.27515328E+03</pdfrwt>
<pdfrwt beam="2">  1       -2 0.97795149E-02 0.27515328E+03</pdfrwt>
<totfact> 0.75240687E+03</totfact>
</mgrwt>
</event>
<event>
 9    1  0.2065703E-002  0.2759660E+03  0.7818608E-02  0.1097913E+00
         -3   -1    0    0    0  501 -0.00000000000E+00  0.00000000000E+00  0.96030289503E+02  0.96030289503E+02  0.00000000000E+00 0. -1.
          3   -1    0    0  501    0  0.00000000000E+00 -0.00000000000E+00 -0.19826357829E+03  0.19826357829E+03  0.00000000000E+00 0. -1.
         36    2    1    2    0    0 -0.88817841970E-15  0.71054273576E-14 -0.10223328879E+03  0.29429386779E+03  0.27596600386E+03 0.  0.
         25    2    3    3    0    0 -0.34377312923E+01 -0.37073933943E+02  0.49825031669E+01  0.13105048888E+03  0.12555122749E+03 0.  0.
         25    2    3    3    0    0  0.34377312923E+01  0.37073933943E+02 -0.10721579195E+03  0.16324337891E+03  0.11733234908E+03 0.  0.
          5    1    4    4  502    0 -0.57931330941E+02  0.59873377045E+01 -0.11412271616E+02  0.59533328991E+02  0.47000000000E+01 0.  1.
         -5    1    4    4    0  502  0.54493599648E+02 -0.43061271648E+02  0.16394774783E+02  0.71517159890E+02  0.47000000000E+01 0.  1.
          5    1    5    5  503    0 -0.51588539774E+01  0.87557296726E+01 -0.12689882315E+03  0.12739182820E+03  0.47000000000E+01 0. -1.
         -5    1    5    5    0  503  0.85965852697E+01  0.28318204271E+02  0.19683031193E+02  0.35851550711E+02  0.47000000000E+01 0. -1.
<mgrwt>
<rscale>  0 0.27596600E+03</rscale>
<asrwt>0</asrwt>
<pdfrwt beam="1">  1        3 0.30502089E-01 0.27596600E+03</pdfrwt>
<pdfrwt beam="2">  1       -3 0.14773891E-01 0.27596600E+03</pdfrwt>
<totfact> 0.10091052E+03</totfact>
</mgrwt>
</event>
<event>
 9    1  0.2065703E-002  0.2746510E+03  0.7818608E-02  0.1098647E+00
         -2   -1    0    0    0  501 -0.00000000000E+00  0.00000000000E+00  0.33713527384E+02  0.33713527384E+02  0.00000000000E+00 0. -1.
          2   -1    0    0  501    0  0.00000000000E+00 -0.00000000000E+00 -0.55936891055E+03  0.55936891055E+03  0.00000000000E+00 0. -1.
         36    2    1    2    0    0  0.00000000000E+00  0.71054273576E-14 -0.52565538317E+03  0.59308243794E+03  0.27465104466E+03 0.  0.
         25    2    3    3    0    0  0.34892847819E+02 -0.35754527115E+02 -0.28733871292E+03  0.31913456705E+03  0.12956634943E+03 0.  0.
         25    2    3    3    0    0 -0.34892847819E+02  0.35754527115E+02 -0.23831667025E+03  0.27394787089E+03  0.12552570895E+03 0.  0.
          5    1    4    4  502    0  0.75225424836E+02 -0.46742209465E+02 -0.13847760754E+03  0.16444402232E+03  0.47000000000E+01 0.  1.
         -5    1    4    4    0  502 -0.40332577016E+02  0.10987682351E+02 -0.14886110538E+03  0.15469054473E+03  0.47000000000E+01 0.  1.
          5    1    5    5  503    0 -0.86082151397E+01  0.38359129502E+02 -0.59501340003E+01  0.40037710707E+02  0.47000000000E+01 0. -1.
         -5    1    5    5    0  503 -0.26284632680E+02 -0.26046023867E+01 -0.23236653625E+03  0.23391016018E+03  0.47000000000E+01 0. -1.
<mgrwt>
<rscale>  0 0.27465104E+03</rscale>
<asrwt>0</asrwt>
<pdfrwt beam="1">  1        2 0.86056750E-01 0.27465104E+03</pdfrwt>
<pdfrwt beam="2">  1       -2 0.51866969E-02 0.27465104E+03</pdfrwt>
<totfact> 0.10083477E+04</totfact>
</mgrwt>
</event>
<event>
 9    1  0.2065703E-002  0.2761443E+03  0.7818608E-02  0.1097814E+00
         -2   -1    0    0    0  501 -0.00000000000E+00  0.00000000000E+00  0.55910919269E+02  0.55910919269E+02  0.00000000000E+00 0. -1.
          2   -1    0    0  501    0  0.00000000000E+00 -0.00000000000E+00 -0.34096948286E+03  0.34096948286E+03  0.00000000000E+00 0. -1.
         36    2    1    2    0    0  0.71054273576E-14  0.00000000000E+00 -0.28505856359E+03  0.39688040213E+03  0.27614429004E+03 0.  0.
         25    2    3    3    0    0  0.48913098401E+02 -0.30512906893E+02 -0.12912480006E+03  0.18823506780E+03  0.12424048486E+03 0.  0.
         25    2    3    3    0    0 -0.48913098401E+02  0.30512906893E+02 -0.15593376354E+03  0.20864533433E+03  0.12607144104E+03 0.  0.
          5    1    4    4  502    0  0.89333926862E+02 -0.64938354537E+01 -0.86032843129E+02  0.12428379011E+03  0.47000000000E+01 0. -1.
         -5    1    4    4    0  502 -0.40420828461E+02 -0.24019071439E+02 -0.43091956926E+02  0.63951277689E+02  0.47000000000E+01 0. -1.
          5    1    5    5  503    0 -0.48132369574E+02  0.55682202431E+02 -0.16558839601E+03  0.18127007354E+03  0.47000000000E+01 0. -1.
         -5    1    5    5    0  503 -0.78072882719E+00 -0.25169295537E+02  0.96546324707E+01  0.27375260793E+02  0.47000000000E+01 0. -1.
<mgrwt>
<rscale>  0 0.27614429E+03</rscale>
<asrwt>0</asrwt>
<pdfrwt beam="1">  1        2 0.52456845E-01 0.27614429E+03</pdfrwt>
<pdfrwt beam="2">  1       -2 0.86016796E-02 0.27614429E+03</pdfrwt>
<totfact> 0.79640812E+03</totfact>
</mgrwt>
</event>
<event>
 9    1  0.2065703E-002  0.2750521E+03  0.7818608E-02  0.1098422E+00
         -2   -1    0    0    0  501 -0.00000000000E+00  0.00000000000E+00  0.15643342090E+03  0.15643342090E+03  0.00000000000E+00 0. -1.
          2   -1    0    0  501    0  0.00000000000E+00 -0.00000000000E+00 -0.12090395181E+03  0.12090395181E+03  0.00000000000E+00 0. -1.
         36    2    1    2    0    0 -0.88817841970E-15  0.35527136788E-14  0.35529469094E+02  0.27733737271E+03  0.27505213165E+03 0.  0.
         25    2    3    3    0    0  0.44824151192E+01  0.29566737455E+02 -0.20887511576E+02  0.13337628516E+03  0.12829131418E+03 0.  0.
         25    2    3    3    0    0 -0.44824151192E+01 -0.29566737455E+02  0.56416980670E+02  0.14396108754E+03  0.12902571453E+03 0.  0.
          5    1    4    4  502    0  0.60540997369E+01 -0.50707244368E+02 -0.92826638050E+01  0.52116548258E+02  0.47000000000E+01 0. -1.
         -5    1    4    4    0  502 -0.15716846177E+01  0.80273981823E+02 -0.11604847771E+02  0.81259736906E+02  0.47000000000E+01 0. -1.
          5    1    5    5  503    0  0.72176587294E+01  0.28482279723E+02 -0.27920085867E+02  0.40803872985E+02  0.47000000000E+01 0. -1.
         -5    1    5    5    0  503 -0.11700073849E+02 -0.58049017178E+02  0.84337066536E+02  0.10315721456E+03  0.47000000000E+01 0. -1.
<mgrwt>
<rscale>  0 0.27505213E+03</rscale>
<asrwt>0</asrwt>
<pdfrwt beam="1">  1        2 0.18600608E-01 0.27505213E+03</pdfrwt>
<pdfrwt beam="2">  1       -2 0.24066680E-01 0.27505213E+03</pdfrwt>
<totfact> 0.45657315E+03</totfact>
</mgrwt>
</event>
<event>
 9    1  0.2065703E-002  0.2752523E+03  0.7818608E-02  0.1098311E+00
          1   -1    0    0  501    0  0.00000000000E+00  0.00000000000E+00  0.65379039717E+02  0.65379039717E+02  0.00000000000E+00 0.  1.
         -1   -1    0    0    0  501 -0.00000000000E+00 -0.00000000000E+00 -0.28971002477E+03  0.28971002477E+03  0.00000000000E+00 0.  1.
         36    2    1    2    0    0  0.71054273576E-14 -0.88817841970E-15 -0.22433098505E+03  0.35508906448E+03  0.27525234397E+03 0.  0.
         25    2    3    3    0    0 -0.37342150780E+02  0.27980118351E+01 -0.61021880905E+02  0.14551808385E+03  0.12668692783E+03 0.  0.
         25    2    3    3    0    0  0.37342150780E+02 -0.27980118351E+01 -0.16330910415E+03  0.20957098063E+03  0.12588831292E+03 0.  0.
          5    1    4    4  502    0  0.27732421410E+02  0.64925847184E+01  0.24516941911E+02  0.37873622671E+02  0.47000000000E+01 0.  1.
         -5    1    4    4    0  502 -0.65074572190E+02 -0.36945728834E+01 -0.85538822816E+02  0.10764446118E+03  0.47000000000E+01 0.  1.
          5    1    5    5  503    0 -0.36147779228E+02  0.11056782175E+02 -0.10713002300E+02  0.39569847023E+02  0.47000000000E+01 0.  1.
         -5    1    5    5    0  503  0.73489930007E+02 -0.13854794010E+02 -0.15259610185E+03  0.17000113361E+03  0.47000000000E+01 0.  1.
<mgrwt>
<rscale>  0 0.27525234E+03</rscale>
<asrwt>0</asrwt>
<pdfrwt beam="1">  1        1 0.10058314E-01 0.27525234E+03</pdfrwt>
<pdfrwt beam="2">  1       -1 0.44570772E-01 0.27525234E+03</pdfrwt>
<totfact> 0.32188927E+03</totfact>
</mgrwt>
</event>
<event>
 9    1  0.2065703E-002  0.2753446E+03  0.7818608E-02  0.1098259E+00
         -1   -1    0    0    0  501 -0.00000000000E+00  0.00000000000E+00  0.84764709134E+01  0.84764709134E+01  0.00000000000E+00 0. -1.
          1   -1    0    0  501    0  0.00000000000E+00 -0.00000000000E+00 -0.22360317030E+04  0.22360317030E+04  0.00000000000E+00 0. -1.
         36    2    1    2    0    0 -0.71054273576E-14  0.00000000000E+00 -0.22275552321E+04  0.22445081740E+04  0.27534456735E+03 0.  0.
         25    2    3    3    0    0 -0.40652872174E+02  0.35883942480E+02 -0.12713860716E+04  0.12785743807E+04  0.12405478864E+03 0.  0.
         25    2    3    3    0    0  0.40652872174E+02 -0.35883942480E+02 -0.95616916054E+03  0.96593379327E+03  0.12581063571E+03 0.  0.
          5    1    4    4  502    0 -0.49660592301E+01  0.78483359606E+02 -0.67312937580E+03  0.67772379775E+03  0.47000000000E+01 0.  1.
         -5    1    4    4    0  502 -0.35686812944E+02 -0.42599417127E+02 -0.59825669579E+03  0.60085058293E+03  0.47000000000E+01 0.  1.
          5    1    5    5  503    0  0.51761340795E+02 -0.64009833325E+02 -0.37492483820E+03  0.38388438293E+03  0.47000000000E+01 0. -1.
         -5    1    5    5    0  503 -0.11108468620E+02  0.28125890845E+02 -0.58124432234E+03  0.58204941033E+03  0.47000000000E+01 0. -1.
<mgrwt>
<rscale>  0 0.27534457E+03</rscale>
<asrwt>0</asrwt>
<pdfrwt beam="1">  1        1 0.34400487E+00 0.27534457E+03</pdfrwt>
<pdfrwt beam="2">  1       -1 0.13040725E-02 0.27534457E+03</pdfrwt>
<totfact> 0.30295307E+03</totfact>
</mgrwt>
</event>
<event>
 9    1  0.2065703E-002  0.2752451E+03  0.7818608E-02  0.1098315E+00
         -1   -1    0    0    0  501 -0.00000000000E+00  0.00000000000E+00  0.23208779662E+02  0.23208779662E+02  0.00000000000E+00 0.  1.
          1   -1    0    0  501    0  0.00000000000E+00 -0.00000000000E+00 -0.81606880835E+03  0.81606880835E+03  0.00000000000E+00 0.  1.
         36    2    1    2    0    0  0.00000000000E+00 -0.71054273576E-14 -0.79286002869E+03  0.83927758801E+03  0.27524506290E+03 0.  0.
         25    2    3    3    0    0  0.47893779936E+01 -0.46747951161E+02 -0.50067849150E+03  0.51917958169E+03  0.12907430847E+03 0.  0.
         25    2    3    3    0    0 -0.47893779936E+01  0.46747951161E+02 -0.29218153719E+03  0.32009800633E+03  0.12200153238E+03 0.  0.
          5    1    4    4  502    0  0.42657593222E+02  0.19920859169E+02 -0.31031933825E+03  0.31390554723E+03  0.47000000000E+01 0. -1.
         -5    1    4    4    0  502 -0.37868215228E+02 -0.66668810329E+02 -0.19035915325E+03  0.20527403446E+03  0.47000000000E+01 0. -1.
          5    1    5    5  503    0 -0.22944536059E+02  0.31646061306E+00  0.23547882465E+00  0.23424289372E+02  0.47000000000E+01 0. -1.
         -5    1    5    5    0  503  0.18155158066E+02  0.46431490547E+02 -0.29241701601E+03  0.29667371695E+03  0.47000000000E+01 0. -1.
<mgrwt>
<rscale>  0 0.27524506E+03</rscale>
<asrwt>0</asrwt>
<pdfrwt beam="1">  1        1 0.12554904E+00 0.27524506E+03</pdfrwt>
<pdfrwt beam="2">  1       -1 0.35705817E-02 0.27524506E+03</pdfrwt>
<totfact> 0.64955299E+03</totfact>
</mgrwt>
</event>
<event>
 9    1  0.2065703E-002  0.2751610E+03  0.7818608E-02  0.1098362E+00
         -2   -1    0    0    0  501 -0.00000000000E+00  0.00000000000E+00  0.13033238196E+03  0.13033238196E+03  0.00000000000E+00 0.  1.
          2   -1    0    0  501    0  0.00000000000E+00 -0.00000000000E+00 -0.14523174056E+03  0.14523174056E+03  0.00000000000E+00 0.  1.
         36    2    1    2    0    0  0.00000000000E+00  0.00000000000E+00 -0.14899358601E+02  0.27556412252E+03  0.27516103419E+03 0.  0.
         25    2    3    3    0    0 -0.14630000643E+02 -0.42955630123E+02 -0.46453324519E+02  0.14058450702E+03  0.12468708505E+03 0.  0.
         25    2    3    3    0    0  0.14630000643E+02  0.42955630123E+02  0.31553965919E+02  0.13497961550E+03  0.12314471469E+03 0.  0.
          5    1    4    4  502    0 -0.61457243424E+02 -0.53902963191E+02 -0.42097443338E+02  0.92069576656E+02  0.47000000000E+01 0. -1.
         -5    1    4    4    0  502  0.46827242781E+02  0.10947333067E+02 -0.43558811811E+01  0.48514930368E+02  0.47000000000E+01 0. -1.
          5    1    5    5  503    0 -0.10572558027E+02 -0.34303893633E+02  0.39029965690E+02  0.53234991532E+02  0.47000000000E+01 0. -1.
         -5    1    5    5    0  503  0.25202558670E+02  0.77259523756E+02 -0.74759997717E+01  0.81744623965E+02  0.47000000000E+01 0. -1.
<mgrwt>
<rscale>  0 0.27516103E+03</rscale>
<asrwt>0</asrwt>
<pdfrwt beam="1">  1        2 0.22343345E-01 0.27516103E+03</pdfrwt>
<pdfrwt beam="2">  1       -2 0.20051136E-01 0.27516103E+03</pdfrwt>
<totfact> 0.50802116E+03</totfact>
</mgrwt>
</event>
<event>
 9    1  0.2065703E-002  0.2752880E+03  0.7818608E-02  0.1098291E+00
          1   -1    0    0  501    0  0.00000000000E+00  0.00000000000E+00  0.73811168615E+03  0.73811168615E+03  0.00000000000E+00 0.  1.
         -1   -1    0    0    0  501 -0.00000000000E+00 -0.00000000000E+00 -0.25668031742E+02  0.25668031742E+02  0.00000000000E+00 0.  1.
         36    2    1    2    0    0  0.71054273576E-14  0.00000000000E+00  0.71244365441E+03  0.76377971789E+03  0.27528802509E+03 0.  0.
         25    2    3    3    0    0 -0.53342688245E+02  0.12436564052E+02  0.37723691477E+03  0.40204399655E+03  0.12779504990E+03 0.  0.
         25    2    3    3    0    0  0.53342688245E+02 -0.12436564052E+02  0.33520673964E+03  0.36173572135E+03  0.12445506532E+03 0.  0.
          5    1    4    4  502    0 -0.21094593239E+02  0.69757195593E+02  0.19172342927E+03  0.20516094056E+03  0.47000000000E+01 0. -1.
         -5    1    4    4    0  502 -0.32248095006E+02 -0.57320631541E+02  0.18551348550E+03  0.19688305599E+03  0.47000000000E+01 0. -1.
          5    1    5    5  503    0  0.92822874055E+02 -0.60764179237E+01  0.19930077485E+03  0.21999067630E+03  0.47000000000E+01 0. -1.
         -5    1    5    5    0  503 -0.39480185810E+02 -0.63601461280E+01  0.13590596479E+03  0.14174504505E+03  0.47000000000E+01 0. -1.
<mgrwt>
<rscale>  0 0.27528803E+03</rscale>
<asrwt>0</asrwt>
<pdfrwt beam="1">  1        1 0.11355563E+00 0.27528803E+03</pdfrwt>
<pdfrwt beam="2">  1       -1 0.39489285E-02 0.27528803E+03</pdfrwt>
<totfact> 0.65159011E+03</totfact>
</mgrwt>
</event>
<event>
 9    1  0.2065703E-002  0.2750524E+03  0.7818608E-02  0.1098422E+00
          2   -1    0    0  501    0  0.00000000000E+00  0.00000000000E+00  0.82399301868E+03  0.82399301868E+03  0.00000000000E+00 0.  1.
         -2   -1    0    0    0  501 -0.00000000000E+00 -0.00000000000E+00 -0.22953411602E+02  0.22953411602E+02  0.00000000000E+00 0.  1.
         36    2    1    2    0    0  0.71054273576E-14  0.35527136788E-14  0.80103960708E+03  0.84694643028E+03  0.27505236530E+03 0.  0.
         25    2    3    3    0    0 -0.10049522147E+02 -0.15997003346E+02  0.25457130292E+03  0.28598704124E+03  0.12893852207E+03 0.  0.
         25    2    3    3    0    0  0.10049522147E+02  0.15997003346E+02  0.54646830415E+03  0.56095938904E+03  0.12526344917E+03 0.  0.
          5    1    4    4  502    0 -0.57483541947E+02 -0.45261517763E+02  0.16222656412E+03  0.17802390483E+03  0.47000000000E+01 0. -1.
         -5    1    4    4    0  502  0.47434019800E+02  0.29264514417E+02  0.92344738810E+02  0.10796313641E+03  0.47000000000E+01 0. -1.
          5    1    5    5  503    0 -0.32709866390E+02 -0.41927375807E+02  0.27033195481E+03  0.27555271001E+03  0.47000000000E+01 0. -1.
         -5    1    5    5    0  503  0.42759388537E+02  0.57924379153E+02  0.27613634934E+03  0.28540667903E+03  0.47000000000E+01 0. -1.
<mgrwt>
<rscale>  0 0.27505237E+03</rscale>
<asrwt>0</asrwt>
<pdfrwt beam="1">  1        2 0.12676813E+00 0.27505237E+03</pdfrwt>
<pdfrwt beam="2">  1       -2 0.35312947E-02 0.27505237E+03</pdfrwt>
<totfact> 0.11288071E+04</totfact>
</mgrwt>
</event>
<event>
 9    1  0.2065703E-002  0.2748816E+03  0.7818608E-02  0.1098518E+00
          2   -1    0    0  501    0  0.00000000000E+00  0.00000000000E+00  0.60712913024E+03  0.60712913024E+03  0.00000000000E+00 0.  1.
         -2   -1    0    0    0  501 -0.00000000000E+00 -0.00000000000E+00 -0.31113590340E+02  0.31113590340E+02  0.00000000000E+00 0.  1.
         36    2    1    2    0    0  0.00000000000E+00 -0.71054273576E-14  0.57601553990E+03  0.63824272057E+03  0.27488155297E+03 0.  0.
         25    2    3    3    0    0 -0.10406069100E+02 -0.50648102737E+02  0.28963962424E+03  0.32237084209E+03  0.13175102018E+03 0.  0.
         25    2    3    3    0    0  0.10406069100E+02  0.50648102737E+02  0.28637591566E+03  0.31587187848E+03  0.12284283439E+03 0.  0.
          5    1    4    4  502    0 -0.45330971670E+02  0.78919360392E+01  0.21999576768E+03  0.22480526560E+03  0.47000000000E+01 0. -1.
         -5    1    4    4    0  502  0.34924902571E+02 -0.58540038776E+02  0.69643856561E+02  0.97565576492E+02  0.47000000000E+01 0. -1.
          5    1    5    5  503    0 -0.44578063781E+02 -0.98509922482E+01  0.14934714610E+03  0.15623989845E+03  0.47000000000E+01 0. -1.
         -5    1    5    5    0  503  0.54984132881E+02  0.60499094985E+02  0.13702876956E+03  0.15963198003E+03  0.47000000000E+01 0. -1.
<mgrwt>
<rscale>  0 0.27488155E+03</rscale>
<asrwt>0</asrwt>
<pdfrwt beam="1">  1        2 0.93404473E-01 0.27488155E+03</pdfrwt>
<pdfrwt beam="2">  1       -2 0.47867066E-02 0.27488155E+03</pdfrwt>
<totfact> 0.10364219E+04</totfact>
</mgrwt>
</event>
<event>
 9    1  0.2065703E-002  0.2750783E+03  0.7818608E-02  0.1098408E+00
          1   -1    0    0  501    0  0.00000000000E+00  0.00000000000E+00  0.48866670199E+03  0.48866670199E+03  0.00000000000E+00 0.  1.
         -1   -1    0    0    0  501 -0.00000000000E+00 -0.00000000000E+00 -0.38711495139E+02  0.38711495139E+02  0.00000000000E+00 0.  1.
         36    2    1    2    0    0  0.00000000000E+00 -0.71054273576E-14  0.44995520685E+03  0.52737819713E+03  0.27507830637E+03 0.  0.
         25    2    3    3    0    0  0.28636476150E+02 -0.20611260104E+02  0.27420631153E+03  0.30467515713E+03  0.12803506661E+03 0.  0.
         25    2    3    3    0    0 -0.28636476150E+02  0.20611260104E+02  0.17574889532E+03  0.22270303999E+03  0.13215179911E+03 0.  0.
          5    1    4    4  502    0  0.56974145925E+02  0.36112050198E+02  0.16483922490E+03  0.17816900274E+03  0.47000000000E+01 0. -1.
         -5    1    4    4    0  502 -0.28337669775E+02 -0.56723310302E+02  0.10936708664E+03  0.12650615439E+03  0.47000000000E+01 0. -1.
          5    1    5    5  503    0  0.13643305233E+02 -0.21597001487E+02 -0.97657979506E+01  0.27749433517E+02  0.47000000000E+01 0.  1.
         -5    1    5    5    0  503 -0.42279781383E+02  0.42208261591E+02  0.18551469327E+03  0.19495360648E+03  0.47000000000E+01 0.  1.
<mgrwt>
<rscale>  0 0.27507831E+03</rscale>
<asrwt>0</asrwt>
<pdfrwt beam="1">  1        1 0.75179488E-01 0.27507831E+03</pdfrwt>
<pdfrwt beam="2">  1       -1 0.59556150E-02 0.27507831E+03</pdfrwt>
<totfact> 0.62615010E+03</totfact>
</mgrwt>
</event>
<event>
 9    1  0.2065703E-002  0.2753204E+03  0.7818608E-02  0.1098273E+00
         -4   -1    0    0    0  501 -0.00000000000E+00  0.00000000000E+00  0.18973803946E+04  0.18973803946E+04  0.00000000000E+00 0.  1.
          4   -1    0    0  501    0  0.00000000000E+00 -0.00000000000E+00 -0.99876290762E+01  0.99876290762E+01  0.00000000000E+00 0.  1.
         36    2    1    2    0    0 -0.71054273576E-14  0.00000000000E+00  0.18873927655E+04  0.19073680237E+04  0.27532040678E+03 0.  0.
         25    2    3    3    0    0 -0.22645686509E+02  0.55960810537E+02  0.74634371452E+03  0.75886252947E+03  0.12328405819E+03 0.  0.
         25    2    3    3    0    0  0.22645686509E+02 -0.55960810537E+02  0.11410490510E+04  0.11485054942E+04  0.11587706409E+03 0.  0.
          5    1    4    4  502    0 -0.41871828777E+01 -0.36092113981E+02  0.33060199451E+03  0.33262582877E+03  0.47000000000E+01 0.  1.
         -5    1    4    4    0  502 -0.18458503631E+02  0.92052924519E+02  0.41574172001E+03  0.42623670070E+03  0.47000000000E+01 0.  1.
          5    1    5    5  503    0 -0.32515671011E+02  0.17277801126E+02  0.25026827709E+03  0.25300611018E+03  0.47000000000E+01 0.  1.
         -5    1    5    5    0  503  0.55161357520E+02 -0.73238611664E+02  0.89078077394E+03  0.89549938404E+03  0.47000000000E+01 0.  1.
<mgrwt>
<rscale>  0 0.27532041E+03</rscale>
<asrwt>0</asrwt>
<pdfrwt beam="1">  1        4 0.15365598E-02 0.27532041E+03</pdfrwt>
<pdfrwt beam="2">  1       -4 0.29190439E+00 0.27532041E+03</pdfrwt>
<totfact> 0.11555271E+02</totfact>
</mgrwt>
</event>
<event>
 9    1  0.2065703E-002  0.2754345E+03  0.7818608E-02  0.1098209E+00
         -1   -1    0    0    0  501 -0.00000000000E+00  0.00000000000E+00  0.21481726429E+02  0.21481726429E+02  0.00000000000E+00 0.  1.
          1   -1    0    0  501    0  0.00000000000E+00 -0.00000000000E+00 -0.88289164558E+03  0.88289164558E+03  0.00000000000E+00 0.  1.
         36    2    1    2    0    0  0.00000000000E+00  0.00000000000E+00 -0.86140991915E+03  0.90437337201E+03  0.27543446986E+03 0.  0.
         25    2    3    3    0    0  0.38808812107E+02  0.51587573962E+02 -0.39378740750E+03  0.41783031555E+03  0.12387997658E+03 0.  0.
         25    2    3    3    0    0 -0.38808812107E+02 -0.51587573962E+02 -0.46762251164E+03  0.48654305646E+03  0.11783857903E+03 0.  0.
          5    1    4    4  502    0  0.74548655532E+02  0.38703996034E+02 -0.15844204774E+03  0.17939195591E+03  0.47000000000E+01 0. -1.
         -5    1    4    4    0  502 -0.35739843424E+02  0.12883577927E+02 -0.23534535976E+03  0.23843835964E+03  0.47000000000E+01 0. -1.
          5    1    5    5  503    0 -0.78386061858E+02 -0.14459052033E+02 -0.27171706585E+03  0.28320609590E+03  0.47000000000E+01 0. -1.
         -5    1    5    5    0  503  0.39577249751E+02 -0.37128521929E+02 -0.19590544579E+03  0.20333696056E+03  0.47000000000E+01 0. -1.
<mgrwt>
<rscale>  0 0.27543447E+03</rscale>
<asrwt>0</asrwt>
<pdfrwt beam="1">  1        1 0.13582947E+00 0.27543447E+03</pdfrwt>
<pdfrwt beam="2">  1       -1 0.33048813E-02 0.27543447E+03</pdfrwt>
<totfact> 0.64308577E+03</totfact>
</mgrwt>
</event>
<event>
 9    1  0.2065703E-002  0.2749722E+03  0.7818608E-02  0.1098467E+00
         -1   -1    0    0    0  501 -0.00000000000E+00  0.00000000000E+00  0.42174491316E+02  0.42174491316E+02  0.00000000000E+00 0. -1.
          1   -1    0    0  501    0  0.00000000000E+00 -0.00000000000E+00 -0.44819563914E+03  0.44819563914E+03  0.00000000000E+00 0. -1.
         36    2    1    2    0    0  0.00000000000E+00 -0.71054273576E-14 -0.40602114782E+03  0.49037013045E+03  0.27497216652E+03 0.  0.
         25    2    3    3    0    0  0.16147332002E+02 -0.48154991908E+02 -0.17509782431E+03  0.22257682398E+03  0.12767754272E+03 0.  0.
         25    2    3    3    0    0 -0.16147332002E+02  0.48154991908E+02 -0.23092332351E+03  0.26779330648E+03  0.12573000468E+03 0.  0.
          5    1    4    4  502    0  0.20583584584E+02 -0.13198528871E+02  0.15076819472E+02  0.29108170744E+02  0.47000000000E+01 0. -1.
         -5    1    4    4    0  502 -0.44362525821E+01 -0.34956463038E+02 -0.19017464378E+03  0.19346865323E+03  0.47000000000E+01 0. -1.
          5    1    5    5  503    0  0.31287360411E+02  0.38642319613E+02 -0.24319453660E+02  0.55548659866E+02  0.47000000000E+01 0. -1.
         -5    1    5    5    0  503 -0.47434692412E+02  0.95126722951E+01 -0.20660386985E+03  0.21224464661E+03  0.47000000000E+01 0. -1.
<mgrwt>
<rscale>  0 0.27497217E+03</rscale>
<asrwt>0</asrwt>
<pdfrwt beam="1">  1        1 0.68953174E-01 0.27497217E+03</pdfrwt>
<pdfrwt beam="2">  1       -1 0.64883834E-02 0.27497217E+03</pdfrwt>
<totfact> 0.61622498E+03</totfact>
</mgrwt>
</event>
<event>
 9    1  0.2065703E-002  0.2733854E+03  0.7818608E-02  0.1099358E+00
          3   -1    0    0  501    0  0.00000000000E+00  0.00000000000E+00  0.31629161598E+03  0.31629161598E+03  0.00000000000E+00 0. -1.
         -3   -1    0    0    0  501 -0.00000000000E+00 -0.00000000000E+00 -0.59074879040E+02  0.59074879040E+02  0.00000000000E+00 0. -1.
         36    2    1    2    0    0 -0.35527136788E-14  0.00000000000E+00  0.25721673694E+03  0.37536649502E+03  0.27338536139E+03 0.  0.
         25    2    3    3    0    0 -0.11695573369E+02  0.45839351566E+02  0.11162915397E+03  0.17479330328E+03  0.12591107285E+03 0.  0.
         25    2    3    3    0    0  0.11695573369E+02 -0.45839351566E+02  0.14558758297E+03  0.20057319174E+03  0.12959872045E+03 0.  0.
          5    1    4    4  502    0  0.51683656036E+02 -0.47584977151E+01  0.54993528074E+02  0.75764251014E+02  0.47000000000E+01 0. -1.
         -5    1    4    4    0  502 -0.63379229404E+02  0.50597849281E+02  0.56635625895E+02  0.99029052264E+02  0.47000000000E+01 0. -1.
          5    1    5    5  503    0 -0.63651775129E+01 -0.89707405190E+02  0.10068492099E+03  0.13508322377E+03  0.47000000000E+01 0. -1.
         -5    1    5    5    0  503  0.18060750881E+02  0.43868053624E+02  0.44902661980E+02  0.65489967965E+02  0.47000000000E+01 0. -1.
<mgrwt>
<rscale>  0 0.27338536E+03</rscale>
<asrwt>0</asrwt>
<pdfrwt beam="1">  1        3 0.48660248E-01 0.27338536E+03</pdfrwt>
<pdfrwt beam="2">  1       -3 0.90884431E-02 0.27338536E+03</pdfrwt>
<totfact> 0.92736415E+02</totfact>
</mgrwt>
</event>
<event>
 9    1  0.2065703E-002  0.2756164E+03  0.7818608E-02  0.1098108E+00
          2   -1    0    0  501    0  0.00000000000E+00  0.00000000000E+00  0.37557953143E+03  0.37557953143E+03  0.00000000000E+00 0.  1.
         -2   -1    0    0    0  501 -0.00000000000E+00 -0.00000000000E+00 -0.50564800438E+02  0.50564800438E+02  0.00000000000E+00 0.  1.
         36    2    1    2    0    0  0.71054273576E-14  0.00000000000E+00  0.32501473099E+03  0.42614433186E+03  0.27561642952E+03 0.  0.
         25    2    3    3    0    0  0.30488615809E+02 -0.42380195690E+02  0.16871886389E+03  0.21895786598E+03  0.12942509556E+03 0.  0.
         25    2    3    3    0    0 -0.30488615809E+02  0.42380195690E+02  0.15629586710E+03  0.20718646589E+03  0.12558740738E+03 0.  0.
          5    1    4    4  502    0  0.46003518006E+02 -0.13607785950E+02  0.17819539542E+03  0.18460006624E+03  0.47000000000E+01 0.  1.
         -5    1    4    4    0  502 -0.15514902197E+02 -0.28772409740E+02 -0.94765315371E+01  0.34357799732E+02  0.47000000000E+01 0.  1.
          5    1    5    5  503    0 -0.71128618067E+02  0.20207155775E+02  0.45331030004E+02  0.86859666900E+02  0.47000000000E+01 0.  1.
         -5    1    5    5    0  503  0.40640002258E+02  0.22173039915E+02  0.11096483710E+03  0.12032679899E+03  0.47000000000E+01 0.  1.
<mgrwt>
<rscale>  0 0.27561643E+03</rscale>
<asrwt>0</asrwt>
<pdfrwt beam="1">  1        2 0.57781465E-01 0.27561643E+03</pdfrwt>
<pdfrwt beam="2">  1       -2 0.77792003E-02 0.27561643E+03</pdfrwt>
<totfact> 0.83953070E+03</totfact>
</mgrwt>
</event>
<event>
 9    1  0.2065703E-002  0.2756282E+03  0.7818608E-02  0.1098101E+00
          2   -1    0    0  501    0  0.00000000000E+00  0.00000000000E+00  0.19726920266E+03  0.19726920266E+03  0.00000000000E+00 0.  1.
         -2   -1    0    0    0  501 -0.00000000000E+00 -0.00000000000E+00 -0.96278230428E+02  0.96278230428E+02  0.00000000000E+00 0.  1.
         36    2    1    2    0    0 -0.35527136788E-14 -0.35527136788E-14  0.10099097224E+03  0.29354743309E+03  0.27562822606E+03 0.  0.
         25    2    3    3    0    0 -0.16820909926E+02 -0.15510934223E+01 -0.39380534014E+01  0.12954534903E+03  0.12837889347E+03 0.  0.
         25    2    3    3    0    0  0.16820909926E+02  0.15510934223E+01  0.10492902564E+03  0.16400208406E+03  0.12490490084E+03 0.  0.
          5    1    4    4  502    0  0.33480202196E+02  0.13855046396E+02 -0.48304796590E+02  0.60566736938E+02  0.47000000000E+01 0.  1.
         -5    1    4    4    0  502 -0.50301112122E+02 -0.15406139819E+02  0.44366743189E+02  0.68978612091E+02  0.47000000000E+01 0.  1.
          5    1    5    5  503    0  0.11453405645E+02 -0.36697327618E+02 -0.12179481257E+02  0.40599311803E+02  0.47000000000E+01 0. -1.
         -5    1    5    5    0  503  0.53675042814E+01  0.38248421040E+02  0.11710850690E+03  0.12340277226E+03  0.47000000000E+01 0. -1.
<mgrwt>
<rscale>  0 0.27562823E+03</rscale>
<asrwt>0</asrwt>
<pdfrwt beam="1">  1        2 0.30349108E-01 0.27562823E+03</pdfrwt>
<pdfrwt beam="2">  1       -2 0.14812035E-01 0.27562823E+03</pdfrwt>
<totfact> 0.60079846E+03</totfact>
</mgrwt>
</event>
<event>
 9    1  0.2065703E-002  0.2751023E+03  0.7818608E-02  0.1098394E+00
          1   -1    0    0  501    0  0.00000000000E+00  0.00000000000E+00  0.12168294871E+02  0.12168294871E+02  0.00000000000E+00 0. -1.
         -1   -1    0    0    0  501 -0.00000000000E+00 -0.00000000000E+00 -0.15548870496E+04  0.15548870496E+04  0.00000000000E+00 0. -1.
         36    2    1    2    0    0  0.00000000000E+00  0.00000000000E+00 -0.15427187547E+04  0.15670553445E+04  0.27510233812E+03 0.  0.
         25    2    3    3    0    0  0.50701227778E+02  0.24219598277E+02 -0.94934016369E+03  0.95821982810E+03  0.11739373548E+03 0.  0.
         25    2    3    3    0    0 -0.50701227778E+02 -0.24219598277E+02 -0.59337859104E+03  0.60883551638E+03  0.12419875302E+03 0.  0.
          5    1    4    4  502    0  0.16840315503E+00  0.61357584972E+02 -0.61046113895E+03  0.61355494763E+03  0.47000000000E+01 0. -1.
         -5    1    4    4    0  502  0.50532824623E+02 -0.37137986695E+02 -0.33887902474E+03  0.34466488047E+03  0.47000000000E+01 0. -1.
          5    1    5    5  503    0  0.18756871874E+02 -0.54332462105E+02 -0.31872937427E+03  0.32390483279E+03  0.47000000000E+01 0. -1.
         -5    1    5    5    0  503 -0.69458099652E+02  0.30112863828E+02 -0.27464921677E+03  0.28493068359E+03  0.47000000000E+01 0. -1.
<mgrwt>
<rscale>  0 0.27510234E+03</rscale>
<asrwt>0</asrwt>
<pdfrwt beam="1">  1        1 0.18720456E-02 0.27510234E+03</pdfrwt>
<pdfrwt beam="2">  1       -1 0.23921337E+00 0.27510234E+03</pdfrwt>
<totfact> 0.61686854E+02</totfact>
</mgrwt>
</event>
<event>
 9    1  0.2065703E-002  0.2745030E+03  0.7818608E-02  0.1098730E+00
          1   -1    0    0  501    0  0.00000000000E+00  0.00000000000E+00  0.27737196004E+03  0.27737196004E+03  0.00000000000E+00 0. -1.
         -1   -1    0    0    0  501 -0.00000000000E+00 -0.00000000000E+00 -0.67915906778E+02  0.67915906778E+02  0.00000000000E+00 0. -1.
         36    2    1    2    0    0  0.71054273576E-14  0.00000000000E+00  0.20945605327E+03  0.34528786682E+03  0.27450295577E+03 0.  0.
         25    2    3    3    0    0 -0.46669153574E+02 -0.45838749407E+02  0.10553531706E+03  0.17560079247E+03  0.12417219628E+03 0.  0.
         25    2    3    3    0    0  0.46669153574E+02  0.45838749407E+02  0.10392073620E+03  0.16968707435E+03  0.11711098558E+03 0.  0.
          5    1    4    4  502    0 -0.22803803268E+02  0.41819627392E+02  0.48977987131E+02  0.68482318171E+02  0.47000000000E+01 0.  1.
         -5    1    4    4    0  502 -0.23865350306E+02 -0.87658376799E+02  0.56557329930E+02  0.10711847430E+03  0.47000000000E+01 0.  1.
          5    1    5    5  503    0 -0.36603107094E+02  0.16559664603E+02  0.12070737376E+02  0.42211404164E+02  0.47000000000E+01 0.  1.
         -5    1    5    5    0  503  0.83272260668E+02  0.29279084804E+02  0.91849998828E+02  0.12747567018E+03  0.47000000000E+01 0.  1.
<mgrwt>
<rscale>  0 0.27450296E+03</rscale>
<asrwt>0</asrwt>
<pdfrwt beam="1">  1        1 0.42672609E-01 0.27450296E+03</pdfrwt>
<pdfrwt beam="2">  1       -1 0.10448601E-01 0.27450296E+03</pdfrwt>
<totfact> 0.54721361E+03</totfact>
</mgrwt>
</event>
<event>
 9    1  0.2065703E-002  0.2786353E+03  0.7818608E-02  0.1096437E+00
         -2   -1    0    0    0  501 -0.00000000000E+00  0.00000000000E+00  0.17035046928E+02  0.17035046928E+02  0.00000000000E+00 0.  1.
          2   -1    0    0  501    0  0.00000000000E+00 -0.00000000000E+00 -0.11393809980E+04  0.11393809980E+04  0.00000000000E+00 0.  1.
         36    2    1    2    0    0  0.71054273576E-14 -0.71054273576E-14 -0.11223459511E+04  0.11564160449E+04  0.27863530838E+03 0.  0.
         25    2    3    3    0    0  0.48366784996E+02 -0.40514907397E+02 -0.52190053092E+03  0.54043246539E+03  0.12532470571E+03 0.  0.
         25    2    3    3    0    0 -0.48366784996E+02  0.40514907397E+02 -0.60044542016E+03  0.61598357954E+03  0.12214853280E+03 0.  0.
          5    1    4    4  502    0  0.17233425779E+02 -0.25694094729E+02 -0.19592989856E+02  0.36920898141E+02  0.47000000000E+01 0. -1.
         -5    1    4    4    0  502  0.31133359217E+02 -0.14820812668E+02 -0.50230754106E+03  0.50351156725E+03  0.47000000000E+01 0. -1.
          5    1    5    5  503    0 -0.30812400107E+02  0.78430453576E+02 -0.27024255913E+03  0.28311458954E+03  0.47000000000E+01 0.  1.
         -5    1    5    5    0  503 -0.17554384890E+02 -0.37915546179E+02 -0.33020286103E+03  0.33286899000E+03  0.47000000000E+01 0.  1.
<mgrwt>
<rscale>  0 0.27863531E+03</rscale>
<asrwt>0</asrwt>
<pdfrwt beam="1">  1        2 0.17528939E+00 0.27863531E+03</pdfrwt>
<pdfrwt beam="2">  1       -2 0.26207764E-02 0.27863531E+03</pdfrwt>
<totfact> 0.11208846E+04</totfact>
</mgrwt>
</event>
<event>
 9    1  0.2065703E-002  0.2738736E+03  0.7818608E-02  0.1099083E+00
         -1   -1    0    0    0  501 -0.00000000000E+00  0.00000000000E+00  0.15294011183E+02  0.15294011183E+02  0.00000000000E+00 0. -1.
          1   -1    0    0  501    0  0.00000000000E+00 -0.00000000000E+00 -0.12260804905E+04  0.12260804905E+04  0.00000000000E+00 0. -1.
         36    2    1    2    0    0  0.14210854715E-13 -0.71054273576E-14 -0.12107864793E+04  0.12413745017E+04  0.27387361124E+03 0.  0.
         25    2    3    3    0    0  0.51099773967E+02 -0.32951908693E+02 -0.72134898841E+03  0.73220392740E+03  0.10991457155E+03 0.  0.
         25    2    3    3    0    0 -0.51099773967E+02  0.32951908693E+02 -0.48943749092E+03  0.50917057429E+03  0.12652510036E+03 0.  0.
          5    1    4    4  502    0  0.73977447304E+02 -0.99069054253E+01 -0.28586094005E+03  0.29548160100E+03  0.47000000000E+01 0. -1.
         -5    1    4    4    0  502 -0.22877673337E+02 -0.23045003268E+02 -0.43548804836E+03  0.43672232640E+03  0.47000000000E+01 0. -1.
          5    1    5    5  503    0 -0.12862008137E+02  0.68541207349E+02 -0.14736662268E+03  0.16310223738E+03  0.47000000000E+01 0. -1.
         -5    1    5    5    0  503 -0.38237765830E+02 -0.35589298656E+02 -0.34207086824E+03  0.34606833691E+03  0.47000000000E+01 0. -1.
<mgrwt>
<rscale>  0 0.27387361E+03</rscale>
<asrwt>0</asrwt>
<pdfrwt beam="1">  1        1 0.18862781E+00 0.27387361E+03</pdfrwt>
<pdfrwt beam="2">  1       -1 0.23529243E-02 0.27387361E+03</pdfrwt>
<totfact> 0.59272195E+03</totfact>
</mgrwt>
</event>
<event>
 9    1  0.2065703E-002  0.2743763E+03  0.7818608E-02  0.1098801E+00
         -2   -1    0    0    0  501 -0.00000000000E+00  0.00000000000E+00  0.34521148985E+02  0.34521148985E+02  0.00000000000E+00 0.  1.
          2   -1    0    0  501    0  0.00000000000E+00 -0.00000000000E+00 -0.54518999416E+03  0.54518999416E+03  0.00000000000E+00 0.  1.
         36    2    1    2    0    0  0.00000000000E+00  0.00000000000E+00 -0.51066884518E+03  0.57971114315E+03  0.27437627459E+03 0.  0.
         25    2    3    3    0    0  0.19975245390E+01 -0.17220093716E+02 -0.35816988172E+03  0.38216429732E+03  0.13214902285E+03 0.  0.
         25    2    3    3    0    0 -0.19975245390E+01  0.17220093716E+02 -0.15249896345E+03  0.19754684583E+03  0.12437162342E+03 0.  0.
          5    1    4    4  502    0 -0.45251359426E+02 -0.52118632854E+02 -0.13977171256E+03  0.15595595228E+03  0.47000000000E+01 0.  1.
         -5    1    4    4    0  502  0.47248883965E+02  0.34898539138E+02 -0.21839816916E+03  0.22620834503E+03  0.47000000000E+01 0.  1.
          5    1    5    5  503    0 -0.37379542729E+01  0.26856457604E+02 -0.17255647770E+03  0.17473714434E+03  0.47000000000E+01 0.  1.
         -5    1    5    5    0  503  0.17404297339E+01 -0.96363638876E+01  0.20057514240E+02  0.22809701492E+02  0.47000000000E+01 0.  1.
<mgrwt>
<rscale>  0 0.27437627E+03</rscale>
<asrwt>0</asrwt>
<pdfrwt beam="1">  1        2 0.83875388E-01 0.27437627E+03</pdfrwt>
<pdfrwt beam="2">  1       -2 0.53109457E-02 0.27437627E+03</pdfrwt>
<totfact> 0.10014719E+04</totfact>
</mgrwt>
</event>
<event>
 9    1  0.2065703E-002  0.2748135E+03  0.7818608E-02  0.1098556E+00
         -2   -1    0    0    0  501 -0.00000000000E+00  0.00000000000E+00  0.92170935913E+01  0.92170935913E+01  0.00000000000E+00 0.  1.
          2   -1    0    0  501    0  0.00000000000E+00 -0.00000000000E+00 -0.20484347332E+04  0.20484347332E+04  0.00000000000E+00 0.  1.
         36    2    1    2    0    0  0.00000000000E+00  0.14210854715E-13 -0.20392176396E+04  0.20576518268E+04  0.27481349786E+03 0.  0.
         25    2    3    3    0    0 -0.13079238435E+02 -0.53332611279E+02 -0.96069055179E+03  0.97033880520E+03  0.12496250110E+03 0.  0.
         25    2    3    3    0    0  0.13079238435E+02  0.53332611279E+02 -0.10785270878E+04  0.10873130216E+04  0.12654443430E+03 0.  0.
          5    1    4    4  502    0  0.14980425914E+02 -0.96409571304E+00 -0.77828268613E+03  0.77844163055E+03  0.47000000000E+01 0.  1.
         -5    1    4    4    0  502 -0.28059664349E+02 -0.52368515566E+02 -0.18240786566E+03  0.19189717465E+03  0.47000000000E+01 0.  1.
          5    1    5    5  503    0 -0.16318420340E+02  0.76234187311E+02 -0.95533167724E+03  0.95851898557E+03  0.47000000000E+01 0. -1.
         -5    1    5    5    0  503  0.29397658775E+02 -0.22901576032E+02 -0.12319541056E+03  0.12879403600E+03  0.47000000000E+01 0. -1.
<mgrwt>
<rscale>  0 0.27481350E+03</rscale>
<asrwt>0</asrwt>
<pdfrwt beam="1">  1        2 0.31514381E+00 0.27481350E+03</pdfrwt>
<pdfrwt beam="2">  1       -2 0.14180144E-02 0.27481350E+03</pdfrwt>
<totfact> 0.89736224E+03</totfact>
</mgrwt>
</event>
<event>
 9    1  0.2065703E-002  0.2755193E+03  0.7818608E-02  0.1098162E+00
         -2   -1    0    0    0  501 -0.00000000000E+00  0.00000000000E+00  0.61500060630E+03  0.61500060630E+03  0.00000000000E+00 0.  1.
          2   -1    0    0  501    0  0.00000000000E+00 -0.00000000000E+00 -0.30858052993E+02  0.30858052993E+02  0.00000000000E+00 0.  1.
         36    2    1    2    0    0  0.71054273576E-14  0.71054273576E-14  0.58414255331E+03  0.64585865929E+03  0.27551930095E+03 0.  0.
         25    2    3    3    0    0 -0.23048556270E+02  0.39159062885E+02  0.19737408547E+03  0.23820930800E+03  0.12538930038E+03 0.  0.
         25    2    3    3    0    0  0.23048556270E+02 -0.39159062885E+02  0.38676846784E+03  0.40764935129E+03  0.12051339239E+03 0.  0.
          5    1    4    4  502    0  0.49670321543E+02  0.13572860136E+02  0.50542805135E+02  0.72305107188E+02  0.47000000000E+01 0. -1.
         -5    1    4    4    0  502 -0.72718877813E+02  0.25586202749E+02  0.14683128033E+03  0.16590420081E+03  0.47000000000E+01 0. -1.
          5    1    5    5  503    0  0.55122309168E+02 -0.46725206762E+02  0.35255266738E+03  0.35991274941E+03  0.47000000000E+01 0.  1.
         -5    1    5    5    0  503 -0.32073752899E+02  0.75661438764E+01  0.34215800460E+02  0.47736601882E+02  0.47000000000E+01 0.  1.
<mgrwt>
<rscale>  0 0.27551930E+03</rscale>
<asrwt>0</asrwt>
<pdfrwt beam="1">  1        2 0.47473932E-02 0.27551930E+03</pdfrwt>
<pdfrwt beam="2">  1       -2 0.94615469E-01 0.27551930E+03</pdfrwt>
<totfact> 0.16406980E+03</totfact>
</mgrwt>
</event>
<event>
 9    1  0.2065703E-002  0.2703780E+03  0.7818608E-02  0.1101063E+00
          1   -1    0    0  501    0  0.00000000000E+00  0.00000000000E+00  0.12902737558E+04  0.12902737558E+04  0.00000000000E+00 0. -1.
         -1   -1    0    0    0  501 -0.00000000000E+00 -0.00000000000E+00 -0.14164487411E+02  0.14164487411E+02  0.00000000000E+00 0. -1.
         36    2    1    2    0    0  0.71054273576E-14 -0.35527136788E-14  0.12761092684E+04  0.13044382432E+04  0.27037800481E+03 0.  0.
         25    2    3    3    0    0 -0.37025741422E+02 -0.12124960290E+02  0.47885054778E+03  0.49654368484E+03  0.12545861333E+03 0.  0.
         25    2    3    3    0    0  0.37025741422E+02  0.12124960290E+02  0.79725872064E+03  0.80789455840E+03  0.12471659740E+03 0.  0.
          5    1    4    4  502    0  0.37476796829E+02 -0.36808213867E+02  0.19037181506E+03  0.19754207875E+03  0.47000000000E+01 0.  1.
         -5    1    4    4    0  502 -0.74502538250E+02  0.24683253577E+02  0.28847873272E+03  0.29900160609E+03  0.47000000000E+01 0.  1.
          5    1    5    5  503    0  0.81629921418E+01  0.41310705998E+02  0.90483219400E+02  0.99912521056E+02  0.47000000000E+01 0.  1.
         -5    1    5    5    0  503  0.28862749280E+02 -0.29185745709E+02  0.70677550124E+03  0.70798203734E+03  0.47000000000E+01 0.  1.
<mgrwt>
<rscale>  0 0.27037800E+03</rscale>
<asrwt>0</asrwt>
<pdfrwt beam="1">  1        1 0.19850356E+00 0.27037800E+03</pdfrwt>
<pdfrwt beam="2">  1       -1 0.21791529E-02 0.27037800E+03</pdfrwt>
<totfact> 0.59886150E+03</totfact>
</mgrwt>
</event>
<event>
 9    1  0.2065703E-002  0.2745064E+03  0.7818608E-02  0.1098728E+00
          2   -1    0    0  501    0  0.00000000000E+00  0.00000000000E+00  0.20032580415E+04  0.20032580415E+04  0.00000000000E+00 0. -1.
         -2   -1    0    0    0  501 -0.00000000000E+00 -0.00000000000E+00 -0.94038998204E+01  0.94038998204E+01  0.00000000000E+00 0. -1.
         36    2    1    2    0    0 -0.14210854715E-13  0.35527136788E-14  0.19938541417E+04  0.20126619413E+04  0.27450637833E+03 0.  0.
         25    2    3    3    0    0 -0.44334748831E+02 -0.10461804108E+02  0.92438753872E+03  0.93381197249E+03  0.12424757117E+03 0.  0.
         25    2    3    3    0    0  0.44334748831E+02  0.10461804108E+02  0.10694666029E+04  0.10788499688E+04  0.13447461129E+03 0.  0.
          5    1    4    4  502    0 -0.73640384091E+02  0.27350606674E+02  0.43427218877E+03  0.44134497368E+03  0.47000000000E+01 0. -1.
         -5    1    4    4    0  502  0.29305635260E+02 -0.37812410783E+02  0.49011534995E+03  0.49246699882E+03  0.47000000000E+01 0. -1.
          5    1    5    5  503    0  0.80946721164E+02 -0.30369580770E+02  0.61613529582E+03  0.62218926048E+03  0.47000000000E+01 0. -1.
         -5    1    5    5    0  503 -0.36611972333E+02  0.40831384878E+02  0.45333130712E+03  0.45666070832E+03  0.47000000000E+01 0. -1.
<mgrwt>
<rscale>  0 0.27450638E+03</rscale>
<asrwt>0</asrwt>
<pdfrwt beam="1">  1        2 0.30819321E+00 0.27450638E+03</pdfrwt>
<pdfrwt beam="2">  1       -2 0.14467554E-02 0.27450638E+03</pdfrwt>
<totfact> 0.92048988E+03</totfact>
</mgrwt>
</event>
<event>
 9    1  0.2065703E-002  0.2722588E+03  0.7818608E-02  0.1099994E+00
          2   -1    0    0  501    0  0.00000000000E+00  0.00000000000E+00  0.51193027651E+03  0.51193027651E+03  0.00000000000E+00 0.  1.
         -2   -1    0    0    0  501 -0.00000000000E+00 -0.00000000000E+00 -0.36198704037E+02  0.36198704037E+02  0.00000000000E+00 0.  1.
         36    2    1    2    0    0  0.00000000000E+00  0.14210854715E-13  0.47573157247E+03  0.54812898054E+03  0.27225879282E+03 0.  0.
         25    2    3    3    0    0  0.16471044137E+02  0.17050070807E+02  0.12867465104E+03  0.18005343518E+03  0.12369346584E+03 0.  0.
         25    2    3    3    0    0 -0.16471044137E+02 -0.17050070807E+02  0.34705692143E+03  0.36807554536E+03  0.12028757281E+03 0.  0.
          5    1    4    4  502    0  0.31681597796E+02 -0.47124640566E+02  0.40791813255E+02  0.70075084132E+02  0.47000000000E+01 0. -1.
         -5    1    4    4    0  502 -0.15210553659E+02  0.64174711373E+02  0.87882837784E+02  0.10997835105E+03  0.47000000000E+01 0. -1.
          5    1    5    5  503    0 -0.25484848031E+02 -0.65833419903E+02  0.23543000056E+03  0.24583102290E+03  0.47000000000E+01 0. -1.
         -5    1    5    5    0  503  0.90138038932E+01  0.48783349096E+02  0.11162692087E+03  0.12224452247E+03  0.47000000000E+01 0. -1.
<mgrwt>
<rscale>  0 0.27225879E+03</rscale>
<asrwt>0</asrwt>
<pdfrwt beam="1">  1        2 0.78758499E-01 0.27225879E+03</pdfrwt>
<pdfrwt beam="2">  1       -2 0.55690318E-02 0.27225879E+03</pdfrwt>
<totfact> 0.99988063E+03</totfact>
</mgrwt>
</event>
<event>
 9    1  0.2065703E-002  0.2747536E+03  0.7818608E-02  0.1098589E+00
         -1   -1    0    0    0  501 -0.00000000000E+00  0.00000000000E+00  0.98709383044E+02  0.98709383044E+02  0.00000000000E+00 0.  1.
          1   -1    0    0  501    0  0.00000000000E+00 -0.00000000000E+00 -0.19119133233E+03  0.19119133233E+03  0.00000000000E+00 0.  1.
         36    2    1    2    0    0  0.71054273576E-14  0.00000000000E+00 -0.92481949287E+02  0.28990071537E+03  0.27475355108E+03 0.  0.
         25    2    3    3    0    0  0.11826237777E+02 -0.13079668038E+02 -0.93972521606E+02  0.15992987664E+03  0.12820215681E+03 0.  0.
         25    2    3    3    0    0 -0.11826237777E+02  0.13079668038E+02  0.14905723193E+01  0.12997083873E+03  0.12876047336E+03 0.  0.
          5    1    4    4  502    0 -0.46601307069E+02  0.21470363429E+02 -0.11104485391E+02  0.52707285285E+02  0.47000000000E+01 0.  1.
         -5    1    4    4    0  502  0.58427544846E+02 -0.34550031468E+02 -0.82868036215E+02  0.10722259136E+03  0.47000000000E+01 0.  1.
          5    1    5    5  503    0  0.49743651539E+02 -0.26393858418E+02 -0.26114963933E+01  0.56568335171E+02  0.47000000000E+01 0.  1.
         -5    1    5    5    0  503 -0.61569889316E+02  0.39473526456E+02  0.41020687126E+01  0.73402503561E+02  0.47000000000E+01 0.  1.
<mgrwt>
<rscale>  0 0.27475355E+03</rscale>
<asrwt>0</asrwt>
<pdfrwt beam="1">  1        1 0.29414051E-01 0.27475355E+03</pdfrwt>
<pdfrwt beam="2">  1       -1 0.15186059E-01 0.27475355E+03</pdfrwt>
<totfact> 0.48613355E+03</totfact>
</mgrwt>
</event>
<event>
 9    1  0.2065703E-002  0.2746669E+03  0.7818608E-02  0.1098638E+00
          2   -1    0    0  501    0  0.00000000000E+00  0.00000000000E+00  0.18961133241E+03  0.18961133241E+03  0.00000000000E+00 0.  1.
         -2   -1    0    0    0  501 -0.00000000000E+00 -0.00000000000E+00 -0.99469123148E+02  0.99469123148E+02  0.00000000000E+00 0.  1.
         36    2    1    2    0    0 -0.71054273576E-14  0.35527136788E-14  0.90142209266E+02  0.28908045556E+03  0.27466687441E+03 0.  0.
         25    2    3    3    0    0  0.35876239302E+02  0.80388040557E+01  0.91345082913E+02  0.15837869853E+03  0.12404902683E+03 0.  0.
         25    2    3    3    0    0 -0.35876239302E+02 -0.80388040557E+01 -0.12028736471E+01  0.13070175704E+03  0.12541840164E+03 0.  0.
          5    1    4    4  502    0  0.69241768678E+02  0.38027500311E+02  0.78526165312E+02  0.11148525440E+03  0.47000000000E+01 0. -1.
         -5    1    4    4    0  502 -0.33365529376E+02 -0.29988696255E+02  0.12818917601E+02  0.46893444127E+02  0.47000000000E+01 0. -1.
          5    1    5    5  503    0 -0.54250342968E+02  0.17801136025E+02  0.46119039101E+02  0.73546148258E+02  0.47000000000E+01 0. -1.
         -5    1    5    5    0  503  0.18374103666E+02 -0.25839940081E+02 -0.47321912748E+02  0.57155608780E+02  0.47000000000E+01 0. -1.
<mgrwt>
<rscale>  0 0.27466687E+03</rscale>
<asrwt>0</asrwt>
<pdfrwt beam="1">  1        2 0.29170974E-01 0.27466687E+03</pdfrwt>
<pdfrwt beam="2">  1       -2 0.15302942E-01 0.27466687E+03</pdfrwt>
<totfact> 0.59450394E+03</totfact>
</mgrwt>
</event>
<event>
 9    1  0.2065703E-002  0.2750724E+03  0.7818608E-02  0.1098411E+00
          2   -1    0    0  501    0  0.00000000000E+00  0.00000000000E+00  0.41418023238E+03  0.41418023238E+03  0.00000000000E+00 0. -1.
         -2   -1    0    0    0  501 -0.00000000000E+00 -0.00000000000E+00 -0.45671429359E+02  0.45671429359E+02  0.00000000000E+00 0. -1.
         36    2    1    2    0    0 -0.35527136788E-14  0.10658141036E-13  0.36850880302E+03  0.45985166174E+03  0.27507237757E+03 0.  0.
         25    2    3    3    0    0 -0.27145892399E+02 -0.19391207099E+01  0.18781161720E+03  0.23943365349E+03  0.14599524377E+03 0.  0.
         25    2    3    3    0    0  0.27145892399E+02  0.19391207099E+01  0.18069718582E+03  0.22041800825E+03  0.12325569251E+03 0.  0.
          5    1    4    4  502    0 -0.38940541740E+02  0.67304830489E+02  0.10502729576E+03  0.13076363735E+03  0.47000000000E+01 0.  1.
         -5    1    4    4    0  502  0.11794649342E+02 -0.69243951199E+02  0.82784321437E+02  0.10867001613E+03  0.47000000000E+01 0.  1.
          5    1    5    5  503    0  0.75023363791E+02 -0.78861471300E+01  0.12585808395E+03  0.14680954917E+03  0.47000000000E+01 0.  1.
         -5    1    5    5    0  503 -0.47877471392E+02  0.98252678398E+01  0.54839101870E+02  0.73608459086E+02  0.47000000000E+01 0.  1.
<mgrwt>
<rscale>  0 0.27507238E+03</rscale>
<asrwt>0</asrwt>
<pdfrwt beam="1">  1        2 0.63720033E-01 0.27507238E+03</pdfrwt>
<pdfrwt beam="2">  1       -2 0.70263740E-02 0.27507238E+03</pdfrwt>
<totfact> 0.88422774E+03</totfact>
</mgrwt>
</event>
<event>
 9    1  0.2065703E-002  0.2746360E+03  0.7818608E-02  0.1098655E+00
         -2   -1    0    0    0  501 -0.00000000000E+00  0.00000000000E+00  0.32453487810E+02  0.32453487810E+02  0.00000000000E+00 0. -1.
          2   -1    0    0  501    0  0.00000000000E+00 -0.00000000000E+00 -0.58102339852E+03  0.58102339852E+03  0.00000000000E+00 0. -1.
         36    2    1    2    0    0  0.35527136788E-14  0.00000000000E+00 -0.54856991071E+03  0.61347688633E+03  0.27463601935E+03 0.  0.
         25    2    3    3    0    0 -0.22764154811E+02 -0.20270344564E+02 -0.37842269179E+03  0.40112146858E+03  0.12948206550E+03 0.  0.
         25    2    3    3    0    0  0.22764154811E+02  0.20270344564E+02 -0.17014721892E+03  0.21235541775E+03  0.12335174797E+03 0.  0.
          5    1    4    4  502    0 -0.50003750176E+02 -0.57239626400E+02 -0.30525077359E+03  0.31460590370E+03  0.47000000000E+01 0. -1.
         -5    1    4    4    0  502  0.27239595365E+02  0.36969281836E+02 -0.73171918193E+02  0.86515564884E+02  0.47000000000E+01 0. -1.
          5    1    5    5  503    0  0.54819533054E+02 -0.73028546765E+01 -0.24586481563E+02  0.60705007753E+02  0.47000000000E+01 0. -1.
         -5    1    5    5    0  503 -0.32055378244E+02  0.27573199240E+02 -0.14556073736E+03  0.15165040999E+03  0.47000000000E+01 0. -1.
<mgrwt>
<rscale>  0 0.27463602E+03</rscale>
<asrwt>0</asrwt>
<pdfrwt beam="1">  1        2 0.89388216E-01 0.27463602E+03</pdfrwt>
<pdfrwt beam="2">  1       -2 0.49928442E-02 0.27463602E+03</pdfrwt>
<totfact> 0.10229193E+04</totfact>
</mgrwt>
</event>
<event>
 9    1  0.2065703E-002  0.2737606E+03  0.7818608E-02  0.1099146E+00
         -1   -1    0    0    0  501 -0.00000000000E+00  0.00000000000E+00  0.18294325746E+02  0.18294325746E+02  0.00000000000E+00 0.  1.
          1   -1    0    0  501    0  0.00000000000E+00 -0.00000000000E+00 -0.10241548159E+04  0.10241548159E+04  0.00000000000E+00 0.  1.
         36    2    1    2    0    0  0.17763568394E-14  0.35527136788E-14 -0.10058604901E+04  0.10424491416E+04  0.27376063863E+03 0.  0.
         25    2    3    3    0    0 -0.68102903691E+01  0.30391394184E+02 -0.92365431248E+03  0.93264193878E+03  0.12535421858E+03 0.  0.
         25    2    3    3    0    0  0.68102903691E+01 -0.30391394184E+02 -0.82206177656E+02  0.10980720285E+03  0.65800830213E+02 0.  0.
          5    1    4    4  502    0  0.24899853450E+02 -0.41531810264E+02 -0.43052626486E+03  0.43326648693E+03  0.47000000000E+01 0. -1.
         -5    1    4    4    0  502 -0.31710143819E+02  0.71923204448E+02 -0.49312804763E+03  0.49937545185E+03  0.47000000000E+01 0. -1.
          5    1    5    5  503    0  0.15147867186E+02  0.55257978352E+01  0.28022257468E+01  0.17027471661E+02  0.47000000000E+01 0.  1.
         -5    1    5    5    0  503 -0.83375768174E+01 -0.35917192019E+02 -0.85008403403E+02  0.92779731185E+02  0.47000000000E+01 0.  1.
<mgrwt>
<rscale>  0 0.27376064E+03</rscale>
<asrwt>0</asrwt>
<pdfrwt beam="1">  1        1 0.15756233E+00 0.27376064E+03</pdfrwt>
<pdfrwt beam="2">  1       -1 0.28145108E-02 0.27376064E+03</pdfrwt>
<totfact> 0.63541412E+03</totfact>
</mgrwt>
</event>
<event>
 9    1  0.2065703E-002  0.2752165E+03  0.7818608E-02  0.1098331E+00
          1   -1    0    0  501    0  0.00000000000E+00  0.00000000000E+00  0.46505039149E+02  0.46505039149E+02  0.00000000000E+00 0. -1.
         -1   -1    0    0    0  501 -0.00000000000E+00 -0.00000000000E+00 -0.40718237507E+03  0.40718237507E+03  0.00000000000E+00 0. -1.
         36    2    1    2    0    0  0.71054273576E-14  0.71054273576E-14 -0.36067733593E+03  0.45368741422E+03  0.27521651327E+03 0.  0.
         25    2    3    3    0    0 -0.71238245532E+01  0.60487705250E+02 -0.18332653785E+03  0.22973801279E+03  0.12434397323E+03 0.  0.
         25    2    3    3    0    0  0.71238245532E+01 -0.60487705250E+02 -0.17735079808E+03  0.22394940144E+03  0.12243576872E+03 0.  0.
          5    1    4    4  502    0 -0.52292356594E+02  0.50372246589E+02 -0.49359834666E+02  0.87922335404E+02  0.47000000000E+01 0. -1.
         -5    1    4    4    0  502  0.45168532041E+02  0.10115458661E+02 -0.13396670318E+03  0.14181567738E+03  0.47000000000E+01 0. -1.
          5    1    5    5  503    0 -0.49861870576E+02 -0.11666514699E+01 -0.41440007099E+02  0.65014855236E+02  0.47000000000E+01 0.  1.
         -5    1    5    5    0  503  0.56985695129E+02 -0.59321053780E+02 -0.13591079098E+03  0.15893454620E+03  0.47000000000E+01 0.  1.
<mgrwt>
<rscale>  0 0.27521651E+03</rscale>
<asrwt>0</asrwt>
<pdfrwt beam="1">  1        1 0.71546210E-02 0.27521651E+03</pdfrwt>
<pdfrwt beam="2">  1       -1 0.62643445E-01 0.27521651E+03</pdfrwt>
<totfact> 0.27006957E+03</totfact>
</mgrwt>
</event>
<event>
 9    1  0.2065703E-002  0.2739941E+03  0.7818608E-02  0.1099015E+00
         -1   -1    0    0    0  501 -0.00000000000E+00  0.00000000000E+00  0.94045331765E+02  0.94045331765E+02  0.00000000000E+00 0.  1.
          1   -1    0    0  501    0  0.00000000000E+00 -0.00000000000E+00 -0.19956540653E+03  0.19956540653E+03  0.00000000000E+00 0.  1.
         36    2    1    2    0    0  0.00000000000E+00  0.71054273576E-14 -0.10552007477E+03  0.29361073830E+03  0.27399412305E+03 0.  0.
         25    2    3    3    0    0  0.96947011250E+00  0.33737115527E+02 -0.77687025181E+02  0.16085706344E+03  0.13675009375E+03 0.  0.
         25    2    3    3    0    0 -0.96947011250E+00 -0.33737115527E+02 -0.27833049589E+02  0.13275367486E+03  0.12533844862E+03 0.  0.
          5    1    4    4  502    0 -0.31263100491E+02  0.20524588698E+02 -0.10803269335E+03  0.11441937347E+03  0.47000000000E+01 0. -1.
         -5    1    4    4    0  502  0.32232570604E+02  0.13212526830E+02  0.30345668167E+02  0.46437689967E+02  0.47000000000E+01 0. -1.
          5    1    5    5  503    0 -0.14232618066E+02  0.37148184381E+02  0.21296225710E+02  0.45367105366E+02  0.47000000000E+01 0.  1.
         -5    1    5    5    0  503  0.13263147953E+02 -0.70885299908E+02 -0.49129275299E+02  0.87386569495E+02  0.47000000000E+01 0.  1.
<mgrwt>
<rscale>  0 0.27399412E+03</rscale>
<asrwt>0</asrwt>
<pdfrwt beam="1">  1        1 0.30702370E-01 0.27399412E+03</pdfrwt>
<pdfrwt beam="2">  1       -1 0.14468513E-01 0.27399412E+03</pdfrwt>
<totfact> 0.49722399E+03</totfact>
</mgrwt>
</event>
<event>
 9    1  0.2065703E-002  0.2742505E+03  0.7818608E-02  0.1098871E+00
         -2   -1    0    0    0  501 -0.00000000000E+00  0.00000000000E+00  0.31578825312E+02  0.31578825312E+02  0.00000000000E+00 0. -1.
          2   -1    0    0  501    0  0.00000000000E+00 -0.00000000000E+00 -0.59544118632E+03  0.59544118632E+03  0.00000000000E+00 0. -1.
         36    2    1    2    0    0 -0.35527136788E-14  0.71054273576E-14 -0.56386236101E+03  0.62702001163E+03  0.27425049284E+03 0.  0.
         25    2    3    3    0    0  0.24654425796E+02 -0.37482505356E+02 -0.40903847136E+03  0.43097333180E+03  0.12811230522E+03 0.  0.
         25    2    3    3    0    0 -0.24654425796E+02  0.37482505356E+02 -0.15482388964E+03  0.19604667983E+03  0.11158442969E+03 0.  0.
          5    1    4    4  502    0 -0.82182582394E+01  0.42995209517E+02 -0.19497108909E+03  0.19987982237E+03  0.47000000000E+01 0.  1.
         -5    1    4    4    0  502  0.32872684035E+02 -0.80477714872E+02 -0.21406738227E+03  0.23109350943E+03  0.47000000000E+01 0.  1.
          5    1    5    5  503    0 -0.15803032998E+02  0.19306798692E+02  0.11897720412E+02  0.28038082650E+02  0.47000000000E+01 0. -1.
         -5    1    5    5    0  503 -0.88513927978E+01  0.18175706664E+02 -0.16672161006E+03  0.16800859718E+03  0.47000000000E+01 0. -1.
<mgrwt>
<rscale>  0 0.27425049E+03</rscale>
<asrwt>0</asrwt>
<pdfrwt beam="1">  1        2 0.91606336E-01 0.27425049E+03</pdfrwt>
<pdfrwt beam="2">  1       -2 0.48582809E-02 0.27425049E+03</pdfrwt>
<totfact> 0.10364092E+04</totfact>
</mgrwt>
</event>
<event>
 9    1  0.2065703E-002  0.2748445E+03  0.7818608E-02  0.1098539E+00
          2   -1    0    0  501    0  0.00000000000E+00  0.00000000000E+00  0.12395613684E+04  0.12395613684E+04  0.00000000000E+00 0. -1.
         -2   -1    0    0    0  501 -0.00000000000E+00 -0.00000000000E+00 -0.15235123265E+02  0.15235123265E+02  0.00000000000E+00 0. -1.
         36    2    1    2    0    0  0.00000000000E+00 -0.71054273576E-14  0.12243262452E+04  0.12547964917E+04  0.27484446688E+03 0.  0.
         25    2    3    3    0    0 -0.19011473551E+02  0.38169069773E+02  0.41053246238E+03  0.43053034449E+03  0.12247922620E+03 0.  0.
         25    2    3    3    0    0  0.19011473551E+02 -0.38169069773E+02  0.81379378280E+03  0.82426614722E+03  0.12383879240E+03 0.  0.
          5    1    4    4  502    0  0.55253424112E+01 -0.43041884789E+02  0.16662029824E+03  0.17224269808E+03  0.47000000000E+01 0.  1.
         -5    1    4    4    0  502 -0.24536815962E+02  0.81210954561E+02  0.24391216414E+03  0.25828764642E+03  0.47000000000E+01 0.  1.
          5    1    5    5  503    0 -0.42515557181E+02 -0.19241511123E+02  0.57479219003E+03  0.57670266175E+03  0.47000000000E+01 0. -1.
         -5    1    5    5    0  503  0.61527030732E+02 -0.18927558650E+02  0.23900159278E+03  0.24756348547E+03  0.47000000000E+01 0. -1.
<mgrwt>
<rscale>  0 0.27484447E+03</rscale>
<asrwt>0</asrwt>
<pdfrwt beam="1">  1        2 0.19070167E+00 0.27484447E+03</pdfrwt>
<pdfrwt beam="2">  1       -2 0.23438661E-02 0.27484447E+03</pdfrwt>
<totfact> 0.11588404E+04</totfact>
</mgrwt>
</event>
<event>
 9    1  0.2065703E-002  0.2703223E+03  0.7818608E-02  0.1101095E+00
         -1   -1    0    0    0  501 -0.00000000000E+00  0.00000000000E+00  0.18575232713E+02  0.18575232713E+02  0.00000000000E+00 0.  1.
          1   -1    0    0  501    0  0.00000000000E+00 -0.00000000000E+00 -0.98348915451E+03  0.98348915451E+03  0.00000000000E+00 0.  1.
         36    2    1    2    0    0  0.00000000000E+00 -0.71054273576E-14 -0.96491392179E+03  0.10020643872E+04  0.27032232550E+03 0.  0.
         25    2    3    3    0    0 -0.42695382122E+02  0.20628741425E+02 -0.55288079147E+03  0.56908545653E+03  0.12622458804E+03 0.  0.
         25    2    3    3    0    0  0.42695382122E+02 -0.20628741425E+02 -0.41203313032E+03  0.43297893069E+03  0.12430210502E+03 0.  0.
          5    1    4    4  502    0 -0.31606336212E+02  0.73616105911E+02 -0.31259755504E+03  0.32273458593E+03  0.47000000000E+01 0. -1.
         -5    1    4    4    0  502 -0.11089045910E+02 -0.52987364486E+02 -0.24028323643E+03  0.24635087059E+03  0.47000000000E+01 0. -1.
          5    1    5    5  503    0 -0.10339186239E+02 -0.46504076163E+02 -0.63866736298E+02  0.79815899903E+02  0.47000000000E+01 0. -1.
         -5    1    5    5    0  503  0.53034568361E+02  0.25875334738E+02 -0.34816639403E+03  0.35316303079E+03  0.47000000000E+01 0. -1.
<mgrwt>
<rscale>  0 0.27032233E+03</rscale>
<asrwt>0</asrwt>
<pdfrwt beam="1">  1        1 0.15130604E+00 0.27032233E+03</pdfrwt>
<pdfrwt beam="2">  1       -1 0.28577277E-02 0.27032233E+03</pdfrwt>
<totfact> 0.66615323E+03</totfact>
</mgrwt>
</event>
<event>
 9    1  0.2065703E-002  0.2746028E+03  0.7818608E-02  0.1098674E+00
          3   -1    0    0  501    0  0.00000000000E+00  0.00000000000E+00  0.15320809505E+04  0.15320809505E+04  0.00000000000E+00 0.  1.
         -3   -1    0    0    0  501 -0.00000000000E+00 -0.00000000000E+00 -0.12304622030E+02  0.12304622030E+02  0.00000000000E+00 0.  1.
         36    2    1    2    0    0  0.71054273576E-14  0.71054273576E-14  0.15197763284E+04  0.15443855725E+04  0.27460281874E+03 0.  0.
         25    2    3    3    0    0  0.43989773291E+02  0.30853772931E+02  0.83988137131E+03  0.84922368004E+03  0.11354772304E+03 0.  0.
         25    2    3    3    0    0 -0.43989773291E+02 -0.30853772931E+02  0.67989495711E+03  0.69516189244E+03  0.13455797465E+03 0.  0.
          5    1    4    4  502    0  0.13450196661E+02 -0.40942631176E+02  0.41081172686E+03  0.41309269149E+03  0.47000000000E+01 0.  1.
         -5    1    4    4    0  502  0.30539576629E+02  0.71796404107E+02  0.42906964445E+03  0.43613098855E+03  0.47000000000E+01 0.  1.
          5    1    5    5  503    0  0.35583026787E+01  0.41406571998E+02  0.39966804769E+03  0.40185047476E+03  0.47000000000E+01 0.  1.
         -5    1    5    5    0  503 -0.47548075969E+02 -0.72260344929E+02  0.28022690942E+03  0.29331141768E+03  0.47000000000E+01 0.  1.
<mgrwt>
<rscale>  0 0.27460282E+03</rscale>
<asrwt>0</asrwt>
<pdfrwt beam="1">  1        3 0.23570461E+00 0.27460282E+03</pdfrwt>
<pdfrwt beam="2">  1       -3 0.18930200E-02 0.27460282E+03</pdfrwt>
<totfact> 0.26086346E+02</totfact>
</mgrwt>
</event>
<event>
 9    1  0.2065703E-002  0.2727529E+03  0.7818608E-02  0.1099714E+00
         -2   -1    0    0    0  501 -0.00000000000E+00  0.00000000000E+00  0.41480068298E+02  0.41480068298E+02  0.00000000000E+00 0.  1.
          2   -1    0    0  501    0  0.00000000000E+00 -0.00000000000E+00 -0.44837295140E+03  0.44837295140E+03  0.00000000000E+00 0.  1.
         36    2    1    2    0    0 -0.35527136788E-14  0.00000000000E+00 -0.40689288311E+03  0.48985301970E+03  0.27275293324E+03 0.  0.
         25    2    3    3    0    0 -0.62142072695E+01 -0.54514160167E+02 -0.12471888963E+03  0.18569415443E+03  0.12616301965E+03 0.  0.
         25    2    3    3    0    0  0.62142072695E+01  0.54514160167E+02 -0.28217399348E+03  0.30415886527E+03  0.99398403904E+02 0.  0.
          5    1    4    4  502    0  0.50116356852E+02  0.56529362818E+01 -0.70940464795E+02  0.87167909566E+02  0.47000000000E+01 0.  1.
         -5    1    4    4    0  502 -0.56330564122E+02 -0.60167096449E+02 -0.53778424835E+02  0.98526244864E+02  0.47000000000E+01 0.  1.
          5    1    5    5  503    0 -0.12501127555E+02  0.56477299797E+02 -0.69247674261E+02  0.90350948933E+02  0.47000000000E+01 0.  1.
         -5    1    5    5    0  503  0.18715334824E+02 -0.19631396301E+01 -0.21292631922E+03  0.21380791634E+03  0.47000000000E+01 0.  1.
<mgrwt>
<rscale>  0 0.27275293E+03</rscale>
<asrwt>0</asrwt>
<pdfrwt beam="1">  1        2 0.68980453E-01 0.27275293E+03</pdfrwt>
<pdfrwt beam="2">  1       -2 0.63815491E-02 0.27275293E+03</pdfrwt>
<totfact> 0.94025939E+03</totfact>
</mgrwt>
</event>
<event>
 9    1  0.2065703E-002  0.2744616E+03  0.7818608E-02  0.1098753E+00
         -1   -1    0    0    0  501 -0.00000000000E+00  0.00000000000E+00  0.85373510958E+03  0.85373510958E+03  0.00000000000E+00 0. -1.
          1   -1    0    0  501    0  0.00000000000E+00 -0.00000000000E+00 -0.22058710911E+02  0.22058710911E+02  0.00000000000E+00 0. -1.
         36    2    1    2    0    0  0.00000000000E+00  0.00000000000E+00  0.83167639867E+03  0.87579382049E+03  0.27446162556E+03 0.  0.
         25    2    3    3    0    0 -0.91172221027E+01 -0.12340063952E+02  0.26167475841E+03  0.29088566116E+03  0.12611656420E+03 0.  0.
         25    2    3    3    0    0  0.91172221027E+01  0.12340063952E+02  0.57000164026E+03  0.58490815932E+03  0.13030841887E+03 0.  0.
          5    1    4    4  502    0 -0.14751652717E+02  0.44487258551E+02  0.39601502152E+02  0.61539389044E+02  0.47000000000E+01 0. -1.
         -5    1    4    4    0  502  0.56344306140E+01 -0.56827322503E+02  0.22207325626E+03  0.22934627212E+03  0.47000000000E+01 0. -1.
          5    1    5    5  503    0  0.47376178574E+01  0.39022922845E+02  0.54880334734E+03  0.55022944086E+03  0.47000000000E+01 0.  1.
         -5    1    5    5    0  503  0.43796042453E+01 -0.26682858893E+02  0.21198292917E+02  0.34678718469E+02  0.47000000000E+01 0.  1.
<mgrwt>
<rscale>  0 0.27446163E+03</rscale>
<asrwt>0</asrwt>
<pdfrwt beam="1">  1        1 0.33936485E-02 0.27446163E+03</pdfrwt>
<pdfrwt beam="2">  1       -1 0.13134384E+00 0.27446163E+03</pdfrwt>
<totfact> 0.15195731E+03</totfact>
</mgrwt>
</event>
<event>
 9    1  0.2065703E-002  0.2738991E+03  0.7818608E-02  0.1099069E+00
          1   -1    0    0  501    0  0.00000000000E+00  0.00000000000E+00  0.14854301872E+04  0.14854301872E+04  0.00000000000E+00 0. -1.
         -1   -1    0    0    0  501 -0.00000000000E+00 -0.00000000000E+00 -0.12626096161E+02  0.12626096161E+02  0.00000000000E+00 0. -1.
         36    2    1    2    0    0  0.00000000000E+00  0.71054273576E-14  0.14728040910E+04  0.14980562833E+04  0.27389913752E+03 0.  0.
         25    2    3    3    0    0 -0.34604698893E+01  0.47948025436E+02  0.67653935560E+03  0.69097216068E+03  0.13200772389E+03 0.  0.
         25    2    3    3    0    0  0.34604698893E+01 -0.47948025436E+02  0.79626473540E+03  0.80708412264E+03  0.12262244567E+03 0.  0.
          5    1    4    4  502    0  0.53623715026E+02  0.34782747883E+01  0.44721126435E+03  0.45045266807E+03  0.47000000000E+01 0.  1.
         -5    1    4    4    0  502 -0.57084184915E+02  0.44469750647E+02  0.22932809125E+03  0.24051949261E+03  0.47000000000E+01 0.  1.
          5    1    5    5  503    0 -0.16717326324E+02  0.57814725376E+01  0.64452618857E+03  0.64478600495E+03  0.47000000000E+01 0.  1.
         -5    1    5    5    0  503  0.20177796214E+02 -0.53729497973E+02  0.15173854683E+03  0.16229811770E+03  0.47000000000E+01 0.  1.
<mgrwt>
<rscale>  0 0.27389914E+03</rscale>
<asrwt>0</asrwt>
<pdfrwt beam="1">  1        1 0.22852758E+00 0.27389914E+03</pdfrwt>
<pdfrwt beam="2">  1       -1 0.19424775E-02 0.27389914E+03</pdfrwt>
<totfact> 0.52363870E+03</totfact>
</mgrwt>
</event>
<event>
 9    1  0.2065703E-002  0.2757016E+03  0.7818608E-02  0.1098060E+00
          2   -1    0    0  501    0  0.00000000000E+00  0.00000000000E+00  0.18194676588E+04  0.18194676588E+04  0.00000000000E+00 0.  1.
         -2   -1    0    0    0  501 -0.00000000000E+00 -0.00000000000E+00 -0.10444174742E+02  0.10444174742E+02  0.00000000000E+00 0.  1.
         36    2    1    2    0    0 -0.35527136788E-14 -0.35527136788E-14  0.18090234840E+04  0.18299118335E+04  0.27570156448E+03 0.  0.
         25    2    3    3    0    0 -0.24417394982E+01  0.27243158655E+02  0.12890292364E+04  0.12946757119E+04  0.11764639756E+03 0.  0.
         25    2    3    3    0    0  0.24417394982E+01 -0.27243158655E+02  0.51999424764E+03  0.53523612164E+03  0.12383673342E+03 0.  0.
          5    1    4    4  502    0  0.20252978832E+02  0.29755965239E+02  0.11897985140E+03  0.12439411424E+03  0.47000000000E+01 0. -1.
         -5    1    4    4    0  502 -0.22694718330E+02 -0.25128065838E+01  0.11700493850E+04  0.11702815976E+04  0.47000000000E+01 0. -1.
          5    1    5    5  503    0 -0.11087049278E+02  0.28903535760E+02  0.40744729937E+03  0.40864866182E+03  0.47000000000E+01 0. -1.
         -5    1    5    5    0  503  0.13528788776E+02 -0.56146694415E+02  0.11254694826E+03  0.12658745982E+03  0.47000000000E+01 0. -1.
<mgrwt>
<rscale>  0 0.27570156E+03</rscale>
<asrwt>0</asrwt>
<pdfrwt beam="1">  1        2 0.27991785E+00 0.27570156E+03</pdfrwt>
<pdfrwt beam="2">  1       -2 0.16067976E-02 0.27570156E+03</pdfrwt>
<totfact> 0.98603225E+03</totfact>
</mgrwt>
</event>
<event>
 9    1  0.2065703E-002  0.2750284E+03  0.7818608E-02  0.1098436E+00
          2   -1    0    0  501    0  0.00000000000E+00  0.00000000000E+00  0.57947830652E+02  0.57947830652E+02  0.00000000000E+00 0. -1.
         -2   -1    0    0    0  501 -0.00000000000E+00 -0.00000000000E+00 -0.32633074258E+03  0.32633074258E+03  0.00000000000E+00 0. -1.
         36    2    1    2    0    0  0.71054273576E-14 -0.17763568394E-14 -0.26838291193E+03  0.38427857323E+03  0.27502842477E+03 0.  0.
         25    2    3    3    0    0 -0.23977790684E+02  0.72412316324E+01 -0.18641252481E+03  0.22570887371E+03  0.12476977351E+03 0.  0.
         25    2    3    3    0    0  0.23977790684E+02 -0.72412316324E+01 -0.81970387113E+02  0.15856969952E+03  0.13340852807E+03 0.  0.
          5    1    4    4  502    0 -0.63955499152E+02 -0.17122113617E+01 -0.44880111825E+02  0.78291455325E+02  0.47000000000E+01 0. -1.
         -5    1    4    4    0  502  0.39977708468E+02  0.89534429941E+01 -0.14153241299E+03  0.14741741838E+03  0.47000000000E+01 0. -1.
          5    1    5    5  503    0  0.66617192140E+02  0.10609173205E+02 -0.88791439072E+02  0.11160830837E+03  0.47000000000E+01 0. -1.
         -5    1    5    5    0  503 -0.42639401456E+02 -0.17850404837E+02  0.68210519590E+01  0.46961391155E+02  0.47000000000E+01 0. -1.
<mgrwt>
<rscale>  0 0.27502842E+03</rscale>
<asrwt>0</asrwt>
<pdfrwt beam="1">  1        2 0.89150509E-02 0.27502842E+03</pdfrwt>
<pdfrwt beam="2">  1       -2 0.50204730E-01 0.27502842E+03</pdfrwt>
<totfact> 0.28116738E+03</totfact>
</mgrwt>
</event>
<event>
 9    1  0.2065703E-002  0.2824176E+03  0.7818608E-02  0.1094376E+00
          2   -1    0    0  501    0  0.00000000000E+00  0.00000000000E+00  0.20719579463E+03  0.20719579463E+03  0.00000000000E+00 0.  1.
         -2   -1    0    0    0  501 -0.00000000000E+00 -0.00000000000E+00 -0.96237098401E+02  0.96237098401E+02  0.00000000000E+00 0.  1.
         36    2    1    2    0    0  0.14210854715E-13  0.00000000000E+00  0.11095869623E+03  0.30343289303E+03  0.28241757789E+03 0.  0.
         25    2    3    3    0    0 -0.34601803739E+02 -0.32531534187E+02  0.74494908589E+01  0.13486118018E+03  0.12600181534E+03 0.  0.
         25    2    3    3    0    0  0.34601803739E+02  0.32531534187E+02  0.10350920537E+03  0.16857171284E+03  0.12428467821E+03 0.  0.
          5    1    4    4  502    0 -0.63734364444E+02 -0.60423984555E+02  0.23759308336E+02  0.91102809249E+02  0.47000000000E+01 0. -1.
         -5    1    4    4    0  502  0.29132560705E+02  0.27892450367E+02 -0.16309817477E+02  0.43758370934E+02  0.47000000000E+01 0. -1.
          5    1    5    5  503    0 -0.42600929765E+02 -0.39474505357E+01  0.56371234852E+02  0.70924098171E+02  0.47000000000E+01 0.  1.
         -5    1    5    5    0  503  0.77202733505E+02  0.36478984723E+02  0.47137970514E+02  0.97647614672E+02  0.47000000000E+01 0.  1.
<mgrwt>
<rscale>  0 0.28241758E+03</rscale>
<asrwt>0</asrwt>
<pdfrwt beam="1">  1        2 0.31876276E-01 0.28241758E+03</pdfrwt>
<pdfrwt beam="2">  1       -2 0.14805707E-01 0.28241758E+03</pdfrwt>
<totfact> 0.57024418E+03</totfact>
</mgrwt>
</event>
<event>
 9    1  0.2065703E-002  0.2746736E+03  0.7818608E-02  0.1098634E+00
         -1   -1    0    0    0  501 -0.00000000000E+00  0.00000000000E+00  0.75653895746E+02  0.75653895746E+02  0.00000000000E+00 0. -1.
          1   -1    0    0  501    0  0.00000000000E+00 -0.00000000000E+00 -0.24931156477E+03  0.24931156477E+03  0.00000000000E+00 0. -1.
         36    2    1    2    0    0  0.35527136788E-14  0.53290705182E-14 -0.17365766902E+03  0.32496546052E+03  0.27467355992E+03 0.  0.
         25    2    3    3    0    0  0.24847045780E+02  0.13135645543E+02 -0.14979684868E+03  0.19599553635E+03  0.12322837955E+03 0.  0.
         25    2    3    3    0    0 -0.24847045780E+02 -0.13135645543E+02 -0.23860820345E+02  0.12896992417E+03  0.12358795138E+03 0.  0.
          5    1    4    4  502    0 -0.18281287336E+02  0.70109257055E+01  0.15233005634E+02  0.25248623855E+02  0.47000000000E+01 0. -1.
         -5    1    4    4    0  502  0.43128333116E+02  0.61247198376E+01 -0.16502985431E+03  0.17074691249E+03  0.47000000000E+01 0. -1.
          5    1    5    5  503    0 -0.35216956094E+02  0.49513827759E+02 -0.23435456169E+02  0.65292907285E+02  0.47000000000E+01 0.  1.
         -5    1    5    5    0  503  0.10369910314E+02 -0.62649473302E+02 -0.42536417672E+00  0.63677016887E+02  0.47000000000E+01 0.  1.
<mgrwt>
<rscale>  0 0.27467356E+03</rscale>
<asrwt>0</asrwt>
<pdfrwt beam="1">  1        1 0.38355625E-01 0.27467356E+03</pdfrwt>
<pdfrwt beam="2">  1       -1 0.11639061E-01 0.27467356E+03</pdfrwt>
<totfact> 0.52900638E+03</totfact>
</mgrwt>
</event>
<event>
 9    1  0.2065703E-002  0.2754472E+03  0.7818608E-02  0.1098202E+00
         -2   -1    0    0    0  501 -0.00000000000E+00  0.00000000000E+00  0.15298837971E+02  0.15298837971E+02  0.00000000000E+00 0.  1.
          2   -1    0    0  501    0  0.00000000000E+00 -0.00000000000E+00 -0.12398190450E+04  0.12398190450E+04  0.00000000000E+00 0.  1.
         36    2    1    2    0    0  0.00000000000E+00  0.35527136788E-14 -0.12245202071E+04  0.12551178830E+04  0.27544720498E+03 0.  0.
         25    2    3    3    0    0  0.20185428519E+02  0.11665494195E+02 -0.80761849234E+03  0.81949125563E+03  0.13702099694E+03 0.  0.
         25    2    3    3    0    0 -0.20185428519E+02 -0.11665494195E+02 -0.41690171472E+03  0.43562662738E+03  0.12417722602E+03 0.  0.
          5    1    4    4  502    0  0.69348689741E+02 -0.33247076751E+01 -0.64823624607E+03  0.65196059326E+03  0.47000000000E+01 0. -1.
         -5    1    4    4    0  502 -0.49163261222E+02  0.14990201870E+02 -0.15938224627E+03  0.16753066236E+03  0.47000000000E+01 0. -1.
          5    1    5    5  503    0 -0.20913016161E+02  0.50668040422E+02 -0.11714359779E+03  0.12941915264E+03  0.47000000000E+01 0. -1.
         -5    1    5    5    0  503  0.72758764181E+00 -0.62333534616E+02 -0.29975811693E+03  0.30620747474E+03  0.47000000000E+01 0. -1.
<mgrwt>
<rscale>  0 0.27544720E+03</rscale>
<asrwt>0</asrwt>
<pdfrwt beam="1">  1        2 0.19074134E+00 0.27544720E+03</pdfrwt>
<pdfrwt beam="2">  1       -2 0.23536680E-02 0.27544720E+03</pdfrwt>
<totfact> 0.11514006E+04</totfact>
</mgrwt>
</event>
<event>
 9    1  0.2065703E-002  0.2748899E+03  0.7818608E-02  0.1098513E+00
         -2   -1    0    0    0  501 -0.00000000000E+00  0.00000000000E+00  0.33311668436E+02  0.33311668436E+02  0.00000000000E+00 0.  1.
          2   -1    0    0  501    0  0.00000000000E+00 -0.00000000000E+00 -0.56710209246E+03  0.56710209246E+03  0.00000000000E+00 0.  1.
         36    2    1    2    0    0  0.00000000000E+00  0.71054273576E-14 -0.53379042403E+03  0.60041376090E+03  0.27488991886E+03 0.  0.
         25    2    3    3    0    0 -0.42422141189E+02 -0.25994730181E+02 -0.21622462839E+03  0.25467104578E+03  0.12501554934E+03 0.  0.
         25    2    3    3    0    0  0.42422141189E+02  0.25994730181E+02 -0.31756579564E+03  0.34574271512E+03  0.12733666572E+03 0.  0.
          5    1    4    4  502    0  0.27114334854E+02 -0.39408561498E+02 -0.15031650128E+03  0.15781432898E+03  0.47000000000E+01 0.  1.
         -5    1    4    4    0  502 -0.69536476043E+02  0.13413831317E+02 -0.65908127109E+02  0.96856716804E+02  0.47000000000E+01 0.  1.
          5    1    5    5  503    0  0.15703445038E+02  0.72447209934E+02 -0.24086509612E+03  0.25205809042E+03  0.47000000000E+01 0.  1.
         -5    1    5    5    0  503  0.26718696151E+02 -0.46452479753E+02 -0.76700699515E+02  0.93684624701E+02  0.47000000000E+01 0.  1.
<mgrwt>
<rscale>  0 0.27488992E+03</rscale>
<asrwt>0</asrwt>
<pdfrwt beam="1">  1        2 0.87246469E-01 0.27488992E+03</pdfrwt>
<pdfrwt beam="2">  1       -2 0.51248724E-02 0.27488992E+03</pdfrwt>
<totfact> 0.10109431E+04</totfact>
</mgrwt>
</event>
<event>
 9    1  0.2065703E-002  0.2745674E+03  0.7818608E-02  0.1098694E+00
          1   -1    0    0  501    0  0.00000000000E+00  0.00000000000E+00  0.23671176358E+02  0.23671176358E+02  0.00000000000E+00 0.  1.
         -1   -1    0    0    0  501 -0.00000000000E+00 -0.00000000000E+00 -0.79619257665E+03  0.79619257665E+03  0.00000000000E+00 0.  1.
         36    2    1    2    0    0  0.71054273576E-14  0.00000000000E+00 -0.77252140030E+03  0.81986375301E+03  0.27456740445E+03 0.  0.
         25    2    3    3    0    0 -0.31310184076E+02 -0.23191028331E+02 -0.50649206977E+03  0.52346734484E+03  0.12635542313E+03 0.  0.
         25    2    3    3    0    0  0.31310184076E+02  0.23191028331E+02 -0.26602933053E+03  0.29639640817E+03  0.12474403655E+03 0.  0.
          5    1    4    4  502    0 -0.79879617098E+02 -0.10874027360E+02 -0.27754678343E+03  0.28905588507E+03  0.47000000000E+01 0. -1.
         -5    1    4    4    0  502  0.48569433022E+02 -0.12317000971E+02 -0.22894528633E+03  0.23441145977E+03  0.47000000000E+01 0. -1.
          5    1    5    5  503    0 -0.18003974318E+02 -0.35348619021E+02 -0.16380088983E+03  0.16860157018E+03  0.47000000000E+01 0. -1.
         -5    1    5    5    0  503  0.49314158393E+02  0.58539647351E+02 -0.10222844070E+03  0.12779483799E+03  0.47000000000E+01 0. -1.
<mgrwt>
<rscale>  0 0.27456740E+03</rscale>
<asrwt>0</asrwt>
<pdfrwt beam="1">  1        1 0.36417201E-02 0.27456740E+03</pdfrwt>
<pdfrwt beam="2">  1       -1 0.12249114E+00 0.27456740E+03</pdfrwt>
<totfact> 0.16318505E+03</totfact>
</mgrwt>
</event>
<event>
 9    1  0.2065703E-002  0.2752903E+03  0.7818608E-02  0.1098289E+00
         -1   -1    0    0    0  501 -0.00000000000E+00  0.00000000000E+00  0.12428166758E+02  0.12428166758E+02  0.00000000000E+00 0.  1.
          1   -1    0    0  501    0  0.00000000000E+00 -0.00000000000E+00 -0.15244550396E+04  0.15244550396E+04  0.00000000000E+00 0.  1.
         36    2    1    2    0    0 -0.35527136788E-14  0.71054273576E-14 -0.15120268728E+04  0.15368832063E+04  0.27529025734E+03 0.  0.
         25    2    3    3    0    0  0.22385897952E+02 -0.50462432679E+02 -0.73546138930E+03  0.74835888649E+03  0.12684629400E+03 0.  0.
         25    2    3    3    0    0 -0.22385897952E+02  0.50462432679E+02 -0.77656548352E+03  0.78852431984E+03  0.12517614490E+03 0.  0.
          5    1    4    4  502    0  0.39145893833E+02  0.31545699942E+02 -0.36847125214E+03  0.37191489059E+03  0.47000000000E+01 0. -1.
         -5    1    4    4    0  502 -0.16759995882E+02 -0.82008132621E+02 -0.36699013715E+03  0.37644399590E+03  0.47000000000E+01 0. -1.
          5    1    5    5  503    0 -0.79816737110E+01 -0.26273058443E+02 -0.50897028259E+03  0.50973210540E+03  0.47000000000E+01 0.  1.
         -5    1    5    5    0  503 -0.14404224241E+02  0.76735491122E+02 -0.26759520092E+03  0.27879221444E+03  0.47000000000E+01 0.  1.
<mgrwt>
<rscale>  0 0.27529026E+03</rscale>
<asrwt>0</asrwt>
<pdfrwt beam="1">  1        1 0.23453156E+00 0.27529026E+03</pdfrwt>
<pdfrwt beam="2">  1       -1 0.19120255E-02 0.27529026E+03</pdfrwt>
<totfact> 0.50491736E+03</totfact>
</mgrwt>
</event>
<event>
 9    1  0.2065703E-002  0.2767544E+03  0.7818608E-02  0.1097475E+00
          2   -1    0    0  501    0  0.00000000000E+00  0.00000000000E+00  0.17645561974E+04  0.17645561974E+04  0.00000000000E+00 0.  1.
         -2   -1    0    0    0  501 -0.00000000000E+00 -0.00000000000E+00 -0.10851599064E+02  0.10851599064E+02  0.00000000000E+00 0.  1.
         36    2    1    2    0    0  0.71054273576E-14  0.00000000000E+00  0.17537045983E+04  0.17754077965E+04  0.27675444987E+03 0.  0.
         25    2    3    3    0    0  0.48070420593E+01  0.57531445467E+02  0.91136552858E+03  0.92182928490E+03  0.12589332367E+03 0.  0.
         25    2    3    3    0    0 -0.48070420593E+01 -0.57531445467E+02  0.84233906976E+03  0.85357851157E+03  0.12541208912E+03 0.  0.
          5    1    4    4  502    0  0.34203175636E+02  0.18003223869E+02  0.78725706433E+03  0.78821935312E+03  0.47000000000E+01 0. -1.
         -5    1    4    4    0  502 -0.29396133576E+02  0.39528221598E+02  0.12410846425E+03  0.13360993178E+03  0.47000000000E+01 0. -1.
          5    1    5    5  503    0 -0.36434607066E+02 -0.86471372252E+02  0.52781520218E+03  0.53611170148E+03  0.47000000000E+01 0.  1.
         -5    1    5    5    0  503  0.31627565006E+02  0.28939926785E+02  0.31452386758E+03  0.31746681009E+03  0.47000000000E+01 0.  1.
<mgrwt>
<rscale>  0 0.27675445E+03</rscale>
<asrwt>0</asrwt>
<pdfrwt beam="1">  1        2 0.27146996E+00 0.27675445E+03</pdfrwt>
<pdfrwt beam="2">  1       -2 0.16694782E-02 0.27675445E+03</pdfrwt>
<totfact> 0.99632711E+03</totfact>
</mgrwt>
</event>
<event>
 9    1  0.2065703E-002  0.2748317E+03  0.7818608E-02  0.1098546E+00
         -1   -1    0    0    0  501 -0.00000000000E+00  0.00000000000E+00  0.26340850720E+03  0.26340850720E+03  0.00000000000E+00 0. -1.
          1   -1    0    0  501    0  0.00000000000E+00 -0.00000000000E+00 -0.71687584516E+02  0.71687584516E+02  0.00000000000E+00 0. -1.
         36    2    1    2    0    0  0.35527136788E-14  0.00000000000E+00  0.19172092268E+03  0.33509609171E+03  0.27483172759E+03 0.  0.
         25    2    3    3    0    0 -0.30260622534E+01 -0.47991612091E+02  0.13417015790E+03  0.19070299055E+03  0.12670298911E+03 0.  0.
         25    2    3    3    0    0  0.30260622534E+01  0.47991612091E+02  0.57550764783E+02  0.14439310116E+03  0.12338932390E+03 0.  0.
          5    1    4    4  502    0  0.46284837230E+02 -0.64282294081E+02  0.10275118820E+03  0.12982448216E+03  0.47000000000E+01 0. -1.
         -5    1    4    4    0  502 -0.49310899483E+02  0.16290681990E+02  0.31418969693E+02  0.60878508392E+02  0.47000000000E+01 0. -1.
          5    1    5    5  503    0  0.33336583633E+02  0.77109036523E+02  0.57837235211E+02  0.10209978991E+03  0.47000000000E+01 0. -1.
         -5    1    5    5    0  503 -0.30310521380E+02 -0.29117424432E+02 -0.28647042753E+00  0.42293311258E+02  0.47000000000E+01 0. -1.
<mgrwt>
<rscale>  0 0.27483173E+03</rscale>
<asrwt>0</asrwt>
<pdfrwt beam="1">  1        1 0.11028859E-01 0.27483173E+03</pdfrwt>
<pdfrwt beam="2">  1       -1 0.40524385E-01 0.27483173E+03</pdfrwt>
<totfact> 0.33746735E+03</totfact>
</mgrwt>
</event>
<event>
 9    1  0.2065703E-002  0.2745230E+03  0.7818608E-02  0.1098719E+00
         -2   -1    0    0    0  501 -0.00000000000E+00  0.00000000000E+00  0.20684422680E+03  0.20684422680E+03  0.00000000000E+00 0.  1.
          2   -1    0    0  501    0  0.00000000000E+00 -0.00000000000E+00 -0.91086534133E+02  0.91086534133E+02  0.00000000000E+00 0.  1.
         36    2    1    2    0    0 -0.14210854715E-13  0.71054273576E-14  0.11575769267E+03  0.29793076094E+03  0.27452303164E+03 0.  0.
         25    2    3    3    0    0  0.36621132914E+02 -0.25525605380E+02  0.92522562947E+02  0.16246035397E+03  0.12585816640E+03 0.  0.
         25    2    3    3    0    0 -0.36621132914E+02  0.25525605380E+02  0.23235129723E+02  0.13547040697E+03  0.12577637300E+03 0.  0.
          5    1    4    4  502    0  0.39169679597E+02 -0.23934080021E+02 -0.19647295709E+02  0.50151871499E+02  0.47000000000E+01 0.  1.
         -5    1    4    4    0  502 -0.25485466830E+01 -0.15915253587E+01  0.11216985866E+03  0.11230848247E+03  0.47000000000E+01 0.  1.
          5    1    5    5  503    0  0.29459790555E+02  0.33535650689E+02  0.46663921821E+02  0.64746665755E+02  0.47000000000E+01 0.  1.
         -5    1    5    5    0  503 -0.66080923469E+02 -0.80100453095E+01 -0.23428792098E+02  0.70723741216E+02  0.47000000000E+01 0.  1.
<mgrwt>
<rscale>  0 0.27452303E+03</rscale>
<asrwt>0</asrwt>
<pdfrwt beam="1">  1        2 0.14013313E-01 0.27452303E+03</pdfrwt>
<pdfrwt beam="2">  1       -2 0.31822189E-01 0.27452303E+03</pdfrwt>
<totfact> 0.38591000E+03</totfact>
</mgrwt>
</event>
<event>
 9    1  0.2065703E-002  0.2753281E+03  0.7818608E-02  0.1098268E+00
         -1   -1    0    0    0  501 -0.00000000000E+00  0.00000000000E+00  0.71413333200E+02  0.71413333200E+02  0.00000000000E+00 0. -1.
          1   -1    0    0  501    0  0.00000000000E+00 -0.00000000000E+00 -0.26537600238E+03  0.26537600238E+03  0.00000000000E+00 0. -1.
         36    2    1    2    0    0  0.00000000000E+00 -0.35527136788E-14 -0.19396266918E+03  0.33678933558E+03  0.27532805801E+03 0.  0.
         25    2    3    3    0    0 -0.39508136301E+01  0.15442298238E+02 -0.90349600779E+02  0.17431221509E+03  0.14821479165E+03 0.  0.
         25    2    3    3    0    0  0.39508136301E+01 -0.15442298238E+02 -0.10361306840E+03  0.16247712049E+03  0.12413328819E+03 0.  0.
          5    1    4    4  502    0 -0.71489860488E+02  0.31175427034E+02 -0.59786242575E+02  0.98382885730E+02  0.47000000000E+01 0. -1.
         -5    1    4    4    0  502  0.67539046858E+02 -0.15733128796E+02 -0.30563358204E+02  0.75929329359E+02  0.47000000000E+01 0. -1.
          5    1    5    5  503    0 -0.51834827577E+02 -0.36675562594E+02 -0.66326691369E+02  0.91941645784E+02  0.47000000000E+01 0. -1.
         -5    1    5    5    0  503  0.55785641207E+02  0.21233264355E+02 -0.37286377032E+02  0.70535474707E+02  0.47000000000E+01 0. -1.
<mgrwt>
<rscale>  0 0.27532806E+03</rscale>
<asrwt>0</asrwt>
<pdfrwt beam="1">  1        1 0.40827077E-01 0.27532806E+03</pdfrwt>
<pdfrwt beam="2">  1       -1 0.10986667E-01 0.27532806E+03</pdfrwt>
<totfact> 0.53512610E+03</totfact>
</mgrwt>
</event>
<event>
 9    1  0.2065703E-002  0.2739529E+03  0.7818608E-02  0.1099038E+00
         -1   -1    0    0    0  501 -0.00000000000E+00  0.00000000000E+00  0.11850568396E+02  0.11850568396E+02  0.00000000000E+00 0.  1.
          1   -1    0    0  501    0  0.00000000000E+00 -0.00000000000E+00 -0.15832610367E+04  0.15832610367E+04  0.00000000000E+00 0.  1.
         36    2    1    2    0    0  0.00000000000E+00  0.00000000000E+00 -0.15714104683E+04  0.15951116051E+04  0.27395286605E+03 0.  0.
         25    2    3    3    0    0 -0.79027083132E+01 -0.42768332272E+02 -0.54426800703E+03  0.55950001423E+03  0.12215162467E+03 0.  0.
         25    2    3    3    0    0  0.79027083132E+01  0.42768332272E+02 -0.10271424612E+04  0.10356115908E+04  0.12481245261E+03 0.  0.
          5    1    4    4  502    0 -0.37081400339E+02  0.17324384760E+02 -0.75822229186E+02  0.86291743505E+02  0.47000000000E+01 0.  1.
         -5    1    4    4    0  502  0.29178692025E+02 -0.60092717032E+02 -0.46844577784E+03  0.47320827073E+03  0.47000000000E+01 0.  1.
          5    1    5    5  503    0 -0.26526785613E+02 -0.23550832396E+02 -0.11588999453E+03  0.12128846975E+03  0.47000000000E+01 0.  1.
         -5    1    5    5    0  503  0.34429493926E+02  0.66319164668E+02 -0.91125246670E+03  0.91432312107E+03  0.47000000000E+01 0.  1.
<mgrwt>
<rscale>  0 0.27395287E+03</rscale>
<asrwt>0</asrwt>
<pdfrwt beam="1">  1        1 0.24357855E+00 0.27395287E+03</pdfrwt>
<pdfrwt beam="2">  1       -1 0.18231649E-02 0.27395287E+03</pdfrwt>
<totfact> 0.49501325E+03</totfact>
</mgrwt>
</event>
<event>
 9    1  0.2065703E-002  0.2729761E+03  0.7818608E-02  0.1099588E+00
         -2   -1    0    0    0  501 -0.00000000000E+00  0.00000000000E+00  0.15469242921E+02  0.15469242921E+02  0.00000000000E+00 0.  1.
          2   -1    0    0  501    0  0.00000000000E+00 -0.00000000000E+00 -0.12042597239E+04  0.12042597239E+04  0.00000000000E+00 0.  1.
         36    2    1    2    0    0 -0.35527136788E-14  0.00000000000E+00 -0.11887904810E+04  0.12197289668E+04  0.27297608839E+03 0.  0.
         25    2    3    3    0    0 -0.21538478661E+02 -0.40842589428E+02 -0.41151258196E+03  0.43137296964E+03  0.12086360349E+03 0.  0.
         25    2    3    3    0    0  0.21538478661E+02  0.40842589428E+02 -0.77727789901E+03  0.78835599717E+03  0.12333784017E+03 0.  0.
          5    1    4    4  502    0 -0.16718454025E+02 -0.33400881367E+01 -0.38392523338E+03  0.38433232719E+03  0.47000000000E+01 0. -1.
         -5    1    4    4    0  502 -0.48200246358E+01 -0.37502501292E+02 -0.27587348579E+02  0.47040642451E+02  0.47000000000E+01 0. -1.
          5    1    5    5  503    0  0.10629208103E+02 -0.32072917299E+02 -0.77330551170E+02  0.84520744396E+02  0.47000000000E+01 0. -1.
         -5    1    5    5    0  503  0.10909270557E+02  0.72915506727E+02 -0.69994734784E+03  0.70383525277E+03  0.47000000000E+01 0. -1.
<mgrwt>
<rscale>  0 0.27297609E+03</rscale>
<asrwt>0</asrwt>
<pdfrwt beam="1">  1        2 0.18527076E+00 0.27297609E+03</pdfrwt>
<pdfrwt beam="2">  1       -2 0.23798831E-02 0.27297609E+03</pdfrwt>
<totfact> 0.11860188E+04</totfact>
</mgrwt>
</event>
<event>
 9    1  0.2065703E-002  0.2750991E+03  0.7818608E-02  0.1098396E+00
          1   -1    0    0  501    0  0.00000000000E+00  0.00000000000E+00  0.19949836725E+04  0.19949836725E+04  0.00000000000E+00 0.  1.
         -1   -1    0    0    0  501 -0.00000000000E+00 -0.00000000000E+00 -0.94837242216E+01  0.94837242216E+01  0.00000000000E+00 0.  1.
         36    2    1    2    0    0 -0.71054273576E-14  0.35527136788E-14  0.19854999483E+04  0.20044673967E+04  0.27509907289E+03 0.  0.
         25    2    3    3    0    0  0.12961725890E+02 -0.86707648188E+01  0.56311428714E+03  0.57636973944E+03  0.12190647095E+03 0.  0.
         25    2    3    3    0    0 -0.12961725890E+02  0.86707648188E+01  0.14223856611E+04  0.14280976573E+04  0.12664423091E+03 0.  0.
          5    1    4    4  502    0  0.67054333469E+02 -0.88728587427E+01  0.27964224584E+03  0.28774448199E+03  0.47000000000E+01 0.  1.
         -5    1    4    4    0  502 -0.54092607579E+02  0.20209392389E+00  0.28347204130E+03  0.28862525745E+03  0.47000000000E+01 0.  1.
          5    1    5    5  503    0 -0.56563342962E+02 -0.34192252654E+02  0.75026655966E+03  0.75318691070E+03  0.47000000000E+01 0. -1.
         -5    1    5    5    0  503  0.43601617072E+02  0.42863017473E+02  0.67211910146E+03  0.67491074657E+03  0.47000000000E+01 0. -1.
<mgrwt>
<rscale>  0 0.27509907E+03</rscale>
<asrwt>0</asrwt>
<pdfrwt beam="1">  1        1 0.30692023E+00 0.27509907E+03</pdfrwt>
<pdfrwt beam="2">  1       -1 0.14590361E-02 0.27509907E+03</pdfrwt>
<totfact> 0.36938257E+03</totfact>
</mgrwt>
</event>
<event>
 9    1  0.2065703E-002  0.2750943E+03  0.7818608E-02  0.1098399E+00
          2   -1    0    0  501    0  0.00000000000E+00  0.00000000000E+00  0.50299141553E+03  0.50299141553E+03  0.00000000000E+00 0. -1.
         -2   -1    0    0    0  501 -0.00000000000E+00 -0.00000000000E+00 -0.37613406417E+02  0.37613406417E+02  0.00000000000E+00 0. -1.
         36    2    1    2    0    0 -0.14210854715E-13  0.14210854715E-13  0.46537800911E+03  0.54060482194E+03  0.27509431500E+03 0.  0.
         25    2    3    3    0    0  0.33053204768E+02 -0.32209122346E+02  0.25428851151E+03  0.29144348733E+03  0.13470975212E+03 0.  0.
         25    2    3    3    0    0 -0.33053204768E+02  0.32209122346E+02  0.21108949760E+03  0.24916133461E+03  0.12406713005E+03 0.  0.
          5    1    4    4  502    0 -0.14176229146E+00  0.10077093543E+02  0.23326329857E+03  0.23352820894E+03  0.47000000000E+01 0.  1.
         -5    1    4    4    0  502  0.33194967060E+02 -0.42286215888E+02  0.21025212939E+02  0.57915278394E+02  0.47000000000E+01 0.  1.
          5    1    5    5  503    0 -0.43094476437E+02  0.45943953642E+02  0.35051110059E+02  0.72240231810E+02  0.47000000000E+01 0.  1.
         -5    1    5    5    0  503  0.10041271668E+02 -0.13734831297E+02  0.17603838754E+03  0.17692110280E+03  0.47000000000E+01 0.  1.
<mgrwt>
<rscale>  0 0.27509432E+03</rscale>
<asrwt>0</asrwt>
<pdfrwt beam="1">  1        2 0.77383290E-01 0.27509432E+03</pdfrwt>
<pdfrwt beam="2">  1       -2 0.57866783E-02 0.27509432E+03</pdfrwt>
<totfact> 0.96214430E+03</totfact>
</mgrwt>
</event>
<event>
 9    1  0.2065703E-002  0.2770185E+03  0.7818608E-02  0.1097329E+00
         -1   -1    0    0    0  501 -0.00000000000E+00  0.00000000000E+00  0.58097491191E+02  0.58097491191E+02  0.00000000000E+00 0. -1.
          1   -1    0    0  501    0  0.00000000000E+00 -0.00000000000E+00 -0.33021753968E+03  0.33021753968E+03  0.00000000000E+00 0. -1.
         36    2    1    2    0    0  0.00000000000E+00  0.00000000000E+00 -0.27212004849E+03  0.38831503087E+03  0.27701848749E+03 0.  0.
         25    2    3    3    0    0 -0.48211062897E+02 -0.21452902762E+02 -0.89518969137E+02  0.16014350059E+03  0.12185139032E+03 0.  0.
         25    2    3    3    0    0  0.48211062897E+02  0.21452902762E+02 -0.18260107935E+03  0.22817153028E+03  0.12623216479E+03 0.  0.
          5    1    4    4  502    0  0.15792058386E+02 -0.57047373040E+02 -0.41483396154E+02  0.72434480983E+02  0.47000000000E+01 0. -1.
         -5    1    4    4    0  502 -0.64003121283E+02  0.35594470278E+02 -0.48035572983E+02  0.87709019605E+02  0.47000000000E+01 0. -1.
          5    1    5    5  503    0  0.48928001505E+00 -0.12223006067E+02 -0.16702777454E+03  0.16754106583E+03  0.47000000000E+01 0.  1.
         -5    1    5    5    0  503  0.47721782882E+02  0.33675908829E+02 -0.15573304812E+02  0.60630464452E+02  0.47000000000E+01 0.  1.
<mgrwt>
<rscale>  0 0.27701849E+03</rscale>
<asrwt>0</asrwt>
<pdfrwt beam="1">  1        1 0.50802698E-01 0.27701849E+03</pdfrwt>
<pdfrwt beam="2">  1       -1 0.89380757E-02 0.27701849E+03</pdfrwt>
<totfact> 0.55922087E+03</totfact>
</mgrwt>
</event>
<event>
 9    1  0.2065703E-002  0.2746621E+03  0.7818608E-02  0.1098641E+00
          1   -1    0    0  501    0  0.00000000000E+00  0.00000000000E+00  0.17522864583E+04  0.17522864583E+04  0.00000000000E+00 0.  1.
         -1   -1    0    0    0  501 -0.00000000000E+00 -0.00000000000E+00 -0.10762973815E+02  0.10762973815E+02  0.00000000000E+00 0.  1.
         36    2    1    2    0    0  0.71054273576E-14  0.00000000000E+00  0.17415234844E+04  0.17630494321E+04  0.27466207067E+03 0.  0.
         25    2    3    3    0    0  0.56559289607E+02  0.29309699952E+01  0.70332899720E+03  0.71618836886E+03  0.12266441031E+03 0.  0.
         25    2    3    3    0    0 -0.56559289607E+02 -0.29309699952E+01  0.10381944872E+04  0.10468610632E+04  0.12191287262E+03 0.  0.
          5    1    4    4  502    0 -0.29360593847E+02 -0.13905202151E+02  0.37229955454E+03  0.37374382594E+03  0.47000000000E+01 0.  1.
         -5    1    4    4    0  502  0.85919883454E+02  0.16836172146E+02  0.33102944266E+03  0.34244454291E+03  0.47000000000E+01 0.  1.
          5    1    5    5  503    0 -0.81614573105E+02  0.16938803971E+02  0.93508357121E+03  0.93880308732E+03  0.47000000000E+01 0.  1.
         -5    1    5    5    0  503  0.25055283499E+02 -0.19869773966E+02  0.10311091603E+03  0.10805797589E+03  0.47000000000E+01 0.  1.
<mgrwt>
<rscale>  0 0.27466207E+03</rscale>
<asrwt>0</asrwt>
<pdfrwt beam="1">  1        1 0.26958231E+00 0.27466207E+03</pdfrwt>
<pdfrwt beam="2">  1       -1 0.16558435E-02 0.27466207E+03</pdfrwt>
<totfact> 0.44166019E+03</totfact>
</mgrwt>
</event>
<event>
 9    1  0.2065703E-002  0.2724621E+03  0.7818608E-02  0.1099879E+00
          1   -1    0    0  501    0  0.00000000000E+00  0.00000000000E+00  0.55332698638E+03  0.55332698638E+03  0.00000000000E+00 0.  1.
         -1   -1    0    0    0  501 -0.00000000000E+00 -0.00000000000E+00 -0.33540555990E+02  0.33540555990E+02  0.00000000000E+00 0.  1.
         36    2    1    2    0    0 -0.71054273576E-14  0.00000000000E+00  0.51978643039E+03  0.58686754237E+03  0.27246206905E+03 0.  0.
         25    2    3    3    0    0  0.36261678566E+02 -0.37874619290E+02  0.25460145973E+03  0.28819222007E+03  0.12443253711E+03 0.  0.
         25    2    3    3    0    0 -0.36261678566E+02  0.37874619290E+02  0.26518497066E+03  0.29867532231E+03  0.12702158623E+03 0.  0.
          5    1    4    4  502    0 -0.13124272847E+02 -0.35961251357E+00  0.21279351523E+03  0.21324996127E+03  0.47000000000E+01 0.  1.
         -5    1    4    4    0  502  0.49385951414E+02 -0.37515006776E+02  0.41807944505E+02  0.74942258801E+02  0.47000000000E+01 0.  1.
          5    1    5    5  503    0 -0.38072916631E+02  0.50211238339E+02  0.43788186267E+02  0.76877894696E+02  0.47000000000E+01 0.  1.
         -5    1    5    5    0  503  0.18112380646E+01 -0.12336619050E+02  0.22139678440E+03  0.22179742761E+03  0.47000000000E+01 0.  1.
<mgrwt>
<rscale>  0 0.27246207E+03</rscale>
<asrwt>0</asrwt>
<pdfrwt beam="1">  1        1 0.85127222E-01 0.27246207E+03</pdfrwt>
<pdfrwt beam="2">  1       -1 0.51600859E-02 0.27246207E+03</pdfrwt>
<totfact> 0.65745037E+03</totfact>
</mgrwt>
</event>
<event>
 9    1  0.2065703E-002  0.2693649E+03  0.7818608E-02  0.1101644E+00
          2   -1    0    0  501    0  0.00000000000E+00  0.00000000000E+00  0.41672519804E+03  0.41672519804E+03  0.00000000000E+00 0. -1.
         -2   -1    0    0    0  501 -0.00000000000E+00 -0.00000000000E+00 -0.43528342209E+02  0.43528342209E+02  0.00000000000E+00 0. -1.
         36    2    1    2    0    0  0.14210854715E-13  0.00000000000E+00  0.37319685583E+03  0.46025354025E+03  0.26936486057E+03 0.  0.
         25    2    3    3    0    0  0.25743866258E+02 -0.56687471124E+02  0.17457273240E+03  0.21617240019E+03  0.11125938916E+03 0.  0.
         25    2    3    3    0    0 -0.25743866258E+02  0.56687471124E+02  0.19862412343E+03  0.24408114005E+03  0.12746703295E+03 0.  0.
          5    1    4    4  502    0  0.45393519043E+02 -0.82672696358E+02  0.12481066473E+03  0.15650922760E+03  0.47000000000E+01 0. -1.
         -5    1    4    4    0  502 -0.19649652785E+02  0.25985225234E+02  0.49762067672E+02  0.59663172594E+02  0.47000000000E+01 0. -1.
          5    1    5    5  503    0 -0.65014109273E+02  0.97199453591E+01  0.48324703659E+02  0.81723183529E+02  0.47000000000E+01 0.  1.
         -5    1    5    5    0  503  0.39270243015E+02  0.46967525765E+02  0.15029941977E+03  0.16235795652E+03  0.47000000000E+01 0.  1.
<mgrwt>
<rscale>  0 0.26936486E+03</rscale>
<asrwt>0</asrwt>
<pdfrwt beam="1">  1        2 0.64111566E-01 0.26936486E+03</pdfrwt>
<pdfrwt beam="2">  1       -2 0.66966683E-02 0.26936486E+03</pdfrwt>
<totfact> 0.94531963E+03</totfact>
</mgrwt>
</event>
<event>
 9    1  0.2065703E-002  0.2748403E+03  0.7818608E-02  0.1098541E+00
          2   -1    0    0  501    0  0.00000000000E+00  0.00000000000E+00  0.19053392879E+04  0.19053392879E+04  0.00000000000E+00 0.  1.
         -2   -1    0    0    0  501 -0.00000000000E+00 -0.00000000000E+00 -0.99112538085E+01  0.99112538085E+01  0.00000000000E+00 0.  1.
         36    2    1    2    0    0 -0.35527136788E-14 -0.71054273576E-14  0.18954280341E+04  0.19152505417E+04  0.27484032655E+03 0.  0.
         25    2    3    3    0    0  0.83255614143E+01 -0.49150461639E+02  0.92137329923E+03  0.93122983150E+03  0.12559920261E+03 0.  0.
         25    2    3    3    0    0 -0.83255614143E+01  0.49150461639E+02  0.97405473490E+03  0.98402071025E+03  0.13049539745E+03 0.  0.
          5    1    4    4  502    0 -0.23144063532E+02  0.26889309399E+02  0.10988702588E+03  0.11556786359E+03  0.47000000000E+01 0.  1.
         -5    1    4    4    0  502  0.31469624946E+02 -0.76039771038E+02  0.81148627334E+03  0.81566196791E+03  0.47000000000E+01 0.  1.
          5    1    5    5  503    0  0.34484776965E+02  0.98564814479E+01  0.79271625528E+03  0.79354111516E+03  0.47000000000E+01 0.  1.
         -5    1    5    5    0  503 -0.42810338380E+02  0.39293980191E+02  0.18133847962E+03  0.19047959508E+03  0.47000000000E+01 0.  1.
<mgrwt>
<rscale>  0 0.27484033E+03</rscale>
<asrwt>0</asrwt>
<pdfrwt beam="1">  1        2 0.29312883E+00 0.27484033E+03</pdfrwt>
<pdfrwt beam="2">  1       -2 0.15248098E-02 0.27484033E+03</pdfrwt>
<totfact> 0.95962444E+03</totfact>
</mgrwt>
</event>
<event>
 9    1  0.2065703E-002  0.2753699E+03  0.7818608E-02  0.1098245E+00
         -4   -1    0    0    0  501 -0.00000000000E+00  0.00000000000E+00  0.62044780106E+02  0.62044780106E+02  0.00000000000E+00 0.  1.
          4   -1    0    0  501    0  0.00000000000E+00 -0.00000000000E+00 -0.30553970527E+03  0.30553970527E+03  0.00000000000E+00 0.  1.
         36    2    1    2    0    0  0.71054273576E-14  0.00000000000E+00 -0.24349492516E+03  0.36758448537E+03  0.27536988816E+03 0.  0.
         25    2    3    3    0    0  0.28158353595E+02  0.46873500897E+02 -0.14345061930E+03  0.19813697293E+03  0.12526037641E+03 0.  0.
         25    2    3    3    0    0 -0.28158353595E+02 -0.46873500897E+02 -0.10004430586E+03  0.16944751245E+03  0.12535381277E+03 0.  0.
          5    1    4    4  502    0  0.24807584322E+02  0.87078831324E+02 -0.71314134453E+02  0.11535135403E+03  0.47000000000E+01 0.  1.
         -5    1    4    4    0  502  0.33507692738E+01 -0.40205330427E+02 -0.72136484846E+02  0.82785618893E+02  0.47000000000E+01 0.  1.
          5    1    5    5  503    0 -0.22981904805E+02  0.39922001909E+02 -0.53348026325E+02  0.70640187555E+02  0.47000000000E+01 0.  1.
         -5    1    5    5    0  503 -0.51764487901E+01 -0.86795502807E+02 -0.46696279536E+02  0.98807324891E+02  0.47000000000E+01 0.  1.
<mgrwt>
<rscale>  0 0.27536989E+03</rscale>
<asrwt>0</asrwt>
<pdfrwt beam="1">  1        4 0.47006109E-01 0.27536989E+03</pdfrwt>
<pdfrwt beam="2">  1       -4 0.95453508E-02 0.27536989E+03</pdfrwt>
<totfact> 0.67726899E+02</totfact>
</mgrwt>
</event>
<event>
 9    1  0.2065703E-002  0.2792808E+03  0.7818608E-02  0.1096082E+00
         -2   -1    0    0    0  501 -0.00000000000E+00  0.00000000000E+00  0.41408295494E+02  0.41408295494E+02  0.00000000000E+00 0.  1.
          2   -1    0    0  501    0  0.00000000000E+00 -0.00000000000E+00 -0.47090665035E+03  0.47090665035E+03  0.00000000000E+00 0.  1.
         36    2    1    2    0    0  0.00000000000E+00 -0.17763568394E-14 -0.42949835486E+03  0.51231494585E+03  0.27928080298E+03 0.  0.
         25    2    3    3    0    0 -0.33756621149E+02 -0.11835373876E+01 -0.30329454457E+03  0.33167067485E+03  0.12991129881E+03 0.  0.
         25    2    3    3    0    0  0.33756621149E+02  0.11835373876E+01 -0.12620381029E+03  0.18064427100E+03  0.12475592443E+03 0.  0.
          5    1    4    4  502    0 -0.77934955791E+02 -0.11102625078E+02 -0.24694253150E+03  0.25922929905E+03  0.47000000000E+01 0. -1.
         -5    1    4    4    0  502  0.44178334642E+02  0.99190876899E+01 -0.56352013063E+02  0.72441375806E+02  0.47000000000E+01 0. -1.
          5    1    5    5  503    0  0.45821884624E+01 -0.50076066949E+02 -0.11828322935E+02  0.51871072436E+02  0.47000000000E+01 0. -1.
         -5    1    5    5    0  503  0.29174432687E+02  0.51259604336E+02 -0.11437548736E+03  0.12877319856E+03  0.47000000000E+01 0. -1.
<mgrwt>
<rscale>  0 0.27928080E+03</rscale>
<asrwt>0</asrwt>
<pdfrwt beam="1">  1        2 0.72447179E-01 0.27928080E+03</pdfrwt>
<pdfrwt beam="2">  1       -2 0.63705069E-02 0.27928080E+03</pdfrwt>
<totfact> 0.89388348E+03</totfact>
</mgrwt>
</event>
<event>
 9    1  0.2065703E-002  0.2743616E+03  0.7818608E-02  0.1098809E+00
         -1   -1    0    0    0  501 -0.00000000000E+00  0.00000000000E+00  0.33324508136E+03  0.33324508136E+03  0.00000000000E+00 0.  1.
          1   -1    0    0  501    0  0.00000000000E+00 -0.00000000000E+00 -0.56470665401E+02  0.56470665401E+02  0.00000000000E+00 0.  1.
         36    2    1    2    0    0  0.00000000000E+00 -0.71054273576E-14  0.27677441596E+03  0.38971574676E+03  0.27436159706E+03 0.  0.
         25    2    3    3    0    0 -0.43078995986E+01 -0.53474754110E+02  0.14814060459E+03  0.20152248215E+03  0.12564857642E+03 0.  0.
         25    2    3    3    0    0  0.43078995986E+01  0.53474754110E+02  0.12863381137E+03  0.18819326462E+03  0.12645924282E+03 0.  0.
          5    1    4    4  502    0 -0.16731276981E+02  0.18785218099E+02  0.12023898103E+03  0.12293218703E+03  0.47000000000E+01 0. -1.
         -5    1    4    4    0  502  0.12423377382E+02 -0.72259972209E+02  0.27901623560E+02  0.78590295116E+02  0.47000000000E+01 0. -1.
          5    1    5    5  503    0 -0.53581522855E+02  0.21530818499E+02  0.20685900746E+02  0.61518714440E+02  0.47000000000E+01 0. -1.
         -5    1    5    5    0  503  0.57889422454E+02  0.31943935611E+02  0.10794791062E+03  0.12667455018E+03  0.47000000000E+01 0. -1.
<mgrwt>
<rscale>  0 0.27436160E+03</rscale>
<asrwt>0</asrwt>
<pdfrwt beam="1">  1        1 0.86877949E-02 0.27436160E+03</pdfrwt>
<pdfrwt beam="2">  1       -1 0.51268473E-01 0.27436160E+03</pdfrwt>
<totfact> 0.30340697E+03</totfact>
</mgrwt>
</event>
<event>
 9    1  0.2065703E-002  0.2728639E+03  0.7818608E-02  0.1099652E+00
         -2   -1    0    0    0  501 -0.00000000000E+00  0.00000000000E+00  0.16607674263E+03  0.16607674263E+03  0.00000000000E+00 0.  1.
          2   -1    0    0  501    0  0.00000000000E+00 -0.00000000000E+00 -0.11207877951E+03  0.11207877951E+03  0.00000000000E+00 0.  1.
         36    2    1    2    0    0  0.00000000000E+00  0.00000000000E+00  0.53997963121E+02  0.27815552213E+03  0.27286391200E+03 0.  0.
         25    2    3    3    0    0 -0.25191423430E+02  0.49242719940E+02 -0.23245209703E+02  0.12064863953E+03  0.10467235149E+03 0.  0.
         25    2    3    3    0    0  0.25191423430E+02 -0.49242719940E+02  0.77243172824E+02  0.15750688260E+03  0.12562824936E+03 0.  0.
          5    1    4    4  502    0 -0.60321212204E+02  0.28135230782E+02 -0.38059897491E+02  0.76817222353E+02  0.47000000000E+01 0.  1.
         -5    1    4    4    0  502  0.35129788774E+02  0.21107489157E+02  0.14814687787E+02  0.43831417181E+02  0.47000000000E+01 0.  1.
          5    1    5    5  503    0 -0.50828445315E+02 -0.15779478198E+02  0.37732635809E+02  0.65409208759E+02  0.47000000000E+01 0.  1.
         -5    1    5    5    0  503  0.76019868745E+02 -0.33463241741E+02  0.39510537015E+02  0.92097673842E+02  0.47000000000E+01 0.  1.
<mgrwt>
<rscale>  0 0.27286391E+03</rscale>
<asrwt>0</asrwt>
<pdfrwt beam="1">  1        2 0.17242889E-01 0.27286391E+03</pdfrwt>
<pdfrwt beam="2">  1       -2 0.25550268E-01 0.27286391E+03</pdfrwt>
<totfact> 0.44855570E+03</totfact>
</mgrwt>
</event>
<event>
 9    1  0.2065703E-002  0.2751713E+03  0.7818608E-02  0.1098356E+00
          1   -1    0    0  501    0  0.00000000000E+00  0.00000000000E+00  0.30393157551E+02  0.30393157551E+02  0.00000000000E+00 0. -1.
         -1   -1    0    0    0  501 -0.00000000000E+00 -0.00000000000E+00 -0.62283128227E+03  0.62283128227E+03  0.00000000000E+00 0. -1.
         36    2    1    2    0    0  0.00000000000E+00 -0.71054273576E-14 -0.59243812472E+03  0.65322443982E+03  0.27517128695E+03 0.  0.
         25    2    3    3    0    0  0.25827065018E+02  0.49576188370E+02 -0.31579782408E+03  0.34516675633E+03  0.12762048519E+03 0.  0.
         25    2    3    3    0    0 -0.25827065018E+02 -0.49576188370E+02 -0.27664030064E+03  0.30805768349E+03  0.12347001531E+03 0.  0.
          5    1    4    4  502    0 -0.18578937845E+02 -0.27981225559E+02 -0.28651011172E+02  0.44397030942E+02  0.47000000000E+01 0.  1.
         -5    1    4    4    0  502  0.44406002864E+02  0.77557413929E+02 -0.28714681291E+03  0.30076972538E+03  0.47000000000E+01 0.  1.
          5    1    5    5  503    0 -0.26506867998E+02 -0.84443788631E+02 -0.24571165747E+03  0.26120810881E+03  0.47000000000E+01 0.  1.
         -5    1    5    5    0  503  0.67980297977E+00  0.34867600261E+02 -0.30928643165E+02  0.46849574684E+02  0.47000000000E+01 0.  1.
<mgrwt>
<rscale>  0 0.27517129E+03</rscale>
<asrwt>0</asrwt>
<pdfrwt beam="1">  1        1 0.46758710E-02 0.27517129E+03</pdfrwt>
<pdfrwt beam="2">  1       -1 0.95820185E-01 0.27517129E+03</pdfrwt>
<totfact> 0.20229853E+03</totfact>
</mgrwt>
</event>
<event>
 9    1  0.2065703E-002  0.2749567E+03  0.7818608E-02  0.1098476E+00
         -2   -1    0    0    0  501 -0.00000000000E+00  0.00000000000E+00  0.60151243316E+02  0.60151243316E+02  0.00000000000E+00 0. -1.
          2   -1    0    0  501    0  0.00000000000E+00 -0.00000000000E+00 -0.31421299722E+03  0.31421299722E+03  0.00000000000E+00 0. -1.
         36    2    1    2    0    0  0.00000000000E+00 -0.35527136788E-14 -0.25406175391E+03  0.37436424054E+03  0.27495674168E+03 0.  0.
         25    2    3    3    0    0  0.19120651206E+02  0.18197457690E+02 -0.19048051099E+03  0.23020638660E+03  0.12655199957E+03 0.  0.
         25    2    3    3    0    0 -0.19120651206E+02 -0.18197457690E+02 -0.63581242922E+02  0.14415785394E+03  0.12665767104E+03 0.  0.
          5    1    4    4  502    0  0.62646617067E+02  0.43861610310E+02 -0.13332975993E+03  0.15377696307E+03  0.47000000000E+01 0.  1.
         -5    1    4    4    0  502 -0.43525965861E+02 -0.25664152621E+02 -0.57150751054E+02  0.76429423522E+02  0.47000000000E+01 0.  1.
          5    1    5    5  503    0 -0.67996072053E+02  0.77428548504E+01 -0.14649389409E+02  0.70143511645E+02  0.47000000000E+01 0.  1.
         -5    1    5    5    0  503  0.48875420847E+02 -0.25940312540E+02 -0.48931853513E+02  0.74014342298E+02  0.47000000000E+01 0.  1.
<mgrwt>
<rscale>  0 0.27495674E+03</rscale>
<asrwt>0</asrwt>
<pdfrwt beam="1">  1        2 0.48340462E-01 0.27495674E+03</pdfrwt>
<pdfrwt beam="2">  1       -2 0.92540373E-02 0.27495674E+03</pdfrwt>
<totfact> 0.77496473E+03</totfact>
</mgrwt>
</event>
<event>
 9    1  0.2065703E-002  0.2753339E+03  0.7818608E-02  0.1098265E+00
          1   -1    0    0  501    0  0.00000000000E+00  0.00000000000E+00  0.13849805496E+03  0.13849805496E+03  0.00000000000E+00 0.  1.
         -1   -1    0    0    0  501 -0.00000000000E+00 -0.00000000000E+00 -0.13684083582E+03  0.13684083582E+03  0.00000000000E+00 0.  1.
         36    2    1    2    0    0 -0.71054273576E-14  0.71054273576E-14  0.16572191430E+01  0.27533889078E+03  0.27533390347E+03 0.  0.
         25    2    3    3    0    0  0.37463579772E+02 -0.10983598648E+02 -0.25020533911E+02  0.14183047733E+03  0.13403618143E+03 0.  0.
         25    2    3    3    0    0 -0.37463579772E+02  0.10983598648E+02  0.26677753054E+02  0.13350841346E+03  0.12485445409E+03 0.  0.
          5    1    4    4  502    0 -0.16412915029E+02  0.53085487345E+02 -0.99701589476E+01  0.56647566725E+02  0.47000000000E+01 0. -1.
         -5    1    4    4    0  502  0.53876494801E+02 -0.64069085993E+02 -0.15050374964E+02  0.85182910602E+02  0.47000000000E+01 0. -1.
          5    1    5    5  503    0 -0.57210424834E+02  0.56470494128E+02  0.10894806884E+02  0.81257222656E+02  0.47000000000E+01 0. -1.
         -5    1    5    5    0  503  0.19746845062E+02 -0.45486895480E+02  0.15782946170E+02  0.52251190801E+02  0.47000000000E+01 0. -1.
<mgrwt>
<rscale>  0 0.27533390E+03</rscale>
<asrwt>0</asrwt>
<pdfrwt beam="1">  1        1 0.21307393E-01 0.27533390E+03</pdfrwt>
<pdfrwt beam="2">  1       -1 0.21052436E-01 0.27533390E+03</pdfrwt>
<totfact> 0.43315786E+03</totfact>
</mgrwt>
</event>
<event>
 9    1  0.2065703E-002  0.2767983E+03  0.7818608E-02  0.1097451E+00
          2   -1    0    0  501    0  0.00000000000E+00  0.00000000000E+00  0.10152217845E+04  0.10152217845E+04  0.00000000000E+00 0. -1.
         -2   -1    0    0    0  501 -0.00000000000E+00 -0.00000000000E+00 -0.18867126603E+02  0.18867126603E+02  0.00000000000E+00 0. -1.
         36    2    1    2    0    0  0.00000000000E+00  0.71054273576E-14  0.99635465785E+03  0.10340889111E+04  0.27679825099E+03 0.  0.
         25    2    3    3    0    0  0.49972965516E+02  0.30534084080E+02  0.62132393186E+03  0.63394840865E+03  0.11143396681E+03 0.  0.
         25    2    3    3    0    0 -0.49972965516E+02 -0.30534084080E+02  0.37503072599E+03  0.40014050241E+03  0.12662838803E+03 0.  0.
          5    1    4    4  502    0  0.79738116649E+02  0.84010407414E+01  0.51537466456E+03  0.52159551340E+03  0.47000000000E+01 0.  1.
         -5    1    4    4    0  502 -0.29765151134E+02  0.22133043339E+02  0.10594926730E+03  0.11235289525E+03  0.47000000000E+01 0.  1.
          5    1    5    5  503    0  0.15673735735E+01  0.46387693395E+02  0.11687434756E+03  0.12584108183E+03  0.47000000000E+01 0. -1.
         -5    1    5    5    0  503 -0.51540339089E+02 -0.76921777476E+02  0.25815637844E+03  0.27429942058E+03  0.47000000000E+01 0. -1.
<mgrwt>
<rscale>  0 0.27679825E+03</rscale>
<asrwt>0</asrwt>
<pdfrwt beam="1">  1        2 0.15618792E+00 0.27679825E+03</pdfrwt>
<pdfrwt beam="2">  1       -2 0.29026357E-02 0.27679825E+03</pdfrwt>
<totfact> 0.11409418E+04</totfact>
</mgrwt>
</event>
<event>
 9    1  0.2065703E-002  0.2747986E+03  0.7818608E-02  0.1098564E+00
         -1   -1    0    0    0  501 -0.00000000000E+00  0.00000000000E+00  0.28893016851E+02  0.28893016851E+02  0.00000000000E+00 0.  1.
          1   -1    0    0  501    0  0.00000000000E+00 -0.00000000000E+00 -0.65339563352E+03  0.65339563352E+03  0.00000000000E+00 0.  1.
         36    2    1    2    0    0  0.00000000000E+00 -0.71054273576E-14 -0.62450261667E+03  0.68228865037E+03  0.27479862481E+03 0.  0.
         25    2    3    3    0    0  0.37148040354E+02  0.23112215673E+02 -0.38983912307E+03  0.41070986767E+03  0.12163018585E+03 0.  0.
         25    2    3    3    0    0 -0.37148040354E+02 -0.23112215673E+02 -0.23466349360E+03  0.27157878270E+03  0.12951420219E+03 0.  0.
          5    1    4    4  502    0  0.57770236196E+02  0.44610572162E+02 -0.13030096353E+03  0.14942534737E+03  0.47000000000E+01 0.  1.
         -5    1    4    4    0  502 -0.20622195842E+02 -0.21498356489E+02 -0.25953815954E+03  0.26128452030E+03  0.47000000000E+01 0.  1.
          5    1    5    5  503    0 -0.54166747801E+02  0.39871067794E+02 -0.86929997368E+02  0.11001205869E+03  0.47000000000E+01 0.  1.
         -5    1    5    5    0  503  0.17018707447E+02 -0.62983283467E+02 -0.14773349624E+03  0.16156672402E+03  0.47000000000E+01 0.  1.
<mgrwt>
<rscale>  0 0.27479862E+03</rscale>
<asrwt>0</asrwt>
<pdfrwt beam="1">  1        1 0.10052240E+00 0.27479862E+03</pdfrwt>
<pdfrwt beam="2">  1       -1 0.44450797E-02 0.27479862E+03</pdfrwt>
<totfact> 0.65236665E+03</totfact>
</mgrwt>
</event>
<event>
 9    1  0.2065703E-002  0.2746078E+03  0.7818608E-02  0.1098671E+00
          2   -1    0    0  501    0  0.00000000000E+00  0.00000000000E+00  0.11630657382E+04  0.11630657382E+04  0.00000000000E+00 0.  1.
         -2   -1    0    0    0  501 -0.00000000000E+00 -0.00000000000E+00 -0.16209192412E+02  0.16209192412E+02  0.00000000000E+00 0.  1.
         36    2    1    2    0    0  0.00000000000E+00 -0.35527136788E-14  0.11468565458E+04  0.11792749306E+04  0.27460776638E+03 0.  0.
         25    2    3    3    0    0 -0.47490154704E+02  0.23371790058E+02  0.49179788994E+03  0.50989737451E+03  0.12380877440E+03 0.  0.
         25    2    3    3    0    0  0.47490154704E+02 -0.23371790058E+02  0.65505865588E+03  0.66937755613E+03  0.12713345212E+03 0.  0.
          5    1    4    4  502    0 -0.33546140486E+02 -0.41367761912E+02  0.10925657484E+03  0.12163767678E+03  0.47000000000E+01 0.  1.
         -5    1    4    4    0  502 -0.13944014218E+02  0.64739551970E+02  0.38254131510E+03  0.38825969773E+03  0.47000000000E+01 0.  1.
          5    1    5    5  503    0  0.87990284996E+02 -0.33797453858E+02  0.49243364963E+03  0.50139559973E+03  0.47000000000E+01 0. -1.
         -5    1    5    5    0  503 -0.40500130292E+02  0.10425663800E+02  0.16262500624E+03  0.16798195640E+03  0.47000000000E+01 0. -1.
<mgrwt>
<rscale>  0 0.27460777E+03</rscale>
<asrwt>0</asrwt>
<pdfrwt beam="1">  1        2 0.17893312E+00 0.27460777E+03</pdfrwt>
<pdfrwt beam="2">  1       -2 0.24937228E-02 0.27460777E+03</pdfrwt>
<totfact> 0.11686368E+04</totfact>
</mgrwt>
</event>
<event>
 9    1  0.2065703E-002  0.2756738E+03  0.7818608E-02  0.1098076E+00
          1   -1    0    0  501    0  0.00000000000E+00  0.00000000000E+00  0.70186078642E+02  0.70186078642E+02  0.00000000000E+00 0. -1.
         -1   -1    0    0    0  501 -0.00000000000E+00 -0.00000000000E+00 -0.27069485521E+03  0.27069485521E+03  0.00000000000E+00 0. -1.
         36    2    1    2    0    0 -0.71054273576E-14  0.00000000000E+00 -0.20050877656E+03  0.34088093385E+03  0.27567379560E+03 0.  0.
         25    2    3    3    0    0  0.24101405537E+02  0.52887193034E+02 -0.11874894042E+03  0.18096952460E+03  0.12357477512E+03 0.  0.
         25    2    3    3    0    0 -0.24101405537E+02 -0.52887193034E+02 -0.81759836143E+02  0.15991140925E+03  0.12453535669E+03 0.  0.
          5    1    4    4  502    0  0.51708072486E+02 -0.13171847873E+02 -0.87755016242E+02  0.10281174647E+03  0.47000000000E+01 0. -1.
         -5    1    4    4    0  502 -0.27606666949E+02  0.66059040907E+02 -0.30993924178E+02  0.78157778125E+02  0.47000000000E+01 0. -1.
          5    1    5    5  503    0  0.50979385601E+02 -0.16339169473E+02 -0.34183546005E+02  0.63690431250E+02  0.47000000000E+01 0. -1.
         -5    1    5    5    0  503 -0.75080791138E+02 -0.36548023561E+02 -0.47576290138E+02  0.96220978001E+02  0.47000000000E+01 0. -1.
<mgrwt>
<rscale>  0 0.27567380E+03</rscale>
<asrwt>0</asrwt>
<pdfrwt beam="1">  1        1 0.10797858E-01 0.27567380E+03</pdfrwt>
<pdfrwt beam="2">  1       -1 0.41645361E-01 0.27567380E+03</pdfrwt>
<totfact> 0.33069512E+03</totfact>
</mgrwt>
</event>
<event>
 9    1  0.2065703E-002  0.2748414E+03  0.7818608E-02  0.1098540E+00
          2   -1    0    0  501    0  0.00000000000E+00  0.00000000000E+00  0.18102548057E+03  0.18102548057E+03  0.00000000000E+00 0.  1.
         -2   -1    0    0    0  501 -0.00000000000E+00 -0.00000000000E+00 -0.10431924935E+03  0.10431924935E+03  0.00000000000E+00 0.  1.
         36    2    1    2    0    0  0.35527136788E-14  0.71054273576E-14  0.76706231217E+02  0.28534472991E+03  0.27484135239E+03 0.  0.
         25    2    3    3    0    0  0.15114976877E+01  0.21994492146E+02 -0.11487821670E+00  0.12647616049E+03  0.12453980756E+03 0.  0.
         25    2    3    3    0    0 -0.15114976877E+01 -0.21994492146E+02  0.76821109434E+02  0.15886856942E+03  0.13730148282E+03 0.  0.
          5    1    4    4  502    0  0.35164325658E+02  0.62083705444E+02 -0.12234552444E+02  0.72544404017E+02  0.47000000000E+01 0. -1.
         -5    1    4    4    0  502 -0.33652827970E+02 -0.40089213299E+02  0.12119674227E+02  0.53931756477E+02  0.47000000000E+01 0. -1.
          5    1    5    5  503    0 -0.32890123940E+02 -0.28091217396E+02 -0.26276204886E+02  0.50827214076E+02  0.47000000000E+01 0. -1.
         -5    1    5    5    0  503  0.31378626252E+02  0.60967252503E+01  0.10309731432E+03  0.10804135534E+03  0.47000000000E+01 0. -1.
<mgrwt>
<rscale>  0 0.27484135E+03</rscale>
<asrwt>0</asrwt>
<pdfrwt beam="1">  1        2 0.27850074E-01 0.27484135E+03</pdfrwt>
<pdfrwt beam="2">  1       -2 0.16049115E-01 0.27484135E+03</pdfrwt>
<totfact> 0.57812854E+03</totfact>
</mgrwt>
</event>
<event>
 9    1  0.2065703E-002  0.2750894E+03  0.7818608E-02  0.1098402E+00
         -2   -1    0    0    0  501 -0.00000000000E+00  0.00000000000E+00  0.12362439993E+02  0.12362439993E+02  0.00000000000E+00 0. -1.
          2   -1    0    0  501    0  0.00000000000E+00 -0.00000000000E+00 -0.15303248869E+04  0.15303248869E+04  0.00000000000E+00 0. -1.
         36    2    1    2    0    0  0.00000000000E+00  0.71054273576E-14 -0.15179624469E+04  0.15426873269E+04  0.27508943698E+03 0.  0.
         25    2    3    3    0    0 -0.35208794920E+02  0.35015948643E+02 -0.58883907522E+03  0.60395978389E+03  0.12478055999E+03 0.  0.
         25    2    3    3    0    0  0.35208794920E+02 -0.35015948643E+02 -0.92912337167E+03  0.93872754299E+03  0.12439205874E+03 0.  0.
          5    1    4    4  502    0  0.30733329543E+02  0.95088118930E+01 -0.41446368119E+03  0.41573692171E+03  0.47000000000E+01 0.  1.
         -5    1    4    4    0  502 -0.65942124463E+02  0.25507136750E+02 -0.17437539403E+03  0.18822286218E+03  0.47000000000E+01 0.  1.
          5    1    5    5  503    0 -0.43213280900E+02 -0.31754317948E+02 -0.31122094870E+03  0.31584219677E+03  0.47000000000E+01 0.  1.
         -5    1    5    5    0  503  0.78422075820E+02 -0.32616306952E+01 -0.61790242298E+03  0.62288534622E+03  0.47000000000E+01 0.  1.
<mgrwt>
<rscale>  0 0.27508944E+03</rscale>
<asrwt>0</asrwt>
<pdfrwt beam="1">  1        2 0.23543440E+00 0.27508944E+03</pdfrwt>
<pdfrwt beam="2">  1       -2 0.19019154E-02 0.27508944E+03</pdfrwt>
<totfact> 0.10941981E+04</totfact>
</mgrwt>
</event>
<event>
 9    1  0.2065703E-002  0.2753183E+03  0.7818608E-02  0.1098274E+00
          1   -1    0    0  501    0  0.00000000000E+00  0.00000000000E+00  0.77188164055E+03  0.77188164055E+03  0.00000000000E+00 0.  1.
         -1   -1    0    0    0  501 -0.00000000000E+00 -0.00000000000E+00 -0.24550447202E+02  0.24550447202E+02  0.00000000000E+00 0.  1.
         36    2    1    2    0    0  0.35527136788E-14  0.17763568394E-14  0.74733119334E+03  0.79643208775E+03  0.27531828463E+03 0.  0.
         25    2    3    3    0    0 -0.13170424484E+02 -0.15770923819E+02  0.22381355060E+03  0.25778115121E+03  0.12623959113E+03 0.  0.
         25    2    3    3    0    0  0.13170424484E+02  0.15770923819E+02  0.52351764274E+03  0.53865093654E+03  0.12510766183E+03 0.  0.
          5    1    4    4  502    0 -0.36544963838E+02  0.45808490185E+01  0.58652006612E+01  0.37590013813E+02  0.47000000000E+01 0. -1.
         -5    1    4    4    0  502  0.23374539354E+02 -0.20351772838E+02  0.21794834994E+03  0.22019113740E+03  0.47000000000E+01 0. -1.
          5    1    5    5  503    0  0.24127679352E+02  0.16467681199E+02  0.21702194245E+02  0.36693387280E+02  0.47000000000E+01 0.  1.
         -5    1    5    5    0  503 -0.10957254868E+02 -0.69675738023E+00  0.50181544850E+03  0.50195754926E+03  0.47000000000E+01 0.  1.
<mgrwt>
<rscale>  0 0.27531828E+03</rscale>
<asrwt>0</asrwt>
<pdfrwt beam="1">  1        1 0.11875100E+00 0.27531828E+03</pdfrwt>
<pdfrwt beam="2">  1       -1 0.37769925E-02 0.27531828E+03</pdfrwt>
<totfact> 0.65090703E+03</totfact>
</mgrwt>
</event>
<event>
 9    1  0.2065703E-002  0.2756246E+03  0.7818608E-02  0.1098103E+00
         -2   -1    0    0    0  501 -0.00000000000E+00  0.00000000000E+00  0.25522261984E+03  0.25522261984E+03  0.00000000000E+00 0.  1.
          2   -1    0    0  501    0  0.00000000000E+00 -0.00000000000E+00 -0.74414369284E+02  0.74414369284E+02  0.00000000000E+00 0.  1.
         36    2    1    2    0    0  0.00000000000E+00  0.71054273576E-14  0.18080825055E+03  0.32963698912E+03  0.27562460182E+03 0.  0.
         25    2    3    3    0    0  0.15154227750E+02  0.44306317645E+02  0.13078284736E+03  0.18521633624E+03  0.12250811257E+03 0.  0.
         25    2    3    3    0    0 -0.15154227750E+02 -0.44306317645E+02  0.50025403195E+02  0.14442065288E+03  0.12713018372E+03 0.  0.
          5    1    4    4  502    0  0.56705164740E+02 -0.14452465683E+02  0.65220478356E+02  0.87750500110E+02  0.47000000000E+01 0. -1.
         -5    1    4    4    0  502 -0.41550936990E+02  0.58758783328E+02  0.65562369000E+02  0.97465836126E+02  0.47000000000E+01 0. -1.
          5    1    5    5  503    0 -0.15547474658E+02  0.32626357546E+02 -0.18869479448E+02  0.41040838559E+02  0.47000000000E+01 0.  1.
         -5    1    5    5    0  503  0.39324690831E+00 -0.76932675192E+02  0.68894882644E+02  0.10337981432E+03  0.47000000000E+01 0.  1.
<mgrwt>
<rscale>  0 0.27562460E+03</rscale>
<asrwt>0</asrwt>
<pdfrwt beam="1">  1        2 0.11448365E-01 0.27562460E+03</pdfrwt>
<pdfrwt beam="2">  1       -2 0.39265018E-01 0.27562460E+03</pdfrwt>
<totfact> 0.33284843E+03</totfact>
</mgrwt>
</event>
<event>
 9    1  0.2065703E-002  0.2754973E+03  0.7818608E-02  0.1098174E+00
         -2   -1    0    0    0  501 -0.00000000000E+00  0.00000000000E+00  0.12002307031E+03  0.12002307031E+03  0.00000000000E+00 0. -1.
          2   -1    0    0  501    0  0.00000000000E+00 -0.00000000000E+00 -0.15809197695E+03  0.15809197695E+03  0.00000000000E+00 0. -1.
         36    2    1    2    0    0  0.00000000000E+00  0.00000000000E+00 -0.38068906636E+02  0.27811504726E+03  0.27549725563E+03 0.  0.
         25    2    3    3    0    0  0.46491442141E+02 -0.16325461329E+02 -0.31153972323E+02  0.14117258481E+03  0.12857353472E+03 0.  0.
         25    2    3    3    0    0 -0.46491442141E+02  0.16325461329E+02 -0.69149343129E+01  0.13694246245E+03  0.12758309773E+03 0.  0.
          5    1    4    4  502    0  0.55090859032E+02  0.98728530104E+01 -0.72217616180E+02  0.91487431171E+02  0.47000000000E+01 0.  1.
         -5    1    4    4    0  502 -0.85994168916E+01 -0.26198314340E+02  0.41063643857E+02  0.49685153637E+02  0.47000000000E+01 0.  1.
          5    1    5    5  503    0 -0.60753568051E+02 -0.30542937886E+02 -0.38674952779E+02  0.78369056764E+02  0.47000000000E+01 0.  1.
         -5    1    5    5    0  503  0.14262125911E+02  0.46868399216E+02  0.31760018466E+02  0.58573405685E+02  0.47000000000E+01 0.  1.
<mgrwt>
<rscale>  0 0.27549726E+03</rscale>
<asrwt>0</asrwt>
<pdfrwt beam="1">  1        2 0.24321843E-01 0.27549726E+03</pdfrwt>
<pdfrwt beam="2">  1       -2 0.18465088E-01 0.27549726E+03</pdfrwt>
<totfact> 0.53128785E+03</totfact>
</mgrwt>
</event>
<event>
 9    1  0.2065703E-002  0.2733990E+03  0.7818608E-02  0.1099350E+00
          1   -1    0    0  501    0  0.00000000000E+00  0.00000000000E+00  0.24460780742E+04  0.24460780742E+04  0.00000000000E+00 0.  1.
         -1   -1    0    0    0  501 -0.00000000000E+00 -0.00000000000E+00 -0.76394754531E+01  0.76394754531E+01  0.00000000000E+00 0.  1.
         36    2    1    2    0    0  0.00000000000E+00  0.71054273576E-14  0.24384385988E+04  0.24537175497E+04  0.27339900076E+03 0.  0.
         25    2    3    3    0    0 -0.47651040730E+02  0.23775973966E+02  0.10436659382E+04  0.10524384158E+04  0.12470809911E+03 0.  0.
         25    2    3    3    0    0  0.47651040730E+02 -0.23775973966E+02  0.13947726606E+04  0.14012791339E+04  0.12392141700E+03 0.  0.
          5    1    4    4  502    0 -0.48438737988E+02 -0.16867914632E+02  0.16573098462E+03  0.17355024386E+03  0.47000000000E+01 0.  1.
         -5    1    4    4    0  502  0.78769725799E+00  0.40643888598E+02  0.87793495353E+03  0.87888817194E+03  0.47000000000E+01 0.  1.
          5    1    5    5  503    0 -0.20037890735E+02 -0.32520032135E+02  0.15814587901E+03  0.16276141620E+03  0.47000000000E+01 0.  1.
         -5    1    5    5    0  503  0.67688931465E+02  0.87440581692E+01  0.12366267816E+04  0.12385177177E+04  0.47000000000E+01 0.  1.
<mgrwt>
<rscale>  0 0.27339900E+03</rscale>
<asrwt>0</asrwt>
<pdfrwt beam="1">  1        1 0.37631908E+00 0.27339900E+03</pdfrwt>
<pdfrwt beam="2">  1       -1 0.11753059E-02 0.27339900E+03</pdfrwt>
<totfact> 0.25629700E+03</totfact>
</mgrwt>
</event>
<event>
 9    1  0.2065703E-002  0.2749412E+03  0.7818608E-02  0.1098484E+00
          2   -1    0    0  501    0  0.00000000000E+00  0.00000000000E+00  0.40165643023E+03  0.40165643023E+03  0.00000000000E+00 0. -1.
         -2   -1    0    0    0  501 -0.00000000000E+00 -0.00000000000E+00 -0.47050565826E+02  0.47050565826E+02  0.00000000000E+00 0. -1.
         36    2    1    2    0    0  0.35527136788E-14 -0.14210854715E-13  0.35460586440E+03  0.44870699606E+03  0.27494117414E+03 0.  0.
         25    2    3    3    0    0  0.73701084927E+01  0.34977775150E+02  0.94911355351E+02  0.16054896921E+03  0.12445900083E+03 0.  0.
         25    2    3    3    0    0 -0.73701084927E+01 -0.34977775150E+02  0.25969450905E+03  0.28815802684E+03  0.11964968512E+03 0.  0.
          5    1    4    4  502    0  0.44381587457E+02 -0.88851642382E+01 -0.44341620632E+01  0.45721146551E+02  0.47000000000E+01 0.  1.
         -5    1    4    4    0  502 -0.37011478965E+02  0.43862939388E+02  0.99345517415E+02  0.11482782266E+03  0.47000000000E+01 0.  1.
          5    1    5    5  503    0 -0.11603062023E+02 -0.77425567954E+02  0.19833246098E+03  0.21327729532E+03  0.47000000000E+01 0.  1.
         -5    1    5    5    0  503  0.42329535299E+01  0.42447792804E+02  0.61362048072E+02  0.74880731521E+02  0.47000000000E+01 0.  1.
<mgrwt>
<rscale>  0 0.27494117E+03</rscale>
<asrwt>0</asrwt>
<pdfrwt beam="1">  1        2 0.61793295E-01 0.27494117E+03</pdfrwt>
<pdfrwt beam="2">  1       -2 0.72385489E-02 0.27494117E+03</pdfrwt>
<totfact> 0.87306189E+03</totfact>
</mgrwt>
</event>
<event>
 9    1  0.2065703E-002  0.2751738E+03  0.7818608E-02  0.1098354E+00
          1   -1    0    0  501    0  0.00000000000E+00  0.00000000000E+00  0.26213266577E+02  0.26213266577E+02  0.00000000000E+00 0. -1.
         -1   -1    0    0    0  501 -0.00000000000E+00 -0.00000000000E+00 -0.72215947809E+03  0.72215947809E+03  0.00000000000E+00 0. -1.
         36    2    1    2    0    0 -0.71054273576E-14  0.71054273576E-14 -0.69594621151E+03  0.74837274467E+03  0.27517382805E+03 0.  0.
         25    2    3    3    0    0 -0.34155121777E+02  0.56830759774E+02 -0.35632616216E+03  0.38391752256E+03  0.12660182732E+03 0.  0.
         25    2    3    3    0    0  0.34155121777E+02 -0.56830759774E+02 -0.33962004935E+03  0.36445522211E+03  0.11440945505E+03 0.  0.
          5    1    4    4  502    0  0.44035379595E+02 -0.21385711407E+01 -0.96154345267E+02  0.10588406989E+03  0.47000000000E+01 0.  1.
         -5    1    4    4    0  502 -0.78190501373E+02  0.58969330915E+02 -0.26017181690E+03  0.27803345267E+03  0.47000000000E+01 0.  1.
          5    1    5    5  503    0 -0.32739680423E+02 -0.32492788189E+02 -0.22281165161E+03  0.22758468765E+03  0.47000000000E+01 0. -1.
         -5    1    5    5    0  503  0.66894802200E+02 -0.24337971585E+02 -0.11680839774E+03  0.13687053447E+03  0.47000000000E+01 0. -1.
<mgrwt>
<rscale>  0 0.27517383E+03</rscale>
<asrwt>0</asrwt>
<pdfrwt beam="1">  1        1 0.40328102E-02 0.27517383E+03</pdfrwt>
<pdfrwt beam="2">  1       -1 0.11110146E+00 0.27517383E+03</pdfrwt>
<totfact> 0.17808173E+03</totfact>
</mgrwt>
</event>
<event>
 9    1  0.2065703E-002  0.2826377E+03  0.7818608E-02  0.1094257E+00
          2   -1    0    0  501    0  0.00000000000E+00  0.00000000000E+00  0.39062156708E+03  0.39062156708E+03  0.00000000000E+00 0.  1.
         -2   -1    0    0    0  501 -0.00000000000E+00 -0.00000000000E+00 -0.51126238135E+02  0.51126238135E+02  0.00000000000E+00 0.  1.
         36    2    1    2    0    0 -0.71054273576E-14 -0.14210854715E-13  0.33949532894E+03  0.44174780521E+03  0.28263765679E+03 0.  0.
         25    2    3    3    0    0 -0.28767834215E+02  0.53792502209E+02  0.82601345252E+02  0.16111011745E+03  0.12414614827E+03 0.  0.
         25    2    3    3    0    0  0.28767834215E+02 -0.53792502209E+02  0.25689398369E+03  0.28063768776E+03  0.95088229315E+02 0.  0.
          5    1    4    4  502    0  0.27942846995E+02  0.72945182662E+02  0.48308421723E+02  0.91965188964E+02  0.47000000000E+01 0. -1.
         -5    1    4    4    0  502 -0.56710681210E+02 -0.19152680453E+02  0.34292923529E+02  0.69144928491E+02  0.47000000000E+01 0. -1.
          5    1    5    5  503    0 -0.16649943110E+02  0.18604832111E+02  0.83314129691E+02  0.87101633679E+02  0.47000000000E+01 0.  1.
         -5    1    5    5    0  503  0.45417777325E+02 -0.72397334319E+02  0.17357985400E+03  0.19353605408E+03  0.47000000000E+01 0.  1.
<mgrwt>
<rscale>  0 0.28263766E+03</rscale>
<asrwt>0</asrwt>
<pdfrwt beam="1">  1        2 0.60095624E-01 0.28263766E+03</pdfrwt>
<pdfrwt beam="2">  1       -2 0.78655754E-02 0.28263766E+03</pdfrwt>
<totfact> 0.79154600E+03</totfact>
</mgrwt>
</event>
<event>
 9    1  0.2065703E-002  0.2749188E+03  0.7818608E-02  0.1098497E+00
         -2   -1    0    0    0  501 -0.00000000000E+00  0.00000000000E+00  0.21945417173E+04  0.21945417173E+04  0.00000000000E+00 0.  1.
          2   -1    0    0  501    0  0.00000000000E+00 -0.00000000000E+00 -0.86100354195E+01  0.86100354195E+01  0.00000000000E+00 0.  1.
         36    2    1    2    0    0 -0.53290705182E-14  0.00000000000E+00  0.21859316819E+04  0.22031517528E+04  0.27491876557E+03 0.  0.
         25    2    3    3    0    0  0.12573391320E+02 -0.44476705627E+02  0.66394971763E+03  0.67525582250E+03  0.11403916331E+03 0.  0.
         25    2    3    3    0    0 -0.12573391320E+02  0.44476705627E+02  0.15219819643E+04  0.15278959303E+04  0.12609760729E+03 0.  0.
          5    1    4    4  502    0  0.25749134576E+02 -0.68788098503E+02  0.61024811924E+03  0.61467038115E+03  0.47000000000E+01 0. -1.
         -5    1    4    4    0  502 -0.13175743256E+02  0.24311392877E+02  0.53701598386E+02  0.60585441347E+02  0.47000000000E+01 0. -1.
          5    1    5    5  503    0  0.30981119476E+02 -0.22762059372E+02  0.21557863142E+03  0.21903008340E+03  0.47000000000E+01 0.  1.
         -5    1    5    5    0  503 -0.43554510796E+02  0.67238764999E+02  0.13064033329E+04  0.13088658469E+04  0.47000000000E+01 0.  1.
<mgrwt>
<rscale>  0 0.27491877E+03</rscale>
<asrwt>0</asrwt>
<pdfrwt beam="1">  1        2 0.13246226E-02 0.27491877E+03</pdfrwt>
<pdfrwt beam="2">  1       -2 0.33762136E+00 0.27491877E+03</pdfrwt>
<totfact> 0.21321350E+02</totfact>
</mgrwt>
</event>
<event>
 9    1  0.2065703E-002  0.2752847E+03  0.7818608E-02  0.1098293E+00
         -2   -1    0    0    0  501 -0.00000000000E+00  0.00000000000E+00  0.10491556082E+03  0.10491556082E+03  0.00000000000E+00 0.  1.
          2   -1    0    0  501    0  0.00000000000E+00 -0.00000000000E+00 -0.18057777294E+03  0.18057777294E+03  0.00000000000E+00 0.  1.
         36    2    1    2    0    0  0.00000000000E+00  0.71054273576E-14 -0.75662212122E+02  0.28549333375E+03  0.27528471311E+03 0.  0.
         25    2    3    3    0    0  0.21136644518E+01  0.18212024591E+02 -0.97827579074E+02  0.16090158731E+03  0.12642365347E+03 0.  0.
         25    2    3    3    0    0 -0.21136644518E+01 -0.18212024591E+02  0.22165366952E+02  0.12459174644E+03  0.12122563413E+03 0.  0.
          5    1    4    4  502    0  0.38517303824E+02  0.50581376073E+02 -0.91551914187E+02  0.11156119975E+03  0.47000000000E+01 0.  1.
         -5    1    4    4    0  502 -0.36403639373E+02 -0.32369351481E+02 -0.62756648873E+01  0.49340387561E+02  0.47000000000E+01 0.  1.
          5    1    5    5  503    0  0.47555433343E+02 -0.26053594850E+02  0.43590253623E+02  0.69731694773E+02  0.47000000000E+01 0.  1.
         -5    1    5    5    0  503 -0.49669097795E+02  0.78415702591E+01 -0.21424886671E+02  0.54860051665E+02  0.47000000000E+01 0.  1.
<mgrwt>
<rscale>  0 0.27528471E+03</rscale>
<asrwt>0</asrwt>
<pdfrwt beam="1">  1        2 0.27781195E-01 0.27528471E+03</pdfrwt>
<pdfrwt beam="2">  1       -2 0.16140856E-01 0.27528471E+03</pdfrwt>
<totfact> 0.57426977E+03</totfact>
</mgrwt>
</event>
<event>
 9    1  0.2065703E-002  0.2759760E+03  0.7818608E-02  0.1097907E+00
          2   -1    0    0  501    0  0.00000000000E+00  0.00000000000E+00  0.31106895806E+04  0.31106895806E+04  0.00000000000E+00 0. -1.
         -2   -1    0    0    0  501 -0.00000000000E+00 -0.00000000000E+00 -0.61210501040E+01  0.61210501040E+01  0.00000000000E+00 0. -1.
         36    2    1    2    0    0 -0.71054273576E-14  0.35527136788E-14  0.31045685305E+04  0.31168106307E+04  0.27597599012E+03 0.  0.
         25    2    3    3    0    0  0.19235124421E+02 -0.22148784413E+02  0.18623199914E+04  0.18670993425E+04  0.13024456227E+03 0.  0.
         25    2    3    3    0    0 -0.19235124421E+02  0.22148784413E+02  0.12422485391E+04  0.12497112881E+04  0.13317774640E+03 0.  0.
          5    1    4    4  502    0  0.48333066766E+02 -0.22146399874E+02  0.17548273318E+04  0.17556388019E+04  0.47000000000E+01 0.  1.
         -5    1    4    4    0  502 -0.29097942345E+02 -0.23845384874E-02  0.10749265955E+03  0.11146054060E+03  0.47000000000E+01 0.  1.
          5    1    5    5  503    0 -0.64213446329E+02 -0.18540886307E+02  0.43009835749E+03  0.43528590406E+03  0.47000000000E+01 0.  1.
         -5    1    5    5    0  503  0.44978321907E+02  0.40689670719E+02  0.81215018161E+03  0.81442538408E+03  0.47000000000E+01 0.  1.
<mgrwt>
<rscale>  0 0.27597599E+03</rscale>
<asrwt>0</asrwt>
<pdfrwt beam="1">  1        2 0.47856636E+00 0.27597599E+03</pdfrwt>
<pdfrwt beam="2">  1       -2 0.94170250E-03 0.27597599E+03</pdfrwt>
<totfact> 0.41604742E+03</totfact>
</mgrwt>
</event>
<event>
 9    1  0.2065703E-002  0.2753750E+03  0.7818608E-02  0.1098242E+00
          2   -1    0    0  501    0  0.00000000000E+00  0.00000000000E+00  0.82766360427E+03  0.82766360427E+03  0.00000000000E+00 0. -1.
         -2   -1    0    0    0  501 -0.00000000000E+00 -0.00000000000E+00 -0.22905262932E+02  0.22905262932E+02  0.00000000000E+00 0. -1.
         36    2    1    2    0    0 -0.88817841970E-15 -0.71054273576E-14  0.80475834134E+03  0.85056886720E+03  0.27537503500E+03 0.  0.
         25    2    3    3    0    0 -0.99845372465E+00  0.96542501849E+01  0.60902555946E+03  0.62169714968E+03  0.12450306172E+03 0.  0.
         25    2    3    3    0    0  0.99845372465E+00 -0.96542501849E+01  0.19573278187E+03  0.22887171753E+03  0.11822326221E+03 0.  0.
          5    1    4    4  502    0 -0.61985733443E+01 -0.49288013439E+02  0.43445652654E+03  0.43731258160E+03  0.47000000000E+01 0.  1.
         -5    1    4    4    0  502  0.52001196197E+01  0.58942263624E+02  0.17456903293E+03  0.18438456807E+03  0.47000000000E+01 0.  1.
          5    1    5    5  503    0 -0.41855768383E+01  0.51952160701E+02  0.59792530178E+02  0.79459314873E+02  0.47000000000E+01 0.  1.
         -5    1    5    5    0  503  0.51840305630E+01 -0.61606410886E+02  0.13594025170E+03  0.14941240265E+03  0.47000000000E+01 0.  1.
<mgrwt>
<rscale>  0 0.27537503E+03</rscale>
<asrwt>0</asrwt>
<pdfrwt beam="1">  1        2 0.12733284E+00 0.27537503E+03</pdfrwt>
<pdfrwt beam="2">  1       -2 0.35238872E-02 0.27537503E+03</pdfrwt>
<totfact> 0.11259354E+04</totfact>
</mgrwt>
</event>
<event>
 9    1  0.2065703E-002  0.2745329E+03  0.7818608E-02  0.1098713E+00
         -2   -1    0    0    0  501 -0.00000000000E+00  0.00000000000E+00  0.18997374945E+02  0.18997374945E+02  0.00000000000E+00 0.  1.
          2   -1    0    0  501    0  0.00000000000E+00 -0.00000000000E+00 -0.99182521087E+03  0.99182521087E+03  0.00000000000E+00 0.  1.
         36    2    1    2    0    0  0.00000000000E+00  0.71054273576E-14 -0.97282783593E+03  0.10108225858E+04  0.27453287898E+03 0.  0.
         25    2    3    3    0    0  0.22485757253E+02  0.28925664101E+02 -0.30259611714E+03  0.32826500182E+03  0.12186549140E+03 0.  0.
         25    2    3    3    0    0 -0.22485757253E+02 -0.28925664101E+02 -0.67023171879E+03  0.68255758399E+03  0.12382243443E+03 0.  0.
          5    1    4    4  502    0 -0.22126456489E+00 -0.36945096392E+01  0.10787956921E+02  0.12335654584E+02  0.47000000000E+01 0. -1.
         -5    1    4    4    0  502  0.22707021818E+02  0.32620173741E+02 -0.31338407406E+03  0.31592934724E+03  0.47000000000E+01 0. -1.
          5    1    5    5  503    0  0.38860791820E+02 -0.99162472537E+01 -0.48053451194E+03  0.48222816204E+03  0.47000000000E+01 0.  1.
         -5    1    5    5    0  503 -0.61346549073E+02 -0.19009416848E+02 -0.18969720685E+03  0.20032942195E+03  0.47000000000E+01 0.  1.
<mgrwt>
<rscale>  0 0.27453288E+03</rscale>
<asrwt>0</asrwt>
<pdfrwt beam="1">  1        2 0.15258848E+00 0.27453288E+03</pdfrwt>
<pdfrwt beam="2">  1       -2 0.29226733E-02 0.27453288E+03</pdfrwt>
<totfact> 0.11668617E+04</totfact>
</mgrwt>
</event>
<event>
 9    1  0.2065703E-002  0.2748003E+03  0.7818608E-02  0.1098563E+00
         -2   -1    0    0    0  501 -0.00000000000E+00  0.00000000000E+00  0.33488050301E+03  0.33488050301E+03  0.00000000000E+00 0.  1.
          2   -1    0    0  501    0  0.00000000000E+00 -0.00000000000E+00 -0.56374741846E+02  0.56374741846E+02  0.00000000000E+00 0.  1.
         36    2    1    2    0    0 -0.14210854715E-13 -0.71054273576E-14  0.27850576116E+03  0.39125524485E+03  0.27480030499E+03 0.  0.
         25    2    3    3    0    0  0.43495893522E+02  0.25409869656E+02  0.13654654220E+03  0.19508166765E+03  0.12990128805E+03 0.  0.
         25    2    3    3    0    0 -0.43495893522E+02 -0.25409869656E+02  0.14195921896E+03  0.19617357720E+03  0.12567457307E+03 0.  0.
          5    1    4    4  502    0  0.72211013104E+02 -0.26686385241E+02  0.95021436107E+02  0.12238364634E+03  0.47000000000E+01 0. -1.
         -5    1    4    4    0  502 -0.28715119581E+02  0.52096254897E+02  0.41525106090E+02  0.72698021312E+02  0.47000000000E+01 0. -1.
          5    1    5    5  503    0  0.35332289639E+02 -0.35696208979E+02  0.29706270710E+02  0.58541801699E+02  0.47000000000E+01 0. -1.
         -5    1    5    5    0  503 -0.78828183161E+02  0.10286339323E+02  0.11225294825E+03  0.13763177551E+03  0.47000000000E+01 0. -1.
<mgrwt>
<rscale>  0 0.27480030E+03</rscale>
<asrwt>0</asrwt>
<pdfrwt beam="1">  1        2 0.86730374E-02 0.27480030E+03</pdfrwt>
<pdfrwt beam="2">  1       -2 0.51520076E-01 0.27480030E+03</pdfrwt>
<totfact> 0.27638908E+03</totfact>
</mgrwt>
</event>
<event>
 9    1  0.2065703E-002  0.2738311E+03  0.7818608E-02  0.1099107E+00
          1   -1    0    0  501    0  0.00000000000E+00  0.00000000000E+00  0.39293093907E+03  0.39293093907E+03  0.00000000000E+00 0.  1.
         -1   -1    0    0    0  501 -0.00000000000E+00 -0.00000000000E+00 -0.47707778268E+02  0.47707778268E+02  0.00000000000E+00 0.  1.
         36    2    1    2    0    0 -0.35527136788E-14 -0.71054273576E-14  0.34522316080E+03  0.44063871734E+03  0.27383105825E+03 0.  0.
         25    2    3    3    0    0 -0.31598812357E+02  0.45123437410E+02  0.16501058610E+03  0.21504419402E+03  0.12641559363E+03 0.  0.
         25    2    3    3    0    0  0.31598812357E+02 -0.45123437410E+02  0.18021257471E+03  0.22559452331E+03  0.12402301126E+03 0.  0.
          5    1    4    4  502    0 -0.37531583198E+02 -0.21000002557E+02  0.13550139068E+03  0.14224041873E+03  0.47000000000E+01 0.  1.
         -5    1    4    4    0  502  0.59327708412E+01  0.66123439967E+02  0.29509195420E+02  0.72803775296E+02  0.47000000000E+01 0.  1.
          5    1    5    5  503    0 -0.21492663435E+02  0.21735370753E+01 -0.86471724042E+01  0.23738627499E+02  0.47000000000E+01 0. -1.
         -5    1    5    5    0  503  0.53091475792E+02 -0.47296974486E+02  0.18885974711E+03  0.20185589582E+03  0.47000000000E+01 0. -1.
<mgrwt>
<rscale>  0 0.27383106E+03</rscale>
<asrwt>0</asrwt>
<pdfrwt beam="1">  1        1 0.60450911E-01 0.27383106E+03</pdfrwt>
<pdfrwt beam="2">  1       -1 0.73396585E-02 0.27383106E+03</pdfrwt>
<totfact> 0.60564889E+03</totfact>
</mgrwt>
</event>
<event>
 9    1  0.2065703E-002  0.2750890E+03  0.7818608E-02  0.1098402E+00
         -3   -1    0    0    0  501 -0.00000000000E+00  0.00000000000E+00  0.92155162772E+02  0.92155162772E+02  0.00000000000E+00 0.  1.
          3   -1    0    0  501    0  0.00000000000E+00 -0.00000000000E+00 -0.20528954208E+03  0.20528954208E+03  0.00000000000E+00 0.  1.
         36    2    1    2    0    0  0.00000000000E+00  0.14210854715E-13 -0.11313437931E+03  0.29744470485E+03  0.27508901225E+03 0.  0.
         25    2    3    3    0    0 -0.24136167247E+02 -0.35196509770E+02 -0.84113547236E+02  0.16412951800E+03  0.13432073921E+03 0.  0.
         25    2    3    3    0    0  0.24136167247E+02  0.35196509770E+02 -0.29020832070E+02  0.13331518685E+03  0.12292022405E+03 0.  0.
          5    1    4    4  502    0  0.35608486649E+02  0.17578643586E+02 -0.73364539086E+02  0.83554883921E+02  0.47000000000E+01 0.  1.
         -5    1    4    4    0  502 -0.59744653896E+02 -0.52775153356E+02 -0.10749008149E+02  0.80574634080E+02  0.47000000000E+01 0.  1.
          5    1    5    5  503    0 -0.29303651917E+02 -0.29777824519E+02 -0.25101221329E+02  0.48965132094E+02  0.47000000000E+01 0.  1.
         -5    1    5    5    0  503  0.53439819164E+02  0.64974334289E+02 -0.39196107406E+01  0.84350054754E+02  0.47000000000E+01 0.  1.
<mgrwt>
<rscale>  0 0.27508901E+03</rscale>
<asrwt>0</asrwt>
<pdfrwt beam="1">  1        3 0.31583006E-01 0.27508901E+03</pdfrwt>
<pdfrwt beam="2">  1       -3 0.14177717E-01 0.27508901E+03</pdfrwt>
<totfact> 0.10144029E+03</totfact>
</mgrwt>
</event>
<event>
 9    1  0.2065703E-002  0.2749675E+03  0.7818608E-02  0.1098470E+00
          2   -1    0    0  501    0  0.00000000000E+00  0.00000000000E+00  0.53574455255E+03  0.53574455255E+03  0.00000000000E+00 0. -1.
         -2   -1    0    0    0  501 -0.00000000000E+00 -0.00000000000E+00 -0.35281337552E+02  0.35281337552E+02  0.00000000000E+00 0. -1.
         36    2    1    2    0    0 -0.17763568394E-14  0.00000000000E+00  0.50046321499E+03  0.57102589010E+03  0.27496752099E+03 0.  0.
         25    2    3    3    0    0  0.11629253220E+02  0.16888517550E+02  0.35798117963E+03  0.37906722585E+03  0.12296737450E+03 0.  0.
         25    2    3    3    0    0 -0.11629253220E+02 -0.16888517550E+02  0.14248203537E+03  0.19195866425E+03  0.12699030208E+03 0.  0.
          5    1    4    4  502    0  0.37977872625E+02 -0.37815035779E+02  0.24374519570E+03  0.24961191110E+03  0.47000000000E+01 0. -1.
         -5    1    4    4    0  502 -0.26348619405E+02  0.54703553329E+02  0.11423598393E+03  0.12945531475E+03  0.47000000000E+01 0. -1.
          5    1    5    5  503    0 -0.11585021952E+02  0.47926598328E+02  0.20219516388E+02  0.53498508427E+02  0.47000000000E+01 0. -1.
         -5    1    5    5    0  503 -0.44231267313E-01 -0.64815115878E+02  0.12226251898E+03  0.13846015582E+03  0.47000000000E+01 0. -1.
<mgrwt>
<rscale>  0 0.27496752E+03</rscale>
<asrwt>0</asrwt>
<pdfrwt beam="1">  1        2 0.82422233E-01 0.27496752E+03</pdfrwt>
<pdfrwt beam="2">  1       -2 0.54278985E-02 0.27496752E+03</pdfrwt>
<totfact> 0.98823578E+03</totfact>
</mgrwt>
</event>
<event>
 9    1  0.2065703E-002  0.2752782E+03  0.7818608E-02  0.1098296E+00
         -1   -1    0    0    0  501 -0.00000000000E+00  0.00000000000E+00  0.12008204862E+04  0.12008204862E+04  0.00000000000E+00 0. -1.
          1   -1    0    0  501    0  0.00000000000E+00 -0.00000000000E+00 -0.15776310529E+02  0.15776310529E+02  0.00000000000E+00 0. -1.
         36    2    1    2    0    0  0.00000000000E+00  0.00000000000E+00  0.11850441756E+04  0.12165967967E+04  0.27527816389E+03 0.  0.
         25    2    3    3    0    0 -0.40155619847E+02  0.17925153181E+02  0.69022097039E+03  0.70279321422E+03  0.12481798371E+03 0.  0.
         25    2    3    3    0    0  0.40155619847E+02 -0.17925153181E+02  0.49482320525E+03  0.51380358248E+03  0.13118815494E+03 0.  0.
          5    1    4    4  502    0 -0.47962248035E+02 -0.42915181878E+02  0.45959704043E+03  0.46410518166E+03  0.47000000000E+01 0. -1.
         -5    1    4    4    0  502  0.78066281875E+01  0.60840335060E+02  0.23062392997E+03  0.23868803256E+03  0.47000000000E+01 0. -1.
          5    1    5    5  503    0  0.84602669188E+02 -0.16528563058E+02  0.23927639984E+03  0.25437391877E+03  0.47000000000E+01 0. -1.
         -5    1    5    5    0  503 -0.44447049341E+02 -0.13965901237E+01  0.25554680541E+03  0.25942966371E+03  0.47000000000E+01 0. -1.
<mgrwt>
<rscale>  0 0.27527816E+03</rscale>
<asrwt>0</asrwt>
<pdfrwt beam="1">  1        1 0.24271256E-02 0.27527816E+03</pdfrwt>
<pdfrwt beam="2">  1       -1 0.18474154E+00 0.27527816E+03</pdfrwt>
<totfact> 0.97477100E+02</totfact>
</mgrwt>
</event>
<event>
 9    1  0.2065703E-002  0.2748838E+03  0.7818608E-02  0.1098517E+00
         -1   -1    0    0    0  501 -0.00000000000E+00  0.00000000000E+00  0.82069853703E+03  0.82069853703E+03  0.00000000000E+00 0.  1.
          1   -1    0    0  501    0  0.00000000000E+00 -0.00000000000E+00 -0.23017312867E+02  0.23017312867E+02  0.00000000000E+00 0.  1.
         36    2    1    2    0    0  0.00000000000E+00  0.00000000000E+00  0.79768122416E+03  0.84371584990E+03  0.27488379360E+03 0.  0.
         25    2    3    3    0    0  0.41000021152E+02  0.43234321592E+02  0.36345689087E+03  0.38901365492E+03  0.12522181878E+03 0.  0.
         25    2    3    3    0    0 -0.41000021152E+02 -0.43234321592E+02  0.43422433329E+03  0.45470219497E+03  0.12105001525E+03 0.  0.
          5    1    4    4  502    0  0.80272713544E+02  0.54983963152E+02  0.25625246734E+03  0.27414295862E+03  0.47000000000E+01 0.  1.
         -5    1    4    4    0  502 -0.39272692392E+02 -0.11749641560E+02  0.10720442353E+03  0.11487069630E+03  0.47000000000E+01 0.  1.
          5    1    5    5  503    0 -0.69178005695E+01 -0.66762855746E+02  0.38201796660E+03  0.38789812023E+03  0.47000000000E+01 0. -1.
         -5    1    5    5    0  503 -0.34082220583E+02  0.23528534154E+02  0.52206366691E+02  0.66804074744E+02  0.47000000000E+01 0. -1.
<mgrwt>
<rscale>  0 0.27488379E+03</rscale>
<asrwt>0</asrwt>
<pdfrwt beam="1">  1        1 0.35411257E-02 0.27488379E+03</pdfrwt>
<pdfrwt beam="2">  1       -1 0.12626129E+00 0.27488379E+03</pdfrwt>
<totfact> 0.15771325E+03</totfact>
</mgrwt>
</event>
<event>
 9    1  0.2065703E-002  0.2753967E+03  0.7818608E-02  0.1098230E+00
         -2   -1    0    0    0  501 -0.00000000000E+00  0.00000000000E+00  0.20007918301E+02  0.20007918301E+02  0.00000000000E+00 0. -1.
          2   -1    0    0  501    0  0.00000000000E+00 -0.00000000000E+00 -0.94766673383E+03  0.94766673383E+03  0.00000000000E+00 0. -1.
         36    2    1    2    0    0 -0.17763568394E-14  0.00000000000E+00 -0.92765881552E+03  0.96767465213E+03  0.27539672175E+03 0.  0.
         25    2    3    3    0    0 -0.76402778281E+01  0.44321352709E+02 -0.33328459763E+03  0.35875909587E+03  0.12492681738E+03 0.  0.
         25    2    3    3    0    0  0.76402778281E+01 -0.44321352709E+02 -0.59437421789E+03  0.60891555626E+03  0.12439729741E+03 0.  0.
          5    1    4    4  502    0  0.17584694709E+02  0.56046732361E+02 -0.60271723871E+02  0.84292516838E+02  0.47000000000E+01 0. -1.
         -5    1    4    4    0  502 -0.25224972537E+02 -0.11725379652E+02 -0.27301287376E+03  0.27446657903E+03  0.47000000000E+01 0. -1.
          5    1    5    5  503    0  0.60613429189E+01 -0.53496063851E+02 -0.93965789807E+02  0.10839847037E+03  0.47000000000E+01 0. -1.
         -5    1    5    5    0  503  0.15789349092E+01  0.91747111417E+01 -0.50040842809E+03  0.50051708588E+03  0.47000000000E+01 0. -1.
<mgrwt>
<rscale>  0 0.27539672E+03</rscale>
<asrwt>0</asrwt>
<pdfrwt beam="1">  1        2 0.14579489E+00 0.27539672E+03</pdfrwt>
<pdfrwt beam="2">  1       -2 0.30781410E-02 0.27539672E+03</pdfrwt>
<totfact> 0.11508510E+04</totfact>
</mgrwt>
</event>
<event>
 9    1  0.2065703E-002  0.2744856E+03  0.7818608E-02  0.1098739E+00
         -1   -1    0    0    0  501 -0.00000000000E+00  0.00000000000E+00  0.78886069679E+02  0.78886069679E+02  0.00000000000E+00 0. -1.
          1   -1    0    0  501    0  0.00000000000E+00 -0.00000000000E+00 -0.23876948869E+03  0.23876948869E+03  0.00000000000E+00 0. -1.
         36    2    1    2    0    0  0.35527136788E-14 -0.35527136788E-14 -0.15988341901E+03  0.31765555837E+03  0.27448560270E+03 0.  0.
         25    2    3    3    0    0  0.26664397363E+02  0.14329924896E+02 -0.27440853927E+02  0.12920082247E+03  0.12257045006E+03 0.  0.
         25    2    3    3    0    0 -0.26664397363E+02 -0.14329924896E+02 -0.13244256508E+03  0.18845473589E+03  0.13060558028E+03 0.  0.
          5    1    4    4  502    0 -0.87192081014E+01 -0.39780865590E+02  0.23052491741E+02  0.47032427457E+02  0.47000000000E+01 0. -1.
         -5    1    4    4    0  502  0.35383605464E+02  0.54110790486E+02 -0.50493345668E+02  0.82168395016E+02  0.47000000000E+01 0. -1.
          5    1    5    5  503    0  0.47345136304E+02  0.20259434533E+02 -0.59540373926E+02  0.78861605021E+02  0.47000000000E+01 0.  1.
         -5    1    5    5    0  503 -0.74009533667E+02 -0.34589359429E+02 -0.72902191153E+02  0.10959313087E+03  0.47000000000E+01 0.  1.
<mgrwt>
<rscale>  0 0.27448560E+03</rscale>
<asrwt>0</asrwt>
<pdfrwt beam="1">  1        1 0.36733767E-01 0.27448560E+03</pdfrwt>
<pdfrwt beam="2">  1       -1 0.12136319E-01 0.27448560E+03</pdfrwt>
<totfact> 0.52317598E+03</totfact>
</mgrwt>
</event>
<event>
 9    1  0.2065703E-002  0.2747827E+03  0.7818608E-02  0.1098573E+00
          1   -1    0    0  501    0  0.00000000000E+00  0.00000000000E+00  0.74270999883E+03  0.74270999883E+03  0.00000000000E+00 0. -1.
         -1   -1    0    0    0  501 -0.00000000000E+00 -0.00000000000E+00 -0.25415551237E+02  0.25415551237E+02  0.00000000000E+00 0. -1.
         36    2    1    2    0    0 -0.71054273576E-14  0.00000000000E+00  0.71729444759E+03  0.76812555006E+03  0.27478270709E+03 0.  0.
         25    2    3    3    0    0 -0.37008757128E+02 -0.20865779837E+02  0.30653697699E+03  0.33500631291E+03  0.12829373545E+03 0.  0.
         25    2    3    3    0    0  0.37008757128E+02  0.20865779837E+02  0.41075747060E+03  0.43311923715E+03  0.13063516015E+03 0.  0.
          5    1    4    4  502    0  0.19237911025E+02 -0.61584024821E+02  0.12890000364E+03  0.14422201729E+03  0.47000000000E+01 0.  1.
         -5    1    4    4    0  502 -0.56246668153E+02  0.40718244984E+02  0.17763697335E+03  0.19078429562E+03  0.47000000000E+01 0.  1.
          5    1    5    5  503    0  0.33105785822E+02  0.74987774352E+02  0.26931293070E+03  0.28155053543E+03  0.47000000000E+01 0.  1.
         -5    1    5    5    0  503  0.39029713057E+01 -0.54121994516E+02  0.14144453989E+03  0.15156870172E+03  0.47000000000E+01 0.  1.
<mgrwt>
<rscale>  0 0.27478271E+03</rscale>
<asrwt>0</asrwt>
<pdfrwt beam="1">  1        1 0.11426306E+00 0.27478271E+03</pdfrwt>
<pdfrwt beam="2">  1       -1 0.39100854E-02 0.27478271E+03</pdfrwt>
<totfact> 0.65511094E+03</totfact>
</mgrwt>
</event>
<event>
 9    1  0.2065703E-002  0.2747558E+03  0.7818608E-02  0.1098588E+00
          1   -1    0    0  501    0  0.00000000000E+00  0.00000000000E+00  0.39863216586E+03  0.39863216586E+03  0.00000000000E+00 0.  1.
         -1   -1    0    0    0  501 -0.00000000000E+00 -0.00000000000E+00 -0.47343631153E+02  0.47343631153E+02  0.00000000000E+00 0.  1.
         36    2    1    2    0    0 -0.71054273576E-14  0.00000000000E+00  0.35128853471E+03  0.44597579702E+03  0.27475584963E+03 0.  0.
         25    2    3    3    0    0 -0.52778248527E+02  0.64121057666E+01  0.19365986438E+03  0.23783947531E+03  0.12742375886E+03 0.  0.
         25    2    3    3    0    0  0.52778248527E+02 -0.64121057666E+01  0.15762867033E+03  0.20813632171E+03  0.12508905663E+03 0.  0.
          5    1    4    4  502    0 -0.84891016623E+02 -0.21442733999E+02  0.16342679332E+03  0.18546342582E+03  0.47000000000E+01 0.  1.
         -5    1    4    4    0  502  0.32112768097E+02  0.27854839765E+02  0.30233071067E+02  0.52376049481E+02  0.47000000000E+01 0.  1.
          5    1    5    5  503    0  0.14980989703E+02 -0.39212546572E+02 -0.46759392151E+00  0.42241715225E+02  0.47000000000E+01 0. -1.
         -5    1    5    5    0  503  0.37797258824E+02  0.32800440805E+02  0.15809626425E+03  0.16589460649E+03  0.47000000000E+01 0. -1.
<mgrwt>
<rscale>  0 0.27475585E+03</rscale>
<asrwt>0</asrwt>
<pdfrwt beam="1">  1        1 0.61328023E-01 0.27475585E+03</pdfrwt>
<pdfrwt beam="2">  1       -1 0.72836358E-02 0.27475585E+03</pdfrwt>
<totfact> 0.60160850E+03</totfact>
</mgrwt>
</event>
<event>
 9    1  0.2065703E-002  0.2753529E+03  0.7818608E-02  0.1098254E+00
          2   -1    0    0  501    0  0.00000000000E+00  0.00000000000E+00  0.30527467701E+04  0.30527467701E+04  0.00000000000E+00 0.  1.
         -2   -1    0    0    0  501 -0.00000000000E+00 -0.00000000000E+00 -0.62090995957E+01  0.62090995957E+01  0.00000000000E+00 0.  1.
         36    2    1    2    0    0  0.00000000000E+00  0.00000000000E+00  0.30465376705E+04  0.30589558697E+04  0.27535292797E+03 0.  0.
         25    2    3    3    0    0 -0.45151736466E+02  0.36569319217E+02  0.15008676629E+04  0.15071685491E+04  0.12480905194E+03 0.  0.
         25    2    3    3    0    0  0.45151736466E+02 -0.36569319217E+02  0.15456700076E+04  0.15517873206E+04  0.12478830689E+03 0.  0.
          5    1    4    4  502    0 -0.19869515628E+02  0.28974540503E+02  0.14425126472E+04  0.14429480757E+04  0.47000000000E+01 0.  1.
         -5    1    4    4    0  502 -0.25282220838E+02  0.75947787143E+01  0.58355015653E+02  0.64220473418E+02  0.47000000000E+01 0.  1.
          5    1    5    5  503    0 -0.17120826366E+02 -0.53828846574E+02  0.36831414551E+03  0.37265005998E+03  0.47000000000E+01 0. -1.
         -5    1    5    5    0  503  0.62272562832E+02  0.17259527357E+02  0.11773558621E+04  0.11791372607E+04  0.47000000000E+01 0. -1.
<mgrwt>
<rscale>  0 0.27535293E+03</rscale>
<asrwt>0</asrwt>
<pdfrwt beam="1">  1        2 0.46965215E+00 0.27535293E+03</pdfrwt>
<pdfrwt beam="2">  1       -2 0.95524853E-03 0.27535293E+03</pdfrwt>
<totfact> 0.44164148E+03</totfact>
</mgrwt>
</event>
<event>
 9    1  0.2065703E-002  0.2750921E+03  0.7818608E-02  0.1098400E+00
         -3   -1    0    0    0  501 -0.00000000000E+00  0.00000000000E+00  0.36091402482E+03  0.36091402482E+03  0.00000000000E+00 0. -1.
          3   -1    0    0  501    0  0.00000000000E+00 -0.00000000000E+00 -0.52419438389E+02  0.52419438389E+02  0.00000000000E+00 0. -1.
         36    2    1    2    0    0  0.35527136788E-14  0.35527136788E-14  0.30849458643E+03  0.41333346321E+03  0.27509206087E+03 0.  0.
         25    2    3    3    0    0 -0.21429444109E+02  0.24048005415E+02  0.98830936935E+02  0.16580798807E+03  0.12917897341E+03 0.  0.
         25    2    3    3    0    0  0.21429444109E+02 -0.24048005415E+02  0.20966364950E+03  0.24752547515E+03  0.12756365974E+03 0.  0.
          5    1    4    4  502    0  0.18111877794E+02  0.69343114911E+01  0.11708933592E+03  0.11877763838E+03  0.47000000000E+01 0.  1.
         -5    1    4    4    0  502 -0.39541321903E+02  0.17113693924E+02 -0.18258398989E+02  0.47030349682E+02  0.47000000000E+01 0.  1.
          5    1    5    5  503    0  0.52468049851E+02  0.33234274736E+02  0.13262040181E+03  0.14651851162E+03  0.47000000000E+01 0. -1.
         -5    1    5    5    0  503 -0.31038605742E+02 -0.57282280151E+02  0.77043247694E+02  0.10100696353E+03  0.47000000000E+01 0. -1.
<mgrwt>
<rscale>  0 0.27509206E+03</rscale>
<asrwt>0</asrwt>
<pdfrwt beam="1">  1        3 0.80645292E-02 0.27509206E+03</pdfrwt>
<pdfrwt beam="2">  1       -3 0.55525233E-01 0.27509206E+03</pdfrwt>
<totfact> 0.86422895E+02</totfact>
</mgrwt>
</event>
<event>
 9    1  0.2065703E-002  0.2752126E+03  0.7818608E-02  0.1098333E+00
         -2   -1    0    0    0  501 -0.00000000000E+00  0.00000000000E+00  0.72824717416E+01  0.72824717416E+01  0.00000000000E+00 0. -1.
          2   -1    0    0  501    0  0.00000000000E+00 -0.00000000000E+00 -0.26001474305E+04  0.26001474305E+04  0.00000000000E+00 0. -1.
         36    2    1    2    0    0 -0.71054273576E-14  0.00000000000E+00 -0.25928649588E+04  0.26074299023E+04  0.27521264642E+03 0.  0.
         25    2    3    3    0    0  0.33603558932E+02 -0.40198824117E+02 -0.15101024113E+04  0.15162303041E+04  0.12569764412E+03 0.  0.
         25    2    3    3    0    0 -0.33603558932E+02  0.40198824117E+02 -0.10827625474E+04  0.10911995981E+04  0.12488668558E+03 0.  0.
          5    1    4    4  502    0  0.78686649999E+02 -0.41396927838E+02 -0.11104943579E+04  0.11140579444E+04  0.47000000000E+01 0.  1.
         -5    1    4    4    0  502 -0.45083091066E+02  0.11981037214E+01 -0.39960805339E+03  0.40217235968E+03  0.47000000000E+01 0.  1.
          5    1    5    5  503    0  0.24202769925E+02  0.34228485222E+02 -0.85675424949E+03  0.85779210610E+03  0.47000000000E+01 0. -1.
         -5    1    5    5    0  503 -0.57806328857E+02  0.59703388941E+01 -0.22600829795E+03  0.23340749205E+03  0.47000000000E+01 0. -1.
<mgrwt>
<rscale>  0 0.27521265E+03</rscale>
<asrwt>0</asrwt>
<pdfrwt beam="1">  1        2 0.40002229E+00 0.27521265E+03</pdfrwt>
<pdfrwt beam="2">  1       -2 0.11203814E-02 0.27521265E+03</pdfrwt>
<totfact> 0.63812035E+03</totfact>
</mgrwt>
</event>
<event>
 9    1  0.2065703E-002  0.2752219E+03  0.7818608E-02  0.1098328E+00
         -2   -1    0    0    0  501 -0.00000000000E+00  0.00000000000E+00  0.14025033965E+04  0.14025033965E+04  0.00000000000E+00 0. -1.
          2   -1    0    0  501    0  0.00000000000E+00 -0.00000000000E+00 -0.13502124883E+02  0.13502124883E+02  0.00000000000E+00 0. -1.
         36    2    1    2    0    0 -0.35527136788E-14  0.00000000000E+00  0.13890012716E+04  0.14160055213E+04  0.27522191779E+03 0.  0.
         25    2    3    3    0    0  0.24090896956E+01 -0.37703372656E+02  0.54114800519E+03  0.55654004569E+03  0.12437166445E+03 0.  0.
         25    2    3    3    0    0 -0.24090896956E+01  0.37703372656E+02  0.84785326639E+03  0.85946547565E+03  0.13564068153E+03 0.  0.
          5    1    4    4  502    0  0.60082784477E+02 -0.22264950596E+02  0.19676648654E+03  0.20698987715E+03  0.47000000000E+01 0. -1.
         -5    1    4    4    0  502 -0.57673694782E+02 -0.15438422061E+02  0.34438151864E+03  0.34955016854E+03  0.47000000000E+01 0. -1.
          5    1    5    5  503    0  0.21360512987E+02 -0.36991407231E+01  0.18947695145E+02  0.29172937947E+02  0.47000000000E+01 0.  1.
         -5    1    5    5    0  503 -0.23769602683E+02  0.41402513379E+02  0.82890557125E+03  0.83029253771E+03  0.47000000000E+01 0.  1.
<mgrwt>
<rscale>  0 0.27522192E+03</rscale>
<asrwt>0</asrwt>
<pdfrwt beam="1">  1        2 0.20772511E-02 0.27522192E+03</pdfrwt>
<pdfrwt beam="2">  1       -2 0.21576964E+00 0.27522192E+03</pdfrwt>
<totfact> 0.59769483E+02</totfact>
</mgrwt>
</event>
<event>
 9    1  0.2065703E-002  0.2747980E+03  0.7818608E-02  0.1098565E+00
         -2   -1    0    0    0  501 -0.00000000000E+00  0.00000000000E+00  0.14822158134E+02  0.14822158134E+02  0.00000000000E+00 0. -1.
          2   -1    0    0  501    0  0.00000000000E+00 -0.00000000000E+00 -0.12736668782E+04  0.12736668782E+04  0.00000000000E+00 0. -1.
         36    2    1    2    0    0  0.00000000000E+00  0.00000000000E+00 -0.12588447201E+04  0.12884890364E+04  0.27479804860E+03 0.  0.
         25    2    3    3    0    0  0.13596544189E+02  0.28622182537E+02 -0.24009262016E+03  0.26139757605E+03  0.98387657582E+02 0.  0.
         25    2    3    3    0    0 -0.13596544189E+02 -0.28622182537E+02 -0.10187521000E+04  0.10270914603E+04  0.12671594758E+03 0.  0.
          5    1    4    4  502    0  0.30095570970E+02  0.59311072628E+02 -0.17744885549E+03  0.18956195041E+03  0.47000000000E+01 0. -1.
         -5    1    4    4    0  502 -0.16499026781E+02 -0.30688890091E+02 -0.62643764667E+02  0.71835625642E+02  0.47000000000E+01 0. -1.
          5    1    5    5  503    0 -0.61675472450E+02  0.27383144710E+01 -0.73192037906E+03  0.73453447404E+03  0.47000000000E+01 0. -1.
         -5    1    5    5    0  503  0.48078928261E+02 -0.31360497008E+02 -0.28683172089E+03  0.29255698629E+03  0.47000000000E+01 0. -1.
<mgrwt>
<rscale>  0 0.27479805E+03</rscale>
<asrwt>0</asrwt>
<pdfrwt beam="1">  1        2 0.19594870E+00 0.27479805E+03</pdfrwt>
<pdfrwt beam="2">  1       -2 0.22803326E-02 0.27479805E+03</pdfrwt>
<totfact> 0.11549441E+04</totfact>
</mgrwt>
</event>
<event>
 9    1  0.2065703E-002  0.2745704E+03  0.7818608E-02  0.1098692E+00
          1   -1    0    0  501    0  0.00000000000E+00  0.00000000000E+00  0.42806756885E+02  0.42806756885E+02  0.00000000000E+00 0.  1.
         -1   -1    0    0    0  501 -0.00000000000E+00 -0.00000000000E+00 -0.44028613518E+03  0.44028613518E+03  0.00000000000E+00 0.  1.
         36    2    1    2    0    0  0.00000000000E+00  0.35527136788E-14 -0.39747937829E+03  0.48309289206E+03  0.27457036656E+03 0.  0.
         25    2    3    3    0    0 -0.41444357891E+02  0.28883852646E+02 -0.21399603456E+03  0.25360282743E+03  0.12636526236E+03 0.  0.
         25    2    3    3    0    0  0.41444357891E+02 -0.28883852646E+02 -0.18348334373E+03  0.22949006463E+03  0.12824835512E+03 0.  0.
          5    1    4    4  502    0 -0.16824013506E+02  0.44961288832E+02 -0.12378921411E+02  0.49798520251E+02  0.47000000000E+01 0.  1.
         -5    1    4    4    0  502 -0.24620344384E+02 -0.16077436186E+02 -0.20161711315E+03  0.20380430718E+03  0.47000000000E+01 0.  1.
          5    1    5    5  503    0  0.32594205103E+02  0.32139230346E+02 -0.15447709254E+03  0.16118490764E+03  0.47000000000E+01 0. -1.
         -5    1    5    5    0  503  0.88501527880E+01 -0.61023082992E+02 -0.29006251196E+02  0.68305156984E+02  0.47000000000E+01 0. -1.
<mgrwt>
<rscale>  0 0.27457037E+03</rscale>
<asrwt>0</asrwt>
<pdfrwt beam="1">  1        1 0.65856550E-02 0.27457037E+03</pdfrwt>
<pdfrwt beam="2">  1       -1 0.67736327E-01 0.27457037E+03</pdfrwt>
<totfact> 0.25947728E+03</totfact>
</mgrwt>
</event>
<event>
 9    1  0.2065703E-002  0.2747635E+03  0.7818608E-02  0.1098584E+00
          2   -1    0    0  501    0  0.00000000000E+00  0.00000000000E+00  0.79338848416E+03  0.79338848416E+03  0.00000000000E+00 0. -1.
         -2   -1    0    0    0  501 -0.00000000000E+00 -0.00000000000E+00 -0.23788787875E+02  0.23788787875E+02  0.00000000000E+00 0. -1.
         36    2    1    2    0    0  0.00000000000E+00  0.00000000000E+00  0.76959969629E+03  0.81717727204E+03  0.27476353726E+03 0.  0.
         25    2    3    3    0    0  0.17457662742E+02  0.33342394254E+02  0.19757445938E+03  0.23085798640E+03  0.11332809733E+03 0.  0.
         25    2    3    3    0    0 -0.17457662742E+02 -0.33342394254E+02  0.57202523691E+03  0.58631928564E+03  0.12304855872E+03 0.  0.
          5    1    4    4  502    0 -0.32174564543E+02 -0.10394316018E+02  0.13648718726E+03  0.14069145921E+03  0.47000000000E+01 0. -1.
         -5    1    4    4    0  502  0.49632227285E+02  0.43736710271E+02  0.61087272116E+02  0.90166527188E+02  0.47000000000E+01 0. -1.
          5    1    5    5  503    0 -0.54730565441E+02 -0.18705227663E+02  0.50334479659E+03  0.50667878837E+03  0.47000000000E+01 0.  1.
         -5    1    5    5    0  503  0.37272902700E+02 -0.14637166590E+02  0.68680440323E+02  0.79640497264E+02  0.47000000000E+01 0.  1.
<mgrwt>
<rscale>  0 0.27476354E+03</rscale>
<asrwt>0</asrwt>
<pdfrwt beam="1">  1        2 0.12205975E+00 0.27476354E+03</pdfrwt>
<pdfrwt beam="2">  1       -2 0.36598141E-02 0.27476354E+03</pdfrwt>
<totfact> 0.11229560E+04</totfact>
</mgrwt>
</event>
<event>
 9    1  0.2065703E-002  0.2737542E+03  0.7818608E-02  0.1099150E+00
         -3   -1    0    0    0  501 -0.00000000000E+00  0.00000000000E+00  0.79900886790E+01  0.79900886790E+01  0.00000000000E+00 0.  1.
          3   -1    0    0  501    0  0.00000000000E+00 -0.00000000000E+00 -0.23448234089E+04  0.23448234089E+04  0.00000000000E+00 0.  1.
         36    2    1    2    0    0  0.00000000000E+00  0.00000000000E+00 -0.23368333202E+04  0.23528134976E+04  0.27375424726E+03 0.  0.
         25    2    3    3    0    0 -0.26913773873E+01  0.32006834428E+02 -0.77566786422E+03  0.78618656363E+03  0.12408463360E+03 0.  0.
         25    2    3    3    0    0  0.26913773873E+01 -0.32006834428E+02 -0.15611654560E+04  0.15666269339E+04  0.12669131060E+03 0.  0.
          5    1    4    4  502    0  0.20184019242E+02  0.26588824583E+02 -0.75111383660E+03  0.75186996599E+03  0.47000000000E+01 0.  1.
         -5    1    4    4    0  502 -0.22875396630E+02  0.54180098453E+01 -0.24554027620E+02  0.34316597646E+02  0.47000000000E+01 0.  1.
          5    1    5    5  503    0 -0.15007819833E+02  0.16444092400E+02 -0.54340263107E+02  0.58911773234E+02  0.47000000000E+01 0. -1.
         -5    1    5    5    0  503  0.17699197221E+02 -0.48450926828E+02 -0.15068251929E+04  0.15077151607E+04  0.47000000000E+01 0. -1.
<mgrwt>
<rscale>  0 0.27375425E+03</rscale>
<asrwt>0</asrwt>
<pdfrwt beam="1">  1        3 0.36074266E+00 0.27375425E+03</pdfrwt>
<pdfrwt beam="2">  1       -3 0.12292424E-02 0.27375425E+03</pdfrwt>
<totfact> 0.10860283E+02</totfact>
</mgrwt>
</event>
<event>
 9    1  0.2065703E-002  0.2758121E+03  0.7818608E-02  0.1097999E+00
         -1   -1    0    0    0  501 -0.00000000000E+00  0.00000000000E+00  0.60223571008E+02  0.60223571008E+02  0.00000000000E+00 0.  1.
          1   -1    0    0  501    0  0.00000000000E+00 -0.00000000000E+00 -0.31579127057E+03  0.31579127057E+03  0.00000000000E+00 0.  1.
         36    2    1    2    0    0 -0.14210854715E-13 -0.35527136788E-14 -0.25556769956E+03  0.37601484158E+03  0.27581209551E+03 0.  0.
         25    2    3    3    0    0  0.59333158746E+02  0.13765546676E+02 -0.10621764519E+03  0.17324091580E+03  0.12255738556E+03 0.  0.
         25    2    3    3    0    0 -0.59333158746E+02 -0.13765546676E+02 -0.14935005437E+03  0.20277392578E+03  0.12288983779E+03 0.  0.
          5    1    4    4  502    0 -0.31451928914E+02  0.30711684522E+01  0.13769689569E+01  0.31978773453E+02  0.47000000000E+01 0. -1.
         -5    1    4    4    0  502  0.90785087660E+02  0.10694378224E+02 -0.10759461414E+03  0.14126214234E+03  0.47000000000E+01 0. -1.
          5    1    5    5  503    0 -0.61487590927E+02  0.44250011715E+02 -0.10502560343E+03  0.12958107405E+03  0.47000000000E+01 0.  1.
         -5    1    5    5    0  503  0.21544321806E+01 -0.58015558391E+02 -0.44324450938E+02  0.73192851730E+02  0.47000000000E+01 0.  1.
<mgrwt>
<rscale>  0 0.27581210E+03</rscale>
<asrwt>0</asrwt>
<pdfrwt beam="1">  1        1 0.48583272E-01 0.27581210E+03</pdfrwt>
<pdfrwt beam="2">  1       -1 0.92651649E-02 0.27581210E+03</pdfrwt>
<totfact> 0.55975821E+03</totfact>
</mgrwt>
</event>
<event>
 9    1  0.2065703E-002  0.2726860E+03  0.7818608E-02  0.1099752E+00
          2   -1    0    0  501    0  0.00000000000E+00  0.00000000000E+00  0.15000218955E+03  0.15000218955E+03  0.00000000000E+00 0. -1.
         -2   -1    0    0    0  501 -0.00000000000E+00 -0.00000000000E+00 -0.12392758194E+03  0.12392758194E+03  0.00000000000E+00 0. -1.
         36    2    1    2    0    0  0.71054273576E-14  0.35527136788E-14  0.26074607616E+02  0.27392977149E+03  0.27268596323E+03 0.  0.
         25    2    3    3    0    0 -0.43690637301E+02 -0.30413944539E+02  0.30255245084E+02  0.13835456277E+03  0.12406742269E+03 0.  0.
         25    2    3    3    0    0  0.43690637301E+02  0.30413944539E+02 -0.41806374683E+01  0.13557520872E+03  0.12461653052E+03 0.  0.
          5    1    4    4  502    0  0.61305382946E+01  0.42968010195E+01 -0.42536692861E+02  0.43445439787E+02  0.47000000000E+01 0.  1.
         -5    1    4    4    0  502 -0.49821175596E+02 -0.34710745559E+02  0.72791937945E+02  0.94909122979E+02  0.47000000000E+01 0.  1.
          5    1    5    5  503    0  0.74631455955E+02  0.54985422598E+02 -0.15733135235E+02  0.94142830107E+02  0.47000000000E+01 0. -1.
         -5    1    5    5    0  503 -0.30940818654E+02 -0.24571478059E+02  0.11552497767E+02  0.41432378614E+02  0.47000000000E+01 0. -1.
<mgrwt>
<rscale>  0 0.27268596E+03</rscale>
<asrwt>0</asrwt>
<pdfrwt beam="1">  1        2 0.23077260E-01 0.27268596E+03</pdfrwt>
<pdfrwt beam="2">  1       -2 0.19065782E-01 0.27268596E+03</pdfrwt>
<totfact> 0.53360896E+03</totfact>
</mgrwt>
</event>
<event>
 9    1  0.2065703E-002  0.2747210E+03  0.7818608E-02  0.1098608E+00
         -2   -1    0    0    0  501 -0.00000000000E+00  0.00000000000E+00  0.27161067950E+02  0.27161067950E+02  0.00000000000E+00 0. -1.
          2   -1    0    0  501    0  0.00000000000E+00 -0.00000000000E+00 -0.69466740086E+03  0.69466740086E+03  0.00000000000E+00 0. -1.
         36    2    1    2    0    0  0.35527136788E-14  0.00000000000E+00 -0.66750633291E+03  0.72182846881E+03  0.27472101104E+03 0.  0.
         25    2    3    3    0    0  0.27024177682E+02 -0.49865447367E+02 -0.30078624992E+03  0.32956797290E+03  0.12217123885E+03 0.  0.
         25    2    3    3    0    0 -0.27024177682E+02  0.49865447367E+02 -0.36672008299E+03  0.39226049591E+03  0.12715269702E+03 0.  0.
          5    1    4    4  502    0  0.17396025506E+02 -0.20154729475E+02 -0.29645922978E+03  0.29768943505E+03  0.47000000000E+01 0.  1.
         -5    1    4    4    0  502  0.96281521764E+01 -0.29710717892E+02 -0.43270201444E+01  0.31878537848E+02  0.47000000000E+01 0.  1.
          5    1    5    5  503    0  0.49187880755E+02  0.31352048421E+01 -0.12077339555E+03  0.13052808202E+03  0.47000000000E+01 0.  1.
         -5    1    5    5    0  503 -0.76212058437E+02  0.46730242525E+02 -0.24594668744E+03  0.26173241389E+03  0.47000000000E+01 0.  1.
<mgrwt>
<rscale>  0 0.27472101E+03</rscale>
<asrwt>0</asrwt>
<pdfrwt beam="1">  1        2 0.10687190E+00 0.27472101E+03</pdfrwt>
<pdfrwt beam="2">  1       -2 0.41786261E-02 0.27472101E+03</pdfrwt>
<totfact> 0.10846794E+04</totfact>
</mgrwt>
</event>
<event>
 9    1  0.2065703E-002  0.2735720E+03  0.7818608E-02  0.1099252E+00
         -1   -1    0    0    0  501 -0.00000000000E+00  0.00000000000E+00  0.63865271314E+02  0.63865271314E+02  0.00000000000E+00 0.  1.
          1   -1    0    0  501    0  0.00000000000E+00 -0.00000000000E+00 -0.29296690906E+03  0.29296690906E+03  0.00000000000E+00 0.  1.
         36    2    1    2    0    0  0.00000000000E+00  0.35527136788E-14 -0.22910163775E+03  0.35683218037E+03  0.27357200978E+03 0.  0.
         25    2    3    3    0    0  0.37923440249E+02  0.91948328804E+01 -0.10850505786E+03  0.17833825728E+03  0.13604577964E+03 0.  0.
         25    2    3    3    0    0 -0.37923440249E+02 -0.91948328804E+01 -0.12059657989E+03  0.17849392309E+03  0.12567343884E+03 0.  0.
          5    1    4    4  502    0 -0.43515302878E+02 -0.21539930360E+02 -0.16259225917E+02  0.51419865926E+02  0.47000000000E+01 0.  1.
         -5    1    4    4    0  502  0.81438743127E+02  0.30734763241E+02 -0.92245831942E+02  0.12691839136E+03  0.47000000000E+01 0.  1.
          5    1    5    5  503    0  0.31388342907E+02 -0.35019472473E+02 -0.15198235157E+02  0.49645421487E+02  0.47000000000E+01 0.  1.
         -5    1    5    5    0  503 -0.69311783156E+02  0.25824639593E+02 -0.10539834473E+03  0.12884850161E+03  0.47000000000E+01 0.  1.
<mgrwt>
<rscale>  0 0.27357201E+03</rscale>
<asrwt>0</asrwt>
<pdfrwt beam="1">  1        1 0.45071832E-01 0.27357201E+03</pdfrwt>
<pdfrwt beam="2">  1       -1 0.98254264E-02 0.27357201E+03</pdfrwt>
<totfact> 0.56179589E+03</totfact>
</mgrwt>
</event>
<event>
 9    1  0.2065703E-002  0.2751741E+03  0.7818608E-02  0.1098354E+00
          2   -1    0    0  501    0  0.00000000000E+00  0.00000000000E+00  0.19221323248E+04  0.19221323248E+04  0.00000000000E+00 0. -1.
         -2   -1    0    0    0  501 -0.00000000000E+00 -0.00000000000E+00 -0.98485422452E+01  0.98485422452E+01  0.00000000000E+00 0. -1.
         36    2    1    2    0    0  0.44408920985E-15 -0.14210854715E-13  0.19122837825E+04  0.19319808670E+04  0.27517413688E+03 0.  0.
         25    2    3    3    0    0 -0.27913544107E+01 -0.64906520592E+02  0.91281771121E+03  0.92370139697E+03  0.12556850240E+03 0.  0.
         25    2    3    3    0    0  0.27913544107E+01  0.64906520592E+02  0.99946607133E+03  0.10082794701E+04  0.11607934323E+03 0.  0.
          5    1    4    4  502    0 -0.11071945600E+01  0.65795747890E+01  0.86836289590E-01  0.81617537784E+01  0.47000000000E+01 0. -1.
         -5    1    4    4    0  502 -0.16841598507E+01 -0.71486095381E+02  0.91273087492E+03  0.91553964319E+03  0.47000000000E+01 0. -1.
          5    1    5    5  503    0  0.25805286905E+02 -0.63062545637E+01  0.66343551560E+03  0.66398377619E+03  0.47000000000E+01 0.  1.
         -5    1    5    5    0  503 -0.23013932495E+02  0.71212775156E+02  0.33603055573E+03  0.34429569387E+03  0.47000000000E+01 0.  1.
<mgrwt>
<rscale>  0 0.27517414E+03</rscale>
<asrwt>0</asrwt>
<pdfrwt beam="1">  1        2 0.29571237E+00 0.27517414E+03</pdfrwt>
<pdfrwt beam="2">  1       -2 0.15151619E-02 0.27517414E+03</pdfrwt>
<totfact> 0.94912594E+03</totfact>
</mgrwt>
</event>
<event>
 9    1  0.2065703E-002  0.2741789E+03  0.7818608E-02  0.1098911E+00
          1   -1    0    0  501    0  0.00000000000E+00  0.00000000000E+00  0.95472844329E+03  0.95472844329E+03  0.00000000000E+00 0.  1.
         -1   -1    0    0    0  501 -0.00000000000E+00 -0.00000000000E+00 -0.19684678561E+02  0.19684678561E+02  0.00000000000E+00 0.  1.
         36    2    1    2    0    0  0.00000000000E+00  0.00000000000E+00  0.93504376473E+03  0.97441312186E+03  0.27417893806E+03 0.  0.
         25    2    3    3    0    0  0.35130991959E+02 -0.40225948479E+02  0.46060755543E+03  0.48036991897E+03  0.12547360443E+03 0.  0.
         25    2    3    3    0    0 -0.35130991959E+02  0.40225948479E+02  0.47443620930E+03  0.49404320288E+03  0.12703013851E+03 0.  0.
          5    1    4    4  502    0  0.21222910522E+02 -0.32779368336E+02  0.30048955128E+02  0.49496753669E+02  0.47000000000E+01 0. -1.
         -5    1    4    4    0  502  0.13908081438E+02 -0.74465801430E+01  0.43055860030E+03  0.43087316530E+03  0.47000000000E+01 0. -1.
          5    1    5    5  503    0 -0.15062760664E+02 -0.44452924763E+02  0.11734714099E+03  0.12647288554E+03  0.47000000000E+01 0.  1.
         -5    1    5    5    0  503 -0.20068231295E+02  0.84678873242E+02  0.35708906831E+03  0.36757031734E+03  0.47000000000E+01 0.  1.
<mgrwt>
<rscale>  0 0.27417894E+03</rscale>
<asrwt>0</asrwt>
<pdfrwt beam="1">  1        1 0.14688126E+00 0.27417894E+03</pdfrwt>
<pdfrwt beam="2">  1       -1 0.30284128E-02 0.27417894E+03</pdfrwt>
<totfact> 0.64325733E+03</totfact>
</mgrwt>
</event>
<event>
 9    1  0.2065703E-002  0.2749115E+03  0.7818608E-02  0.1098501E+00
         -1   -1    0    0    0  501 -0.00000000000E+00  0.00000000000E+00  0.17182778349E+02  0.17182778349E+02  0.00000000000E+00 0.  1.
          1   -1    0    0  501    0  0.00000000000E+00 -0.00000000000E+00 -0.10995941173E+04  0.10995941173E+04  0.00000000000E+00 0.  1.
         36    2    1    2    0    0  0.00000000000E+00  0.00000000000E+00 -0.10824113390E+04  0.11167768957E+04  0.27491149115E+03 0.  0.
         25    2    3    3    0    0  0.63059835123E+01 -0.60995507287E+02 -0.59981350209E+03  0.61426601470E+03  0.11741499986E+03 0.  0.
         25    2    3    3    0    0 -0.63059835123E+01  0.60995507287E+02 -0.48259783686E+03  0.50251088095E+03  0.12592178521E+03 0.  0.
          5    1    4    4  502    0 -0.45739189227E+02 -0.62090267499E+02 -0.29212006527E+03  0.30216468570E+03  0.47000000000E+01 0.  1.
         -5    1    4    4    0  502  0.52045172739E+02  0.10947602115E+01 -0.30769343682E+03  0.31210132901E+03  0.47000000000E+01 0.  1.
          5    1    5    5  503    0  0.50046906241E+02  0.48862538427E+02 -0.15875165236E+03  0.17354082405E+03  0.47000000000E+01 0.  1.
         -5    1    5    5    0  503 -0.56352889753E+02  0.12132968860E+02 -0.32384618450E+03  0.32897005690E+03  0.47000000000E+01 0.  1.
<mgrwt>
<rscale>  0 0.27491149E+03</rscale>
<asrwt>0</asrwt>
<pdfrwt beam="1">  1        1 0.16916836E+00 0.27491149E+03</pdfrwt>
<pdfrwt beam="2">  1       -1 0.26435038E-02 0.27491149E+03</pdfrwt>
<totfact> 0.61382357E+03</totfact>
</mgrwt>
</event>
<event>
 9    1  0.2065703E-002  0.2753750E+03  0.7818608E-02  0.1098242E+00
         -1   -1    0    0    0  501 -0.00000000000E+00  0.00000000000E+00  0.62576341431E+02  0.62576341431E+02  0.00000000000E+00 0.  1.
          1   -1    0    0  501    0  0.00000000000E+00 -0.00000000000E+00 -0.30295542470E+03  0.30295542470E+03  0.00000000000E+00 0.  1.
         36    2    1    2    0    0  0.35527136788E-14  0.00000000000E+00 -0.24037908327E+03  0.36553176614E+03  0.27537495961E+03 0.  0.
         25    2    3    3    0    0 -0.20303815168E+02 -0.94345993083E+01 -0.97851383978E+02  0.17286760180E+03  0.14073754947E+03 0.  0.
         25    2    3    3    0    0  0.20303815168E+02  0.94345993083E+01 -0.14252769930E+03  0.19266416434E+03  0.12768742530E+03 0.  0.
          5    1    4    4  502    0  0.50343411909E+01 -0.28265341092E+02 -0.12660744274E+03  0.12990692304E+03  0.47000000000E+01 0.  1.
         -5    1    4    4    0  502 -0.25338156359E+02  0.18830741783E+02  0.28756058759E+02  0.42960678756E+02  0.47000000000E+01 0.  1.
          5    1    5    5  503    0  0.12386884241E+02  0.38332578368E+02  0.60643987928E+01  0.41008394241E+02  0.47000000000E+01 0.  1.
         -5    1    5    5    0  503  0.79169309269E+01 -0.28897979059E+02 -0.14859209809E+03  0.15165577010E+03  0.47000000000E+01 0.  1.
<mgrwt>
<rscale>  0 0.27537496E+03</rscale>
<asrwt>0</asrwt>
<pdfrwt beam="1">  1        1 0.46608526E-01 0.27537496E+03</pdfrwt>
<pdfrwt beam="2">  1       -1 0.96271295E-02 0.27537496E+03</pdfrwt>
<totfact> 0.55594054E+03</totfact>
</mgrwt>
</event>
<event>
 9    1  0.2065703E-002  0.2742107E+03  0.7818608E-02  0.1098894E+00
         -1   -1    0    0    0  501 -0.00000000000E+00  0.00000000000E+00  0.12237359897E+03  0.12237359897E+03  0.00000000000E+00 0.  1.
          1   -1    0    0  501    0  0.00000000000E+00 -0.00000000000E+00 -0.15361055198E+03  0.15361055198E+03  0.00000000000E+00 0.  1.
         36    2    1    2    0    0  0.00000000000E+00  0.00000000000E+00 -0.31236953002E+02  0.27598415095E+03  0.27421069334E+03 0.  0.
         25    2    3    3    0    0 -0.51292461549E+02 -0.10217501278E+02 -0.55873521272E+02  0.14544247340E+03  0.12367840857E+03 0.  0.
         25    2    3    3    0    0  0.51292461549E+02  0.10217501278E+02  0.24636568270E+02  0.13054167755E+03  0.11704210839E+03 0.  0.
          5    1    4    4  502    0 -0.57022406628E+02 -0.57371530369E+02 -0.54576467469E+02  0.97692006612E+02  0.47000000000E+01 0. -1.
         -5    1    4    4    0  502  0.57299450787E+01  0.47154029091E+02 -0.12970538036E+01  0.47750466791E+02  0.47000000000E+01 0. -1.
          5    1    5    5  503    0 -0.32318377443E+02  0.21477165102E+02  0.24336845450E+02  0.46044741153E+02  0.47000000000E+01 0. -1.
         -5    1    5    5    0  503  0.83610838992E+02 -0.11259663825E+02  0.29972282006E+00  0.84496936395E+02  0.47000000000E+01 0. -1.
<mgrwt>
<rscale>  0 0.27421069E+03</rscale>
<asrwt>0</asrwt>
<pdfrwt beam="1">  1        1 0.23632393E-01 0.27421069E+03</pdfrwt>
<pdfrwt beam="2">  1       -1 0.18826708E-01 0.27421069E+03</pdfrwt>
<totfact> 0.45486408E+03</totfact>
</mgrwt>
</event>
<event>
 9    1  0.2065703E-002  0.2752190E+03  0.7818608E-02  0.1098329E+00
          4   -1    0    0  501    0  0.00000000000E+00  0.00000000000E+00  0.84540712110E+03  0.84540712110E+03  0.00000000000E+00 0. -1.
         -4   -1    0    0    0  501 -0.00000000000E+00 -0.00000000000E+00 -0.22399126372E+02  0.22399126372E+02  0.00000000000E+00 0. -1.
         36    2    1    2    0    0  0.00000000000E+00 -0.53290705182E-14  0.82300799473E+03  0.86780624747E+03  0.27521904688E+03 0.  0.
         25    2    3    3    0    0  0.46598382355E+02 -0.15498862121E+02  0.30317103054E+03  0.33176926297E+03  0.12548524265E+03 0.  0.
         25    2    3    3    0    0 -0.46598382355E+02  0.15498862121E+02  0.51983696418E+03  0.53603698450E+03  0.12121697678E+03 0.  0.
          5    1    4    4  502    0  0.39752697623E+02 -0.64006080912E+02  0.24058881672E+03  0.25215496047E+03  0.47000000000E+01 0.  1.
         -5    1    4    4    0  502  0.68456847323E+01  0.48507218791E+02  0.62582213829E+02  0.79614302496E+02  0.47000000000E+01 0.  1.
          5    1    5    5  503    0  0.34944148478E+02  0.24174649521E+02  0.10928267657E+03  0.11734692408E+03  0.47000000000E+01 0.  1.
         -5    1    5    5    0  503 -0.81542530833E+02 -0.86757873999E+01  0.41055428762E+03  0.41869006043E+03  0.47000000000E+01 0.  1.
<mgrwt>
<rscale>  0 0.27521905E+03</rscale>
<asrwt>0</asrwt>
<pdfrwt beam="1">  1        4 0.13006261E+00 0.27521905E+03</pdfrwt>
<pdfrwt beam="2">  1       -4 0.34460201E-02 0.27521905E+03</pdfrwt>
<totfact> 0.36815569E+02</totfact>
</mgrwt>
</event>
<event>
 9    1  0.2065703E-002  0.2739493E+03  0.7818608E-02  0.1099040E+00
          2   -1    0    0  501    0  0.00000000000E+00  0.00000000000E+00  0.12973349883E+03  0.12973349883E+03  0.00000000000E+00 0. -1.
         -2   -1    0    0    0  501 -0.00000000000E+00 -0.00000000000E+00 -0.14461996224E+03  0.14461996224E+03  0.00000000000E+00 0. -1.
         36    2    1    2    0    0  0.00000000000E+00  0.00000000000E+00 -0.14886463411E+02  0.27435346107E+03  0.27394929240E+03 0.  0.
         25    2    3    3    0    0  0.41845418521E+01 -0.55337265872E+02 -0.47963091854E+01  0.13577374210E+03  0.12382156952E+03 0.  0.
         25    2    3    3    0    0 -0.41845418521E+01  0.55337265872E+02 -0.10090154226E+02  0.13857971897E+03  0.12658121469E+03 0.  0.
          5    1    4    4  502    0 -0.19540223534E+02 -0.39269377214E+02  0.54281235971E+02  0.69946028486E+02  0.47000000000E+01 0. -1.
         -5    1    4    4    0  502  0.23724765386E+02 -0.16067888658E+02 -0.59077545156E+02  0.65827713618E+02  0.47000000000E+01 0. -1.
          5    1    5    5  503    0  0.41571272954E+02  0.52226471629E+02 -0.45095932168E+02  0.80693916573E+02  0.47000000000E+01 0.  1.
         -5    1    5    5    0  503 -0.45755814806E+02  0.31107942427E+01  0.35005777942E+02  0.57885802393E+02  0.47000000000E+01 0.  1.
<mgrwt>
<rscale>  0 0.27394929E+03</rscale>
<asrwt>0</asrwt>
<pdfrwt beam="1">  1        2 0.19959000E-01 0.27394929E+03</pdfrwt>
<pdfrwt beam="2">  1       -2 0.22249225E-01 0.27394929E+03</pdfrwt>
<totfact> 0.48277623E+03</totfact>
</mgrwt>
</event>
<event>
 9    1  0.2065703E-002  0.2740538E+03  0.7818608E-02  0.1098982E+00
          1   -1    0    0  501    0  0.00000000000E+00  0.00000000000E+00  0.63552966794E+03  0.63552966794E+03  0.00000000000E+00 0. -1.
         -1   -1    0    0    0  501 -0.00000000000E+00 -0.00000000000E+00 -0.29544453854E+02  0.29544453854E+02  0.00000000000E+00 0. -1.
         36    2    1    2    0    0 -0.35527136788E-14  0.00000000000E+00  0.60598521408E+03  0.66507412179E+03  0.27405384104E+03 0.  0.
         25    2    3    3    0    0 -0.16493470217E+02  0.10303625668E+02  0.17979990124E+03  0.22017315203E+03  0.12557871287E+03 0.  0.
         25    2    3    3    0    0  0.16493470217E+02 -0.10303625668E+02  0.42618531284E+03  0.44490096976E+03  0.12619331500E+03 0.  0.
          5    1    4    4  502    0 -0.38034427553E+02  0.14459800396E+01  0.19035055333E+03  0.19417551774E+03  0.47000000000E+01 0. -1.
         -5    1    4    4    0  502  0.21540957335E+02  0.88576456283E+01 -0.10550652089E+02  0.25997634287E+02  0.47000000000E+01 0. -1.
          5    1    5    5  503    0 -0.48425844236E+01 -0.51191766784E+02  0.36233623816E+03  0.36599684028E+03  0.47000000000E+01 0.  1.
         -5    1    5    5    0  503  0.21336054641E+02  0.40888141116E+02  0.63849074686E+02  0.78904129485E+02  0.47000000000E+01 0.  1.
<mgrwt>
<rscale>  0 0.27405384E+03</rscale>
<asrwt>0</asrwt>
<pdfrwt beam="1">  1        1 0.97773785E-01 0.27405384E+03</pdfrwt>
<pdfrwt beam="2">  1       -1 0.45453010E-02 0.27405384E+03</pdfrwt>
<totfact> 0.65627834E+03</totfact>
</mgrwt>
</event>
<event>
 9    1  0.2065703E-002  0.2746645E+03  0.7818608E-02  0.1098639E+00
          4   -1    0    0  501    0  0.00000000000E+00  0.00000000000E+00  0.23599835601E+03  0.23599835601E+03  0.00000000000E+00 0. -1.
         -4   -1    0    0    0  501 -0.00000000000E+00 -0.00000000000E+00 -0.79916423110E+02  0.79916423110E+02  0.00000000000E+00 0. -1.
         36    2    1    2    0    0  0.00000000000E+00  0.00000000000E+00  0.15608193290E+03  0.31591477912E+03  0.27466448239E+03 0.  0.
         25    2    3    3    0    0 -0.66187168789E+01 -0.32718679653E+02  0.12636779459E+03  0.18285417502E+03  0.12787693460E+03 0.  0.
         25    2    3    3    0    0  0.66187168789E+01  0.32718679653E+02  0.29714138311E+02  0.13306060410E+03  0.12533106134E+03 0.  0.
          5    1    4    4  502    0 -0.60000115219E+02  0.27921033150E+01  0.30768905046E+02  0.67650758939E+02  0.47000000000E+01 0.  1.
         -5    1    4    4    0  502  0.53381398340E+02 -0.35510782968E+02  0.95598889544E+02  0.11520341609E+03  0.47000000000E+01 0.  1.
          5    1    5    5  503    0 -0.38579119755E+02  0.19879283498E+00 -0.31609548215E+02  0.50096322600E+02  0.47000000000E+01 0.  1.
         -5    1    5    5    0  503  0.45197836634E+02  0.32519886818E+02  0.61323686526E+02  0.82964281496E+02  0.47000000000E+01 0.  1.
<mgrwt>
<rscale>  0 0.27466448E+03</rscale>
<asrwt>0</asrwt>
<pdfrwt beam="1">  1        4 0.36307439E-01 0.27466448E+03</pdfrwt>
<pdfrwt beam="2">  1       -4 0.12294834E-01 0.27466448E+03</pdfrwt>
<totfact> 0.73529648E+02</totfact>
</mgrwt>
</event>
<event>
 9    1  0.2065703E-002  0.2752154E+03  0.7818608E-02  0.1098331E+00
          1   -1    0    0  501    0  0.00000000000E+00  0.00000000000E+00  0.33265233851E+03  0.33265233851E+03  0.00000000000E+00 0.  1.
         -1   -1    0    0    0  501 -0.00000000000E+00 -0.00000000000E+00 -0.56923944661E+02  0.56923944661E+02  0.00000000000E+00 0.  1.
         36    2    1    2    0    0  0.71054273576E-14  0.71054273576E-14  0.27572839385E+03  0.38957628317E+03  0.27521543059E+03 0.  0.
         25    2    3    3    0    0  0.68650905948E+01 -0.30687876501E+02  0.67089183883E+02  0.14391896274E+03  0.12338084944E+03 0.  0.
         25    2    3    3    0    0 -0.68650905948E+01  0.30687876501E+02  0.20863920997E+03  0.24565732043E+03  0.12581066693E+03 0.  0.
          5    1    4    4  502    0  0.47065710386E+00  0.47984264310E+02  0.27115233306E+02  0.55317601328E+02  0.47000000000E+01 0.  1.
         -5    1    4    4    0  502  0.63944334909E+01 -0.78672140811E+02  0.39973950577E+02  0.88601361413E+02  0.47000000000E+01 0.  1.
          5    1    5    5  503    0 -0.64841274645E+02  0.25561867172E+02  0.95301113076E+02  0.11816172013E+03  0.47000000000E+01 0.  1.
         -5    1    5    5    0  503  0.57976184050E+02  0.51260093295E+01  0.11333809689E+03  0.12749560030E+03  0.47000000000E+01 0.  1.
<mgrwt>
<rscale>  0 0.27521543E+03</rscale>
<asrwt>0</asrwt>
<pdfrwt beam="1">  1        1 0.51177282E-01 0.27521543E+03</pdfrwt>
<pdfrwt beam="2">  1       -1 0.87575301E-02 0.27521543E+03</pdfrwt>
<totfact> 0.57156581E+03</totfact>
</mgrwt>
</event>
<event>
 9    1  0.2065703E-002  0.2722561E+03  0.7818608E-02  0.1099995E+00
          2   -1    0    0  501    0  0.00000000000E+00  0.00000000000E+00  0.64458122328E+02  0.64458122328E+02  0.00000000000E+00 0.  1.
         -2   -1    0    0    0  501 -0.00000000000E+00 -0.00000000000E+00 -0.28748654322E+03  0.28748654322E+03  0.00000000000E+00 0.  1.
         36    2    1    2    0    0  0.17763568394E-14  0.00000000000E+00 -0.22302842089E+03  0.35194466555E+03  0.27225607630E+03 0.  0.
         25    2    3    3    0    0  0.40241055428E+01  0.75568447171E+00 -0.43622143056E+02  0.13433490596E+03  0.12698901964E+03 0.  0.
         25    2    3    3    0    0 -0.40241055428E+01 -0.75568447171E+00 -0.17940627784E+03  0.21760975959E+03  0.12308789728E+03 0.  0.
          5    1    4    4  502    0  0.65680445525E+01 -0.62442012706E+02 -0.14845753430E+02  0.64688720461E+02  0.47000000000E+01 0.  1.
         -5    1    4    4    0  502 -0.25439390097E+01  0.63197697177E+02 -0.28776389627E+02  0.69646185496E+02  0.47000000000E+01 0.  1.
          5    1    5    5  503    0  0.43824528591E+02  0.37779735341E+02 -0.11288153358E+03  0.12693395263E+03  0.47000000000E+01 0.  1.
         -5    1    5    5    0  503 -0.47848634134E+02 -0.38535419812E+02 -0.66524744259E+02  0.90675806957E+02  0.47000000000E+01 0.  1.
<mgrwt>
<rscale>  0 0.27225608E+03</rscale>
<asrwt>0</asrwt>
<pdfrwt beam="1">  1        2 0.99166344E-02 0.27225608E+03</pdfrwt>
<pdfrwt beam="2">  1       -2 0.44228698E-01 0.27225608E+03</pdfrwt>
<totfact> 0.31587904E+03</totfact>
</mgrwt>
</event>
<event>
 9    1  0.2065703E-002  0.2746998E+03  0.7818608E-02  0.1098619E+00
         -1   -1    0    0    0  501 -0.00000000000E+00  0.00000000000E+00  0.95366223096E+01  0.95366223096E+01  0.00000000000E+00 0.  1.
          1   -1    0    0  501    0  0.00000000000E+00 -0.00000000000E+00 -0.19781638000E+04  0.19781638000E+04  0.00000000000E+00 0.  1.
         36    2    1    2    0    0 -0.14210854715E-13  0.71054273576E-14 -0.19686271777E+04  0.19877004223E+04  0.27469984366E+03 0.  0.
         25    2    3    3    0    0  0.59773480305E+02 -0.19611306579E+02 -0.88930174831E+03  0.89942861976E+03  0.11898222645E+03 0.  0.
         25    2    3    3    0    0 -0.59773480305E+02  0.19611306579E+02 -0.10793254294E+04  0.10882718026E+04  0.12423631278E+03 0.  0.
          5    1    4    4  502    0  0.51370034291E+02 -0.53528700351E+02 -0.30000677191E+03  0.30907985275E+03  0.47000000000E+01 0.  1.
         -5    1    4    4    0  502  0.84034460141E+01  0.33917393773E+02 -0.58929497639E+03  0.59034876701E+03  0.47000000000E+01 0.  1.
          5    1    5    5  503    0 -0.97715495093E+02  0.40296666094E+01 -0.77347794020E+03  0.77965041536E+03  0.47000000000E+01 0. -1.
         -5    1    5    5    0  503  0.37942014788E+02  0.15581639969E+02 -0.30584748919E+03  0.30862138719E+03  0.47000000000E+01 0. -1.
<mgrwt>
<rscale>  0 0.27469984E+03</rscale>
<asrwt>0</asrwt>
<pdfrwt beam="1">  1        1 0.30433283E+00 0.27469984E+03</pdfrwt>
<pdfrwt beam="2">  1       -1 0.14671729E-02 0.27469984E+03</pdfrwt>
<totfact> 0.37573627E+03</totfact>
</mgrwt>
</event>
<event>
 9    1  0.2065703E-002  0.2749022E+03  0.7818608E-02  0.1098506E+00
         -1   -1    0    0    0  501 -0.00000000000E+00  0.00000000000E+00  0.11513501443E+04  0.11513501443E+04  0.00000000000E+00 0. -1.
          1   -1    0    0  501    0  0.00000000000E+00 -0.00000000000E+00 -0.16409257998E+02  0.16409257998E+02  0.00000000000E+00 0. -1.
         36    2    1    2    0    0 -0.71054273576E-14  0.00000000000E+00  0.11349408863E+04  0.11677594023E+04  0.27490217579E+03 0.  0.
         25    2    3    3    0    0  0.54859651691E+02 -0.66527885874E+01  0.56786334834E+03  0.58401383413E+03  0.12469777500E+03 0.  0.
         25    2    3    3    0    0 -0.54859651691E+02  0.66527885874E+01  0.56707753799E+03  0.58374556819E+03  0.12699650906E+03 0.  0.
          5    1    4    4  502    0  0.19730380862E+02  0.38185420977E+02  0.45924607793E+03  0.46127699314E+03  0.47000000000E+01 0. -1.
         -5    1    4    4    0  502  0.35129270829E+02 -0.44838209565E+02  0.10861727041E+03  0.12273684099E+03  0.47000000000E+01 0. -1.
          5    1    5    5  503    0 -0.38989568657E+02 -0.54339591080E+02  0.19172096456E+03  0.20310587356E+03  0.47000000000E+01 0. -1.
         -5    1    5    5    0  503 -0.15870083034E+02  0.60992379668E+02  0.37535657343E+03  0.38063969463E+03  0.47000000000E+01 0. -1.
<mgrwt>
<rscale>  0 0.27490218E+03</rscale>
<asrwt>0</asrwt>
<pdfrwt beam="1">  1        1 0.25245021E-02 0.27490218E+03</pdfrwt>
<pdfrwt beam="2">  1       -1 0.17713073E+00 0.27490218E+03</pdfrwt>
<totfact> 0.10416999E+03</totfact>
</mgrwt>
</event>
<event>
 9    1  0.2065703E-002  0.2846503E+03  0.7818608E-02  0.1093176E+00
         -1   -1    0    0    0  501 -0.00000000000E+00  0.00000000000E+00  0.37517996112E+02  0.37517996112E+02  0.00000000000E+00 0. -1.
          1   -1    0    0  501    0  0.00000000000E+00 -0.00000000000E+00 -0.53991288932E+03  0.53991288932E+03  0.00000000000E+00 0. -1.
         36    2    1    2    0    0  0.14210854715E-13 -0.71054273576E-14 -0.50239489321E+03  0.57743088543E+03  0.28465030955E+03 0.  0.
         25    2    3    3    0    0  0.58200274231E+02 -0.34134570888E+02 -0.28692368841E+03  0.32055477550E+03  0.12600682629E+03 0.  0.
         25    2    3    3    0    0 -0.58200274231E+02  0.34134570888E+02 -0.21547120479E+03  0.25687610993E+03  0.12249512198E+03 0.  0.
          5    1    4    4  502    0  0.11902078233E+02 -0.77558098526E+02 -0.14289307662E+03  0.16308721427E+03  0.47000000000E+01 0. -1.
         -5    1    4    4    0  502  0.46298195998E+02  0.43423527638E+02 -0.14403061179E+03  0.15746756123E+03  0.47000000000E+01 0. -1.
          5    1    5    5  503    0 -0.68269834696E+02  0.72532742447E+02 -0.14823753489E+03  0.17865672617E+03  0.47000000000E+01 0.  1.
         -5    1    5    5    0  503  0.10069560465E+02 -0.38398171559E+02 -0.67233669907E+02  0.78219383762E+02  0.47000000000E+01 0.  1.
<mgrwt>
<rscale>  0 0.28465031E+03</rscale>
<asrwt>0</asrwt>
<pdfrwt beam="1">  1        1 0.83063522E-01 0.28465031E+03</pdfrwt>
<pdfrwt beam="2">  1       -1 0.57719993E-02 0.28465031E+03</pdfrwt>
<totfact> 0.57503058E+03</totfact>
</mgrwt>
</event>
<event>
 9    1  0.2065703E-002  0.2752394E+03  0.7818608E-02  0.1098318E+00
          2   -1    0    0  501    0  0.00000000000E+00  0.00000000000E+00  0.43221400917E+03  0.43221400917E+03  0.00000000000E+00 0. -1.
         -2   -1    0    0    0  501 -0.00000000000E+00 -0.00000000000E+00 -0.43818981090E+02  0.43818981090E+02  0.00000000000E+00 0. -1.
         36    2    1    2    0    0 -0.71054273576E-14  0.00000000000E+00  0.38839502808E+03  0.47603299026E+03  0.27523936851E+03 0.  0.
         25    2    3    3    0    0 -0.32017551886E+02  0.39487697060E+02  0.17493911859E+03  0.22204664227E+03  0.12695122797E+03 0.  0.
         25    2    3    3    0    0  0.32017551886E+02 -0.39487697060E+02  0.21345590949E+03  0.25398634799E+03  0.12791105434E+03 0.  0.
          5    1    4    4  502    0 -0.82920015488E+01  0.72584510603E+02  0.45320839498E+02  0.86100737290E+02  0.47000000000E+01 0.  1.
         -5    1    4    4    0  502 -0.23725550338E+02 -0.33096813543E+02  0.12961827909E+03  0.13594590498E+03  0.47000000000E+01 0.  1.
          5    1    5    5  503    0 -0.65641955751E+01 -0.57942335443E+02  0.20078416551E+03  0.20913338811E+03  0.47000000000E+01 0.  1.
         -5    1    5    5    0  503  0.38581747461E+02  0.18454638383E+02  0.12671743976E+02  0.44852959885E+02  0.47000000000E+01 0.  1.
<mgrwt>
<rscale>  0 0.27523937E+03</rscale>
<asrwt>0</asrwt>
<pdfrwt beam="1">  1        2 0.66494460E-01 0.27523937E+03</pdfrwt>
<pdfrwt beam="2">  1       -2 0.67413820E-02 0.27523937E+03</pdfrwt>
<totfact> 0.89983049E+03</totfact>
</mgrwt>
</event>
<event>
 9    1  0.2065703E-002  0.2753241E+03  0.7818608E-02  0.1098271E+00
          2   -1    0    0  501    0  0.00000000000E+00  0.00000000000E+00  0.14826935198E+04  0.14826935198E+04  0.00000000000E+00 0. -1.
         -2   -1    0    0    0  501 -0.00000000000E+00 -0.00000000000E+00 -0.12781363496E+02  0.12781363496E+02  0.00000000000E+00 0. -1.
         36    2    1    2    0    0  0.00000000000E+00  0.00000000000E+00  0.14699121563E+04  0.14954748833E+04  0.27532413501E+03 0.  0.
         25    2    3    3    0    0  0.56571576533E+02  0.56562627893E+00  0.80747685022E+03  0.81892277269E+03  0.12415708108E+03 0.  0.
         25    2    3    3    0    0 -0.56571576533E+02 -0.56562627893E+00  0.66243530606E+03  0.67655211059E+03  0.12530586745E+03 0.  0.
          5    1    4    4  502    0  0.26971667677E+02 -0.37379256552E+02  0.10481414232E+03  0.11459831634E+03  0.47000000000E+01 0. -1.
         -5    1    4    4    0  502  0.29599908856E+02  0.37944882831E+02  0.70266270790E+03  0.70432445635E+03  0.47000000000E+01 0. -1.
          5    1    5    5  503    0 -0.58727524742E+02  0.53027724108E+02  0.47373978491E+03  0.48032523928E+03  0.47000000000E+01 0. -1.
         -5    1    5    5    0  503  0.21559482093E+01 -0.53593350386E+02  0.18869552116E+03  0.19622687131E+03  0.47000000000E+01 0. -1.
<mgrwt>
<rscale>  0 0.27532414E+03</rscale>
<asrwt>0</asrwt>
<pdfrwt beam="1">  1        2 0.22810656E+00 0.27532414E+03</pdfrwt>
<pdfrwt beam="2">  1       -2 0.19663648E-02 0.27532414E+03</pdfrwt>
<totfact> 0.11048543E+04</totfact>
</mgrwt>
</event>
<event>
 9    1  0.2065703E-002  0.2745787E+03  0.7818608E-02  0.1098687E+00
         -2   -1    0    0    0  501 -0.00000000000E+00  0.00000000000E+00  0.22215487028E+02  0.22215487028E+02  0.00000000000E+00 0. -1.
          2   -1    0    0  501    0  0.00000000000E+00 -0.00000000000E+00 -0.84843380659E+03  0.84843380659E+03  0.00000000000E+00 0. -1.
         36    2    1    2    0    0 -0.35527136788E-14 -0.71054273576E-14 -0.82621831956E+03  0.87064929362E+03  0.27457873351E+03 0.  0.
         25    2    3    3    0    0 -0.19946129631E+02 -0.34371255781E+02 -0.37863719234E+03  0.40322987425E+03  0.13284945145E+03 0.  0.
         25    2    3    3    0    0  0.19946129631E+02  0.34371255781E+02 -0.44758112723E+03  0.46741941937E+03  0.12873545296E+03 0.  0.
          5    1    4    4  502    0 -0.46759626520E+02  0.27666839010E+02 -0.78774760949E+02  0.95809548667E+02  0.47000000000E+01 0.  1.
         -5    1    4    4    0  502  0.26813496889E+02 -0.62038094791E+02 -0.29986243139E+03  0.30742032558E+03  0.47000000000E+01 0.  1.
          5    1    5    5  503    0 -0.26951182788E+02  0.62527536041E+02 -0.14974322669E+03  0.16456361371E+03  0.47000000000E+01 0. -1.
         -5    1    5    5    0  503  0.46897312419E+02 -0.28156280260E+02 -0.29783790054E+03  0.30285580567E+03  0.47000000000E+01 0. -1.
<mgrwt>
<rscale>  0 0.27457873E+03</rscale>
<asrwt>0</asrwt>
<pdfrwt beam="1">  1        2 0.13052828E+00 0.27457873E+03</pdfrwt>
<pdfrwt beam="2">  1       -2 0.34177672E-02 0.27457873E+03</pdfrwt>
<totfact> 0.11412258E+04</totfact>
</mgrwt>
</event>
<event>
 9    1  0.2065703E-002  0.2760387E+03  0.7818608E-02  0.1097872E+00
          2   -1    0    0  501    0  0.00000000000E+00  0.00000000000E+00  0.31231445603E+02  0.31231445603E+02  0.00000000000E+00 0.  1.
         -2   -1    0    0    0  501 -0.00000000000E+00 -0.00000000000E+00 -0.60994090225E+03  0.60994090225E+03  0.00000000000E+00 0.  1.
         36    2    1    2    0    0  0.00000000000E+00  0.00000000000E+00 -0.57870945664E+03  0.64117234785E+03  0.27603866475E+03 0.  0.
         25    2    3    3    0    0  0.49539721333E+02 -0.34842896514E+02 -0.27286508883E+03  0.30484051936E+03  0.12167240490E+03 0.  0.
         25    2    3    3    0    0 -0.49539721333E+02  0.34842896514E+02 -0.30584436781E+03  0.33633182849E+03  0.12613528493E+03 0.  0.
          5    1    4    4  502    0  0.34343057299E+01 -0.38833398593E+02 -0.13783247899E+02  0.41616045280E+02  0.47000000000E+01 0.  1.
         -5    1    4    4    0  502  0.46105415603E+02  0.39905020792E+01 -0.25908184093E+03  0.26322447408E+03  0.47000000000E+01 0.  1.
          5    1    5    5  503    0 -0.95376089526E+01  0.69427997442E+02 -0.24828305844E+03  0.25802670389E+03  0.47000000000E+01 0.  1.
         -5    1    5    5    0  503 -0.40002112380E+02 -0.34585100929E+02 -0.57561309374E+02  0.78305124596E+02  0.47000000000E+01 0.  1.
<mgrwt>
<rscale>  0 0.27603866E+03</rscale>
<asrwt>0</asrwt>
<pdfrwt beam="1">  1        2 0.48048385E-02 0.27603866E+03</pdfrwt>
<pdfrwt beam="2">  1       -2 0.93837047E-01 0.27603866E+03</pdfrwt>
<totfact> 0.16456251E+03</totfact>
</mgrwt>
</event>
<event>
 9    1  0.2065703E-002  0.2754957E+03  0.7818608E-02  0.1098175E+00
         -1   -1    0    0    0  501 -0.00000000000E+00  0.00000000000E+00  0.21103377451E+02  0.21103377451E+02  0.00000000000E+00 0.  1.
          1   -1    0    0  501    0  0.00000000000E+00 -0.00000000000E+00 -0.89912002133E+03  0.89912002133E+03  0.00000000000E+00 0.  1.
         36    2    1    2    0    0 -0.14210854715E-13  0.17763568394E-14 -0.87801664387E+03  0.92022339878E+03  0.27549569277E+03 0.  0.
         25    2    3    3    0    0 -0.60516864002E+02  0.86029365401E+01 -0.50400152262E+03  0.52271399122E+03  0.12440289574E+03 0.  0.
         25    2    3    3    0    0  0.60516864002E+02 -0.86029365401E+01 -0.37401512125E+03  0.39750940755E+03  0.11995881303E+03 0.  0.
          5    1    4    4  502    0 -0.20505272711E+02 -0.55865103189E+02 -0.17018690762E+03  0.18035256995E+03  0.47000000000E+01 0.  1.
         -5    1    4    4    0  502 -0.40011591291E+02  0.64468039729E+02 -0.33381461500E+03  0.34236142127E+03  0.47000000000E+01 0.  1.
          5    1    5    5  503    0  0.50534277689E+02  0.30184904249E+01 -0.44385957129E+02  0.67490945290E+02  0.47000000000E+01 0.  1.
         -5    1    5    5    0  503  0.99825863132E+01 -0.11621426965E+02 -0.32962916412E+03  0.33001846226E+03  0.47000000000E+01 0.  1.
<mgrwt>
<rscale>  0 0.27549569E+03</rscale>
<asrwt>0</asrwt>
<pdfrwt beam="1">  1        1 0.13832616E+00 0.27549569E+03</pdfrwt>
<pdfrwt beam="2">  1       -1 0.32466733E-02 0.27549569E+03</pdfrwt>
<totfact> 0.64101726E+03</totfact>
</mgrwt>
</event>
<event>
 9    1  0.2065703E-002  0.2751231E+03  0.7818608E-02  0.1098383E+00
          2   -1    0    0  501    0  0.00000000000E+00  0.00000000000E+00  0.22211240780E+04  0.22211240780E+04  0.00000000000E+00 0.  1.
         -2   -1    0    0    0  501 -0.00000000000E+00 -0.00000000000E+00 -0.85196399963E+01  0.85196399963E+01  0.00000000000E+00 0.  1.
         36    2    1    2    0    0  0.53290705182E-14 -0.28421709430E-13  0.22126044380E+04  0.22296437180E+04  0.27512308178E+03 0.  0.
         25    2    3    3    0    0  0.48707047229E+01 -0.57036522731E+02  0.10483310499E+04  0.10572509713E+04  0.12451802073E+03 0.  0.
         25    2    3    3    0    0 -0.48707047229E+01  0.57036522731E+02  0.11642733881E+04  0.11723927467E+04  0.12528105012E+03 0.  0.
          5    1    4    4  502    0  0.13049726244E+02 -0.81311257937E+02  0.98926974377E+03  0.99270264025E+03  0.47000000000E+01 0. -1.
         -5    1    4    4    0  502 -0.81790215213E+01  0.24274735206E+02  0.59061306139E+02  0.64548331080E+02  0.47000000000E+01 0. -1.
          5    1    5    5  503    0  0.47623749139E+02 -0.10725539936E+02  0.54416748840E+03  0.54637295333E+03  0.47000000000E+01 0. -1.
         -5    1    5    5    0  503 -0.52494453861E+02  0.67762062667E+02  0.62010589969E+03  0.62601979334E+03  0.47000000000E+01 0. -1.
<mgrwt>
<rscale>  0 0.27512308E+03</rscale>
<asrwt>0</asrwt>
<pdfrwt beam="1">  1        2 0.34171094E+00 0.27512308E+03</pdfrwt>
<pdfrwt beam="2">  1       -2 0.13107156E-02 0.27512308E+03</pdfrwt>
<totfact> 0.81544477E+03</totfact>
</mgrwt>
</event>
<event>
 9    1  0.2065703E-002  0.2754460E+03  0.7818608E-02  0.1098203E+00
          2   -1    0    0  501    0  0.00000000000E+00  0.00000000000E+00  0.31865935621E+03  0.31865935621E+03  0.00000000000E+00 0. -1.
         -2   -1    0    0    0  501 -0.00000000000E+00 -0.00000000000E+00 -0.59523199892E+02  0.59523199892E+02  0.00000000000E+00 0. -1.
         36    2    1    2    0    0  0.00000000000E+00 -0.17763568394E-14  0.25913615632E+03  0.37818255610E+03  0.27544599875E+03 0.  0.
         25    2    3    3    0    0  0.42699802847E+02  0.10728485703E+02  0.82063429604E+02  0.15666712283E+03  0.12598336132E+03 0.  0.
         25    2    3    3    0    0 -0.42699802847E+02 -0.10728485703E+02  0.17707272671E+03  0.22151543327E+03  0.12560240071E+03 0.  0.
          5    1    4    4  502    0  0.58091756792E+02  0.43710492224E+01  0.10956273126E+03  0.12417664982E+03  0.47000000000E+01 0.  1.
         -5    1    4    4    0  502 -0.15391953946E+02  0.63574364804E+01 -0.27499301658E+02  0.32490473012E+02  0.47000000000E+01 0.  1.
          5    1    5    5  503    0  0.14254441340E+02  0.44091496521E+02  0.10317662464E+03  0.11320227487E+03  0.47000000000E+01 0. -1.
         -5    1    5    5    0  503 -0.56954244187E+02 -0.54819982224E+02  0.73896102079E+02  0.10831315841E+03  0.47000000000E+01 0. -1.
<mgrwt>
<rscale>  0 0.27544600E+03</rscale>
<asrwt>0</asrwt>
<pdfrwt beam="1">  1        2 0.49024515E-01 0.27544600E+03</pdfrwt>
<pdfrwt beam="2">  1       -2 0.91574156E-02 0.27544600E+03</pdfrwt>
<totfact> 0.77614491E+03</totfact>
</mgrwt>
</event>
<event>
 9    1  0.2065703E-002  0.2760939E+03  0.7818608E-02  0.1097842E+00
          1   -1    0    0  501    0  0.00000000000E+00  0.00000000000E+00  0.10826455732E+03  0.10826455732E+03  0.00000000000E+00 0. -1.
         -1   -1    0    0    0  501 -0.00000000000E+00 -0.00000000000E+00 -0.17602209053E+03  0.17602209053E+03  0.00000000000E+00 0. -1.
         36    2    1    2    0    0 -0.35527136788E-14  0.17763568394E-14 -0.67757533208E+02  0.28428664786E+03  0.27609385151E+03 0.  0.
         25    2    3    3    0    0  0.31518428609E+02 -0.29076181937E+00 -0.85371390964E+02  0.15448156911E+03  0.12483102545E+03 0.  0.
         25    2    3    3    0    0 -0.31518428609E+02  0.29076181937E+00  0.17613857756E+02  0.12980507875E+03  0.12468205404E+03 0.  0.
          5    1    4    4  502    0  0.14331172811E+02 -0.55309946029E+02 -0.77072834921E+02  0.96056673515E+02  0.47000000000E+01 0.  1.
         -5    1    4    4    0  502  0.17187255798E+02  0.55019184210E+02 -0.82985560424E+01  0.58424895596E+02  0.47000000000E+01 0.  1.
          5    1    5    5  503    0 -0.57331847788E+02  0.10317717915E+02 -0.36451886477E+02  0.68878342761E+02  0.47000000000E+01 0.  1.
         -5    1    5    5    0  503  0.25813419179E+02 -0.10026956096E+02  0.54065744233E+02  0.60926735985E+02  0.47000000000E+01 0.  1.
<mgrwt>
<rscale>  0 0.27609385E+03</rscale>
<asrwt>0</asrwt>
<pdfrwt beam="1">  1        1 0.16656086E-01 0.27609385E+03</pdfrwt>
<pdfrwt beam="2">  1       -1 0.27080321E-01 0.27609385E+03</pdfrwt>
<totfact> 0.39265988E+03</totfact>
</mgrwt>
</event>
<event>
 9    1  0.2065703E-002  0.2751140E+03  0.7818608E-02  0.1098388E+00
         -1   -1    0    0    0  501 -0.00000000000E+00  0.00000000000E+00  0.75354247462E+01  0.75354247462E+01  0.00000000000E+00 0. -1.
          1   -1    0    0  501    0  0.00000000000E+00 -0.00000000000E+00 -0.25110635702E+04  0.25110635702E+04  0.00000000000E+00 0. -1.
         36    2    1    2    0    0  0.00000000000E+00 -0.14210854715E-13 -0.25035281455E+04  0.25185989950E+04  0.27511401685E+03 0.  0.
         25    2    3    3    0    0 -0.19565365634E+02  0.42195333281E+02 -0.94057419941E+03  0.95003730797E+03  0.12541057475E+03 0.  0.
         25    2    3    3    0    0  0.19565365634E+02 -0.42195333281E+02 -0.15629539461E+04  0.15685616870E+04  0.12408657747E+03 0.  0.
          5    1    4    4  502    0 -0.12554596682E+01  0.84895411633E+02 -0.52414098181E+03  0.53099403566E+03  0.47000000000E+01 0.  1.
         -5    1    4    4    0  502 -0.18309905966E+02 -0.42700078352E+02 -0.41643321759E+03  0.41904327230E+03  0.47000000000E+01 0.  1.
          5    1    5    5  503    0  0.49255605088E+02  0.21765250968E+02 -0.42639984920E+03  0.42981247327E+03  0.47000000000E+01 0.  1.
         -5    1    5    5    0  503 -0.29690239454E+02 -0.63960584249E+02 -0.11365540969E+04  0.11387492137E+04  0.47000000000E+01 0.  1.
<mgrwt>
<rscale>  0 0.27511402E+03</rscale>
<asrwt>0</asrwt>
<pdfrwt beam="1">  1        1 0.38631777E+00 0.27511402E+03</pdfrwt>
<pdfrwt beam="2">  1       -1 0.11592952E-02 0.27511402E+03</pdfrwt>
<totfact> 0.23669118E+03</totfact>
</mgrwt>
</event>
<event>
 9    1  0.2065703E-002  0.2775134E+03  0.7818608E-02  0.1097055E+00
         -1   -1    0    0    0  501 -0.00000000000E+00  0.00000000000E+00  0.12031109188E+02  0.12031109188E+02  0.00000000000E+00 0. -1.
          1   -1    0    0  501    0  0.00000000000E+00 -0.00000000000E+00 -0.16003026426E+04  0.16003026426E+04  0.00000000000E+00 0. -1.
         36    2    1    2    0    0  0.14210854715E-13  0.00000000000E+00 -0.15882715334E+04  0.16123337518E+04  0.27751335699E+03 0.  0.
         25    2    3    3    0    0  0.48925003144E+02 -0.20065808089E+02 -0.89726806533E+03  0.90761049361E+03  0.12597830949E+03 0.  0.
         25    2    3    3    0    0 -0.48925003144E+02  0.20065808089E+02 -0.69100346808E+03  0.70472325817E+03  0.12787800878E+03 0.  0.
          5    1    4    4  502    0  0.41516881170E+02  0.43017077888E+02 -0.24467146980E+03  0.25191335524E+03  0.47000000000E+01 0.  1.
         -5    1    4    4    0  502  0.74081219739E+01 -0.63082885977E+02 -0.65259659552E+03  0.65569713837E+03  0.47000000000E+01 0.  1.
          5    1    5    5  503    0 -0.80874972243E+02  0.47050418933E+02 -0.40866712767E+03  0.41926771196E+03  0.47000000000E+01 0. -1.
         -5    1    5    5    0  503  0.31949969099E+02 -0.26984610844E+02 -0.28233634041E+03  0.28545554621E+03  0.47000000000E+01 0. -1.
<mgrwt>
<rscale>  0 0.27751336E+03</rscale>
<asrwt>0</asrwt>
<pdfrwt beam="1">  1        1 0.24620043E+00 0.27751336E+03</pdfrwt>
<pdfrwt beam="2">  1       -1 0.18509397E-02 0.27751336E+03</pdfrwt>
<totfact> 0.47191247E+03</totfact>
</mgrwt>
</event>
<event>
 9    1  0.2065703E-002  0.2780578E+03  0.7818608E-02  0.1096754E+00
          1   -1    0    0  501    0  0.00000000000E+00  0.00000000000E+00  0.84294287691E+03  0.84294287691E+03  0.00000000000E+00 0.  1.
         -1   -1    0    0    0  501 -0.00000000000E+00 -0.00000000000E+00 -0.22930422106E+02  0.22930422106E+02  0.00000000000E+00 0.  1.
         36    2    1    2    0    0  0.00000000000E+00  0.71054273576E-14  0.82001245480E+03  0.86587329902E+03  0.27805780679E+03 0.  0.
         25    2    3    3    0    0  0.22126630167E+02 -0.57358348327E+02  0.47565999838E+03  0.49498617182E+03  0.12238998469E+03 0.  0.
         25    2    3    3    0    0 -0.22126630167E+02  0.57358348327E+02  0.34435245642E+03  0.37088712719E+03  0.12328454480E+03 0.  0.
          5    1    4    4  502    0  0.42061948914E+02 -0.34574303428E+02  0.73142725130E+02  0.91304645246E+02  0.47000000000E+01 0. -1.
         -5    1    4    4    0  502 -0.19935318747E+02 -0.22784044898E+02  0.40251727325E+03  0.40368152658E+03  0.47000000000E+01 0. -1.
          5    1    5    5  503    0  0.32071898315E+02  0.57591099908E+02  0.27453194326E+03  0.28237425400E+03  0.47000000000E+01 0.  1.
         -5    1    5    5    0  503 -0.54198528482E+02 -0.23275158129E+00  0.69820513162E+02  0.88512873195E+02  0.47000000000E+01 0.  1.
<mgrwt>
<rscale>  0 0.27805781E+03</rscale>
<asrwt>0</asrwt>
<pdfrwt beam="1">  1        1 0.12968350E+00 0.27805781E+03</pdfrwt>
<pdfrwt beam="2">  1       -1 0.35277579E-02 0.27805781E+03</pdfrwt>
<totfact> 0.62872636E+03</totfact>
</mgrwt>
</event>
<event>
 9    1  0.2065703E-002  0.2749296E+03  0.7818608E-02  0.1098491E+00
         -1   -1    0    0    0  501 -0.00000000000E+00  0.00000000000E+00  0.10674390085E+03  0.10674390085E+03  0.00000000000E+00 0.  1.
          1   -1    0    0  501    0  0.00000000000E+00 -0.00000000000E+00 -0.17702717398E+03  0.17702717398E+03  0.00000000000E+00 0.  1.
         36    2    1    2    0    0  0.88817841970E-15 -0.71054273576E-14 -0.70283273126E+02  0.28377107483E+03  0.27492959904E+03 0.  0.
         25    2    3    3    0    0  0.25118383082E+01 -0.43935269707E+02 -0.73769925502E+02  0.15196844858E+03  0.12536263478E+03 0.  0.
         25    2    3    3    0    0 -0.25118383082E+01  0.43935269707E+02  0.34866523751E+01  0.13180262625E+03  0.12419000880E+03 0.  0.
          5    1    4    4  502    0  0.59204699678E+02  0.23995501939E+01 -0.35162064438E+02  0.69060951924E+02  0.47000000000E+01 0.  1.
         -5    1    4    4    0  502 -0.56692861370E+02 -0.46334819901E+02 -0.38607861063E+02  0.82907496654E+02  0.47000000000E+01 0.  1.
          5    1    5    5  503    0 -0.10650965164E+01 -0.22401030453E+01 -0.56048061006E+02  0.56299446132E+02  0.47000000000E+01 0. -1.
         -5    1    5    5    0  503 -0.14467417919E+01  0.46175372752E+02  0.59534713382E+02  0.75503180119E+02  0.47000000000E+01 0. -1.
<mgrwt>
<rscale>  0 0.27492960E+03</rscale>
<asrwt>0</asrwt>
<pdfrwt beam="1">  1        1 0.27234949E-01 0.27492960E+03</pdfrwt>
<pdfrwt beam="2">  1       -1 0.16422139E-01 0.27492960E+03</pdfrwt>
<totfact> 0.47304646E+03</totfact>
</mgrwt>
</event>
<event>
 9    1  0.2065703E-002  0.2756812E+03  0.7818608E-02  0.1098071E+00
          1   -1    0    0  501    0  0.00000000000E+00  0.00000000000E+00  0.79570356411E+03  0.79570356411E+03  0.00000000000E+00 0. -1.
         -1   -1    0    0    0  501 -0.00000000000E+00 -0.00000000000E+00 -0.23878283139E+02  0.23878283139E+02  0.00000000000E+00 0. -1.
         36    2    1    2    0    0 -0.71054273576E-14  0.00000000000E+00  0.77182528097E+03  0.81958184725E+03  0.27568122895E+03 0.  0.
         25    2    3    3    0    0  0.50810418581E+02 -0.34424565754E+01  0.33564847794E+03  0.36294726446E+03  0.12836380680E+03 0.  0.
         25    2    3    3    0    0 -0.50810418581E+02  0.34424565754E+01  0.43617680303E+03  0.45663458278E+03  0.12518542066E+03 0.  0.
          5    1    4    4  502    0  0.67941214739E+02 -0.52036865663E+01  0.33809879328E+03  0.34492893620E+03  0.47000000000E+01 0.  1.
         -5    1    4    4    0  502 -0.17130796158E+02  0.17612299910E+01 -0.24503153403E+01  0.18018328262E+02  0.47000000000E+01 0.  1.
          5    1    5    5  503    0 -0.11130599232E+00  0.19368852393E+02  0.37473063176E+03  0.37526031126E+03  0.47000000000E+01 0. -1.
         -5    1    5    5    0  503 -0.50699112589E+02 -0.15926395818E+02  0.61446171274E+02  0.81374271519E+02  0.47000000000E+01 0. -1.
<mgrwt>
<rscale>  0 0.27568123E+03</rscale>
<asrwt>0</asrwt>
<pdfrwt beam="1">  1        1 0.12241591E+00 0.27568123E+03</pdfrwt>
<pdfrwt beam="2">  1       -1 0.36735826E-02 0.27568123E+03</pdfrwt>
<totfact> 0.64755115E+03</totfact>
</mgrwt>
</event>
<event>
 9    1  0.2065703E-002  0.2750323E+03  0.7818608E-02  0.1098434E+00
          1   -1    0    0  501    0  0.00000000000E+00  0.00000000000E+00  0.78397223370E+03  0.78397223370E+03  0.00000000000E+00 0. -1.
         -1   -1    0    0    0  501 -0.00000000000E+00 -0.00000000000E+00 -0.24121630272E+02  0.24121630272E+02  0.00000000000E+00 0. -1.
         36    2    1    2    0    0 -0.10658141036E-13  0.71054273576E-14  0.75985060343E+03  0.80809386397E+03  0.27503227712E+03 0.  0.
         25    2    3    3    0    0  0.31652251385E+02  0.33116487737E+02  0.33335641211E+03  0.36369813544E+03  0.13802633607E+03 0.  0.
         25    2    3    3    0    0 -0.31652251385E+02 -0.33116487737E+02  0.42649419132E+03  0.44439572854E+03  0.11615378398E+03 0.  0.
          5    1    4    4  502    0  0.25945394644E+02  0.36004362930E+02  0.17806314201E+02  0.48048230755E+02  0.47000000000E+01 0.  1.
         -5    1    4    4    0  502  0.57068567412E+01 -0.28878751928E+01  0.31555009791E+03  0.31564990468E+03  0.47000000000E+01 0.  1.
          5    1    5    5  503    0  0.37954431775E+02 -0.10104389572E+02  0.69930945811E+02  0.80343417664E+02  0.47000000000E+01 0. -1.
         -5    1    5    5    0  503 -0.69606683160E+02 -0.23012098165E+02  0.35656324551E+03  0.36405231087E+03  0.47000000000E+01 0. -1.
<mgrwt>
<rscale>  0 0.27503228E+03</rscale>
<asrwt>0</asrwt>
<pdfrwt beam="1">  1        1 0.12061109E+00 0.27503228E+03</pdfrwt>
<pdfrwt beam="2">  1       -1 0.37110206E-02 0.27503228E+03</pdfrwt>
<totfact> 0.65252095E+03</totfact>
</mgrwt>
</event>
<event>
 9    1  0.2065703E-002  0.2776277E+03  0.7818608E-02  0.1096992E+00
          1   -1    0    0  501    0  0.00000000000E+00  0.00000000000E+00  0.98679188768E+03  0.98679188768E+03  0.00000000000E+00 0.  1.
         -1   -1    0    0    0  501 -0.00000000000E+00 -0.00000000000E+00 -0.19527196263E+02  0.19527196263E+02  0.00000000000E+00 0.  1.
         36    2    1    2    0    0  0.00000000000E+00  0.00000000000E+00  0.96726469141E+03  0.10063190839E+04  0.27762765612E+03 0.  0.
         25    2    3    3    0    0 -0.24695049895E+02 -0.48980821377E+02  0.33020871937E+03  0.35501249817E+03  0.11826710936E+03 0.  0.
         25    2    3    3    0    0  0.24695049895E+02  0.48980821377E+02  0.63705597204E+03  0.65130658577E+03  0.12389911541E+03 0.  0.
          5    1    4    4  502    0 -0.12660764347E+02  0.20350152117E+02  0.88050573057E+01  0.25962331929E+02  0.47000000000E+01 0. -1.
         -5    1    4    4    0  502 -0.12034285548E+02 -0.69330973494E+02  0.32140366207E+03  0.32905016624E+03  0.47000000000E+01 0. -1.
          5    1    5    5  503    0  0.94765558414E+01 -0.11911869473E+02  0.58509506467E+01  0.16971192310E+02  0.47000000000E+01 0. -1.
         -5    1    5    5    0  503  0.15218494054E+02  0.60892690850E+02  0.63120502139E+03  0.63433539346E+03  0.47000000000E+01 0. -1.
<mgrwt>
<rscale>  0 0.27762766E+03</rscale>
<asrwt>0</asrwt>
<pdfrwt beam="1">  1        1 0.15181410E+00 0.27762766E+03</pdfrwt>
<pdfrwt beam="2">  1       -1 0.30041848E-02 0.27762766E+03</pdfrwt>
<totfact> 0.61564517E+03</totfact>
</mgrwt>
</event>
<event>
 9    1  0.2065703E-002  0.2742067E+03  0.7818608E-02  0.1098896E+00
          3   -1    0    0  501    0  0.00000000000E+00  0.00000000000E+00  0.14731097860E+02  0.14731097860E+02  0.00000000000E+00 0.  1.
         -3   -1    0    0    0  501 -0.00000000000E+00 -0.00000000000E+00 -0.12760301299E+04  0.12760301299E+04  0.00000000000E+00 0.  1.
         36    2    1    2    0    0  0.00000000000E+00 -0.35527136788E-14 -0.12612990321E+04  0.12907612278E+04  0.27420667181E+03 0.  0.
         25    2    3    3    0    0 -0.45908371996E+02 -0.18647522790E+02 -0.78706417536E+03  0.79881031049E+03  0.12717148765E+03 0.  0.
         25    2    3    3    0    0  0.45908371996E+02  0.18647522790E+02 -0.47423485671E+03  0.49195091731E+03  0.12108549457E+03 0.  0.
          5    1    4    4  502    0  0.70082381688E+01 -0.57314186267E+02 -0.20434112619E+03  0.21239448487E+03  0.47000000000E+01 0. -1.
         -5    1    4    4    0  502 -0.52916610165E+02  0.38666663476E+02 -0.58272304918E+03  0.58641582562E+03  0.47000000000E+01 0. -1.
          5    1    5    5  503    0  0.68946113357E+02 -0.19789021891E+02 -0.17262029516E+03  0.18698938001E+03  0.47000000000E+01 0.  1.
         -5    1    5    5    0  503 -0.23037741361E+02  0.38436544682E+02 -0.30161456155E+03  0.30496153730E+03  0.47000000000E+01 0.  1.
<mgrwt>
<rscale>  0 0.27420667E+03</rscale>
<asrwt>0</asrwt>
<pdfrwt beam="1">  1        3 0.22663222E-02 0.27420667E+03</pdfrwt>
<pdfrwt beam="2">  1       -3 0.19631237E+00 0.27420667E+03</pdfrwt>
<totfact> 0.33437900E+02</totfact>
</mgrwt>
</event>
<event>
 9    1  0.2065703E-002  0.2757526E+03  0.7818608E-02  0.1098032E+00
         -1   -1    0    0    0  501 -0.00000000000E+00  0.00000000000E+00  0.10927257229E+02  0.10927257229E+02  0.00000000000E+00 0. -1.
          1   -1    0    0  501    0  0.00000000000E+00 -0.00000000000E+00 -0.17396747281E+04  0.17396747281E+04  0.00000000000E+00 0. -1.
         36    2    1    2    0    0 -0.71054273576E-14  0.71054273576E-14 -0.17287474709E+04  0.17506019853E+04  0.27575259382E+03 0.  0.
         25    2    3    3    0    0  0.44601358056E+02  0.34700113703E+02 -0.91749640651E+03  0.92768701228E+03  0.12494061692E+03 0.  0.
         25    2    3    3    0    0 -0.44601358056E+02 -0.34700113703E+02 -0.81125106434E+03  0.82291497303E+03  0.12596580654E+03 0.  0.
          5    1    4    4  502    0 -0.26999782923E+02 -0.41360520684E+01 -0.57525635281E+02  0.63854396240E+02  0.47000000000E+01 0. -1.
         -5    1    4    4    0  502  0.71601140979E+02  0.38836165771E+02 -0.85997077123E+03  0.86383261604E+03  0.47000000000E+01 0. -1.
          5    1    5    5  503    0  0.84032022720E+01  0.37679877644E+02 -0.40429682351E+03  0.40616301960E+03  0.47000000000E+01 0.  1.
         -5    1    5    5    0  503 -0.53004560328E+02 -0.72379991347E+02 -0.40695424083E+03  0.41675195344E+03  0.47000000000E+01 0.  1.
<mgrwt>
<rscale>  0 0.27575259E+03</rscale>
<asrwt>0</asrwt>
<pdfrwt beam="1">  1        1 0.26764234E+00 0.27575259E+03</pdfrwt>
<pdfrwt beam="2">  1       -1 0.16811160E-02 0.27575259E+03</pdfrwt>
<totfact> 0.44026414E+03</totfact>
</mgrwt>
</event>
<event>
 9    1  0.2065703E-002  0.2763409E+03  0.7818608E-02  0.1097704E+00
          4   -1    0    0  501    0  0.00000000000E+00  0.00000000000E+00  0.40452486367E+02  0.40452486367E+02  0.00000000000E+00 0. -1.
         -4   -1    0    0    0  501 -0.00000000000E+00 -0.00000000000E+00 -0.47193808932E+03  0.47193808932E+03  0.00000000000E+00 0. -1.
         36    2    1    2    0    0  0.17763568394E-14  0.35527136788E-14 -0.43148560295E+03  0.51239057569E+03  0.27634087012E+03 0.  0.
         25    2    3    3    0    0  0.79862198181E+01  0.21927804362E+02 -0.11921590029E+03  0.17539192411E+03  0.12651200674E+03 0.  0.
         25    2    3    3    0    0 -0.79862198181E+01 -0.21927804362E+02 -0.31226970266E+03  0.33699865157E+03  0.12454362952E+03 0.  0.
          5    1    4    4  502    0 -0.85949918821E+00 -0.22477531184E+02 -0.12712809610E+03  0.12918831590E+03  0.47000000000E+01 0.  1.
         -5    1    4    4    0  502  0.88457190063E+01  0.44405335547E+02  0.79121958025E+01  0.46203608216E+02  0.47000000000E+01 0.  1.
          5    1    5    5  503    0 -0.32421249801E+02 -0.46982550075E+02 -0.28920426360E+03  0.29482146044E+03  0.47000000000E+01 0.  1.
         -5    1    5    5    0  503  0.24435029983E+02  0.25054745713E+02 -0.23065439054E+02  0.42177191132E+02  0.47000000000E+01 0.  1.
<mgrwt>
<rscale>  0 0.27634087E+03</rscale>
<asrwt>0</asrwt>
<pdfrwt beam="1">  1        4 0.62234594E-02 0.27634087E+03</pdfrwt>
<pdfrwt beam="2">  1       -4 0.72605860E-01 0.27634087E+03</pdfrwt>
<totfact> 0.55169545E+02</totfact>
</mgrwt>
</event>
<event>
 9    1  0.2065703E-002  0.2845761E+03  0.7818608E-02  0.1093215E+00
         -2   -1    0    0    0  501 -0.00000000000E+00  0.00000000000E+00  0.38257054826E+02  0.38257054826E+02  0.00000000000E+00 0. -1.
          2   -1    0    0  501    0  0.00000000000E+00 -0.00000000000E+00 -0.52920682195E+03  0.52920682195E+03  0.00000000000E+00 0. -1.
         36    2    1    2    0    0 -0.17763568394E-14 -0.14210854715E-13 -0.49094976713E+03  0.56746387678E+03  0.28457613675E+03 0.  0.
         25    2    3    3    0    0  0.13801617554E+02 -0.68636026623E+02 -0.23771044960E+03  0.27785381762E+03  0.12567854758E+03 0.  0.
         25    2    3    3    0    0 -0.13801617554E+02  0.68636026623E+02 -0.25323931753E+03  0.28961005916E+03  0.12182957615E+03 0.  0.
          5    1    4    4  502    0  0.25863089425E+02  0.30029404693E+02 -0.10231398640E+03  0.10982215784E+03  0.47000000000E+01 0.  1.
         -5    1    4    4    0  502 -0.12061471871E+02 -0.98665431317E+02 -0.13539646320E+03  0.16803165978E+03  0.47000000000E+01 0.  1.
          5    1    5    5  503    0 -0.58596013989E+02  0.51916565816E+00 -0.11036693605E+03  0.12504684307E+03  0.47000000000E+01 0.  1.
         -5    1    5    5    0  503  0.44794396435E+02  0.68116860965E+02 -0.14287238147E+03  0.16456321608E+03  0.47000000000E+01 0.  1.
<mgrwt>
<rscale>  0 0.28457614E+03</rscale>
<asrwt>0</asrwt>
<pdfrwt beam="1">  1        2 0.81416434E-01 0.28457614E+03</pdfrwt>
<pdfrwt beam="2">  1       -2 0.58857007E-02 0.28457614E+03</pdfrwt>
<totfact> 0.88642820E+03</totfact>
</mgrwt>
</event>
<event>
 9    1  0.2065703E-002  0.2797689E+03  0.7818608E-02  0.1095815E+00
          1   -1    0    0  501    0  0.00000000000E+00  0.00000000000E+00  0.16009634642E+03  0.16009634642E+03  0.00000000000E+00 0.  1.
         -1   -1    0    0    0  501 -0.00000000000E+00 -0.00000000000E+00 -0.12222425566E+03  0.12222425566E+03  0.00000000000E+00 0.  1.
         36    2    1    2    0    0  0.00000000000E+00  0.00000000000E+00  0.37872090752E+02  0.28232060208E+03  0.27976888158E+03 0.  0.
         25    2    3    3    0    0  0.51695408968E+02  0.21245717631E+02 -0.13498198803E+02  0.13621924964E+03  0.12348962213E+03 0.  0.
         25    2    3    3    0    0 -0.51695408968E+02 -0.21245717631E+02  0.51370289555E+02  0.14610135244E+03  0.12483149727E+03 0.  0.
          5    1    4    4  502    0  0.66261612118E+02  0.46353178477E+02 -0.45380123451E+02  0.92847530930E+02  0.47000000000E+01 0. -1.
         -5    1    4    4    0  502 -0.14566203149E+02 -0.25107460846E+02  0.31881924648E+02  0.43371718706E+02  0.47000000000E+01 0. -1.
          5    1    5    5  503    0 -0.73122396882E+02 -0.48627847861E+02  0.64051548399E+02  0.10879450062E+03  0.47000000000E+01 0.  1.
         -5    1    5    5    0  503  0.21426987913E+02  0.27382130230E+02 -0.12681258844E+02  0.37306851821E+02  0.47000000000E+01 0.  1.
<mgrwt>
<rscale>  0 0.27976888E+03</rscale>
<asrwt>0</asrwt>
<pdfrwt beam="1">  1        1 0.24630207E-01 0.27976888E+03</pdfrwt>
<pdfrwt beam="2">  1       -1 0.18803732E-01 0.27976888E+03</pdfrwt>
<totfact> 0.43261477E+03</totfact>
</mgrwt>
</event>
<event>
 9    1  0.2065703E-002  0.2747960E+03  0.7818608E-02  0.1098566E+00
          3   -1    0    0  501    0  0.00000000000E+00  0.00000000000E+00  0.15642408335E+03  0.15642408335E+03  0.00000000000E+00 0.  1.
         -3   -1    0    0    0  501 -0.00000000000E+00 -0.00000000000E+00 -0.12068612829E+03  0.12068612829E+03  0.00000000000E+00 0.  1.
         36    2    1    2    0    0 -0.71054273576E-14  0.00000000000E+00  0.35737955058E+02  0.27711021164E+03  0.27479604794E+03 0.  0.
         25    2    3    3    0    0  0.48950710390E+02  0.12102151914E+02  0.82673551856E+01  0.13513039052E+03  0.12509691904E+03 0.  0.
         25    2    3    3    0    0 -0.48950710390E+02 -0.12102151914E+02  0.27470599872E+02  0.14197982111E+03  0.12984991959E+03 0.  0.
          5    1    4    4  502    0  0.74697348836E+02 -0.33016717505E+02  0.12692485242E+02  0.82782768374E+02  0.47000000000E+01 0. -1.
         -5    1    4    4    0  502 -0.25746638446E+02  0.45118869419E+02 -0.44251300568E+01  0.52347622151E+02  0.47000000000E+01 0. -1.
          5    1    5    5  503    0 -0.60261184969E+02  0.34330704334E+02  0.53167973431E+02  0.87515319074E+02  0.47000000000E+01 0.  1.
         -5    1    5    5    0  503  0.11310474579E+02 -0.46432856248E+02 -0.25697373558E+02  0.54464502039E+02  0.47000000000E+01 0.  1.
<mgrwt>
<rscale>  0 0.27479605E+03</rscale>
<asrwt>0</asrwt>
<pdfrwt beam="1">  1        3 0.24065244E-01 0.27479605E+03</pdfrwt>
<pdfrwt beam="2">  1       -3 0.18567097E-01 0.27479605E+03</pdfrwt>
<totfact> 0.10481016E+03</totfact>
</mgrwt>
</event>
<event>
 9    1  0.2065703E-002  0.2755046E+03  0.7818608E-02  0.1098170E+00
         -1   -1    0    0    0  501 -0.00000000000E+00  0.00000000000E+00  0.11769050252E+04  0.11769050252E+04  0.00000000000E+00 0. -1.
          1   -1    0    0  501    0  0.00000000000E+00 -0.00000000000E+00 -0.16123389330E+02  0.16123389330E+02  0.00000000000E+00 0. -1.
         36    2    1    2    0    0  0.00000000000E+00  0.00000000000E+00  0.11607816358E+04  0.11930284145E+04  0.27550461285E+03 0.  0.
         25    2    3    3    0    0  0.13591444286E+02  0.10415868155E+02  0.83689149239E+03  0.84677685785E+03  0.12786891449E+03 0.  0.
         25    2    3    3    0    0 -0.13591444286E+02 -0.10415868155E+02  0.32389014344E+03  0.34625155664E+03  0.12121096398E+03 0.  0.
          5    1    4    4  502    0  0.37505948390E+02  0.60164721570E+02  0.55150605571E+03  0.55606430327E+03  0.47000000000E+01 0.  1.
         -5    1    4    4    0  502 -0.23914504103E+02 -0.49748853415E+02  0.28538543668E+03  0.29071255458E+03  0.47000000000E+01 0.  1.
          5    1    5    5  503    0 -0.44336338447E+02 -0.41767718770E+02  0.26875076616E+03  0.27560717979E+03  0.47000000000E+01 0. -1.
         -5    1    5    5    0  503  0.30744894160E+02  0.31351850615E+02  0.55139377280E+02  0.70644376851E+02  0.47000000000E+01 0. -1.
<mgrwt>
<rscale>  0 0.27550461E+03</rscale>
<asrwt>0</asrwt>
<pdfrwt beam="1">  1        1 0.24805224E-02 0.27550461E+03</pdfrwt>
<pdfrwt beam="2">  1       -1 0.18106224E+00 0.27550461E+03</pdfrwt>
<totfact> 0.10024036E+03</totfact>
</mgrwt>
</event>
<event>
 9    1  0.2065703E-002  0.2747363E+03  0.7818608E-02  0.1098599E+00
         -1   -1    0    0    0  501 -0.00000000000E+00  0.00000000000E+00  0.34405437756E+02  0.34405437756E+02  0.00000000000E+00 0. -1.
          1   -1    0    0  501    0  0.00000000000E+00 -0.00000000000E+00 -0.54846014571E+03  0.54846014571E+03  0.00000000000E+00 0. -1.
         36    2    1    2    0    0  0.00000000000E+00 -0.35527136788E-14 -0.51405470796E+03  0.58286558347E+03  0.27473632017E+03 0.  0.
         25    2    3    3    0    0 -0.84360513870E+01 -0.19133948607E+02 -0.16213188977E+03  0.20769944727E+03  0.12812117609E+03 0.  0.
         25    2    3    3    0    0  0.84360513870E+01  0.19133948607E+02 -0.35192281818E+03  0.37516613620E+03  0.12830699451E+03 0.  0.
          5    1    4    4  502    0  0.48287368697E+02 -0.25908245096E+02 -0.27751139317E+02  0.61604568605E+02  0.47000000000E+01 0.  1.
         -5    1    4    4    0  502 -0.56723420084E+02  0.67742964887E+01 -0.13438075046E+03  0.14609487867E+03  0.47000000000E+01 0.  1.
          5    1    5    5  503    0 -0.55101309326E+02  0.16635571555E+01 -0.95487336953E+02  0.11035779642E+03  0.47000000000E+01 0. -1.
         -5    1    5    5    0  503  0.63537360713E+02  0.17470391451E+02 -0.25643548123E+03  0.26480833978E+03  0.47000000000E+01 0. -1.
<mgrwt>
<rscale>  0 0.27473632E+03</rscale>
<asrwt>0</asrwt>
<pdfrwt beam="1">  1        1 0.84378476E-01 0.27473632E+03</pdfrwt>
<pdfrwt beam="2">  1       -1 0.52931448E-02 0.27473632E+03</pdfrwt>
<totfact> 0.64060935E+03</totfact>
</mgrwt>
</event>
<event>
 9    1  0.2065703E-002  0.2788719E+03  0.7818608E-02  0.1096307E+00
         -2   -1    0    0    0  501 -0.00000000000E+00  0.00000000000E+00  0.34102295273E+02  0.34102295273E+02  0.00000000000E+00 0. -1.
          2   -1    0    0  501    0  0.00000000000E+00 -0.00000000000E+00 -0.57011944128E+03  0.57011944128E+03  0.00000000000E+00 0. -1.
         36    2    1    2    0    0  0.35527136788E-14 -0.35527136788E-14 -0.53601714601E+03  0.60422173655E+03  0.27887188118E+03 0.  0.
         25    2    3    3    0    0 -0.25598455162E+02 -0.13241384396E+02 -0.38648040805E+03  0.40491172488E+03  0.11728505431E+03 0.  0.
         25    2    3    3    0    0  0.25598455162E+02  0.13241384396E+02 -0.14953673795E+03  0.19931001168E+03  0.12857927356E+03 0.  0.
          5    1    4    4  502    0  0.19505408626E+02 -0.42976608080E+02 -0.29322306611E+03  0.29703418373E+03  0.47000000000E+01 0.  1.
         -5    1    4    4    0  502 -0.45103863788E+02  0.29735223685E+02 -0.93257341946E+02  0.10787754114E+03  0.47000000000E+01 0.  1.
          5    1    5    5  503    0  0.68037352635E+02  0.39617285187E+02 -0.71083468464E+02  0.10617702260E+03  0.47000000000E+01 0. -1.
         -5    1    5    5    0  503 -0.42438897473E+02 -0.26375900791E+02 -0.78453269487E+02  0.93132989077E+02  0.47000000000E+01 0. -1.
<mgrwt>
<rscale>  0 0.27887188E+03</rscale>
<asrwt>0</asrwt>
<pdfrwt beam="1">  1        2 0.87710682E-01 0.27887188E+03</pdfrwt>
<pdfrwt beam="2">  1       -2 0.52465070E-02 0.27887188E+03</pdfrwt>
<totfact> 0.97007826E+03</totfact>
</mgrwt>
</event>
<event>
 9    1  0.2065703E-002  0.2725270E+03  0.7818608E-02  0.1099842E+00
          4   -1    0    0  501    0  0.00000000000E+00  0.00000000000E+00  0.29991022389E+03  0.29991022389E+03  0.00000000000E+00 0. -1.
         -4   -1    0    0    0  501 -0.00000000000E+00 -0.00000000000E+00 -0.61910993305E+02  0.61910993305E+02  0.00000000000E+00 0. -1.
         36    2    1    2    0    0  0.00000000000E+00 -0.13322676296E-14  0.23799923059E+03  0.36182121720E+03  0.27252698849E+03 0.  0.
         25    2    3    3    0    0 -0.52873778498E+02  0.11893262011E+01  0.14861968519E+03  0.20332722011E+03  0.12828521607E+03 0.  0.
         25    2    3    3    0    0  0.52873778498E+02 -0.11893262011E+01  0.89379545397E+02  0.15849399709E+03  0.11972716078E+03 0.  0.
          5    1    4    4  502    0  0.33109775134E+02  0.64800347402E+00  0.97742221430E+02  0.10330686796E+03  0.47000000000E+01 0.  1.
         -5    1    4    4    0  502 -0.85983553632E+02  0.54132272713E+00  0.50877463759E+02  0.10002035215E+03  0.47000000000E+01 0.  1.
          5    1    5    5  503    0  0.89452983652E+02 -0.16249681473E+02  0.61137400156E+02  0.10966202684E+03  0.47000000000E+01 0.  1.
         -5    1    5    5    0  503 -0.36579205154E+02  0.15060355272E+02  0.28242145241E+02  0.48831970249E+02  0.47000000000E+01 0.  1.
<mgrwt>
<rscale>  0 0.27252699E+03</rscale>
<asrwt>0</asrwt>
<pdfrwt beam="1">  1        4 0.46140034E-01 0.27252699E+03</pdfrwt>
<pdfrwt beam="2">  1       -4 0.95247684E-02 0.27252699E+03</pdfrwt>
<totfact> 0.70493461E+02</totfact>
</mgrwt>
</event>
<event>
 9    1  0.2065703E-002  0.2739980E+03  0.7818608E-02  0.1099013E+00
         -1   -1    0    0    0  501 -0.00000000000E+00  0.00000000000E+00  0.33321245101E+03  0.33321245101E+03  0.00000000000E+00 0.  1.
          1   -1    0    0  501    0  0.00000000000E+00 -0.00000000000E+00 -0.56326604413E+02  0.56326604413E+02  0.00000000000E+00 0.  1.
         36    2    1    2    0    0  0.35527136788E-14  0.00000000000E+00  0.27688584659E+03  0.38953905542E+03  0.27399799936E+03 0.  0.
         25    2    3    3    0    0  0.21874977586E+01 -0.55392266034E+02  0.13524310679E+03  0.19219958584E+03  0.12480742999E+03 0.  0.
         25    2    3    3    0    0 -0.21874977586E+01  0.55392266034E+02  0.14164273981E+03  0.19733946958E+03  0.12572633865E+03 0.  0.
          5    1    4    4  502    0 -0.26699791102E+02 -0.80650676432E+02  0.12668208961E+03  0.15260357886E+03  0.47000000000E+01 0. -1.
         -5    1    4    4    0  502  0.28887288861E+02  0.25258410398E+02  0.85610171760E+01  0.39596006979E+02  0.47000000000E+01 0. -1.
          5    1    5    5  503    0  0.36813937206E+02 -0.37848482766E+00  0.12024884621E+03  0.12584627225E+03  0.47000000000E+01 0. -1.
         -5    1    5    5    0  503 -0.39001434965E+02  0.55770750862E+02  0.21393893594E+02  0.71493197327E+02  0.47000000000E+01 0. -1.
<mgrwt>
<rscale>  0 0.27399800E+03</rscale>
<asrwt>0</asrwt>
<pdfrwt beam="1">  1        1 0.86656316E-02 0.27399800E+03</pdfrwt>
<pdfrwt beam="2">  1       -1 0.51263453E-01 0.27399800E+03</pdfrwt>
<totfact> 0.30450290E+03</totfact>
</mgrwt>
</event>
<event>
 9    1  0.2065703E-002  0.2711456E+03  0.7818608E-02  0.1100626E+00
          2   -1    0    0  501    0  0.00000000000E+00  0.00000000000E+00  0.13368596148E+03  0.13368596148E+03  0.00000000000E+00 0. -1.
         -2   -1    0    0    0  501 -0.00000000000E+00 -0.00000000000E+00 -0.13748629322E+03  0.13748629322E+03  0.00000000000E+00 0. -1.
         36    2    1    2    0    0 -0.14210854715E-13  0.00000000000E+00 -0.38003317369E+01  0.27117225470E+03  0.27114562360E+03 0.  0.
         25    2    3    3    0    0  0.57913454288E+02  0.12551372005E+02 -0.18382824503E+02  0.13520332756E+03  0.12012704283E+03 0.  0.
         25    2    3    3    0    0 -0.57913454288E+02 -0.12551372005E+02  0.14582492766E+02  0.13596892714E+03  0.12150471154E+03 0.  0.
          5    1    4    4  502    0  0.71258071488E+02  0.91560305711E+01  0.34871006749E+02  0.79997642213E+02  0.47000000000E+01 0.  1.
         -5    1    4    4    0  502 -0.13344617200E+02  0.33953414339E+01 -0.53253831252E+02  0.55205685347E+02  0.47000000000E+01 0.  1.
          5    1    5    5  503    0 -0.59490982819E+02  0.46664705198E+02  0.75275525834E+01  0.76128350803E+02  0.47000000000E+01 0.  1.
         -5    1    5    5    0  503  0.15775285316E+01 -0.59216077203E+02  0.70549401828E+01  0.59840576339E+02  0.47000000000E+01 0.  1.
<mgrwt>
<rscale>  0 0.27114562E+03</rscale>
<asrwt>0</asrwt>
<pdfrwt beam="1">  1        2 0.20567071E-01 0.27114562E+03</pdfrwt>
<pdfrwt beam="2">  1       -2 0.21151737E-01 0.27114562E+03</pdfrwt>
<totfact> 0.50894892E+03</totfact>
</mgrwt>
</event>
<event>
 9    1  0.2065703E-002  0.2745735E+03  0.7818608E-02  0.1098690E+00
         -2   -1    0    0    0  501 -0.00000000000E+00  0.00000000000E+00  0.11671081738E+02  0.11671081738E+02  0.00000000000E+00 0.  1.
          2   -1    0    0  501    0  0.00000000000E+00 -0.00000000000E+00 -0.16149014376E+04  0.16149014376E+04  0.00000000000E+00 0.  1.
         36    2    1    2    0    0 -0.71054273576E-14  0.35527136788E-14 -0.16032303559E+04  0.16265725194E+04  0.27457346323E+03 0.  0.
         25    2    3    3    0    0 -0.29000759913E+02 -0.18988847921E+02 -0.10658048153E+04  0.10735106671E+04  0.12362696934E+03 0.  0.
         25    2    3    3    0    0  0.29000759913E+02  0.18988847921E+02 -0.53742554056E+03  0.55306185228E+03  0.12589511658E+03 0.  0.
          5    1    4    4  502    0  0.12865356666E+02  0.37517087449E+02 -0.15785240597E+03  0.16282666036E+03  0.47000000000E+01 0. -1.
         -5    1    4    4    0  502 -0.41866116579E+02 -0.56505935370E+02 -0.90795240936E+03  0.91068400673E+03  0.47000000000E+01 0. -1.
          5    1    5    5  503    0 -0.35931158482E+02 -0.31622099201E+02 -0.20325161494E+03  0.20886434422E+03  0.47000000000E+01 0.  1.
         -5    1    5    5    0  503  0.64931918395E+02  0.50610947121E+02 -0.33417392562E+03  0.34419750806E+03  0.47000000000E+01 0.  1.
<mgrwt>
<rscale>  0 0.27457346E+03</rscale>
<asrwt>0</asrwt>
<pdfrwt beam="1">  1        2 0.24844635E+00 0.27457346E+03</pdfrwt>
<pdfrwt beam="2">  1       -2 0.17955512E-02 0.27457346E+03</pdfrwt>
<totfact> 0.10736261E+04</totfact>
</mgrwt>
</event>
<event>
 9    1  0.2065703E-002  0.2767789E+03  0.7818608E-02  0.1097461E+00
          1   -1    0    0  501    0  0.00000000000E+00  0.00000000000E+00  0.96587892744E+03  0.96587892744E+03  0.00000000000E+00 0.  1.
         -1   -1    0    0    0  501 -0.00000000000E+00 -0.00000000000E+00 -0.19828195378E+02  0.19828195378E+02  0.00000000000E+00 0.  1.
         36    2    1    2    0    0 -0.71054273576E-14  0.00000000000E+00  0.94605073206E+03  0.98570712282E+03  0.27677887264E+03 0.  0.
         25    2    3    3    0    0  0.41043260980E+02  0.21704840820E+02  0.35953569633E+03  0.38395983814E+03  0.12650530021E+03 0.  0.
         25    2    3    3    0    0 -0.41043260980E+02 -0.21704840820E+02  0.58651503573E+03  0.60174728468E+03  0.12627057492E+03 0.  0.
          5    1    4    4  502    0  0.35826726336E+02  0.73670565173E+02  0.23090518987E+03  0.24505142970E+03  0.47000000000E+01 0.  1.
         -5    1    4    4    0  502  0.52165346440E+01 -0.51965724353E+02  0.12863050646E+03  0.13890840843E+03  0.47000000000E+01 0.  1.
          5    1    5    5  503    0 -0.16975015227E+02  0.13095795486E+02  0.10802739847E+02  0.24463037210E+02  0.47000000000E+01 0. -1.
         -5    1    5    5    0  503 -0.24068245754E+02 -0.34800636305E+02  0.57571229589E+03  0.57728424747E+03  0.47000000000E+01 0. -1.
<mgrwt>
<rscale>  0 0.27677887E+03</rscale>
<asrwt>0</asrwt>
<pdfrwt beam="1">  1        1 0.14859672E+00 0.27677887E+03</pdfrwt>
<pdfrwt beam="2">  1       -1 0.30504924E-02 0.27677887E+03</pdfrwt>
<totfact> 0.62419290E+03</totfact>
</mgrwt>
</event>
<event>
 9    1  0.2065703E-002  0.2751100E+03  0.7818608E-02  0.1098390E+00
          2   -1    0    0  501    0  0.00000000000E+00  0.00000000000E+00  0.63508663619E+03  0.63508663619E+03  0.00000000000E+00 0. -1.
         -2   -1    0    0    0  501 -0.00000000000E+00 -0.00000000000E+00 -0.29793383116E+02  0.29793383116E+02  0.00000000000E+00 0. -1.
         36    2    1    2    0    0  0.00000000000E+00 -0.71054273576E-14  0.60529325308E+03  0.66488001931E+03  0.27511001046E+03 0.  0.
         25    2    3    3    0    0  0.12242301443E+02  0.44049616923E+02  0.47263603955E+03  0.49083789065E+03  0.12428502052E+03 0.  0.
         25    2    3    3    0    0 -0.12242301443E+02 -0.44049616923E+02  0.13265721353E+03  0.17404212865E+03  0.10296836189E+03 0.  0.
          5    1    4    4  502    0  0.36257636664E+02 -0.33465819292E+01  0.37627469617E+02  0.52571211674E+02  0.47000000000E+01 0.  1.
         -5    1    4    4    0  502 -0.24015335221E+02  0.47396198852E+02  0.43500856993E+03  0.43826667898E+03  0.47000000000E+01 0.  1.
          5    1    5    5  503    0 -0.50314548556E+01  0.75895410210E+00  0.12798884239E+03  0.12817614960E+03  0.47000000000E+01 0.  1.
         -5    1    5    5    0  503 -0.72108465877E+01 -0.44808571025E+02  0.46683711394E+01  0.45865979057E+02  0.47000000000E+01 0.  1.
<mgrwt>
<rscale>  0 0.27511001E+03</rscale>
<asrwt>0</asrwt>
<pdfrwt beam="1">  1        2 0.97705626E-01 0.27511001E+03</pdfrwt>
<pdfrwt beam="2">  1       -2 0.45835979E-02 0.27511001E+03</pdfrwt>
<totfact> 0.10499407E+04</totfact>
</mgrwt>
</event>
<event>
 9    1  0.2065703E-002  0.2729283E+03  0.7818608E-02  0.1099615E+00
          2   -1    0    0  501    0  0.00000000000E+00  0.00000000000E+00  0.11280211054E+04  0.11280211054E+04  0.00000000000E+00 0. -1.
         -2   -1    0    0    0  501 -0.00000000000E+00 -0.00000000000E+00 -0.16508964671E+02  0.16508964671E+02  0.00000000000E+00 0. -1.
         36    2    1    2    0    0  0.00000000000E+00  0.00000000000E+00  0.11115121407E+04  0.11445300700E+04  0.27292827319E+03 0.  0.
         25    2    3    3    0    0 -0.35931778420E+02  0.41619274294E+02  0.60237013947E+03  0.61778362277E+03  0.12563265081E+03 0.  0.
         25    2    3    3    0    0  0.35931778420E+02 -0.41619274294E+02  0.50914200122E+03  0.52674644726E+03  0.12334093237E+03 0.  0.
          5    1    4    4  502    0 -0.67322465789E+02  0.10535452797E+02  0.17107665806E+03  0.18420809727E+03  0.47000000000E+01 0. -1.
         -5    1    4    4    0  502  0.31390687370E+02  0.31083821497E+02  0.43129348141E+03  0.43357552551E+03  0.47000000000E+01 0. -1.
          5    1    5    5  503    0 -0.44614181579E+02 -0.14838812048E+02  0.23588664341E+03  0.24057267941E+03  0.47000000000E+01 0.  1.
         -5    1    5    5    0  503  0.80545959998E+02 -0.26780462246E+02  0.27325535781E+03  0.28617376785E+03  0.47000000000E+01 0.  1.
<mgrwt>
<rscale>  0 0.27292827E+03</rscale>
<asrwt>0</asrwt>
<pdfrwt beam="1">  1        2 0.17354165E+00 0.27292827E+03</pdfrwt>
<pdfrwt beam="2">  1       -2 0.25398416E-02 0.27292827E+03</pdfrwt>
<totfact> 0.11914515E+04</totfact>
</mgrwt>
</event>
<event>
 9    1  0.2065703E-002  0.2774635E+03  0.7818608E-02  0.1097082E+00
          2   -1    0    0  501    0  0.00000000000E+00  0.00000000000E+00  0.36404713687E+02  0.36404713687E+02  0.00000000000E+00 0. -1.
         -2   -1    0    0    0  501 -0.00000000000E+00 -0.00000000000E+00 -0.52868168403E+03  0.52868168403E+03  0.00000000000E+00 0. -1.
         36    2    1    2    0    0  0.00000000000E+00 -0.14210854715E-13 -0.49227697034E+03  0.56508639771E+03  0.27746354960E+03 0.  0.
         25    2    3    3    0    0 -0.67768541713E+02  0.39359032477E+02 -0.17472441096E+03  0.22780110303E+03  0.12338157914E+03 0.  0.
         25    2    3    3    0    0  0.67768541713E+02 -0.39359032477E+02 -0.31755255938E+03  0.33728529469E+03  0.82340957977E+02 0.  0.
          5    1    4    4  502    0  0.21694651816E+02 -0.26595079114E+02 -0.35673622187E+02  0.49725782753E+02  0.47000000000E+01 0. -1.
         -5    1    4    4    0  502 -0.89463193529E+02  0.65954111590E+02 -0.13905078877E+03  0.17807532027E+03  0.47000000000E+01 0. -1.
          5    1    5    5  503    0  0.26185350716E+01  0.18844012571E+02 -0.11482393854E+03  0.11648424957E+03  0.47000000000E+01 0.  1.
         -5    1    5    5    0  503  0.65150006642E+02 -0.58203045048E+02 -0.20272862084E+03  0.22080104512E+03  0.47000000000E+01 0.  1.
<mgrwt>
<rscale>  0 0.27746355E+03</rscale>
<asrwt>0</asrwt>
<pdfrwt beam="1">  1        2 0.56007251E-02 0.27746355E+03</pdfrwt>
<pdfrwt beam="2">  1       -2 0.81335645E-01 0.27746355E+03</pdfrwt>
<totfact> 0.18545537E+03</totfact>
</mgrwt>
</event>
<event>
 9    1  0.2065703E-002  0.2757943E+03  0.7818608E-02  0.1098008E+00
         -2   -1    0    0    0  501 -0.00000000000E+00  0.00000000000E+00  0.53847465905E+02  0.53847465905E+02  0.00000000000E+00 0. -1.
          2   -1    0    0  501    0  0.00000000000E+00 -0.00000000000E+00 -0.35313872835E+03  0.35313872835E+03  0.00000000000E+00 0. -1.
         36    2    1    2    0    0 -0.71054273576E-14 -0.35527136788E-14 -0.29929126245E+03  0.40698619426E+03  0.27579431201E+03 0.  0.
         25    2    3    3    0    0  0.37603259641E+02 -0.23810692098E+01 -0.85281117861E+02  0.15616376459E+03  0.12527800158E+03 0.  0.
         25    2    3    3    0    0 -0.37603259641E+02  0.23810692098E+01 -0.21401014459E+03  0.25082242967E+03  0.12526721284E+03 0.  0.
          5    1    4    4  502    0  0.29787438749E+02 -0.62820333460E+02 -0.44267904786E+02  0.82555576416E+02  0.47000000000E+01 0.  1.
         -5    1    4    4    0  502  0.78158208920E+01  0.60439264251E+02 -0.41013213075E+02  0.73608188173E+02  0.47000000000E+01 0.  1.
          5    1    5    5  503    0 -0.10114817129E+02 -0.23625943389E+02 -0.21095641366E+03  0.21256809072E+03  0.47000000000E+01 0.  1.
         -5    1    5    5    0  503 -0.27488442512E+02  0.26007012599E+02 -0.30537309265E+01  0.38254338952E+02  0.47000000000E+01 0.  1.
<mgrwt>
<rscale>  0 0.27579431E+03</rscale>
<asrwt>0</asrwt>
<pdfrwt beam="1">  1        2 0.54329035E-01 0.27579431E+03</pdfrwt>
<pdfrwt beam="2">  1       -2 0.82842255E-02 0.27579431E+03</pdfrwt>
<totfact> 0.81337900E+03</totfact>
</mgrwt>
</event>
<event>
 9    1  0.2065703E-002  0.2727483E+03  0.7818608E-02  0.1099717E+00
         -1   -1    0    0    0  501 -0.00000000000E+00  0.00000000000E+00  0.18433047144E+02  0.18433047144E+02  0.00000000000E+00 0. -1.
          1   -1    0    0  501    0  0.00000000000E+00 -0.00000000000E+00 -0.10089441530E+04  0.10089441530E+04  0.00000000000E+00 0. -1.
         36    2    1    2    0    0  0.00000000000E+00  0.00000000000E+00 -0.99051110590E+03  0.10273772002E+04  0.27274834657E+03 0.  0.
         25    2    3    3    0    0 -0.10761098500E+02  0.14665556021E+02 -0.71506693878E+03  0.72587192766E+03  0.12344411146E+03 0.  0.
         25    2    3    3    0    0  0.10761098500E+02 -0.14665556021E+02 -0.27544416712E+03  0.30150527253E+03  0.12126442342E+03 0.  0.
          5    1    4    4  502    0  0.47995338676E+02 -0.12391180572E+02 -0.46005540489E+03  0.46274200097E+03  0.47000000000E+01 0.  1.
         -5    1    4    4    0  502 -0.58756437176E+02  0.27056736593E+02 -0.25501153388E+03  0.26312992669E+03  0.47000000000E+01 0.  1.
          5    1    5    5  503    0 -0.45571929274E+02 -0.53729519930E+01 -0.46483133497E+02  0.65486189770E+02  0.47000000000E+01 0.  1.
         -5    1    5    5    0  503  0.56333027775E+02 -0.92926040284E+01 -0.22896103362E+03  0.23601908276E+03  0.47000000000E+01 0.  1.
<mgrwt>
<rscale>  0 0.27274835E+03</rscale>
<asrwt>0</asrwt>
<pdfrwt beam="1">  1        1 0.15522217E+00 0.27274835E+03</pdfrwt>
<pdfrwt beam="2">  1       -1 0.28358535E-02 0.27274835E+03</pdfrwt>
<totfact> 0.64490772E+03</totfact>
</mgrwt>
</event>
<event>
 9    1  0.2065703E-002  0.2746378E+03  0.7818608E-02  0.1098654E+00
          2   -1    0    0  501    0  0.00000000000E+00  0.00000000000E+00  0.93990436138E+03  0.93990436138E+03  0.00000000000E+00 0.  1.
         -2   -1    0    0    0  501 -0.00000000000E+00 -0.00000000000E+00 -0.20062119655E+02  0.20062119655E+02  0.00000000000E+00 0.  1.
         36    2    1    2    0    0  0.35527136788E-14  0.00000000000E+00  0.91984224172E+03  0.95996648103E+03  0.27463775241E+03 0.  0.
         25    2    3    3    0    0  0.29678990286E+02  0.61845124297E+02  0.53096803616E+03  0.54959793363E+03  0.12419811337E+03 0.  0.
         25    2    3    3    0    0 -0.29678990286E+02 -0.61845124297E+02  0.38887420556E+03  0.41036854740E+03  0.11168498144E+03 0.  0.
          5    1    4    4  502    0 -0.11509830253E+02  0.78135426279E+02  0.19120495871E+03  0.20692763776E+03  0.47000000000E+01 0. -1.
         -5    1    4    4    0  502  0.41188820539E+02 -0.16290301982E+02  0.33976307745E+03  0.34267029588E+03  0.47000000000E+01 0. -1.
          5    1    5    5  503    0  0.22799902509E+02 -0.73476555903E+02  0.23344236666E+03  0.24583748366E+03  0.47000000000E+01 0.  1.
         -5    1    5    5    0  503 -0.52478892795E+02  0.11631431606E+02  0.15543183890E+03  0.16453106374E+03  0.47000000000E+01 0.  1.
<mgrwt>
<rscale>  0 0.27463775E+03</rscale>
<asrwt>0</asrwt>
<pdfrwt beam="1">  1        2 0.14460064E+00 0.27463775E+03</pdfrwt>
<pdfrwt beam="2">  1       -2 0.30864807E-02 0.27463775E+03</pdfrwt>
<totfact> 0.11591015E+04</totfact>
</mgrwt>
</event>
<event>
 9    1  0.2065703E-002  0.2752595E+03  0.7818608E-02  0.1098307E+00
          4   -1    0    0  501    0  0.00000000000E+00  0.00000000000E+00  0.19368215002E+03  0.19368215002E+03  0.00000000000E+00 0. -1.
         -4   -1    0    0    0  501 -0.00000000000E+00 -0.00000000000E+00 -0.97799125112E+02  0.97799125112E+02  0.00000000000E+00 0. -1.
         36    2    1    2    0    0  0.71054273576E-14 -0.17763568394E-14  0.95883024906E+02  0.29148127513E+03  0.27525947629E+03 0.  0.
         25    2    3    3    0    0  0.20801470252E+02 -0.19627450561E+01  0.11008540852E+03  0.17359168530E+03  0.13258477479E+03 0.  0.
         25    2    3    3    0    0 -0.20801470252E+02  0.19627450561E+01 -0.14202383609E+02  0.11788958983E+03  0.11515074536E+03 0.  0.
          5    1    4    4  502    0  0.66762345721E+02 -0.29892911635E+02  0.35303222265E+02  0.81358493560E+02  0.47000000000E+01 0. -1.
         -5    1    4    4    0  502 -0.45960875469E+02  0.27930166579E+02  0.74782186250E+02  0.92233191744E+02  0.47000000000E+01 0. -1.
          5    1    5    5  503    0  0.41897035951E+02  0.15315143995E+02 -0.26995441964E+02  0.52352260160E+02  0.47000000000E+01 0.  1.
         -5    1    5    5    0  503 -0.62698506203E+02 -0.13352398939E+02  0.12793058355E+02  0.65537329665E+02  0.47000000000E+01 0.  1.
<mgrwt>
<rscale>  0 0.27525948E+03</rscale>
<asrwt>0</asrwt>
<pdfrwt beam="1">  1        4 0.29797254E-01 0.27525948E+03</pdfrwt>
<pdfrwt beam="2">  1       -4 0.15046019E-01 0.27525948E+03</pdfrwt>
<totfact> 0.75732137E+02</totfact>
</mgrwt>
</event>
<event>
 9    1  0.2065703E-002  0.2752409E+03  0.7818608E-02  0.1098317E+00
         -1   -1    0    0    0  501 -0.00000000000E+00  0.00000000000E+00  0.23071714361E+03  0.23071714361E+03  0.00000000000E+00 0.  1.
          1   -1    0    0  501    0  0.00000000000E+00 -0.00000000000E+00 -0.82089223601E+02  0.82089223601E+02  0.00000000000E+00 0.  1.
         36    2    1    2    0    0 -0.14210854715E-13  0.71054273576E-14  0.14862792001E+03  0.31280636721E+03  0.27524092130E+03 0.  0.
         25    2    3    3    0    0 -0.50988210753E+02 -0.15724054189E+02  0.34527361048E+02  0.13578725562E+03  0.11999581914E+03 0.  0.
         25    2    3    3    0    0  0.50988210753E+02  0.15724054189E+02  0.11410055896E+03  0.17701911159E+03  0.12437758961E+03 0.  0.
          5    1    4    4  502    0  0.24202713305E+01  0.21889151413E+02 -0.34138347193E+02  0.40896325165E+02  0.47000000000E+01 0.  1.
         -5    1    4    4    0  502 -0.53408482083E+02 -0.37613205602E+02  0.68665708241E+02  0.94890930454E+02  0.47000000000E+01 0.  1.
          5    1    5    5  503    0  0.14695886629E+02 -0.49475700044E+02  0.78853058309E+02  0.94359465785E+02  0.47000000000E+01 0.  1.
         -5    1    5    5    0  503  0.36292324124E+02  0.65199754233E+02  0.35247500650E+02  0.82659645804E+02  0.47000000000E+01 0.  1.
<mgrwt>
<rscale>  0 0.27524092E+03</rscale>
<asrwt>0</asrwt>
<pdfrwt beam="1">  1        1 0.12629111E-01 0.27524092E+03</pdfrwt>
<pdfrwt beam="2">  1       -1 0.35494945E-01 0.27524092E+03</pdfrwt>
<totfact> 0.35577283E+03</totfact>
</mgrwt>
</event>
<event>
 9    1  0.2065703E-002  0.2747786E+03  0.7818608E-02  0.1098575E+00
         -2   -1    0    0    0  501 -0.00000000000E+00  0.00000000000E+00  0.88732163180E+03  0.88732163180E+03  0.00000000000E+00 0.  1.
          2   -1    0    0  501    0  0.00000000000E+00 -0.00000000000E+00 -0.21272798669E+02  0.21272798669E+02  0.00000000000E+00 0.  1.
         36    2    1    2    0    0 -0.71054273576E-14 -0.71054273576E-14  0.86604883313E+03  0.90859443047E+03  0.27477856123E+03 0.  0.
         25    2    3    3    0    0  0.29055859032E+02  0.33568775428E+02  0.39641763780E+03  0.41956127164E+03  0.13005234129E+03 0.  0.
         25    2    3    3    0    0 -0.29055859032E+02 -0.33568775428E+02  0.46963119533E+03  0.48903315883E+03  0.12895295722E+03 0.  0.
          5    1    4    4  502    0 -0.22553660771E+02  0.14890581957E+02  0.33857569581E+03  0.33968513191E+03  0.47000000000E+01 0.  1.
         -5    1    4    4    0  502  0.51609519803E+02  0.18678193471E+02  0.57841941982E+02  0.79876139728E+02  0.47000000000E+01 0.  1.
          5    1    5    5  503    0 -0.21769090396E+02 -0.69473869179E+02  0.42445187461E+03  0.43067620744E+03  0.47000000000E+01 0.  1.
         -5    1    5    5    0  503 -0.72867686359E+01  0.35905093751E+02  0.45179320725E+02  0.58356951390E+02  0.47000000000E+01 0.  1.
<mgrwt>
<rscale>  0 0.27477856E+03</rscale>
<asrwt>0</asrwt>
<pdfrwt beam="1">  1        2 0.32727389E-02 0.27477856E+03</pdfrwt>
<pdfrwt beam="2">  1       -2 0.13651099E+00 0.27477856E+03</pdfrwt>
<totfact> 0.11227698E+03</totfact>
</mgrwt>
</event>
<event>
 9    1  0.2065703E-002  0.2750255E+03  0.7818608E-02  0.1098437E+00
          2   -1    0    0  501    0  0.00000000000E+00  0.00000000000E+00  0.23462081119E+03  0.23462081119E+03  0.00000000000E+00 0. -1.
         -2   -1    0    0    0  501 -0.00000000000E+00 -0.00000000000E+00 -0.80597120084E+02  0.80597120084E+02  0.00000000000E+00 0. -1.
         36    2    1    2    0    0  0.00000000000E+00  0.00000000000E+00  0.15402369111E+03  0.31521793128E+03  0.27502553841E+03 0.  0.
         25    2    3    3    0    0  0.42399027828E+02 -0.46010286478E+01  0.39172224129E+02  0.13930489700E+03  0.12669863519E+03 0.  0.
         25    2    3    3    0    0 -0.42399027828E+02  0.46010286478E+01  0.11485146698E+03  0.17591303428E+03  0.12623663944E+03 0.  0.
          5    1    4    4  502    0  0.27518735594E+02 -0.61683765020E+02  0.42658453231E+02  0.80025004266E+02  0.47000000000E+01 0. -1.
         -5    1    4    4    0  502  0.14880292235E+02  0.57082736373E+02 -0.34862291017E+01  0.59279892730E+02  0.47000000000E+01 0. -1.
          5    1    5    5  503    0 -0.44535572386E+02 -0.48275544398E+02  0.10174140028E+03  0.12119136902E+03  0.47000000000E+01 0. -1.
         -5    1    5    5    0  503  0.21365445571E+01  0.52876573046E+02  0.13110066699E+02  0.54721665258E+02  0.47000000000E+01 0. -1.
<mgrwt>
<rscale>  0 0.27502554E+03</rscale>
<asrwt>0</asrwt>
<pdfrwt beam="1">  1        2 0.36095509E-01 0.27502554E+03</pdfrwt>
<pdfrwt beam="2">  1       -2 0.12399557E-01 0.27502554E+03</pdfrwt>
<totfact> 0.66501444E+03</totfact>
</mgrwt>
</event>
<event>
 9    1  0.2065703E-002  0.2787176E+03  0.7818608E-02  0.1096391E+00
         -2   -1    0    0    0  501 -0.00000000000E+00  0.00000000000E+00  0.15337374365E+03  0.15337374365E+03  0.00000000000E+00 0. -1.
          2   -1    0    0  501    0  0.00000000000E+00 -0.00000000000E+00 -0.12662447140E+03  0.12662447140E+03  0.00000000000E+00 0. -1.
         36    2    1    2    0    0 -0.71054273576E-14  0.00000000000E+00  0.26749272250E+02  0.27999821505E+03  0.27871755751E+03 0.  0.
         25    2    3    3    0    0  0.33305742962E+02  0.10667515229E+02  0.42151792339E+02  0.14857073810E+03  0.13810656113E+03 0.  0.
         25    2    3    3    0    0 -0.33305742962E+02 -0.10667515229E+02 -0.15402520090E+02  0.13142747695E+03  0.12574925716E+03 0.  0.
          5    1    4    4  502    0 -0.35511619865E+02  0.45278791577E+02  0.42001286384E+02  0.71396373648E+02  0.47000000000E+01 0.  1.
         -5    1    4    4    0  502  0.68817362827E+02 -0.34611276349E+02  0.15050595501E+00  0.77174364455E+02  0.47000000000E+01 0.  1.
          5    1    5    5  503    0 -0.40042255806E+02  0.33164201736E+02  0.35971791087E+02  0.63397999029E+02  0.47000000000E+01 0. -1.
         -5    1    5    5    0  503  0.67365128435E+01 -0.43831716965E+02 -0.51374311177E+02  0.68029477921E+02  0.47000000000E+01 0. -1.
<mgrwt>
<rscale>  0 0.27871756E+03</rscale>
<asrwt>0</asrwt>
<pdfrwt beam="1">  1        2 0.19480688E-01 0.27871756E+03</pdfrwt>
<pdfrwt beam="2">  1       -2 0.23595961E-01 0.27871756E+03</pdfrwt>
<totfact> 0.44834032E+03</totfact>
</mgrwt>
</event>
<event>
 9    1  0.2065703E-002  0.2775096E+03  0.7818608E-02  0.1097057E+00
         -2   -1    0    0    0  501 -0.00000000000E+00  0.00000000000E+00  0.24358115285E+02  0.24358115285E+02  0.00000000000E+00 0. -1.
          2   -1    0    0  501    0  0.00000000000E+00 -0.00000000000E+00 -0.79040990469E+03  0.79040990469E+03  0.00000000000E+00 0. -1.
         36    2    1    2    0    0  0.00000000000E+00  0.00000000000E+00 -0.76605178941E+03  0.81476801998E+03  0.27750960762E+03 0.  0.
         25    2    3    3    0    0 -0.41667666476E+02 -0.88231055693E+01 -0.32942527188E+03  0.35487149828E+03  0.12489487143E+03 0.  0.
         25    2    3    3    0    0  0.41667666476E+02  0.88231055693E+01 -0.43662651752E+03  0.45989652170E+03  0.13801468490E+03 0.  0.
          5    1    4    4  502    0 -0.15138660834E+02  0.28714307845E+02 -0.29607818656E+03  0.29788936383E+03  0.47000000000E+01 0. -1.
         -5    1    4    4    0  502 -0.26529005642E+02 -0.37537413415E+02 -0.33347085325E+02  0.56982134445E+02  0.47000000000E+01 0. -1.
          5    1    5    5  503    0  0.53753243394E+02  0.34646427347E+02 -0.82004070208E+02  0.10409872062E+03  0.47000000000E+01 0.  1.
         -5    1    5    5    0  503 -0.12085576918E+02 -0.25823321778E+02 -0.35462244732E+03  0.35579780108E+03  0.47000000000E+01 0.  1.
<mgrwt>
<rscale>  0 0.27750961E+03</rscale>
<asrwt>0</asrwt>
<pdfrwt beam="1">  1        2 0.12160152E+00 0.27750961E+03</pdfrwt>
<pdfrwt beam="2">  1       -2 0.37474025E-02 0.27750961E+03</pdfrwt>
<totfact> 0.10893834E+04</totfact>
</mgrwt>
</event>
<event>
 9    1  0.2065703E-002  0.2736497E+03  0.7818608E-02  0.1099209E+00
         -4   -1    0    0    0  501 -0.00000000000E+00  0.00000000000E+00  0.17602989309E+03  0.17602989309E+03  0.00000000000E+00 0.  1.
          4   -1    0    0  501    0  0.00000000000E+00 -0.00000000000E+00 -0.10635146001E+03  0.10635146001E+03  0.00000000000E+00 0.  1.
         36    2    1    2    0    0 -0.71054273576E-14  0.71054273576E-14  0.69678433076E+02  0.28238135310E+03  0.27364967485E+03 0.  0.
         25    2    3    3    0    0  0.53362631120E+02 -0.34401794436E+02  0.47992226902E+02  0.14750091418E+03  0.12418619883E+03 0.  0.
         25    2    3    3    0    0 -0.53362631120E+02  0.34401794436E+02  0.21686206174E+02  0.13488043892E+03  0.11701020214E+03 0.  0.
          5    1    4    4  502    0 -0.13377730853E+02 -0.14158895323E+02  0.71107662582E+02  0.73877112000E+02  0.47000000000E+01 0. -1.
         -5    1    4    4    0  502  0.66740361973E+02 -0.20242899113E+02 -0.23115435680E+02  0.73623802181E+02  0.47000000000E+01 0. -1.
          5    1    5    5  503    0  0.17183485000E+02 -0.23070638043E+02  0.31880501121E+02  0.43197023604E+02  0.47000000000E+01 0.  1.
         -5    1    5    5    0  503 -0.70546116120E+02  0.57472432480E+02 -0.10194294948E+02  0.91683415317E+02  0.47000000000E+01 0.  1.
<mgrwt>
<rscale>  0 0.27364967E+03</rscale>
<asrwt>0</asrwt>
<pdfrwt beam="1">  1        4 0.16361763E-01 0.27364967E+03</pdfrwt>
<pdfrwt beam="2">  1       -4 0.27081522E-01 0.27364967E+03</pdfrwt>
<totfact> 0.78181525E+02</totfact>
</mgrwt>
</event>
<event>
 9    1  0.2065703E-002  0.2745150E+03  0.7818608E-02  0.1098723E+00
         -1   -1    0    0    0  501 -0.00000000000E+00  0.00000000000E+00  0.21250487284E+02  0.21250487284E+02  0.00000000000E+00 0.  1.
          1   -1    0    0  501    0  0.00000000000E+00 -0.00000000000E+00 -0.88655002541E+03  0.88655002541E+03  0.00000000000E+00 0.  1.
         36    2    1    2    0    0  0.00000000000E+00 -0.35527136788E-14 -0.86529953813E+03  0.90780051270E+03  0.27451499079E+03 0.  0.
         25    2    3    3    0    0  0.14385946981E+02 -0.92874820753E+01 -0.60386052638E+03  0.61744289700E+03  0.12765180355E+03 0.  0.
         25    2    3    3    0    0 -0.14385946981E+02  0.92874820753E+01 -0.26143901175E+03  0.29035761569E+03  0.12515580423E+03 0.  0.
          5    1    4    4  502    0  0.47476437245E+02 -0.23063398698E+02 -0.10833585600E+03  0.12060132730E+03  0.47000000000E+01 0.  1.
         -5    1    4    4    0  502 -0.33090490263E+02  0.13775916623E+02 -0.49552467038E+03  0.49684156970E+03  0.47000000000E+01 0.  1.
          5    1    5    5  503    0  0.26592647963E+02 -0.31298454451E+02 -0.20639051298E+03  0.21048965776E+03  0.47000000000E+01 0. -1.
         -5    1    5    5    0  503 -0.40978594944E+02  0.40585936526E+02 -0.55048498770E+02  0.79867957931E+02  0.47000000000E+01 0. -1.
<mgrwt>
<rscale>  0 0.27451499E+03</rscale>
<asrwt>0</asrwt>
<pdfrwt beam="1">  1        1 0.13639232E+00 0.27451499E+03</pdfrwt>
<pdfrwt beam="2">  1       -1 0.32693056E-02 0.27451499E+03</pdfrwt>
<totfact> 0.64906554E+03</totfact>
</mgrwt>
</event>
<event>
 9    1  0.2065703E-002  0.2760390E+03  0.7818608E-02  0.1097872E+00
         -2   -1    0    0    0  501 -0.00000000000E+00  0.00000000000E+00  0.86183977478E+01  0.86183977478E+01  0.00000000000E+00 0. -1.
          2   -1    0    0  501    0  0.00000000000E+00 -0.00000000000E+00 -0.22103159021E+04  0.22103159021E+04  0.00000000000E+00 0. -1.
         36    2    1    2    0    0  0.14210854715E-13  0.00000000000E+00 -0.22016975044E+04  0.22189342998E+04  0.27603899429E+03 0.  0.
         25    2    3    3    0    0  0.55634858320E+02 -0.17872421989E+01 -0.12121962463E+04  0.12196504679E+04  0.12259319957E+03 0.  0.
         25    2    3    3    0    0 -0.55634858320E+02  0.17872421989E+01 -0.98950125801E+03  0.99928383191E+03  0.12789450900E+03 0.  0.
          5    1    4    4  502    0  0.66762365281E+02 -0.47756538475E+02 -0.91393886589E+03  0.91762968619E+03  0.47000000000E+01 0. -1.
         -5    1    4    4    0  502 -0.11127506961E+02  0.45969296276E+02 -0.29825738045E+03  0.30202078174E+03  0.47000000000E+01 0. -1.
          5    1    5    5  503    0 -0.65431316568E+01 -0.48693840521E+02 -0.68220580623E+03  0.68398885570E+03  0.47000000000E+01 0. -1.
         -5    1    5    5    0  503 -0.49091726663E+02  0.50481082720E+02 -0.30729545178E+03  0.31529497621E+03  0.47000000000E+01 0. -1.
<mgrwt>
<rscale>  0 0.27603899E+03</rscale>
<asrwt>0</asrwt>
<pdfrwt beam="1">  1        2 0.34004828E+00 0.27603899E+03</pdfrwt>
<pdfrwt beam="2">  1       -2 0.13259086E-02 0.27603899E+03</pdfrwt>
<totfact> 0.81255119E+03</totfact>
</mgrwt>
</event>
<event>
 9    1  0.2065703E-002  0.2752620E+03  0.7818608E-02  0.1098305E+00
         -1   -1    0    0    0  501 -0.00000000000E+00  0.00000000000E+00  0.84069737084E+03  0.84069737084E+03  0.00000000000E+00 0. -1.
          1   -1    0    0  501    0  0.00000000000E+00 -0.00000000000E+00 -0.22531647800E+02  0.22531647800E+02  0.00000000000E+00 0. -1.
         36    2    1    2    0    0  0.00000000000E+00  0.00000000000E+00  0.81816572304E+03  0.86322901864E+03  0.27526203564E+03 0.  0.
         25    2    3    3    0    0 -0.76248836053E+01  0.41248167086E+02  0.53081713122E+03  0.54621446199E+03  0.12175328148E+03 0.  0.
         25    2    3    3    0    0  0.76248836053E+01 -0.41248167086E+02  0.28734859182E+03  0.31701455665E+03  0.12715921426E+03 0.  0.
          5    1    4    4  502    0  0.33965732366E+02  0.69089995163E+02  0.28123682270E+03  0.29162191079E+03  0.47000000000E+01 0. -1.
         -5    1    4    4    0  502 -0.41590615972E+02 -0.27841828077E+02  0.24958030852E+03  0.25459255120E+03  0.47000000000E+01 0. -1.
          5    1    5    5  503    0 -0.41425835003E+02  0.88789311904E+01  0.35291447228E+02  0.55339962705E+02  0.47000000000E+01 0.  1.
         -5    1    5    5    0  503  0.49050718608E+02 -0.50127098276E+02  0.25205714459E+03  0.26167459394E+03  0.47000000000E+01 0.  1.
<mgrwt>
<rscale>  0 0.27526204E+03</rscale>
<asrwt>0</asrwt>
<pdfrwt beam="1">  1        1 0.34664080E-02 0.27526204E+03</pdfrwt>
<pdfrwt beam="2">  1       -1 0.12933803E+00 0.27526204E+03</pdfrwt>
<totfact> 0.15321215E+03</totfact>
</mgrwt>
</event>
<event>
 9    1  0.2065703E-002  0.2742025E+03  0.7818608E-02  0.1098898E+00
          2   -1    0    0  501    0  0.00000000000E+00  0.00000000000E+00  0.11938726461E+04  0.11938726461E+04  0.00000000000E+00 0. -1.
         -2   -1    0    0    0  501 -0.00000000000E+00 -0.00000000000E+00 -0.15744355924E+02  0.15744355924E+02  0.00000000000E+00 0. -1.
         36    2    1    2    0    0  0.00000000000E+00 -0.71054273576E-14  0.11781282901E+04  0.12096170020E+04  0.27420252273E+03 0.  0.
         25    2    3    3    0    0 -0.23392105133E+02 -0.18001372035E+02  0.79194678989E+03  0.80280466950E+03  0.12823563999E+03 0.  0.
         25    2    3    3    0    0  0.23392105133E+02  0.18001372035E+02  0.38618150024E+03  0.40681233249E+03  0.12445434005E+03 0.  0.
          5    1    4    4  502    0  0.18218067688E+02  0.37807230506E+02  0.11939344061E+03  0.12664189011E+03  0.47000000000E+01 0. -1.
         -5    1    4    4    0  502 -0.41610172821E+02 -0.55808602541E+02  0.67255334928E+03  0.67616277939E+03  0.47000000000E+01 0. -1.
          5    1    5    5  503    0  0.17193012145E+02  0.71042892363E+02  0.24822767139E+03  0.25880834427E+03  0.47000000000E+01 0. -1.
         -5    1    5    5    0  503  0.61990929882E+01 -0.53041520328E+02  0.13795382885E+03  0.14800398822E+03  0.47000000000E+01 0. -1.
<mgrwt>
<rscale>  0 0.27420252E+03</rscale>
<asrwt>0</asrwt>
<pdfrwt beam="1">  1        2 0.18367264E+00 0.27420252E+03</pdfrwt>
<pdfrwt beam="2">  1       -2 0.24222095E-02 0.27420252E+03</pdfrwt>
<totfact> 0.11714763E+04</totfact>
</mgrwt>
</event>
<event>
 9    1  0.2065703E-002  0.2753071E+03  0.7818608E-02  0.1098280E+00
          1   -1    0    0  501    0  0.00000000000E+00  0.00000000000E+00  0.29905647168E+03  0.29905647168E+03  0.00000000000E+00 0.  1.
         -1   -1    0    0    0  501 -0.00000000000E+00 -0.00000000000E+00 -0.63360952799E+02  0.63360952799E+02  0.00000000000E+00 0.  1.
         36    2    1    2    0    0  0.14210854715E-13 -0.35527136788E-14  0.23569551888E+03  0.36241742448E+03  0.27530712295E+03 0.  0.
         25    2    3    3    0    0 -0.58351110646E+02 -0.24272067706E+02  0.96233155118E+02  0.16562427723E+03  0.11906551004E+03 0.  0.
         25    2    3    3    0    0  0.58351110646E+02  0.24272067706E+02  0.13946236377E+03  0.19679314725E+03  0.12362769315E+03 0.  0.
          5    1    4    4  502    0  0.29971091441E+02 -0.12751729202E+02  0.61797316696E+02  0.70013364943E+02  0.47000000000E+01 0.  1.
         -5    1    4    4    0  502 -0.88322202087E+02 -0.11520338504E+02  0.34435838422E+02  0.95610912288E+02  0.47000000000E+01 0.  1.
          5    1    5    5  503    0  0.29084687676E+02 -0.48947440681E+02  0.78114828674E+02  0.96776998637E+02  0.47000000000E+01 0. -1.
         -5    1    5    5    0  503  0.29266422970E+02  0.73219508387E+02  0.61347535092E+02  0.10001614861E+03  0.47000000000E+01 0. -1.
<mgrwt>
<rscale>  0 0.27530712E+03</rscale>
<asrwt>0</asrwt>
<pdfrwt beam="1">  1        1 0.46008687E-01 0.27530712E+03</pdfrwt>
<pdfrwt beam="2">  1       -1 0.97478390E-02 0.27530712E+03</pdfrwt>
<totfact> 0.55430922E+03</totfact>
</mgrwt>
</event>
<event>
 9    1  0.2065703E-002  0.2745070E+03  0.7818608E-02  0.1098727E+00
          1   -1    0    0  501    0  0.00000000000E+00  0.00000000000E+00  0.97397200661E+03  0.97397200661E+03  0.00000000000E+00 0.  1.
         -1   -1    0    0    0  501 -0.00000000000E+00 -0.00000000000E+00 -0.19341956540E+02  0.19341956540E+02  0.00000000000E+00 0.  1.
         36    2    1    2    0    0  0.00000000000E+00  0.17763568394E-14  0.95463005007E+03  0.99331396315E+03  0.27450700700E+03 0.  0.
         25    2    3    3    0    0  0.80421224567E+02 -0.15130681948E+02  0.46571137582E+03  0.48221576115E+03  0.94596214698E+02 0.  0.
         25    2    3    3    0    0 -0.80421224567E+02  0.15130681948E+02  0.48891867426E+03  0.51109820201E+03  0.12443227540E+03 0.  0.
          5    1    4    4  502    0  0.15115459590E+02 -0.45998359850E+02  0.13035362244E+03  0.13913476600E+03  0.47000000000E+01 0. -1.
         -5    1    4    4    0  502  0.65305764977E+02  0.30867677901E+02  0.33535775338E+03  0.34308099514E+03  0.47000000000E+01 0. -1.
          5    1    5    5  503    0  0.32843873240E+02 -0.34369485959E+01  0.90569583902E+02  0.96516693650E+02  0.47000000000E+01 0.  1.
         -5    1    5    5    0  503 -0.11326509781E+03  0.18567630544E+02  0.39834909035E+03  0.41458150836E+03  0.47000000000E+01 0.  1.
<mgrwt>
<rscale>  0 0.27450701E+03</rscale>
<asrwt>0</asrwt>
<pdfrwt beam="1">  1        1 0.14984181E+00 0.27450701E+03</pdfrwt>
<pdfrwt beam="2">  1       -1 0.29756864E-02 0.27450701E+03</pdfrwt>
<totfact> 0.63828718E+03</totfact>
</mgrwt>
</event>
<event>
 9    1  0.2065703E-002  0.2752726E+03  0.7818608E-02  0.1098299E+00
          1   -1    0    0  501    0  0.00000000000E+00  0.00000000000E+00  0.45983667293E+03  0.45983667293E+03  0.00000000000E+00 0. -1.
         -1   -1    0    0    0  501 -0.00000000000E+00 -0.00000000000E+00 -0.41196682930E+02  0.41196682930E+02  0.00000000000E+00 0. -1.
         36    2    1    2    0    0  0.00000000000E+00  0.71054273576E-14  0.41863999000E+03  0.50103335586E+03  0.27527256031E+03 0.  0.
         25    2    3    3    0    0  0.47011339647E+02 -0.36533900542E+02  0.18993885665E+03  0.23636859665E+03  0.12746980926E+03 0.  0.
         25    2    3    3    0    0 -0.47011339647E+02  0.36533900542E+02  0.22870113336E+03  0.26466475922E+03  0.11915718371E+03 0.  0.
          5    1    4    4  502    0  0.61666428708E+02  0.32374932916E+02  0.87037506643E+02  0.11157285635E+03  0.47000000000E+01 0.  1.
         -5    1    4    4    0  502 -0.14655089061E+02 -0.68908833458E+02  0.10290135000E+03  0.12479574030E+03  0.47000000000E+01 0.  1.
          5    1    5    5  503    0 -0.94360735602E+01  0.68465312784E+02  0.70282458197E+02  0.98682584426E+02  0.47000000000E+01 0. -1.
         -5    1    5    5    0  503 -0.37575266087E+02 -0.31931412242E+02  0.15841867516E+03  0.16598217479E+03  0.47000000000E+01 0. -1.
<mgrwt>
<rscale>  0 0.27527256E+03</rscale>
<asrwt>0</asrwt>
<pdfrwt beam="1">  1        1 0.70744100E-01 0.27527256E+03</pdfrwt>
<pdfrwt beam="2">  1       -1 0.63379516E-02 0.27527256E+03</pdfrwt>
<totfact> 0.61748311E+03</totfact>
</mgrwt>
</event>
<event>
 9    1  0.2065703E-002  0.2760724E+03  0.7818608E-02  0.1097854E+00
         -1   -1    0    0    0  501 -0.00000000000E+00  0.00000000000E+00  0.85236863021E+02  0.85236863021E+02  0.00000000000E+00 0. -1.
          1   -1    0    0  501    0  0.00000000000E+00 -0.00000000000E+00 -0.22354161880E+03  0.22354161880E+03  0.00000000000E+00 0. -1.
         36    2    1    2    0    0  0.14210854715E-13 -0.35527136788E-14 -0.13830475578E+03  0.30877848182E+03  0.27607235531E+03 0.  0.
         25    2    3    3    0    0  0.64645872764E+02  0.19844925230E+02 -0.83262162879E+02  0.16221028224E+03  0.12168269381E+03 0.  0.
         25    2    3    3    0    0 -0.64645872764E+02 -0.19844925230E+02 -0.55042592901E+02  0.14656819958E+03  0.11781188468E+03 0.  0.
          5    1    4    4  502    0  0.60825275837E+02 -0.17458313061E+02 -0.10192326136E+03  0.12006226752E+03  0.47000000000E+01 0.  1.
         -5    1    4    4    0  502  0.38205969269E+01  0.37303238291E+02  0.18661098485E+02  0.42148014716E+02  0.47000000000E+01 0.  1.
          5    1    5    5  503    0 -0.25486812358E+02 -0.16943509816E+02 -0.89131822190E+02  0.94356938568E+02  0.47000000000E+01 0.  1.
         -5    1    5    5    0  503 -0.39159060406E+02 -0.29014154136E+01  0.34089229289E+02  0.52211261015E+02  0.47000000000E+01 0.  1.
<mgrwt>
<rscale>  0 0.27607236E+03</rscale>
<asrwt>0</asrwt>
<pdfrwt beam="1">  1        1 0.34391018E-01 0.27607236E+03</pdfrwt>
<pdfrwt beam="2">  1       -1 0.13113364E-01 0.27607236E+03</pdfrwt>
<totfact> 0.50348429E+03</totfact>
</mgrwt>
</event>
<event>
 9    1  0.2065703E-002  0.2857019E+03  0.7818608E-02  0.1092615E+00
          2   -1    0    0  501    0  0.00000000000E+00  0.00000000000E+00  0.19600962728E+04  0.19600962728E+04  0.00000000000E+00 0.  1.
         -2   -1    0    0    0  501 -0.00000000000E+00 -0.00000000000E+00 -0.10410912131E+02  0.10410912131E+02  0.00000000000E+00 0.  1.
         36    2    1    2    0    0 -0.35527136788E-14 -0.71054273576E-14  0.19496853606E+04  0.19705071849E+04  0.28570187304E+03 0.  0.
         25    2    3    3    0    0 -0.18432804736E+02  0.60665755698E+02  0.81549027715E+03  0.82774890306E+03  0.12697933762E+03 0.  0.
         25    2    3    3    0    0  0.18432804736E+02 -0.60665755698E+02  0.11341950835E+04  0.11427582818E+04  0.12441021303E+03 0.  0.
          5    1    4    4  502    0 -0.48197051341E+02  0.37256280805E+02  0.16189373583E+03  0.17303946925E+03  0.47000000000E+01 0. -1.
         -5    1    4    4    0  502  0.29764246605E+02  0.23409474893E+02  0.65359654133E+03  0.65470943382E+03  0.47000000000E+01 0. -1.
          5    1    5    5  503    0  0.56478637730E+02 -0.31136860039E+02  0.28753343480E+03  0.29471495839E+03  0.47000000000E+01 0. -1.
         -5    1    5    5    0  503 -0.38045832994E+02 -0.29528895659E+02  0.84666164867E+03  0.84804332343E+03  0.47000000000E+01 0. -1.
<mgrwt>
<rscale>  0 0.28570187E+03</rscale>
<asrwt>0</asrwt>
<pdfrwt beam="1">  1        2 0.30155298E+00 0.28570187E+03</pdfrwt>
<pdfrwt beam="2">  1       -2 0.16016803E-02 0.28570187E+03</pdfrwt>
<totfact> 0.83598358E+03</totfact>
</mgrwt>
</event>
<event>
 9    1  0.2065703E-002  0.2746513E+03  0.7818608E-02  0.1098647E+00
          2   -1    0    0  501    0  0.00000000000E+00  0.00000000000E+00  0.19489477390E+02  0.19489477390E+02  0.00000000000E+00 0. -1.
         -2   -1    0    0    0  501 -0.00000000000E+00 -0.00000000000E+00 -0.96761594670E+03  0.96761594670E+03  0.00000000000E+00 0. -1.
         36    2    1    2    0    0  0.00000000000E+00  0.71054273576E-14 -0.94812646931E+03  0.98710542409E+03  0.27465126335E+03 0.  0.
         25    2    3    3    0    0  0.32341228823E+02 -0.14639583217E+02 -0.64495011084E+03  0.65791208872E+03  0.12500959373E+03 0.  0.
         25    2    3    3    0    0 -0.32341228823E+02  0.14639583217E+02 -0.30317635847E+03  0.32919333537E+03  0.12325613673E+03 0.  0.
          5    1    4    4  502    0  0.60860798873E+02 -0.43441304853E+02 -0.54227183712E+03  0.54742307144E+03  0.47000000000E+01 0.  1.
         -5    1    4    4    0  502 -0.28519570050E+02  0.28801721636E+02 -0.10267827372E+03  0.11048901728E+03  0.47000000000E+01 0.  1.
          5    1    5    5  503    0  0.16702321128E+02  0.59229978040E+02 -0.15240127592E+03  0.16442444079E+03  0.47000000000E+01 0. -1.
         -5    1    5    5    0  503 -0.49043549950E+02 -0.44590394823E+02 -0.15077508255E+03  0.16476889458E+03  0.47000000000E+01 0. -1.
<mgrwt>
<rscale>  0 0.27465126E+03</rscale>
<asrwt>0</asrwt>
<pdfrwt beam="1">  1        2 0.29983817E-02 0.27465126E+03</pdfrwt>
<pdfrwt beam="2">  1       -2 0.14886396E+00 0.27465126E+03</pdfrwt>
<totfact> 0.10141128E+03</totfact>
</mgrwt>
</event>
<event>
 9    1  0.2065703E-002  0.2690378E+03  0.7818608E-02  0.1101832E+00
         -2   -1    0    0    0  501 -0.00000000000E+00  0.00000000000E+00  0.19864131918E+02  0.19864131918E+02  0.00000000000E+00 0.  1.
          2   -1    0    0  501    0  0.00000000000E+00 -0.00000000000E+00 -0.91095529861E+03  0.91095529861E+03  0.00000000000E+00 0.  1.
         36    2    1    2    0    0  0.00000000000E+00  0.00000000000E+00 -0.89109116670E+03  0.93081943053E+03  0.26903781313E+03 0.  0.
         25    2    3    3    0    0  0.24770356652E+02  0.46406914196E+02 -0.37841390079E+03  0.40148522477E+03  0.12339421843E+03 0.  0.
         25    2    3    3    0    0 -0.24770356652E+02 -0.46406914196E+02 -0.51267726590E+03  0.52933420576E+03  0.12078721026E+03 0.  0.
          5    1    4    4  502    0  0.12788618038E+02  0.87291146795E+02 -0.29121272574E+03  0.30431929728E+03  0.47000000000E+01 0.  1.
         -5    1    4    4    0  502  0.11981738614E+02 -0.40884232600E+02 -0.87201175050E+02  0.97165927493E+02  0.47000000000E+01 0.  1.
          5    1    5    5  503    0 -0.40013181626E+02  0.32117010498E+02 -0.19096471959E+03  0.19779325367E+03  0.47000000000E+01 0.  1.
         -5    1    5    5    0  503  0.15242824974E+02 -0.78523924694E+02 -0.32171254631E+03  0.33154095210E+03  0.47000000000E+01 0.  1.
<mgrwt>
<rscale>  0 0.26903781E+03</rscale>
<asrwt>0</asrwt>
<pdfrwt beam="1">  1        2 0.14014698E+00 0.26903781E+03</pdfrwt>
<pdfrwt beam="2">  1       -2 0.30560201E-02 0.26903781E+03</pdfrwt>
<totfact> 0.12264607E+04</totfact>
</mgrwt>
</event>
<event>
 9    1  0.2065703E-002  0.2818936E+03  0.7818608E-02  0.1094659E+00
         -1   -1    0    0    0  501 -0.00000000000E+00  0.00000000000E+00  0.69818145055E+02  0.69818145055E+02  0.00000000000E+00 0.  1.
          1   -1    0    0  501    0  0.00000000000E+00 -0.00000000000E+00 -0.28453912137E+03  0.28453912137E+03  0.00000000000E+00 0.  1.
         36    2    1    2    0    0 -0.71054273576E-14  0.00000000000E+00 -0.21472097632E+03  0.35435726643E+03  0.28189355189E+03 0.  0.
         25    2    3    3    0    0  0.59613469298E+02 -0.46309007207E+01 -0.77550842267E+02  0.16015541046E+03  0.12672967845E+03 0.  0.
         25    2    3    3    0    0 -0.59613469298E+02  0.46309007207E+01 -0.13717013405E+03  0.19420185596E+03  0.12378814249E+03 0.  0.
          5    1    4    4  502    0  0.99167922741E+02  0.26066157099E+01 -0.59992125437E+02  0.11602679199E+03  0.47000000000E+01 0. -1.
         -5    1    4    4    0  502 -0.39554453443E+02 -0.72375164306E+01 -0.17558716831E+02  0.44128618469E+02  0.47000000000E+01 0. -1.
          5    1    5    5  503    0 -0.37905474077E+02 -0.44407788976E+02 -0.12638390438E+03  0.13929773140E+03  0.47000000000E+01 0.  1.
         -5    1    5    5    0  503 -0.21707995221E+02  0.49038689697E+02 -0.10786229671E+02  0.54904124565E+02  0.47000000000E+01 0.  1.
<mgrwt>
<rscale>  0 0.28189355E+03</rscale>
<asrwt>0</asrwt>
<pdfrwt beam="1">  1        1 0.43775250E-01 0.28189355E+03</pdfrwt>
<pdfrwt beam="2">  1       -1 0.10741253E-01 0.28189355E+03</pdfrwt>
<totfact> 0.50816173E+03</totfact>
</mgrwt>
</event>
<event>
 9    1  0.2065703E-002  0.2742584E+03  0.7818608E-02  0.1098867E+00
         -1   -1    0    0    0  501 -0.00000000000E+00  0.00000000000E+00  0.19905746494E+03  0.19905746494E+03  0.00000000000E+00 0.  1.
          1   -1    0    0  501    0  0.00000000000E+00 -0.00000000000E+00 -0.94467283590E+02  0.94467283590E+02  0.00000000000E+00 0.  1.
         36    2    1    2    0    0 -0.71054273576E-14  0.35527136788E-14  0.10459018135E+03  0.29352474853E+03  0.27425840363E+03 0.  0.
         25    2    3    3    0    0  0.37009597486E+02 -0.26117912391E+00  0.41057048120E+02  0.13803206259E+03  0.12648079136E+03 0.  0.
         25    2    3    3    0    0 -0.37009597486E+02  0.26117912391E+00  0.63533133226E+02  0.15549268593E+03  0.13700999176E+03 0.  0.
          5    1    4    4  502    0  0.40938414148E+02  0.20172705440E+02  0.80804885840E+02  0.92921533421E+02  0.47000000000E+01 0.  1.
         -5    1    4    4    0  502 -0.39288166624E+01 -0.20433884564E+02 -0.39747837720E+02  0.45110529171E+02  0.47000000000E+01 0.  1.
          5    1    5    5  503    0 -0.77460816941E+02  0.20951462947E+02  0.40354824187E+01  0.80483023546E+02  0.47000000000E+01 0. -1.
         -5    1    5    5    0  503  0.40451219455E+02 -0.20690283823E+02  0.59497650807E+02  0.75009662389E+02  0.47000000000E+01 0. -1.
<mgrwt>
<rscale>  0 0.27425840E+03</rscale>
<asrwt>0</asrwt>
<pdfrwt beam="1">  1        1 0.14533428E-01 0.27425840E+03</pdfrwt>
<pdfrwt beam="2">  1       -1 0.30624225E-01 0.27425840E+03</pdfrwt>
<totfact> 0.38110827E+03</totfact>
</mgrwt>
</event>
<event>
 9    1  0.2065703E-002  0.2801884E+03  0.7818608E-02  0.1095586E+00
         -1   -1    0    0    0  501 -0.00000000000E+00  0.00000000000E+00  0.48986159061E+01  0.48986159061E+01  0.00000000000E+00 0.  1.
          1   -1    0    0  501    0  0.00000000000E+00 -0.00000000000E+00 -0.40065175815E+04  0.40065175815E+04  0.00000000000E+00 0.  1.
         36    2    1    2    0    0 -0.71054273576E-14  0.71054273576E-14 -0.40016189656E+04  0.40114161974E+04  0.28018844196E+03 0.  0.
         25    2    3    3    0    0 -0.50123681929E+01  0.45252919276E+02 -0.15676259939E+04  0.15738063889E+04  0.13169032825E+03 0.  0.
         25    2    3    3    0    0  0.50123681929E+01 -0.45252919276E+02 -0.24339929717E+04  0.24376098085E+04  0.12468697436E+03 0.  0.
          5    1    4    4  502    0  0.24000103048E+02  0.80980095387E+02 -0.72634764978E+03  0.73125698570E+03  0.47000000000E+01 0.  1.
         -5    1    4    4    0  502 -0.29012471240E+02 -0.35727176111E+02 -0.84127834408E+03  0.84254940319E+03  0.47000000000E+01 0.  1.
          5    1    5    5  503    0 -0.37609068351E+02 -0.62166034165E+02 -0.19670927209E+04  0.19684397173E+04  0.47000000000E+01 0. -1.
         -5    1    5    5    0  503  0.42621436544E+02  0.16913114889E+02 -0.46690025078E+03  0.46917009121E+03  0.47000000000E+01 0. -1.
<mgrwt>
<rscale>  0 0.28018844E+03</rscale>
<asrwt>0</asrwt>
<pdfrwt beam="1">  1        1 0.61638571E+00 0.28018844E+03</pdfrwt>
<pdfrwt beam="2">  1       -1 0.75363518E-03 0.28018844E+03</pdfrwt>
<totfact> 0.35018008E+02</totfact>
</mgrwt>
</event>
<event>
 9    1  0.2065703E-002  0.2748576E+03  0.7818608E-02  0.1098531E+00
         -1   -1    0    0    0  501 -0.00000000000E+00  0.00000000000E+00  0.55792225116E+02  0.55792225116E+02  0.00000000000E+00 0.  1.
          1   -1    0    0  501    0  0.00000000000E+00 -0.00000000000E+00 -0.33851814379E+03  0.33851814379E+03  0.00000000000E+00 0.  1.
         36    2    1    2    0    0 -0.35527136788E-14  0.71054273576E-14 -0.28272591867E+03  0.39431036890E+03  0.27485763940E+03 0.  0.
         25    2    3    3    0    0  0.18002904091E+02 -0.63688050578E+02 -0.16789235796E+03  0.22170149364E+03  0.12877669074E+03 0.  0.
         25    2    3    3    0    0 -0.18002904091E+02  0.63688050578E+02 -0.11483356071E+03  0.17260887526E+03  0.11057488328E+03 0.  0.
          5    1    4    4  502    0  0.41669999111E+02 -0.86380222209E+02 -0.71329994593E+02  0.11961600956E+03  0.47000000000E+01 0.  1.
         -5    1    4    4    0  502 -0.23667095020E+02  0.22692171630E+02 -0.96562363369E+02  0.10208548408E+03  0.47000000000E+01 0.  1.
          5    1    5    5  503    0 -0.83774988983E+01  0.75765900080E+02 -0.23567483844E+02  0.79926030788E+02  0.47000000000E+01 0.  1.
         -5    1    5    5    0  503 -0.96254051924E+01 -0.12077849502E+02 -0.91266076863E+02  0.92682844474E+02  0.47000000000E+01 0.  1.
<mgrwt>
<rscale>  0 0.27485764E+03</rscale>
<asrwt>0</asrwt>
<pdfrwt beam="1">  1        1 0.52079713E-01 0.27485764E+03</pdfrwt>
<pdfrwt beam="2">  1       -1 0.85834195E-02 0.27485764E+03</pdfrwt>
<totfact> 0.57653057E+03</totfact>
</mgrwt>
</event>
<event>
 9    1  0.2065703E-002  0.2821575E+03  0.7818608E-02  0.1094516E+00
         -2   -1    0    0    0  501 -0.00000000000E+00  0.00000000000E+00  0.11094366420E+02  0.11094366420E+02  0.00000000000E+00 0.  1.
          2   -1    0    0  501    0  0.00000000000E+00 -0.00000000000E+00 -0.17939929901E+04  0.17939929901E+04  0.00000000000E+00 0.  1.
         36    2    1    2    0    0  0.71054273576E-14 -0.71054273576E-14 -0.17828986237E+04  0.18050873565E+04  0.28215751336E+03 0.  0.
         25    2    3    3    0    0 -0.32077644464E+02  0.50822884654E+02 -0.65074347174E+03  0.66471637410E+03  0.12152716198E+03 0.  0.
         25    2    3    3    0    0  0.32077644464E+02 -0.50822884654E+02 -0.11321551519E+04  0.11403709824E+04  0.12271409297E+03 0.  0.
          5    1    4    4  502    0 -0.28434104278E+02  0.72427699431E+02 -0.62788886921E+03  0.63270908956E+03  0.47000000000E+01 0. -1.
         -5    1    4    4    0  502 -0.36435401857E+01 -0.21604814777E+02 -0.22854602528E+02  0.32007284536E+02  0.47000000000E+01 0. -1.
          5    1    5    5  503    0  0.10367757972E+02 -0.21761870096E+02 -0.10517503124E+04  0.10520370141E+04  0.47000000000E+01 0. -1.
         -5    1    5    5    0  503  0.21709886492E+02 -0.29061014558E+02 -0.80404839506E+02  0.88333968294E+02  0.47000000000E+01 0. -1.
<mgrwt>
<rscale>  0 0.28215751E+03</rscale>
<asrwt>0</asrwt>
<pdfrwt beam="1">  1        2 0.27599887E+00 0.28215751E+03</pdfrwt>
<pdfrwt beam="2">  1       -2 0.17068259E-02 0.28215751E+03</pdfrwt>
<totfact> 0.93099940E+03</totfact>
</mgrwt>
</event>
<event>
 9    1  0.2065703E-002  0.2759504E+03  0.7818608E-02  0.1097922E+00
          2   -1    0    0  501    0  0.00000000000E+00  0.00000000000E+00  0.17046619895E+03  0.17046619895E+03  0.00000000000E+00 0. -1.
         -2   -1    0    0    0  501 -0.00000000000E+00 -0.00000000000E+00 -0.11167704397E+03  0.11167704397E+03  0.00000000000E+00 0. -1.
         36    2    1    2    0    0  0.71054273576E-14  0.00000000000E+00  0.58789154975E+02  0.28214324292E+03  0.27595043899E+03 0.  0.
         25    2    3    3    0    0 -0.37330584579E+02 -0.14151407887E+02  0.74348465937E+02  0.14782122717E+03  0.12136550549E+03 0.  0.
         25    2    3    3    0    0  0.37330584579E+02  0.14151407887E+02 -0.15559310962E+02  0.13432201575E+03  0.12730466161E+03 0.  0.
          5    1    4    4  502    0 -0.71250088233E+02 -0.28804375452E+02  0.16067040039E+02  0.78654350763E+02  0.47000000000E+01 0.  1.
         -5    1    4    4    0  502  0.33919503654E+02  0.14652967565E+02  0.58281425899E+02  0.69166876403E+02  0.47000000000E+01 0.  1.
          5    1    5    5  503    0  0.65157342948E+02 -0.81430576991E+01  0.33202994915E+02  0.73731388161E+02  0.47000000000E+01 0.  1.
         -5    1    5    5    0  503 -0.27826758369E+02  0.22294465586E+02 -0.48762305878E+02  0.60590627589E+02  0.47000000000E+01 0.  1.
<mgrwt>
<rscale>  0 0.27595044E+03</rscale>
<asrwt>0</asrwt>
<pdfrwt beam="1">  1        2 0.26225569E-01 0.27595044E+03</pdfrwt>
<pdfrwt beam="2">  1       -2 0.17181084E-01 0.27595044E+03</pdfrwt>
<totfact> 0.55151625E+03</totfact>
</mgrwt>
</event>
<event>
 9    1  0.2065703E-002  0.2745937E+03  0.7818608E-02  0.1098679E+00
          4   -1    0    0  501    0  0.00000000000E+00  0.00000000000E+00  0.10715396859E+03  0.10715396859E+03  0.00000000000E+00 0.  1.
         -4   -1    0    0    0  501 -0.00000000000E+00 -0.00000000000E+00 -0.17591901582E+03  0.17591901582E+03  0.00000000000E+00 0.  1.
         36    2    1    2    0    0  0.00000000000E+00  0.71054273576E-14 -0.68765047226E+02  0.28307298441E+03  0.27459366850E+03 0.  0.
         25    2    3    3    0    0  0.21098283507E+01 -0.47520473259E+02 -0.94556329832E+01  0.13611891777E+03  0.12718609997E+03 0.  0.
         25    2    3    3    0    0 -0.21098283507E+01  0.47520473259E+02 -0.59309414243E+02  0.14695406664E+03  0.12575867497E+03 0.  0.
          5    1    4    4  502    0  0.40643371293E+02  0.28350318470E+02  0.35689006691E+01  0.49904421041E+02  0.47000000000E+01 0. -1.
         -5    1    4    4    0  502 -0.38533542943E+02 -0.75870791729E+02 -0.13024533652E+02  0.86214496729E+02  0.47000000000E+01 0. -1.
          5    1    5    5  503    0 -0.36485875292E+02  0.56030313041E+02 -0.81018537823E+02  0.10515088467E+03  0.47000000000E+01 0. -1.
         -5    1    5    5    0  503  0.34376046942E+02 -0.85098397814E+01  0.21709123581E+02  0.41803181973E+02  0.47000000000E+01 0. -1.
<mgrwt>
<rscale>  0 0.27459367E+03</rscale>
<asrwt>0</asrwt>
<pdfrwt beam="1">  1        4 0.16485226E-01 0.27459367E+03</pdfrwt>
<pdfrwt beam="2">  1       -4 0.27064464E-01 0.27459367E+03</pdfrwt>
<totfact> 0.77272805E+02</totfact>
</mgrwt>
</event>
<event>
 9    1  0.2065703E-002  0.2747870E+03  0.7818608E-02  0.1098571E+00
          1   -1    0    0  501    0  0.00000000000E+00  0.00000000000E+00  0.10946571401E+03  0.10946571401E+03  0.00000000000E+00 0. -1.
         -1   -1    0    0    0  501 -0.00000000000E+00 -0.00000000000E+00 -0.17244649292E+03  0.17244649292E+03  0.00000000000E+00 0. -1.
         36    2    1    2    0    0  0.00000000000E+00 -0.14210854715E-13 -0.62980778912E+02  0.28191220692E+03  0.27478703372E+03 0.  0.
         25    2    3    3    0    0 -0.36016107880E+02  0.35617801495E+02 -0.18422324895E+02  0.13896004371E+03  0.12808092708E+03 0.  0.
         25    2    3    3    0    0  0.36016107880E+02 -0.35617801495E+02 -0.44558454017E+02  0.14295216322E+03  0.12603204884E+03 0.  0.
          5    1    4    4  502    0 -0.82304677470E+02  0.37986390956E+02 -0.72915949598E+01  0.91061974437E+02  0.47000000000E+01 0. -1.
         -5    1    4    4    0  502  0.46288569590E+02 -0.23685894610E+01 -0.11130729935E+02  0.47898069268E+02  0.47000000000E+01 0. -1.
          5    1    5    5  503    0  0.16905025359E+02 -0.57657785730E+02  0.26619002285E+02  0.65885213974E+02  0.47000000000E+01 0. -1.
         -5    1    5    5    0  503  0.19111082521E+02  0.22039984235E+02 -0.71177456302E+02  0.77066949245E+02  0.47000000000E+01 0. -1.
<mgrwt>
<rscale>  0 0.27478703E+03</rscale>
<asrwt>0</asrwt>
<pdfrwt beam="1">  1        1 0.16840879E-01 0.27478703E+03</pdfrwt>
<pdfrwt beam="2">  1       -1 0.26530230E-01 0.27478703E+03</pdfrwt>
<totfact> 0.40054892E+03</totfact>
</mgrwt>
</event>
<event>
 9    1  0.2065703E-002  0.2676215E+03  0.7818608E-02  0.1102649E+00
          4   -1    0    0  501    0  0.00000000000E+00  0.00000000000E+00  0.17562969298E+03  0.17562969298E+03  0.00000000000E+00 0. -1.
         -4   -1    0    0    0  501 -0.00000000000E+00 -0.00000000000E+00 -0.10194928320E+03  0.10194928320E+03  0.00000000000E+00 0. -1.
         36    2    1    2    0    0 -0.26645352591E-14  0.71054273576E-14  0.73680409785E+02  0.27757897618E+03  0.26762153357E+03 0.  0.
         25    2    3    3    0    0  0.75376722677E+01 -0.42543987244E+02  0.54558717213E+02  0.14363690894E+03  0.12565070884E+03 0.  0.
         25    2    3    3    0    0 -0.75376722677E+01  0.42543987244E+02  0.19121692572E+02  0.13394206724E+03  0.12533168353E+03 0.  0.
          5    1    4    4  502    0  0.13074606971E+02  0.11357739195E+02 -0.34727146308E+02  0.39089746453E+02  0.47000000000E+01 0.  1.
         -5    1    4    4    0  502 -0.55369347033E+01 -0.53901726438E+02  0.89285863521E+02  0.10454716248E+03  0.47000000000E+01 0.  1.
          5    1    5    5  503    0  0.17945802473E+02  0.43437373860E+02 -0.44714498794E+02  0.65041015341E+02  0.47000000000E+01 0.  1.
         -5    1    5    5    0  503 -0.25483474740E+02 -0.89338661593E+00  0.63836191366E+02  0.68901051898E+02  0.47000000000E+01 0.  1.
<mgrwt>
<rscale>  0 0.26762153E+03</rscale>
<asrwt>0</asrwt>
<pdfrwt beam="1">  1        4 0.27019953E-01 0.26762153E+03</pdfrwt>
<pdfrwt beam="2">  1       -4 0.15684505E-01 0.26762153E+03</pdfrwt>
<totfact> 0.84359733E+02</totfact>
</mgrwt>
</event>
<event>
 9    1  0.2065703E-002  0.2743683E+03  0.7818608E-02  0.1098805E+00
          2   -1    0    0  501    0  0.00000000000E+00  0.00000000000E+00  0.34804202486E+03  0.34804202486E+03  0.00000000000E+00 0.  1.
         -2   -1    0    0    0  501 -0.00000000000E+00 -0.00000000000E+00 -0.54072451148E+02  0.54072451148E+02  0.00000000000E+00 0.  1.
         36    2    1    2    0    0  0.71054273576E-14  0.10658141036E-13  0.29396957371E+03  0.40211447601E+03  0.27436825900E+03 0.  0.
         25    2    3    3    0    0 -0.32373194631E+02 -0.15580088578E+02  0.21235602730E+03  0.24758644305E+03  0.12211961988E+03 0.  0.
         25    2    3    3    0    0  0.32373194631E+02  0.15580088578E+02  0.81613546411E+02  0.15452803296E+03  0.12620372071E+03 0.  0.
          5    1    4    4  502    0 -0.26991527410E+02 -0.68458024293E+02  0.11631264560E+03  0.13771624875E+03  0.47000000000E+01 0.  1.
         -5    1    4    4    0  502 -0.53816672206E+01  0.52877935715E+02  0.96043381696E+02  0.10987019430E+03  0.47000000000E+01 0.  1.
          5    1    5    5  503    0 -0.46708060523E+02 -0.77749483815E+01  0.20637304365E+02  0.51865991474E+02  0.47000000000E+01 0.  1.
         -5    1    5    5    0  503  0.79081255154E+02  0.23355036959E+02  0.60976242046E+02  0.10266204149E+03  0.47000000000E+01 0.  1.
<mgrwt>
<rscale>  0 0.27436826E+03</rscale>
<asrwt>0</asrwt>
<pdfrwt beam="1">  1        2 0.53544925E-01 0.27436826E+03</pdfrwt>
<pdfrwt beam="2">  1       -2 0.83188389E-02 0.27436826E+03</pdfrwt>
<totfact> 0.82070179E+03</totfact>
</mgrwt>
</event>
<event>
 9    1  0.2065703E-002  0.2755187E+03  0.7818608E-02  0.1098162E+00
          3   -1    0    0  501    0  0.00000000000E+00  0.00000000000E+00  0.16576255780E+02  0.16576255780E+02  0.00000000000E+00 0.  1.
         -3   -1    0    0    0  501 -0.00000000000E+00 -0.00000000000E+00 -0.11448687564E+04  0.11448687564E+04  0.00000000000E+00 0.  1.
         36    2    1    2    0    0  0.00000000000E+00 -0.17763568394E-14 -0.11282925006E+04  0.11614450122E+04  0.27551869149E+03 0.  0.
         25    2    3    3    0    0  0.47862646517E+02 -0.11221464320E+02 -0.42388576028E+03  0.44413012718E+03  0.12310839902E+03 0.  0.
         25    2    3    3    0    0 -0.47862646517E+02  0.11221464320E+02 -0.70440674035E+03  0.71731488501E+03  0.12623404536E+03 0.  0.
          5    1    4    4  502    0 -0.23067538978E+02  0.19300753659E+01 -0.13056478971E+02  0.26988853042E+02  0.47000000000E+01 0.  1.
         -5    1    4    4    0  502  0.70930185495E+02 -0.13151539686E+02 -0.41082928131E+03  0.41714127414E+03  0.47000000000E+01 0.  1.
          5    1    5    5  503    0 -0.66902765022E+02 -0.26383628524E+02 -0.60446621884E+03  0.60874754664E+03  0.47000000000E+01 0. -1.
         -5    1    5    5    0  503  0.19040118504E+02  0.37605092844E+02 -0.99940521515E+02  0.10856733837E+03  0.47000000000E+01 0. -1.
<mgrwt>
<rscale>  0 0.27551869E+03</rscale>
<asrwt>0</asrwt>
<pdfrwt beam="1">  1        3 0.25501921E-02 0.27551869E+03</pdfrwt>
<pdfrwt beam="2">  1       -3 0.17613373E+00 0.27551869E+03</pdfrwt>
<totfact> 0.37469165E+02</totfact>
</mgrwt>
</event>
<event>
 9    1  0.2065703E-002  0.2739202E+03  0.7818608E-02  0.1099057E+00
          2   -1    0    0  501    0  0.00000000000E+00  0.00000000000E+00  0.63524942880E+03  0.63524942880E+03  0.00000000000E+00 0. -1.
         -2   -1    0    0    0  501 -0.00000000000E+00 -0.00000000000E+00 -0.29528659436E+02  0.29528659436E+02  0.00000000000E+00 0. -1.
         36    2    1    2    0    0  0.00000000000E+00  0.00000000000E+00  0.60572076936E+03  0.66477808824E+03  0.27392016384E+03 0.  0.
         25    2    3    3    0    0 -0.48733279404E+02 -0.28295742155E+01  0.37656210887E+03  0.39960384432E+03  0.12450410252E+03 0.  0.
         25    2    3    3    0    0  0.48733279404E+02  0.28295742155E+01  0.22915866049E+03  0.26517424392E+03  0.12418030821E+03 0.  0.
          5    1    4    4  502    0 -0.40893803477E+02  0.52329738260E+02  0.28196440077E+03  0.28971834248E+03  0.47000000000E+01 0.  1.
         -5    1    4    4    0  502 -0.78394759267E+01 -0.55159312475E+02  0.94597708101E+02  0.10988550184E+03  0.47000000000E+01 0.  1.
          5    1    5    5  503    0  0.31944459140E+02 -0.46041199286E+02  0.19525650250E+03  0.20319309110E+03  0.47000000000E+01 0. -1.
         -5    1    5    5    0  503  0.16788820264E+02  0.48870773502E+02  0.33902157997E+02  0.61981152824E+02  0.47000000000E+01 0. -1.
<mgrwt>
<rscale>  0 0.27392016E+03</rscale>
<asrwt>0</asrwt>
<pdfrwt beam="1">  1        2 0.97730671E-01 0.27392016E+03</pdfrwt>
<pdfrwt beam="2">  1       -2 0.45428712E-02 0.27392016E+03</pdfrwt>
<totfact> 0.10637209E+04</totfact>
</mgrwt>
</event>
<event>
 9    1  0.2065703E-002  0.2762150E+03  0.7818608E-02  0.1097774E+00
         -2   -1    0    0    0  501 -0.00000000000E+00  0.00000000000E+00  0.11684405934E+02  0.11684405934E+02  0.00000000000E+00 0. -1.
          2   -1    0    0  501    0  0.00000000000E+00 -0.00000000000E+00 -0.16324043948E+04  0.16324043948E+04  0.00000000000E+00 0. -1.
         36    2    1    2    0    0  0.00000000000E+00  0.00000000000E+00 -0.16207199889E+04  0.16440888007E+04  0.27621495685E+03 0.  0.
         25    2    3    3    0    0 -0.32663127749E+01 -0.33815740121E+02 -0.10998331891E+04  0.11072840606E+04  0.12365586843E+03 0.  0.
         25    2    3    3    0    0  0.32663127749E+01  0.33815740121E+02 -0.52088679972E+03  0.53680474015E+03  0.12522818311E+03 0.  0.
          5    1    4    4  502    0  0.22135989905E+02 -0.32748519006E+02 -0.10532862845E+04  0.10540382131E+04  0.47000000000E+01 0.  1.
         -5    1    4    4    0  502 -0.25402302680E+02 -0.10672211150E+01 -0.46546904608E+02  0.53245847453E+02  0.47000000000E+01 0.  1.
          5    1    5    5  503    0 -0.39903854871E+02  0.48127063248E+02 -0.14271309519E+03  0.15587703291E+03  0.47000000000E+01 0. -1.
         -5    1    5    5    0  503  0.43170167646E+02 -0.14311323128E+02 -0.37817370453E+03  0.38092770724E+03  0.47000000000E+01 0. -1.
<mgrwt>
<rscale>  0 0.27621496E+03</rscale>
<asrwt>0</asrwt>
<pdfrwt beam="1">  1        2 0.25113901E+00 0.27621496E+03</pdfrwt>
<pdfrwt beam="2">  1       -2 0.17976018E-02 0.27621496E+03</pdfrwt>
<totfact> 0.10493327E+04</totfact>
</mgrwt>
</event>
<event>
 9    1  0.2065703E-002  0.2752999E+03  0.7818608E-02  0.1098284E+00
          1   -1    0    0  501    0  0.00000000000E+00  0.00000000000E+00  0.51372830783E+03  0.51372830783E+03  0.00000000000E+00 0. -1.
         -1   -1    0    0    0  501 -0.00000000000E+00 -0.00000000000E+00 -0.36882364490E+02  0.36882364490E+02  0.00000000000E+00 0. -1.
         36    2    1    2    0    0  0.17763568394E-14  0.14210854715E-13  0.47684594334E+03  0.55061067232E+03  0.27529994332E+03 0.  0.
         25    2    3    3    0    0  0.10226638849E+02  0.57974984854E+02  0.24690637710E+03  0.28226282909E+03  0.12346603832E+03 0.  0.
         25    2    3    3    0    0 -0.10226638849E+02 -0.57974984854E+02  0.22993956624E+03  0.26834784324E+03  0.12519056609E+03 0.  0.
          5    1    4    4  502    0 -0.48047053280E+02  0.36188429271E+02  0.18410170561E+03  0.19373603111E+03  0.47000000000E+01 0.  1.
         -5    1    4    4    0  502  0.58273692129E+02  0.21786555583E+02  0.62804671497E+02  0.88526797979E+02  0.47000000000E+01 0.  1.
          5    1    5    5  503    0 -0.22092966063E+02 -0.44601915438E+02  0.24144954194E+03  0.24657129053E+03  0.47000000000E+01 0. -1.
         -5    1    5    5    0  503  0.11866327213E+02 -0.13373069416E+02 -0.11509975702E+02  0.21776552707E+02  0.47000000000E+01 0. -1.
<mgrwt>
<rscale>  0 0.27529994E+03</rscale>
<asrwt>0</asrwt>
<pdfrwt beam="1">  1        1 0.79035119E-01 0.27529994E+03</pdfrwt>
<pdfrwt beam="2">  1       -1 0.56742103E-02 0.27529994E+03</pdfrwt>
<totfact> 0.63020637E+03</totfact>
</mgrwt>
</event>
<event>
 9    1  0.2065703E-002  0.2752629E+03  0.7818608E-02  0.1098305E+00
          2   -1    0    0  501    0  0.00000000000E+00  0.00000000000E+00  0.27772272690E+03  0.27772272690E+03  0.00000000000E+00 0.  1.
         -2   -1    0    0    0  501 -0.00000000000E+00 -0.00000000000E+00 -0.68206205979E+02  0.68206205979E+02  0.00000000000E+00 0.  1.
         36    2    1    2    0    0  0.00000000000E+00 -0.35527136788E-14  0.20951652092E+03  0.34592893288E+03  0.27526288174E+03 0.  0.
         25    2    3    3    0    0 -0.60755117597E+02 -0.87229387182E+01  0.96065551554E+02  0.16667066816E+03  0.12158637858E+03 0.  0.
         25    2    3    3    0    0  0.60755117597E+02  0.87229387182E+01  0.11345096936E+03  0.17925826471E+03  0.12447943221E+03 0.  0.
          5    1    4    4  502    0 -0.54920956169E+01 -0.91274938642E+01 -0.28243564181E+02  0.30549356395E+02  0.47000000000E+01 0.  1.
         -5    1    4    4    0  502 -0.55263021980E+02  0.40455514590E+00  0.12430911573E+03  0.13612131177E+03  0.47000000000E+01 0.  1.
          5    1    5    5  503    0  0.20990274186E+01  0.60232195920E+02  0.45578328294E+02  0.75708634590E+02  0.47000000000E+01 0. -1.
         -5    1    5    5    0  503  0.58656090179E+02 -0.51509257202E+02  0.67872641070E+02  0.10354963012E+03  0.47000000000E+01 0. -1.
<mgrwt>
<rscale>  0 0.27526288E+03</rscale>
<asrwt>0</asrwt>
<pdfrwt beam="1">  1        2 0.42726573E-01 0.27526288E+03</pdfrwt>
<pdfrwt beam="2">  1       -2 0.10493263E-01 0.27526288E+03</pdfrwt>
<totfact> 0.72495851E+03</totfact>
</mgrwt>
</event>
<event>
 9    1  0.2065703E-002  0.2753806E+03  0.7818608E-02  0.1098239E+00
          2   -1    0    0  501    0  0.00000000000E+00  0.00000000000E+00  0.22566398254E+04  0.22566398254E+04  0.00000000000E+00 0. -1.
         -2   -1    0    0    0  501 -0.00000000000E+00 -0.00000000000E+00 -0.84012595867E+01  0.84012595867E+01  0.00000000000E+00 0. -1.
         36    2    1    2    0    0  0.00000000000E+00  0.71054273576E-14  0.22482385658E+04  0.22650410850E+04  0.27538058731E+03 0.  0.
         25    2    3    3    0    0 -0.35857268746E+02  0.12320418605E+02  0.13960188655E+04  0.14025491706E+04  0.12976119065E+03 0.  0.
         25    2    3    3    0    0  0.35857268746E+02 -0.12320418605E+02  0.85221970027E+03  0.86249191437E+03  0.12718627440E+03 0.  0.
          5    1    4    4  502    0 -0.12743042317E+02  0.68926098421E+02  0.90354716408E+03  0.90627410858E+03  0.47000000000E+01 0. -1.
         -5    1    4    4    0  502 -0.23114226429E+02 -0.56605679815E+02  0.49247170146E+03  0.49627506202E+03  0.47000000000E+01 0. -1.
          5    1    5    5  503    0 -0.68458434921E+01  0.52650146463E+02  0.28398105074E+03  0.28893983919E+03  0.47000000000E+01 0. -1.
         -5    1    5    5    0  503  0.42703112238E+02 -0.64970565068E+02  0.56823864954E+03  0.57355207518E+03  0.47000000000E+01 0. -1.
<mgrwt>
<rscale>  0 0.27538059E+03</rscale>
<asrwt>0</asrwt>
<pdfrwt beam="1">  1        2 0.34717487E+00 0.27538059E+03</pdfrwt>
<pdfrwt beam="2">  1       -2 0.12925033E-02 0.27538059E+03</pdfrwt>
<totfact> 0.79673069E+03</totfact>
</mgrwt>
</event>
<event>
 9    1  0.2065703E-002  0.2747946E+03  0.7818608E-02  0.1098566E+00
          2   -1    0    0  501    0  0.00000000000E+00  0.00000000000E+00  0.83321132936E+03  0.83321132936E+03  0.00000000000E+00 0. -1.
         -2   -1    0    0    0  501 -0.00000000000E+00 -0.00000000000E+00 -0.22656936119E+02  0.22656936119E+02  0.00000000000E+00 0. -1.
         36    2    1    2    0    0  0.35527136788E-14  0.00000000000E+00  0.81055439324E+03  0.85586826548E+03  0.27479458410E+03 0.  0.
         25    2    3    3    0    0 -0.18536337190E+02 -0.34288562368E+02  0.51859842467E+03  0.53579572997E+03  0.12889312193E+03 0.  0.
         25    2    3    3    0    0  0.18536337190E+02  0.34288562368E+02  0.29195596857E+03  0.32007253551E+03  0.12525509609E+03 0.  0.
          5    1    4    4  502    0 -0.64677667081E+02  0.15286338255E+02  0.24447253476E+03  0.25338860079E+03  0.47000000000E+01 0. -1.
         -5    1    4    4    0  502  0.46141329891E+02 -0.49574900623E+02  0.27412588991E+03  0.28240712919E+03  0.47000000000E+01 0. -1.
          5    1    5    5  503    0  0.12933260244E+02  0.81877929716E+02  0.18337022905E+03  0.20129082318E+03  0.47000000000E+01 0. -1.
         -5    1    5    5    0  503  0.56030769466E+01 -0.47589367348E+02  0.10858573952E+03  0.11878171233E+03  0.47000000000E+01 0. -1.
<mgrwt>
<rscale>  0 0.27479458E+03</rscale>
<asrwt>0</asrwt>
<pdfrwt beam="1">  1        2 0.12818633E+00 0.27479458E+03</pdfrwt>
<pdfrwt beam="2">  1       -2 0.34856831E-02 0.27479458E+03</pdfrwt>
<totfact> 0.11345321E+04</totfact>
</mgrwt>
</event>
<event>
 9    1  0.2065703E-002  0.2745744E+03  0.7818608E-02  0.1098690E+00
          1   -1    0    0  501    0  0.00000000000E+00  0.00000000000E+00  0.71118060340E+02  0.71118060340E+02  0.00000000000E+00 0.  1.
         -1   -1    0    0    0  501 -0.00000000000E+00 -0.00000000000E+00 -0.26502091679E+03  0.26502091679E+03  0.00000000000E+00 0.  1.
         36    2    1    2    0    0 -0.35527136788E-14 -0.71054273576E-14 -0.19390285645E+03  0.33613897713E+03  0.27457438738E+03 0.  0.
         25    2    3    3    0    0 -0.23348773048E+02 -0.52326950618E+02 -0.50107039205E+02  0.14424168785E+03  0.12252213747E+03 0.  0.
         25    2    3    3    0    0  0.23348773048E+02  0.52326950618E+02 -0.14379581725E+03  0.19189728929E+03  0.11341982902E+03 0.  0.
          5    1    4    4  502    0 -0.12303611870E+01 -0.52571019837E+02 -0.86533078265E+02  0.10136710290E+03  0.47000000000E+01 0.  1.
         -5    1    4    4    0  502 -0.22118411861E+02  0.24406921969E+00  0.36426039060E+02  0.42874584950E+02  0.47000000000E+01 0.  1.
          5    1    5    5  503    0  0.69011547504E+02  0.24685466536E+02 -0.80635874484E+02  0.10906970340E+03  0.47000000000E+01 0.  1.
         -5    1    5    5    0  503 -0.45662774455E+02  0.27641484081E+02 -0.63159942764E+02  0.82827585883E+02  0.47000000000E+01 0.  1.
<mgrwt>
<rscale>  0 0.27457439E+03</rscale>
<asrwt>0</asrwt>
<pdfrwt beam="1">  1        1 0.10941240E-01 0.27457439E+03</pdfrwt>
<pdfrwt beam="2">  1       -1 0.40772449E-01 0.27457439E+03</pdfrwt>
<totfact> 0.33739080E+03</totfact>
</mgrwt>
</event>
<event>
 9    1  0.2065703E-002  0.2751592E+03  0.7818608E-02  0.1098363E+00
         -2   -1    0    0    0  501 -0.00000000000E+00  0.00000000000E+00  0.36418061827E+03  0.36418061827E+03  0.00000000000E+00 0. -1.
          2   -1    0    0  501    0  0.00000000000E+00 -0.00000000000E+00 -0.51974595060E+02  0.51974595060E+02  0.00000000000E+00 0. -1.
         36    2    1    2    0    0  0.00000000000E+00 -0.71054273576E-14  0.31220602321E+03  0.41615521333E+03  0.27515915513E+03 0.  0.
         25    2    3    3    0    0 -0.55532280697E+02  0.33015745492E+02  0.13786374367E+03  0.19666132786E+03  0.12448049007E+03 0.  0.
         25    2    3    3    0    0  0.55532280697E+02 -0.33015745492E+02  0.17434227954E+03  0.21949388547E+03  0.11665531138E+03 0.  0.
          5    1    4    4  502    0 -0.39023567178E+02 -0.30986790920E+02  0.11689333064E+03  0.12715801490E+03  0.47000000000E+01 0. -1.
         -5    1    4    4    0  502 -0.16508713519E+02  0.64002536412E+02  0.20970413032E+02  0.69503312957E+02  0.47000000000E+01 0. -1.
          5    1    5    5  503    0  0.26284444460E+02  0.33528771692E+02  0.12333382154E+03  0.13056941482E+03  0.47000000000E+01 0. -1.
         -5    1    5    5    0  503  0.29247836237E+02 -0.66544517184E+02  0.51008457999E+02  0.88924470644E+02  0.47000000000E+01 0. -1.
<mgrwt>
<rscale>  0 0.27515916E+03</rscale>
<asrwt>0</asrwt>
<pdfrwt beam="1">  1        2 0.79960918E-02 0.27515916E+03</pdfrwt>
<pdfrwt beam="2">  1       -2 0.56027786E-01 0.27515916E+03</pdfrwt>
<totfact> 0.25850698E+03</totfact>
</mgrwt>
</event>
<event>
 9    1  0.2065703E-002  0.2751954E+03  0.7818608E-02  0.1098342E+00
         -2   -1    0    0    0  501 -0.00000000000E+00  0.00000000000E+00  0.69303086144E+01  0.69303086144E+01  0.00000000000E+00 0. -1.
          2   -1    0    0  501    0  0.00000000000E+00 -0.00000000000E+00 -0.27319322494E+04  0.27319322494E+04  0.00000000000E+00 0. -1.
         36    2    1    2    0    0  0.71054273576E-14  0.00000000000E+00 -0.27250019408E+04  0.27388625581E+04  0.27519544765E+03 0.  0.
         25    2    3    3    0    0  0.14046467794E+02  0.38258212821E+02 -0.96852340656E+03  0.97744086014E+03  0.12526792047E+03 0.  0.
         25    2    3    3    0    0 -0.14046467794E+02 -0.38258212821E+02 -0.17564785343E+04  0.17614216979E+04  0.12541356571E+03 0.  0.
          5    1    4    4  502    0 -0.20410224098E+02  0.68115864807E+02 -0.78701217099E+03  0.79023198845E+03  0.47000000000E+01 0.  1.
         -5    1    4    4    0  502  0.34456691893E+02 -0.29857651986E+02 -0.18151123558E+03  0.18720887169E+03  0.47000000000E+01 0.  1.
          5    1    5    5  503    0  0.44339685669E+02 -0.53780869014E+02 -0.81104775633E+03  0.81405094598E+03  0.47000000000E+01 0.  1.
         -5    1    5    5    0  503 -0.58386153464E+02  0.15522656193E+02 -0.94543077794E+03  0.94737075194E+03  0.47000000000E+01 0.  1.
<mgrwt>
<rscale>  0 0.27519545E+03</rscale>
<asrwt>0</asrwt>
<pdfrwt beam="1">  1        2 0.42029732E+00 0.27519545E+03</pdfrwt>
<pdfrwt beam="2">  1       -2 0.10662012E-02 0.27519545E+03</pdfrwt>
<totfact> 0.57855988E+03</totfact>
</mgrwt>
</event>
<event>
 9    1  0.2065703E-002  0.2753952E+03  0.7818608E-02  0.1098231E+00
          2   -1    0    0  501    0  0.00000000000E+00  0.00000000000E+00  0.77121041830E+03  0.77121041830E+03  0.00000000000E+00 0.  1.
         -2   -1    0    0    0  501 -0.00000000000E+00 -0.00000000000E+00 -0.24585537512E+02  0.24585537512E+02  0.00000000000E+00 0.  1.
         36    2    1    2    0    0  0.71054273576E-14  0.00000000000E+00  0.74662488079E+03  0.79579595581E+03  0.27539515369E+03 0.  0.
         25    2    3    3    0    0 -0.10204831576E+01  0.39890127011E+02  0.41409928631E+03  0.43436319747E+03  0.12490358190E+03 0.  0.
         25    2    3    3    0    0  0.10204831576E+01 -0.39890127011E+02  0.33252559447E+03  0.36143275834E+03  0.13589740323E+03 0.  0.
          5    1    4    4  502    0 -0.41220623231E+02  0.11154860181E+02  0.35317357262E+03  0.35577694287E+03  0.47000000000E+01 0. -1.
         -5    1    4    4    0  502  0.40200140074E+02  0.28735266830E+02  0.60925713694E+02  0.78586254592E+02  0.47000000000E+01 0. -1.
          5    1    5    5  503    0 -0.67125376660E+02 -0.24527495261E+02  0.16834273581E+03  0.18294474826E+03  0.47000000000E+01 0.  1.
         -5    1    5    5    0  503  0.68145859817E+02 -0.15362631749E+02  0.16418285866E+03  0.17848801008E+03  0.47000000000E+01 0.  1.
<mgrwt>
<rscale>  0 0.27539515E+03</rscale>
<asrwt>0</asrwt>
<pdfrwt beam="1">  1        2 0.11864774E+00 0.27539515E+03</pdfrwt>
<pdfrwt beam="2">  1       -2 0.37823910E-02 0.27539515E+03</pdfrwt>
<totfact> 0.11078414E+04</totfact>
</mgrwt>
</event>
<event>
 9    1  0.2065703E-002  0.2745766E+03  0.7818608E-02  0.1098689E+00
         -1   -1    0    0    0  501 -0.00000000000E+00  0.00000000000E+00  0.54868659384E+02  0.54868659384E+02  0.00000000000E+00 0.  1.
          1   -1    0    0  501    0  0.00000000000E+00 -0.00000000000E+00 -0.34351259370E+03  0.34351259370E+03  0.00000000000E+00 0.  1.
         36    2    1    2    0    0 -0.71054273576E-14 -0.26645352591E-14 -0.28864393431E+03  0.39838125308E+03  0.27457658675E+03 0.  0.
         25    2    3    3    0    0 -0.55502363097E+02  0.33679439775E+01 -0.12715297296E+03  0.18549396855E+03  0.12307834285E+03 0.  0.
         25    2    3    3    0    0  0.55502363097E+02 -0.33679439775E+01 -0.16149096135E+03  0.21288728454E+03  0.12708190258E+03 0.  0.
          5    1    4    4  502    0 -0.17960925003E+02 -0.13210369179E+00  0.23599275337E+02  0.30027122320E+02  0.47000000000E+01 0.  1.
         -5    1    4    4    0  502 -0.37541438094E+02  0.35000476693E+01 -0.15075224830E+03  0.15546684623E+03  0.47000000000E+01 0.  1.
          5    1    5    5  503    0  0.56069445860E+01  0.54260707145E+02 -0.10315283807E+03  0.11678296181E+03  0.47000000000E+01 0.  1.
         -5    1    5    5    0  503  0.49895418511E+02 -0.57628651123E+02 -0.58338123280E+02  0.96104322725E+02  0.47000000000E+01 0.  1.
<mgrwt>
<rscale>  0 0.27457659E+03</rscale>
<asrwt>0</asrwt>
<pdfrwt beam="1">  1        1 0.52848092E-01 0.27457659E+03</pdfrwt>
<pdfrwt beam="2">  1       -1 0.84413322E-02 0.27457659E+03</pdfrwt>
<totfact> 0.58058078E+03</totfact>
</mgrwt>
</event>
<event>
 9    1  0.2065703E-002  0.2760665E+03  0.7818608E-02  0.1097857E+00
          1   -1    0    0  501    0  0.00000000000E+00  0.00000000000E+00  0.12912429014E+03  0.12912429014E+03  0.00000000000E+00 0. -1.
         -1   -1    0    0    0  501 -0.00000000000E+00 -0.00000000000E+00 -0.14755691908E+03  0.14755691908E+03  0.00000000000E+00 0. -1.
         36    2    1    2    0    0  0.71054273576E-14 -0.35527136788E-14 -0.18432628946E+02  0.27668120922E+03  0.27606653134E+03 0.  0.
         25    2    3    3    0    0  0.43094197654E+02 -0.17941182704E+02  0.13101534671E+02  0.14246958592E+03  0.13396617779E+03 0.  0.
         25    2    3    3    0    0 -0.43094197654E+02  0.17941182704E+02 -0.31534163617E+02  0.13421162331E+03  0.12181691363E+03 0.  0.
          5    1    4    4  502    0 -0.28042503797E+02 -0.29535529186E+02 -0.36466011757E+02  0.54868839216E+02  0.47000000000E+01 0. -1.
         -5    1    4    4    0  502  0.71136701451E+02  0.11594346481E+02  0.49567546428E+02  0.87600746701E+02  0.47000000000E+01 0. -1.
          5    1    5    5  503    0  0.39997520151E+02 -0.10876839404E+02 -0.16523221286E+02  0.44868854402E+02  0.47000000000E+01 0. -1.
         -5    1    5    5    0  503 -0.83091717805E+02  0.28818022109E+02 -0.15010942331E+02  0.89342768906E+02  0.47000000000E+01 0. -1.
<mgrwt>
<rscale>  0 0.27606653E+03</rscale>
<asrwt>0</asrwt>
<pdfrwt beam="1">  1        1 0.19865275E-01 0.27606653E+03</pdfrwt>
<pdfrwt beam="2">  1       -1 0.22701064E-01 0.27606653E+03</pdfrwt>
<totfact> 0.41892629E+03</totfact>
</mgrwt>
</event>
<event>
 9    1  0.2065703E-002  0.2753595E+03  0.7818608E-02  0.1098251E+00
          2   -1    0    0  501    0  0.00000000000E+00  0.00000000000E+00  0.67038296670E+02  0.67038296670E+02  0.00000000000E+00 0. -1.
         -2   -1    0    0    0  501 -0.00000000000E+00 -0.00000000000E+00 -0.28275946476E+03  0.28275946476E+03  0.00000000000E+00 0. -1.
         36    2    1    2    0    0 -0.14210854715E-13  0.00000000000E+00 -0.21572116809E+03  0.34979776143E+03  0.27535949509E+03 0.  0.
         25    2    3    3    0    0 -0.18238714561E+02  0.41310636438E+02 -0.55419794053E+02  0.14278838248E+03  0.12360400158E+03 0.  0.
         25    2    3    3    0    0  0.18238714561E+02 -0.41310636438E+02 -0.16030137403E+03  0.20700937895E+03  0.12295175096E+03 0.  0.
          5    1    4    4  502    0  0.53038473819E+02  0.15819708796E+02 -0.19516050987E+02  0.58875369532E+02  0.47000000000E+01 0.  1.
         -5    1    4    4    0  502 -0.71277188379E+02  0.25490927641E+02 -0.35903743066E+02  0.83913012944E+02  0.47000000000E+01 0.  1.
          5    1    5    5  503    0  0.14812039373E+02 -0.22216801765E+02 -0.17816910847E+03  0.18022015427E+03  0.47000000000E+01 0.  1.
         -5    1    5    5    0  503  0.34266751871E+01 -0.19093834673E+02  0.17867734435E+02  0.26789224684E+02  0.47000000000E+01 0.  1.
<mgrwt>
<rscale>  0 0.27535950E+03</rscale>
<asrwt>0</asrwt>
<pdfrwt beam="1">  1        2 0.10313584E-01 0.27535950E+03</pdfrwt>
<pdfrwt beam="2">  1       -2 0.43501456E-01 0.27535950E+03</pdfrwt>
<totfact> 0.31082732E+03</totfact>
</mgrwt>
</event>
<event>
 9    1  0.2065703E-002  0.2747128E+03  0.7818608E-02  0.1098612E+00
         -2   -1    0    0    0  501 -0.00000000000E+00  0.00000000000E+00  0.62944032802E+01  0.62944032802E+01  0.00000000000E+00 0. -1.
          2   -1    0    0  501    0  0.00000000000E+00 -0.00000000000E+00 -0.29973906287E+04  0.29973906287E+04  0.00000000000E+00 0. -1.
         36    2    1    2    0    0  0.00000000000E+00  0.71054273576E-14 -0.29910962254E+04  0.30036850320E+04  0.27471283483E+03 0.  0.
         25    2    3    3    0    0 -0.22997232616E+02 -0.50583594238E+02 -0.13497127732E+04  0.13565581344E+04  0.12424906114E+03 0.  0.
         25    2    3    3    0    0  0.22997232616E+02  0.50583594238E+02 -0.16413834522E+04  0.16471268975E+04  0.12569728218E+03 0.  0.
          5    1    4    4  502    0 -0.39919051000E+02 -0.66126767463E+02 -0.12912489462E+04  0.12935656965E+04  0.47000000000E+01 0. -1.
         -5    1    4    4    0  502  0.16921818383E+02  0.15543173226E+02 -0.58463826991E+02  0.62992437942E+02  0.47000000000E+01 0. -1.
          5    1    5    5  503    0 -0.36851737483E+02  0.62812595395E+02 -0.10647371256E+04  0.10672350769E+04  0.47000000000E+01 0. -1.
         -5    1    5    5    0  503  0.59848970100E+02 -0.12229001158E+02 -0.57664632654E+03  0.57989182061E+03  0.47000000000E+01 0. -1.
<mgrwt>
<rscale>  0 0.27471283E+03</rscale>
<asrwt>0</asrwt>
<pdfrwt beam="1">  1        2 0.46113772E+00 0.27471283E+03</pdfrwt>
<pdfrwt beam="2">  1       -2 0.96836826E-03 0.27471283E+03</pdfrwt>
<totfact> 0.46715467E+03</totfact>
</mgrwt>
</event>
<event>
 9    1  0.2065703E-002  0.2695347E+03  0.7818608E-02  0.1101546E+00
         -1   -1    0    0    0  501 -0.00000000000E+00  0.00000000000E+00  0.14299643621E+02  0.14299643621E+02  0.00000000000E+00 0. -1.
          1   -1    0    0  501    0  0.00000000000E+00 -0.00000000000E+00 -0.12701181772E+04  0.12701181772E+04  0.00000000000E+00 0. -1.
         36    2    1    2    0    0  0.71054273576E-14 -0.14210854715E-13 -0.12558185336E+04  0.12844178209E+04  0.26953469009E+03 0.  0.
         25    2    3    3    0    0  0.44545138540E+02  0.37825369138E+02 -0.54852662457E+03  0.56565952304E+03  0.12519668616E+03 0.  0.
         25    2    3    3    0    0 -0.44545138540E+02 -0.37825369138E+02 -0.70729190905E+03  0.71875829782E+03  0.11373925515E+03 0.  0.
          5    1    4    4  502    0 -0.31947507216E+02 -0.27228151508E+01 -0.49549084485E+02  0.59205225386E+02  0.47000000000E+01 0.  1.
         -5    1    4    4    0  502  0.76492645755E+02  0.40548184289E+02 -0.49897754009E+03  0.50645429766E+03  0.47000000000E+01 0.  1.
          5    1    5    5  503    0 -0.24735437255E+02  0.23328001913E+02 -0.51108217556E+03  0.51223346016E+03  0.47000000000E+01 0. -1.
         -5    1    5    5    0  503 -0.19809701284E+02 -0.61153371051E+02 -0.19620973349E+03  0.20652483766E+03  0.47000000000E+01 0. -1.
<mgrwt>
<rscale>  0 0.26953469E+03</rscale>
<asrwt>0</asrwt>
<pdfrwt beam="1">  1        1 0.19540278E+00 0.26953469E+03</pdfrwt>
<pdfrwt beam="2">  1       -1 0.21999454E-02 0.26953469E+03</pdfrwt>
<totfact> 0.60967055E+03</totfact>
</mgrwt>
</event>
<event>
 9    1  0.2065703E-002  0.2735523E+03  0.7818608E-02  0.1099264E+00
         -1   -1    0    0    0  501 -0.00000000000E+00  0.00000000000E+00  0.30585642639E+02  0.30585642639E+02  0.00000000000E+00 0.  1.
          1   -1    0    0  501    0  0.00000000000E+00 -0.00000000000E+00 -0.61165041954E+03  0.61165041954E+03  0.00000000000E+00 0.  1.
         36    2    1    2    0    0  0.71054273576E-14  0.00000000000E+00 -0.58106477690E+03  0.64223606218E+03  0.27355234345E+03 0.  0.
         25    2    3    3    0    0  0.31798652337E+02 -0.32002019235E+02 -0.20920730507E+03  0.24783061345E+03  0.12496812772E+03 0.  0.
         25    2    3    3    0    0 -0.31798652337E+02  0.32002019235E+02 -0.37185747183E+03  0.39440544872E+03  0.12346009517E+03 0.  0.
          5    1    4    4  502    0  0.14967428570E+02  0.18343213823E+02 -0.18946993843E+03  0.19100116486E+03  0.47000000000E+01 0.  1.
         -5    1    4    4    0  502  0.16831223767E+02 -0.50345233058E+02 -0.19737366639E+02  0.56829448590E+02  0.47000000000E+01 0.  1.
          5    1    5    5  503    0  0.25693148467E+02  0.70690037248E+01 -0.28974454743E+03  0.29100532892E+03  0.47000000000E+01 0. -1.
         -5    1    5    5    0  503 -0.57491800805E+02  0.24933015511E+02 -0.82112924398E+02  0.10340011980E+03  0.47000000000E+01 0. -1.
<mgrwt>
<rscale>  0 0.27355234E+03</rscale>
<asrwt>0</asrwt>
<pdfrwt beam="1">  1        1 0.94100068E-01 0.27355234E+03</pdfrwt>
<pdfrwt beam="2">  1       -1 0.47054833E-02 0.27355234E+03</pdfrwt>
<totfact> 0.65757979E+03</totfact>
</mgrwt>
</event>
<event>
 9    1  0.2065703E-002  0.2751908E+03  0.7818608E-02  0.1098345E+00
         -2   -1    0    0    0  501 -0.00000000000E+00  0.00000000000E+00  0.76333160557E+01  0.76333160557E+01  0.00000000000E+00 0. -1.
          2   -1    0    0  501    0  0.00000000000E+00 -0.00000000000E+00 -0.24802450601E+04  0.24802450601E+04  0.00000000000E+00 0. -1.
         36    2    1    2    0    0  0.00000000000E+00  0.17763568394E-14 -0.24726117440E+04  0.24878783761E+04  0.27519080245E+03 0.  0.
         25    2    3    3    0    0 -0.55068427076E+02 -0.80945985537E+01 -0.13419695208E+04  0.13491051268E+04  0.12690308989E+03 0.  0.
         25    2    3    3    0    0  0.55068427076E+02  0.80945985537E+01 -0.11306422232E+04  0.11387732493E+04  0.12391376950E+03 0.  0.
          5    1    4    4  502    0 -0.53983746225E+02  0.87396040442E+01 -0.21169527373E+03  0.21869523190E+03  0.47000000000E+01 0. -1.
         -5    1    4    4    0  502 -0.10846808518E+01 -0.16834202598E+02 -0.11302742471E+04  0.11304098949E+04  0.47000000000E+01 0. -1.
          5    1    5    5  503    0  0.71218647519E+02 -0.34495962881E+02 -0.90900315731E+03  0.91245323015E+03  0.47000000000E+01 0. -1.
         -5    1    5    5    0  503 -0.16150220442E+02  0.42590561435E+02 -0.22163906588E+03  0.22632001915E+03  0.47000000000E+01 0. -1.
<mgrwt>
<rscale>  0 0.27519080E+03</rscale>
<asrwt>0</asrwt>
<pdfrwt beam="1">  1        2 0.38157635E+00 0.27519080E+03</pdfrwt>
<pdfrwt beam="2">  1       -2 0.11743557E-02 0.27519080E+03</pdfrwt>
<totfact> 0.69375453E+03</totfact>
</mgrwt>
</event>
<event>
 9    1  0.2065703E-002  0.2750646E+03  0.7818608E-02  0.1098415E+00
         -2   -1    0    0    0  501 -0.00000000000E+00  0.00000000000E+00  0.14932653799E+03  0.14932653799E+03  0.00000000000E+00 0. -1.
          2   -1    0    0  501    0  0.00000000000E+00 -0.00000000000E+00 -0.12666963830E+03  0.12666963830E+03  0.00000000000E+00 0. -1.
         36    2    1    2    0    0  0.00000000000E+00  0.00000000000E+00  0.22656899690E+02  0.27599617628E+03  0.27506463644E+03 0.  0.
         25    2    3    3    0    0 -0.47023197593E+02 -0.41466950769E+02  0.12373591541E+02  0.13797588854E+03  0.12228471259E+03 0.  0.
         25    2    3    3    0    0  0.47023197593E+02  0.41466950769E+02  0.10283308149E+02  0.13802028774E+03  0.12252821832E+03 0.  0.
          5    1    4    4  502    0 -0.68691564115E+01 -0.65659284206E+02  0.45557673529E+02  0.80348730728E+02  0.47000000000E+01 0.  1.
         -5    1    4    4    0  502 -0.40154041181E+02  0.24192333437E+02 -0.33184081989E+02  0.57627157814E+02  0.47000000000E+01 0.  1.
          5    1    5    5  503    0  0.72575775871E+02 -0.56758423839E+01  0.32406588591E+02  0.79823150866E+02  0.47000000000E+01 0.  1.
         -5    1    5    5    0  503 -0.25552578278E+02  0.47142793153E+02 -0.22123280442E+02  0.58197136875E+02  0.47000000000E+01 0.  1.
<mgrwt>
<rscale>  0 0.27506464E+03</rscale>
<asrwt>0</asrwt>
<pdfrwt beam="1">  1        2 0.19487637E-01 0.27506464E+03</pdfrwt>
<pdfrwt beam="2">  1       -2 0.22973314E-01 0.27506464E+03</pdfrwt>
<totfact> 0.46937701E+03</totfact>
</mgrwt>
</event>
<event>
 9    1  0.2065703E-002  0.2747114E+03  0.7818608E-02  0.1098613E+00
          2   -1    0    0  501    0  0.00000000000E+00  0.00000000000E+00  0.38269631117E+04  0.38269631117E+04  0.00000000000E+00 0.  1.
         -2   -1    0    0    0  501 -0.00000000000E+00 -0.00000000000E+00 -0.49299108728E+01  0.49299108728E+01  0.00000000000E+00 0.  1.
         36    2    1    2    0    0  0.14210854715E-13  0.00000000000E+00  0.38220332008E+04  0.38318930226E+04  0.27471139077E+03 0.  0.
         25    2    3    3    0    0  0.39008651598E+02 -0.25026043640E+02  0.14236162554E+04  0.14299519388E+04  0.12621936038E+03 0.  0.
         25    2    3    3    0    0 -0.39008651598E+02  0.25026043640E+02  0.23984169454E+04  0.24019410837E+04  0.12152838332E+03 0.  0.
          5    1    4    4  502    0  0.28282453064E+02  0.38746079980E+02  0.25356277455E+03  0.25810332524E+03  0.47000000000E+01 0. -1.
         -5    1    4    4    0  502  0.10726198534E+02 -0.63772123620E+02  0.11700534809E+04  0.11718486136E+04  0.47000000000E+01 0. -1.
          5    1    5    5  503    0 -0.73357530846E+02 -0.16742509156E+02  0.14853197487E+04  0.14872318194E+04  0.47000000000E+01 0.  1.
         -5    1    5    5    0  503  0.34348879248E+02  0.41768552796E+02  0.91309719675E+03  0.91470926432E+03  0.47000000000E+01 0.  1.
<mgrwt>
<rscale>  0 0.27471139E+03</rscale>
<asrwt>0</asrwt>
<pdfrwt beam="1">  1        2 0.58876118E+00 0.27471139E+03</pdfrwt>
<pdfrwt beam="2">  1       -2 0.75845088E-03 0.27471139E+03</pdfrwt>
<totfact> 0.19168675E+03</totfact>
</mgrwt>
</event>
<event>
 9    1  0.2065703E-002  0.2755150E+03  0.7818608E-02  0.1098164E+00
         -2   -1    0    0    0  501 -0.00000000000E+00  0.00000000000E+00  0.10520552947E+02  0.10520552947E+02  0.00000000000E+00 0.  1.
          2   -1    0    0  501    0  0.00000000000E+00 -0.00000000000E+00 -0.18038151762E+04  0.18038151762E+04  0.00000000000E+00 0.  1.
         36    2    1    2    0    0  0.71054273576E-14  0.71054273576E-14 -0.17932946232E+04  0.18143357291E+04  0.27551503094E+03 0.  0.
         25    2    3    3    0    0  0.18024533920E+02 -0.31703939412E+02 -0.11974182051E+04  0.12053802527E+04  0.13342103319E+03 0.  0.
         25    2    3    3    0    0 -0.18024533920E+02  0.31703939412E+02 -0.59587641814E+03  0.60895547643E+03  0.12011678895E+03 0.  0.
          5    1    4    4  502    0 -0.32185265103E+01 -0.45155717404E+02 -0.11546470463E+04  0.11555437202E+04  0.47000000000E+01 0. -1.
         -5    1    4    4    0  502  0.21243060430E+02  0.13451777991E+02 -0.42771158761E+02  0.49836532477E+02  0.47000000000E+01 0. -1.
          5    1    5    5  503    0  0.52569849055E+01  0.68383074586E+02 -0.21854771111E+03  0.22910493842E+03  0.47000000000E+01 0.  1.
         -5    1    5    5    0  503 -0.23281518825E+02 -0.36679135174E+02 -0.37732870703E+03  0.37985053801E+03  0.47000000000E+01 0.  1.
<mgrwt>
<rscale>  0 0.27551503E+03</rscale>
<asrwt>0</asrwt>
<pdfrwt beam="1">  1        2 0.27750997E+00 0.27551503E+03</pdfrwt>
<pdfrwt beam="2">  1       -2 0.16185469E-02 0.27551503E+03</pdfrwt>
<totfact> 0.99419006E+03</totfact>
</mgrwt>
</event>
<event>
 9    1  0.2065703E-002  0.2749614E+03  0.7818608E-02  0.1098473E+00
         -1   -1    0    0    0  501 -0.00000000000E+00  0.00000000000E+00  0.25603067078E+02  0.25603067078E+02  0.00000000000E+00 0.  1.
          1   -1    0    0  501    0  0.00000000000E+00 -0.00000000000E+00 -0.73822976545E+03  0.73822976545E+03  0.00000000000E+00 0.  1.
         36    2    1    2    0    0 -0.35527136788E-14  0.71054273576E-14 -0.71262669837E+03  0.76383283253E+03  0.27496142423E+03 0.  0.
         25    2    3    3    0    0  0.25815372124E+02  0.33283425581E+02 -0.43832555381E+03  0.45839877298E+03  0.12738101933E+03 0.  0.
         25    2    3    3    0    0 -0.25815372124E+02 -0.33283425581E+02 -0.27430114456E+03  0.30543405955E+03  0.12757204619E+03 0.  0.
          5    1    4    4  502    0  0.45058503247E+02  0.34586989191E+02 -0.73387445326E+02  0.92921126057E+02  0.47000000000E+01 0. -1.
         -5    1    4    4    0  502 -0.19243131123E+02 -0.13035636105E+01 -0.36493810849E+03  0.36547764692E+03  0.47000000000E+01 0. -1.
          5    1    5    5  503    0 -0.69887353247E+02  0.11904970175E+02 -0.14505862285E+03  0.16152419176E+03  0.47000000000E+01 0. -1.
         -5    1    5    5    0  503  0.44071981123E+02 -0.45188395756E+02 -0.12924252170E+03  0.14390986779E+03  0.47000000000E+01 0. -1.
<mgrwt>
<rscale>  0 0.27496142E+03</rscale>
<asrwt>0</asrwt>
<pdfrwt beam="1">  1        1 0.11357380E+00 0.27496142E+03</pdfrwt>
<pdfrwt beam="2">  1       -1 0.39389337E-02 0.27496142E+03</pdfrwt>
<totfact> 0.65387308E+03</totfact>
</mgrwt>
</event>
<event>
 9    1  0.2065703E-002  0.2756387E+03  0.7818608E-02  0.1098095E+00
         -2   -1    0    0    0  501 -0.00000000000E+00  0.00000000000E+00  0.22804003982E+02  0.22804003982E+02  0.00000000000E+00 0.  1.
          2   -1    0    0  501    0  0.00000000000E+00 -0.00000000000E+00 -0.83293137665E+03  0.83293137665E+03  0.00000000000E+00 0.  1.
         36    2    1    2    0    0 -0.71054273576E-14 -0.71054273576E-14 -0.81012737267E+03  0.85573538063E+03  0.27563867965E+03 0.  0.
         25    2    3    3    0    0  0.10206507853E+02 -0.35497863991E+02 -0.24676660158E+03  0.27860566738E+03  0.12394793701E+03 0.  0.
         25    2    3    3    0    0 -0.10206507853E+02  0.35497863991E+02 -0.56336077109E+03  0.57712971326E+03  0.11974588247E+03 0.  0.
          5    1    4    4  502    0  0.15419623181E+02 -0.66247866306E+02 -0.23540651329E+03  0.24508133562E+03  0.47000000000E+01 0.  1.
         -5    1    4    4    0  502 -0.52131153274E+01  0.30750002315E+02 -0.11360088284E+02  0.33524331755E+02  0.47000000000E+01 0.  1.
          5    1    5    5  503    0  0.51194384101E+02 -0.22306366135E+01 -0.18979088502E+03  0.19664310499E+03  0.47000000000E+01 0. -1.
         -5    1    5    5    0  503 -0.61400891954E+02  0.37728500604E+02 -0.37356988607E+03  0.38048660827E+03  0.47000000000E+01 0. -1.
<mgrwt>
<rscale>  0 0.27563868E+03</rscale>
<asrwt>0</asrwt>
<pdfrwt beam="1">  1        2 0.12814325E+00 0.27563868E+03</pdfrwt>
<pdfrwt beam="2">  1       -2 0.35083093E-02 0.27563868E+03</pdfrwt>
<totfact> 0.11242085E+04</totfact>
</mgrwt>
</event>
<event>
 9    1  0.2065703E-002  0.2743923E+03  0.7818608E-02  0.1098792E+00
          2   -1    0    0  501    0  0.00000000000E+00  0.00000000000E+00  0.56277548862E+02  0.56277548862E+02  0.00000000000E+00 0.  1.
         -2   -1    0    0    0  501 -0.00000000000E+00 -0.00000000000E+00 -0.33446356229E+03  0.33446356229E+03  0.00000000000E+00 0.  1.
         36    2    1    2    0    0  0.00000000000E+00 -0.35527136788E-14 -0.27818601343E+03  0.39074111115E+03  0.27439234297E+03 0.  0.
         25    2    3    3    0    0 -0.49621274992E+02 -0.24703050167E+02 -0.15685382103E+03  0.20844422813E+03  0.12559205170E+03 0.  0.
         25    2    3    3    0    0  0.49621274992E+02  0.24703050167E+02 -0.12133219240E+03  0.18229688302E+03  0.12425031601E+03 0.  0.
          5    1    4    4  502    0 -0.87797439874E+02 -0.38971136811E+02 -0.11320984174E+03  0.14854527330E+03  0.47000000000E+01 0. -1.
         -5    1    4    4    0  502  0.38176164882E+02  0.14268086644E+02 -0.43643979289E+02  0.59898954830E+02  0.47000000000E+01 0. -1.
          5    1    5    5  503    0  0.13325040041E+02 -0.45980835970E+02 -0.78077966074E+02  0.91706339775E+02  0.47000000000E+01 0.  1.
         -5    1    5    5    0  503  0.36296234951E+02  0.70683886137E+02 -0.43254226324E+02  0.90590543248E+02  0.47000000000E+01 0.  1.
<mgrwt>
<rscale>  0 0.27439234E+03</rscale>
<asrwt>0</asrwt>
<pdfrwt beam="1">  1        2 0.86580841E-02 0.27439234E+03</pdfrwt>
<pdfrwt beam="2">  1       -2 0.51455935E-01 0.27439234E+03</pdfrwt>
<totfact> 0.27767234E+03</totfact>
</mgrwt>
</event>
<event>
 9    1  0.2065703E-002  0.2747312E+03  0.7818608E-02  0.1098602E+00
         -1   -1    0    0    0  501 -0.00000000000E+00  0.00000000000E+00  0.28164600944E+02  0.28164600944E+02  0.00000000000E+00 0.  1.
          1   -1    0    0  501    0  0.00000000000E+00 -0.00000000000E+00 -0.66996559163E+03  0.66996559163E+03  0.00000000000E+00 0.  1.
         36    2    1    2    0    0 -0.35527136788E-14  0.71054273576E-14 -0.64180099069E+03  0.69813019258E+03  0.27473123983E+03 0.  0.
         25    2    3    3    0    0 -0.18902708551E+02 -0.32766616082E+02 -0.42560759106E+03  0.44462039389E+03  0.12294108174E+03 0.  0.
         25    2    3    3    0    0  0.18902708551E+02  0.32766616082E+02 -0.21619339963E+03  0.25350979868E+03  0.12687264664E+03 0.  0.
          5    1    4    4  502    0  0.21541707106E+01 -0.16566209415E+02  0.78794254123E+00  0.17372121324E+02  0.47000000000E+01 0. -1.
         -5    1    4    4    0  502 -0.21056879261E+02 -0.16200406666E+02 -0.42639553360E+03  0.42724827257E+03  0.47000000000E+01 0. -1.
          5    1    5    5  503    0 -0.21534242596E+02 -0.20663867957E+01  0.75893964324E+01  0.23402617306E+02  0.47000000000E+01 0.  1.
         -5    1    5    5    0  503  0.40436951146E+02  0.34833002877E+02 -0.22378279606E+03  0.23010718138E+03  0.47000000000E+01 0.  1.
<mgrwt>
<rscale>  0 0.27473124E+03</rscale>
<asrwt>0</asrwt>
<pdfrwt beam="1">  1        1 0.10307164E+00 0.27473124E+03</pdfrwt>
<pdfrwt beam="2">  1       -1 0.43330153E-02 0.27473124E+03</pdfrwt>
<totfact> 0.65381978E+03</totfact>
</mgrwt>
</event>
<event>
 9    1  0.2065703E-002  0.2777938E+03  0.7818608E-02  0.1096900E+00
          1   -1    0    0  501    0  0.00000000000E+00  0.00000000000E+00  0.28227515759E+03  0.28227515759E+03  0.00000000000E+00 0.  1.
         -1   -1    0    0    0  501 -0.00000000000E+00 -0.00000000000E+00 -0.68345912226E+02  0.68345912226E+02  0.00000000000E+00 0.  1.
         36    2    1    2    0    0  0.00000000000E+00  0.71054273576E-14  0.21392924536E+03  0.35062106981E+03  0.27779383106E+03 0.  0.
         25    2    3    3    0    0  0.56990554710E+02  0.17862474288E+02  0.10655166684E+03  0.17508712880E+03  0.12544023936E+03 0.  0.
         25    2    3    3    0    0 -0.56990554710E+02 -0.17862474288E+02  0.10737757852E+03  0.17553394101E+03  0.12536039552E+03 0.  0.
          5    1    4    4  502    0  0.85250754313E+02 -0.21620202704E+02  0.53656050846E+02  0.10313188677E+03  0.47000000000E+01 0. -1.
         -5    1    4    4    0  502 -0.28260199603E+02  0.39482676992E+02  0.52895615996E+02  0.71955242031E+02  0.47000000000E+01 0. -1.
          5    1    5    5  503    0 -0.37188095103E+02  0.46228887800E+01 -0.21279759726E+02  0.43350244429E+02  0.47000000000E+01 0.  1.
         -5    1    5    5    0  503 -0.19802459607E+02 -0.22485363068E+02  0.12865733824E+03  0.13218369658E+03  0.47000000000E+01 0.  1.
<mgrwt>
<rscale>  0 0.27779383E+03</rscale>
<asrwt>0</asrwt>
<pdfrwt beam="1">  1        1 0.43426947E-01 0.27779383E+03</pdfrwt>
<pdfrwt beam="2">  1       -1 0.10514756E-01 0.27779383E+03</pdfrwt>
<totfact> 0.53030133E+03</totfact>
</mgrwt>
</event>
<event>
 9    1  0.2065703E-002  0.2755567E+03  0.7818608E-02  0.1098141E+00
          2   -1    0    0  501    0  0.00000000000E+00  0.00000000000E+00  0.11216815667E+04  0.11216815667E+04  0.00000000000E+00 0.  1.
         -2   -1    0    0    0  501 -0.00000000000E+00 -0.00000000000E+00 -0.16923590051E+02  0.16923590051E+02  0.00000000000E+00 0.  1.
         36    2    1    2    0    0 -0.53290705182E-14  0.00000000000E+00  0.11047579767E+04  0.11386051568E+04  0.27555673828E+03 0.  0.
         25    2    3    3    0    0 -0.76572825543E+01 -0.63519947090E+02  0.68316436043E+03  0.69775786648E+03  0.12672442236E+03 0.  0.
         25    2    3    3    0    0  0.76572825543E+01  0.63519947090E+02  0.42159361623E+03  0.44084729027E+03  0.11185588248E+03 0.  0.
          5    1    4    4  502    0  0.32113240162E+02 -0.10281898764E+02  0.46570885006E+02  0.57688083398E+02  0.47000000000E+01 0. -1.
         -5    1    4    4    0  502 -0.39770522716E+02 -0.53238048326E+02  0.63659347542E+03  0.64006978309E+03  0.47000000000E+01 0. -1.
          5    1    5    5  503    0  0.18515543080E+02  0.86123724540E+02  0.39186445603E+03  0.40167146173E+03  0.47000000000E+01 0. -1.
         -5    1    5    5    0  503 -0.10858260526E+02 -0.22603777450E+02  0.29729160195E+02  0.39175828549E+02  0.47000000000E+01 0. -1.
<mgrwt>
<rscale>  0 0.27555674E+03</rscale>
<asrwt>0</asrwt>
<pdfrwt beam="1">  1        2 0.17256634E+00 0.27555674E+03</pdfrwt>
<pdfrwt beam="2">  1       -2 0.26036301E-02 0.27555674E+03</pdfrwt>
<totfact> 0.11586030E+04</totfact>
</mgrwt>
</event>
<event>
 9    1  0.2065703E-002  0.2759792E+03  0.7818608E-02  0.1097906E+00
          1   -1    0    0  501    0  0.00000000000E+00  0.00000000000E+00  0.23603819269E+03  0.23603819269E+03  0.00000000000E+00 0.  1.
         -1   -1    0    0    0  501 -0.00000000000E+00 -0.00000000000E+00 -0.80669671126E+02  0.80669671126E+02  0.00000000000E+00 0.  1.
         36    2    1    2    0    0  0.17763568394E-14 -0.14210854715E-13  0.15536852156E+03  0.31670786381E+03  0.27597915412E+03 0.  0.
         25    2    3    3    0    0 -0.33086884021E+01  0.62956288163E+02  0.74346297258E+02  0.15526264144E+03  0.12084980047E+03 0.  0.
         25    2    3    3    0    0  0.33086884021E+01 -0.62956288163E+02  0.81022224304E+02  0.16144522237E+03  0.12460143401E+03 0.  0.
          5    1    4    4  502    0  0.18380729094E+02  0.52121543220E+02 -0.19057030262E+02  0.58649525761E+02  0.47000000000E+01 0. -1.
         -5    1    4    4    0  502 -0.21689417496E+02  0.10834744944E+02  0.93403327519E+02  0.96613115678E+02  0.47000000000E+01 0. -1.
          5    1    5    5  503    0 -0.80475527734E+01  0.34291102416E+02  0.44253950410E+02  0.56755131375E+02  0.47000000000E+01 0.  1.
         -5    1    5    5    0  503  0.11356241175E+02 -0.97247390579E+02  0.36768273894E+02  0.10469009100E+03  0.47000000000E+01 0.  1.
<mgrwt>
<rscale>  0 0.27597915E+03</rscale>
<asrwt>0</asrwt>
<pdfrwt beam="1">  1        1 0.36313568E-01 0.27597915E+03</pdfrwt>
<pdfrwt beam="2">  1       -1 0.12410719E-01 0.27597915E+03</pdfrwt>
<totfact> 0.51263662E+03</totfact>
</mgrwt>
</event>
<event>
 9    1  0.2065703E-002  0.2751730E+03  0.7818608E-02  0.1098355E+00
          1   -1    0    0  501    0  0.00000000000E+00  0.00000000000E+00  0.76912365932E+02  0.76912365932E+02  0.00000000000E+00 0.  1.
         -1   -1    0    0    0  501 -0.00000000000E+00 -0.00000000000E+00 -0.24612489965E+03  0.24612489965E+03  0.00000000000E+00 0.  1.
         36    2    1    2    0    0  0.53290705182E-14 -0.71054273576E-14 -0.16921253372E+03  0.32303726558E+03  0.27517302446E+03 0.  0.
         25    2    3    3    0    0 -0.99437736633E+01  0.43905847570E+02 -0.13656337154E+03  0.18269584436E+03  0.11270144194E+03 0.  0.
         25    2    3    3    0    0  0.99437736633E+01 -0.43905847570E+02 -0.32649162181E+02  0.14034142122E+03  0.12885319024E+03 0.  0.
          5    1    4    4  502    0 -0.42739114210E+02  0.62731084258E+02 -0.58918145468E+02  0.96204255005E+02  0.47000000000E+01 0.  1.
         -5    1    4    4    0  502  0.32795340547E+02 -0.18825236688E+02 -0.77645226068E+02  0.86491589355E+02  0.47000000000E+01 0.  1.
          5    1    5    5  503    0 -0.42433960223E+01 -0.43758357747E+02  0.43923895826E+02  0.62323341591E+02  0.47000000000E+01 0.  1.
         -5    1    5    5    0  503  0.14187169686E+02 -0.14748982292E+00 -0.76573058007E+02  0.78018079632E+02  0.47000000000E+01 0.  1.
<mgrwt>
<rscale>  0 0.27517302E+03</rscale>
<asrwt>0</asrwt>
<pdfrwt beam="1">  1        1 0.11832672E-01 0.27517302E+03</pdfrwt>
<pdfrwt beam="2">  1       -1 0.37865369E-01 0.27517302E+03</pdfrwt>
<totfact> 0.34643882E+03</totfact>
</mgrwt>
</event>
<event>
 9    1  0.2065703E-002  0.2752065E+03  0.7818608E-02  0.1098336E+00
          1   -1    0    0  501    0  0.00000000000E+00  0.00000000000E+00  0.45505259136E+03  0.45505259136E+03  0.00000000000E+00 0. -1.
         -1   -1    0    0    0  501 -0.00000000000E+00 -0.00000000000E+00 -0.41609804476E+02  0.41609804476E+02  0.00000000000E+00 0. -1.
         36    2    1    2    0    0 -0.14210854715E-13 -0.17763568394E-14  0.41344278689E+03  0.49666239584E+03  0.27520646324E+03 0.  0.
         25    2    3    3    0    0  0.42883566342E+02 -0.14639311677E+02  0.26269739804E+03  0.29380876425E+03  0.12353281874E+03 0.  0.
         25    2    3    3    0    0 -0.42883566342E+02  0.14639311677E+02  0.15074538885E+03  0.20285363159E+03  0.12795356143E+03 0.  0.
          5    1    4    4  502    0 -0.42755229090E+02 -0.10761070930E+02  0.70150801490E+02  0.82988163082E+02  0.47000000000E+01 0.  1.
         -5    1    4    4    0  502  0.85638795431E+02 -0.38782407472E+01  0.19254659655E+03  0.21082060117E+03  0.47000000000E+01 0.  1.
          5    1    5    5  503    0  0.35482032800E+02 -0.11498784075E+02  0.88908909159E+01  0.38630747185E+02  0.47000000000E+01 0. -1.
         -5    1    5    5    0  503 -0.78365599141E+02  0.26138095753E+02  0.14185449793E+03  0.16422288440E+03  0.47000000000E+01 0. -1.
<mgrwt>
<rscale>  0 0.27520646E+03</rscale>
<asrwt>0</asrwt>
<pdfrwt beam="1">  1        1 0.70008087E-01 0.27520646E+03</pdfrwt>
<pdfrwt beam="2">  1       -1 0.64015087E-02 0.27520646E+03</pdfrwt>
<totfact> 0.61660375E+03</totfact>
</mgrwt>
</event>
<event>
 9    1  0.2065703E-002  0.2751391E+03  0.7818608E-02  0.1098374E+00
          1   -1    0    0  501    0  0.00000000000E+00  0.00000000000E+00  0.16724418014E+03  0.16724418014E+03  0.00000000000E+00 0. -1.
         -1   -1    0    0    0  501 -0.00000000000E+00 -0.00000000000E+00 -0.11316017572E+03  0.11316017572E+03  0.00000000000E+00 0. -1.
         36    2    1    2    0    0  0.35527136788E-14 -0.71054273576E-14  0.54084004419E+02  0.28040435586E+03  0.27513909801E+03 0.  0.
         25    2    3    3    0    0  0.20693921427E+02 -0.51820369884E+02  0.27205353911E+02  0.13931520317E+03  0.12471970748E+03 0.  0.
         25    2    3    3    0    0 -0.20693921427E+02  0.51820369884E+02  0.26878650508E+02  0.14108915270E+03  0.12676789040E+03 0.  0.
          5    1    4    4  502    0  0.98407177056E+01  0.35691668414E+02  0.34345718925E+02  0.50719358509E+02  0.47000000000E+01 0. -1.
         -5    1    4    4    0  502  0.10853203721E+02 -0.87512038298E+02 -0.71403650140E+01  0.88595844657E+02  0.47000000000E+01 0. -1.
          5    1    5    5  503    0 -0.18899371688E+02  0.59867044794E+02  0.71617945189E+02  0.95354440775E+02  0.47000000000E+01 0. -1.
         -5    1    5    5    0  503 -0.17945497387E+01 -0.80466749095E+01 -0.44739294681E+02  0.45734711920E+02  0.47000000000E+01 0. -1.
<mgrwt>
<rscale>  0 0.27513910E+03</rscale>
<asrwt>0</asrwt>
<pdfrwt beam="1">  1        1 0.25729874E-01 0.27513910E+03</pdfrwt>
<pdfrwt beam="2">  1       -1 0.17409258E-01 0.27513910E+03</pdfrwt>
<totfact> 0.46307333E+03</totfact>
</mgrwt>
</event>
<event>
 9    1  0.2065703E-002  0.2748382E+03  0.7818608E-02  0.1098542E+00
         -2   -1    0    0    0  501 -0.00000000000E+00  0.00000000000E+00  0.31013427683E+02  0.31013427683E+02  0.00000000000E+00 0.  1.
          2   -1    0    0  501    0  0.00000000000E+00 -0.00000000000E+00 -0.60889772734E+03  0.60889772734E+03  0.00000000000E+00 0.  1.
         36    2    1    2    0    0  0.14210854715E-13 -0.71054273576E-14 -0.57788429966E+03  0.63991115502E+03  0.27483817517E+03 0.  0.
         25    2    3    3    0    0 -0.34731017274E+02  0.62940498541E-01 -0.18995867642E+03  0.23040593274E+03  0.12568352148E+03 0.  0.
         25    2    3    3    0    0  0.34731017274E+02 -0.62940498541E-01 -0.38792562324E+03  0.40950522229E+03  0.12649897387E+03 0.  0.
          5    1    4    4  502    0  0.12731324294E+02  0.50390432493E+02 -0.41933299510E+02  0.66946052258E+02  0.47000000000E+01 0. -1.
         -5    1    4    4    0  502 -0.47462341568E+02 -0.50327491995E+02 -0.14802537691E+03  0.16345988048E+03  0.47000000000E+01 0. -1.
          5    1    5    5  503    0  0.12834902443E+02 -0.43776563074E+02 -0.49287161988E+02  0.67323372852E+02  0.47000000000E+01 0. -1.
         -5    1    5    5    0  503  0.21896114831E+02  0.43713622576E+02 -0.33863846125E+03  0.34218184943E+03  0.47000000000E+01 0. -1.
<mgrwt>
<rscale>  0 0.27483818E+03</rscale>
<asrwt>0</asrwt>
<pdfrwt beam="1">  1        2 0.93676572E-01 0.27483818E+03</pdfrwt>
<pdfrwt beam="2">  1       -2 0.47712966E-02 0.27483818E+03</pdfrwt>
<totfact> 0.10379709E+04</totfact>
</mgrwt>
</event>
<event>
 9    1  0.2065703E-002  0.2761150E+03  0.7818608E-02  0.1097830E+00
         -2   -1    0    0    0  501 -0.00000000000E+00  0.00000000000E+00  0.75972224483E+02  0.75972224483E+02  0.00000000000E+00 0.  1.
          2   -1    0    0  501    0  0.00000000000E+00 -0.00000000000E+00 -0.25087950635E+03  0.25087950635E+03  0.00000000000E+00 0.  1.
         36    2    1    2    0    0  0.35527136788E-14  0.00000000000E+00 -0.17490728187E+03  0.32685173083E+03  0.27611500629E+03 0.  0.
         25    2    3    3    0    0  0.12720247887E+02 -0.49063880666E+02 -0.93443058510E+02  0.16196649538E+03  0.12219849160E+03 0.  0.
         25    2    3    3    0    0 -0.12720247887E+02  0.49063880666E+02 -0.81464223358E+02  0.16488523545E+03  0.13409568260E+03 0.  0.
          5    1    4    4  502    0  0.62717590281E+02 -0.35655021614E+02 -0.26025703949E+02  0.76838818074E+02  0.47000000000E+01 0. -1.
         -5    1    4    4    0  502 -0.49997342394E+02 -0.13408859052E+02 -0.67417354560E+02  0.85127677306E+02  0.47000000000E+01 0. -1.
          5    1    5    5  503    0 -0.11154715745E+02  0.73079262354E+01 -0.11201872525E+03  0.11290756518E+03  0.47000000000E+01 0.  1.
         -5    1    5    5    0  503 -0.15655321419E+01  0.41755954430E+02  0.30554501889E+02  0.51977670273E+02  0.47000000000E+01 0.  1.
<mgrwt>
<rscale>  0 0.27611501E+03</rscale>
<asrwt>0</asrwt>
<pdfrwt beam="1">  1        2 0.38596848E-01 0.27611501E+03</pdfrwt>
<pdfrwt beam="2">  1       -2 0.11688034E-01 0.27611501E+03</pdfrwt>
<totfact> 0.68054277E+03</totfact>
</mgrwt>
</event>
<event>
 9    1  0.2065703E-002  0.2743612E+03  0.7818608E-02  0.1098809E+00
         -2   -1    0    0    0  501 -0.00000000000E+00  0.00000000000E+00  0.16496698258E+03  0.16496698258E+03  0.00000000000E+00 0.  1.
          2   -1    0    0  501    0  0.00000000000E+00 -0.00000000000E+00 -0.11407443062E+03  0.11407443062E+03  0.00000000000E+00 0.  1.
         36    2    1    2    0    0 -0.71054273576E-14 -0.71054273576E-14  0.50892551959E+02  0.27904141319E+03  0.27436118244E+03 0.  0.
         25    2    3    3    0    0 -0.25250415458E+02  0.37724524874E+02 -0.73526649029E+01  0.13523529771E+03  0.12717625883E+03 0.  0.
         25    2    3    3    0    0  0.25250415458E+02 -0.37724524874E+02  0.58245216862E+02  0.14380611548E+03  0.12339761061E+03 0.  0.
          5    1    4    4  502    0 -0.72897152940E+02  0.19665908308E+02 -0.27142550599E+02  0.80371331390E+02  0.47000000000E+01 0.  1.
         -5    1    4    4    0  502  0.47646737483E+02  0.18058616566E+02  0.19789885696E+02  0.54863966325E+02  0.47000000000E+01 0.  1.
          5    1    5    5  503    0  0.23063037174E+02  0.31935824316E+02 -0.15165507815E+02  0.42472145998E+02  0.47000000000E+01 0. -1.
         -5    1    5    5    0  503  0.21873782837E+01 -0.69660349189E+02  0.73410724676E+02  0.10133396948E+03  0.47000000000E+01 0. -1.
<mgrwt>
<rscale>  0 0.27436118E+03</rscale>
<asrwt>0</asrwt>
<pdfrwt beam="1">  1        2 0.17549912E-01 0.27436118E+03</pdfrwt>
<pdfrwt beam="2">  1       -2 0.25379536E-01 0.27436118E+03</pdfrwt>
<totfact> 0.44475558E+03</totfact>
</mgrwt>
</event>
<event>
 9    1  0.2065703E-002  0.2744905E+03  0.7818608E-02  0.1098737E+00
          1   -1    0    0  501    0  0.00000000000E+00  0.00000000000E+00  0.17053238503E+02  0.17053238503E+02  0.00000000000E+00 0.  1.
         -1   -1    0    0    0  501 -0.00000000000E+00 -0.00000000000E+00 -0.11045558207E+04  0.11045558207E+04  0.00000000000E+00 0.  1.
         36    2    1    2    0    0  0.00000000000E+00 -0.35527136788E-14 -0.10875025822E+04  0.11216090592E+04  0.27449046505E+03 0.  0.
         25    2    3    3    0    0  0.46526212968E+01 -0.25013921775E+02 -0.76234895795E+03  0.77253800240E+03  0.12244055001E+03 0.  0.
         25    2    3    3    0    0 -0.46526212968E+01  0.25013921775E+02 -0.32515362423E+03  0.34907105679E+03  0.12441213837E+03 0.  0.
          5    1    4    4  502    0 -0.18663338442E+02  0.46114549108E+02 -0.31901735454E+03  0.32290716055E+03  0.47000000000E+01 0. -1.
         -5    1    4    4    0  502  0.23315959739E+02 -0.71128470882E+02 -0.44333160342E+03  0.44963084184E+03  0.47000000000E+01 0. -1.
          5    1    5    5  503    0 -0.71871978011E+01  0.33028216656E+02 -0.12613833695E+02  0.36382931550E+02  0.47000000000E+01 0. -1.
         -5    1    5    5    0  503  0.25345765043E+01 -0.80142948807E+01 -0.31253979053E+03  0.31268812524E+03  0.47000000000E+01 0. -1.
<mgrwt>
<rscale>  0 0.27449047E+03</rscale>
<asrwt>0</asrwt>
<pdfrwt beam="1">  1        1 0.26235743E-02 0.27449047E+03</pdfrwt>
<pdfrwt beam="2">  1       -1 0.16993172E+00 0.27449047E+03</pdfrwt>
<totfact> 0.11095751E+03</totfact>
</mgrwt>
</event>
<event>
 9    1  0.2065703E-002  0.2747996E+03  0.7818608E-02  0.1098564E+00
          2   -1    0    0  501    0  0.00000000000E+00  0.00000000000E+00  0.24963482159E+04  0.24963482159E+04  0.00000000000E+00 0.  1.
         -2   -1    0    0    0  501 -0.00000000000E+00 -0.00000000000E+00 -0.75625267720E+01  0.75625267720E+01  0.00000000000E+00 0.  1.
         36    2    1    2    0    0  0.71054273576E-14 -0.35527136788E-14  0.24887856891E+04  0.25039107426E+04  0.27479956488E+03 0.  0.
         25    2    3    3    0    0 -0.55290824580E+02 -0.16439936368E+02  0.15136077272E+04  0.15198818053E+04  0.12531960513E+03 0.  0.
         25    2    3    3    0    0  0.55290824580E+02  0.16439936368E+02  0.97517796194E+03  0.98402893739E+03  0.11837882150E+03 0.  0.
          5    1    4    4  502    0 -0.63279560053E+01 -0.27985506697E+02  0.13020476408E+04  0.13023722127E+04  0.47000000000E+01 0. -1.
         -5    1    4    4    0  502 -0.48962868574E+02  0.11545570328E+02  0.21156008637E+03  0.21750959252E+03  0.47000000000E+01 0. -1.
          5    1    5    5  503    0  0.43068007033E+02  0.21610766537E+02  0.12982354897E+03  0.13855728898E+03  0.47000000000E+01 0.  1.
         -5    1    5    5    0  503  0.12222817547E+02 -0.51708301684E+01  0.84535441296E+03  0.84547164841E+03  0.47000000000E+01 0.  1.
<mgrwt>
<rscale>  0 0.27479956E+03</rscale>
<asrwt>0</asrwt>
<pdfrwt beam="1">  1        2 0.38405291E+00 0.27479956E+03</pdfrwt>
<pdfrwt beam="2">  1       -2 0.11634677E-02 0.27479956E+03</pdfrwt>
<totfact> 0.68911295E+03</totfact>
</mgrwt>
</event>
<event>
 9    1  0.2065703E-002  0.2745027E+03  0.7818608E-02  0.1098730E+00
         -2   -1    0    0    0  501 -0.00000000000E+00  0.00000000000E+00  0.46103738271E+02  0.46103738271E+02  0.00000000000E+00 0.  1.
          2   -1    0    0  501    0  0.00000000000E+00 -0.00000000000E+00 -0.40859875579E+03  0.40859875579E+03  0.00000000000E+00 0.  1.
         36    2    1    2    0    0 -0.35527136788E-14  0.00000000000E+00 -0.36249501752E+03  0.45470249407E+03  0.27450267828E+03 0.  0.
         25    2    3    3    0    0  0.46418647008E+01 -0.16773320397E+01 -0.83510897976E+02  0.14918525638E+03  0.12352250925E+03 0.  0.
         25    2    3    3    0    0 -0.46418647008E+01  0.16773320397E+01 -0.27898411955E+03  0.30551723768E+03  0.12443585983E+03 0.  0.
          5    1    4    4  502    0  0.13719542695E+02  0.53860234631E+02 -0.72793450336E+02  0.91706745325E+02  0.47000000000E+01 0. -1.
         -5    1    4    4    0  502 -0.90776779946E+01 -0.55537566671E+02 -0.10717447640E+02  0.57478511058E+02  0.47000000000E+01 0. -1.
          5    1    5    5  503    0  0.44408071567E+02 -0.86743510546E+01 -0.37836715181E+02  0.59169487088E+02  0.47000000000E+01 0.  1.
         -5    1    5    5    0  503 -0.49049936268E+02  0.10351683094E+02 -0.24114740437E+03  0.24634775060E+03  0.47000000000E+01 0.  1.
<mgrwt>
<rscale>  0 0.27450268E+03</rscale>
<asrwt>0</asrwt>
<pdfrwt beam="1">  1        2 0.62861344E-01 0.27450268E+03</pdfrwt>
<pdfrwt beam="2">  1       -2 0.70928832E-02 0.27450268E+03</pdfrwt>
<totfact> 0.88432392E+03</totfact>
</mgrwt>
</event>
<event>
 9    1  0.2065703E-002  0.2744241E+03  0.7818608E-02  0.1098774E+00
         -1   -1    0    0    0  501 -0.00000000000E+00  0.00000000000E+00  0.51126679835E+03  0.51126679835E+03  0.00000000000E+00 0. -1.
          1   -1    0    0  501    0  0.00000000000E+00 -0.00000000000E+00 -0.36824511686E+02  0.36824511686E+02  0.00000000000E+00 0. -1.
         36    2    1    2    0    0  0.71054273576E-14  0.00000000000E+00  0.47444228666E+03  0.54809131003E+03  0.27442412569E+03 0.  0.
         25    2    3    3    0    0  0.22311562385E+02 -0.54915117609E+02  0.27302643325E+03  0.30497433522E+03  0.12228015346E+03 0.  0.
         25    2    3    3    0    0 -0.22311562385E+02  0.54915117609E+02  0.20141585341E+03  0.24311697481E+03  0.12257259677E+03 0.  0.
          5    1    4    4  502    0 -0.48773779887E+02 -0.38120230151E+02  0.11096666769E+03  0.12715236879E+03  0.47000000000E+01 0. -1.
         -5    1    4    4    0  502  0.71085342272E+02 -0.16794887458E+02  0.16205976557E+03  0.17782196643E+03  0.47000000000E+01 0. -1.
          5    1    5    5  503    0 -0.70505055062E+02  0.14867493472E+02  0.12301378561E+03  0.14264111119E+03  0.47000000000E+01 0. -1.
         -5    1    5    5    0  503  0.48193492678E+02  0.40047624137E+02  0.78402067801E+02  0.10047586362E+03  0.47000000000E+01 0. -1.
<mgrwt>
<rscale>  0 0.27442413E+03</rscale>
<asrwt>0</asrwt>
<pdfrwt beam="1">  1        1 0.56653099E-02 0.27442413E+03</pdfrwt>
<pdfrwt beam="2">  1       -1 0.78656425E-01 0.27442413E+03</pdfrwt>
<totfact> 0.23594982E+03</totfact>
</mgrwt>
</event>
<event>
 9    1  0.2065703E-002  0.2758060E+03  0.7818608E-02  0.1098002E+00
         -3   -1    0    0    0  501 -0.00000000000E+00  0.00000000000E+00  0.11052145712E+02  0.11052145712E+02  0.00000000000E+00 0. -1.
          3   -1    0    0  501    0  0.00000000000E+00 -0.00000000000E+00 -0.17206825366E+04  0.17206825366E+04  0.00000000000E+00 0. -1.
         36    2    1    2    0    0 -0.35527136788E-14  0.00000000000E+00 -0.17096303909E+04  0.17317346823E+04  0.27580597615E+03 0.  0.
         25    2    3    3    0    0  0.70783805002E+01 -0.42262387290E+02 -0.61053504949E+03  0.62446721119E+03  0.12397595876E+03 0.  0.
         25    2    3    3    0    0 -0.70783805002E+01  0.42262387290E+02 -0.10990953414E+04  0.11072674711E+04  0.12725749591E+03 0.  0.
          5    1    4    4  502    0  0.16219451083E+02  0.42303926585E+02 -0.18912891042E+03  0.19453669976E+03  0.47000000000E+01 0. -1.
         -5    1    4    4    0  502 -0.91410705831E+01 -0.84566313876E+02 -0.42140613907E+03  0.42993051143E+03  0.47000000000E+01 0. -1.
          5    1    5    5  503    0  0.54901254324E+02 -0.41321755421E+01 -0.37899967267E+03  0.38300661154E+03  0.47000000000E+01 0.  1.
         -5    1    5    5    0  503 -0.61979634824E+02  0.46394562832E+02 -0.72009566875E+03  0.72426085960E+03  0.47000000000E+01 0.  1.
<mgrwt>
<rscale>  0 0.27580598E+03</rscale>
<asrwt>0</asrwt>
<pdfrwt beam="1">  1        3 0.26472051E+00 0.27580598E+03</pdfrwt>
<pdfrwt beam="2">  1       -3 0.17003294E-02 0.27580598E+03</pdfrwt>
<totfact> 0.21275713E+02</totfact>
</mgrwt>
</event>
<event>
 9    1  0.2065703E-002  0.2761677E+03  0.7818608E-02  0.1097801E+00
          2   -1    0    0  501    0  0.00000000000E+00  0.00000000000E+00  0.36118609695E+04  0.36118609695E+04  0.00000000000E+00 0.  1.
         -2   -1    0    0    0  501 -0.00000000000E+00 -0.00000000000E+00 -0.52790390767E+01  0.52790390767E+01  0.00000000000E+00 0.  1.
         36    2    1    2    0    0  0.00000000000E+00 -0.71054273576E-14  0.36065819304E+04  0.36171400085E+04  0.27616774031E+03 0.  0.
         25    2    3    3    0    0 -0.17722330048E+02  0.24004304228E+01  0.24630780688E+04  0.24663197259E+04  0.12513822163E+03 0.  0.
         25    2    3    3    0    0  0.17722330048E+02 -0.24004304228E+01  0.11435038616E+04  0.11508202826E+04  0.12832146480E+03 0.  0.
          5    1    4    4  502    0  0.61355483842E+01 -0.56544628774E+02  0.15308983854E+04  0.15319617804E+04  0.47000000000E+01 0.  1.
         -5    1    4    4    0  502 -0.23857878432E+02  0.58945059196E+02  0.93217968336E+03  0.93435794557E+03  0.47000000000E+01 0.  1.
          5    1    5    5  503    0  0.22918075056E+02  0.60749702196E+02  0.64723518229E+03  0.65050075762E+03  0.47000000000E+01 0. -1.
         -5    1    5    5    0  503 -0.51957450085E+01 -0.63150132619E+02  0.49626867929E+03  0.50031952496E+03  0.47000000000E+01 0. -1.
<mgrwt>
<rscale>  0 0.27616774E+03</rscale>
<asrwt>0</asrwt>
<pdfrwt beam="1">  1        2 0.55566894E+00 0.27616774E+03</pdfrwt>
<pdfrwt beam="2">  1       -2 0.81216274E-03 0.27616774E+03</pdfrwt>
<totfact> 0.24590030E+03</totfact>
</mgrwt>
</event>
<event>
 9    1  0.2065703E-002  0.2757686E+03  0.7818608E-02  0.1098023E+00
          2   -1    0    0  501    0  0.00000000000E+00  0.00000000000E+00  0.43144359424E+04  0.43144359424E+04  0.00000000000E+00 0. -1.
         -2   -1    0    0    0  501 -0.00000000000E+00 -0.00000000000E+00 -0.44066188475E+01  0.44066188475E+01  0.00000000000E+00 0. -1.
         36    2    1    2    0    0  0.71054273576E-14 -0.71054273576E-14  0.43100293236E+04  0.43188425613E+04  0.27576856050E+03 0.  0.
         25    2    3    3    0    0 -0.47267944095E+02  0.37980418825E+02  0.22631787471E+04  0.22672835714E+04  0.12214737453E+03 0.  0.
         25    2    3    3    0    0  0.47267944095E+02 -0.37980418825E+02  0.20468505764E+04  0.20515589898E+04  0.12498094138E+03 0.  0.
          5    1    4    4  502    0  0.33386965949E+02  0.39868818509E+02  0.65619448042E+03  0.65826856093E+03  0.47000000000E+01 0. -1.
         -5    1    4    4    0  502 -0.80654910044E+02 -0.18883996847E+01  0.16069842667E+04  0.16090150105E+04  0.47000000000E+01 0. -1.
          5    1    5    5  503    0  0.26586443017E+02 -0.78208682878E+02  0.89649142423E+03  0.90030128332E+03  0.47000000000E+01 0. -1.
         -5    1    5    5    0  503  0.20681501078E+02  0.40228264053E+02  0.11503591522E+04  0.11512577065E+04  0.47000000000E+01 0. -1.
<mgrwt>
<rscale>  0 0.27576856E+03</rscale>
<asrwt>0</asrwt>
<pdfrwt beam="1">  1        2 0.66375600E+00 0.27576856E+03</pdfrwt>
<pdfrwt beam="2">  1       -2 0.67794481E-03 0.27576856E+03</pdfrwt>
<totfact> 0.93098972E+02</totfact>
</mgrwt>
</event>
<event>
 9    1  0.2065703E-002  0.2739345E+03  0.7818608E-02  0.1099049E+00
         -2   -1    0    0    0  501 -0.00000000000E+00  0.00000000000E+00  0.39504187978E+02  0.39504187978E+02  0.00000000000E+00 0.  1.
          2   -1    0    0  501    0  0.00000000000E+00 -0.00000000000E+00 -0.47488700733E+03  0.47488700733E+03  0.00000000000E+00 0.  1.
         36    2    1    2    0    0 -0.71054273576E-14 -0.35527136788E-14 -0.43538281935E+03  0.51439119531E+03  0.27393448564E+03 0.  0.
         25    2    3    3    0    0  0.38352455644E+02 -0.17191475959E+02 -0.18239051238E+03  0.22933944014E+03  0.13252857089E+03 0.  0.
         25    2    3    3    0    0 -0.38352455644E+02  0.17191475959E+02 -0.25299230698E+03  0.28505175516E+03  0.12443045461E+03 0.  0.
          5    1    4    4  502    0  0.68376167645E+02 -0.48165709846E+02 -0.71052434330E+02  0.10984431861E+03  0.47000000000E+01 0. -1.
         -5    1    4    4    0  502 -0.30023712001E+02  0.30974233887E+02 -0.11133807805E+03  0.11949512153E+03  0.47000000000E+01 0. -1.
          5    1    5    5  503    0 -0.78801566348E+02 -0.72986309767E+01 -0.11997922649E+03  0.14380563849E+03  0.47000000000E+01 0.  1.
         -5    1    5    5    0  503  0.40449110704E+02  0.24490106936E+02 -0.13301308049E+03  0.14124611667E+03  0.47000000000E+01 0.  1.
<mgrwt>
<rscale>  0 0.27393449E+03</rscale>
<asrwt>0</asrwt>
<pdfrwt beam="1">  1        2 0.73059540E-01 0.27393449E+03</pdfrwt>
<pdfrwt beam="2">  1       -2 0.60775673E-02 0.27393449E+03</pdfrwt>
<totfact> 0.95136100E+03</totfact>
</mgrwt>
</event>
<event>
 9    1  0.2065703E-002  0.2757121E+03  0.7818608E-02  0.1098054E+00
          3   -1    0    0  501    0  0.00000000000E+00  0.00000000000E+00  0.46136919592E+02  0.46136919592E+02  0.00000000000E+00 0.  1.
         -3   -1    0    0    0  501 -0.00000000000E+00 -0.00000000000E+00 -0.41191064255E+03  0.41191064255E+03  0.00000000000E+00 0.  1.
         36    2    1    2    0    0 -0.35527136788E-14  0.00000000000E+00 -0.36577372296E+03  0.45804756214E+03  0.27571208312E+03 0.  0.
         25    2    3    3    0    0 -0.17510838318E+02 -0.55615870338E+02 -0.23077082083E+03  0.26572074199E+03  0.11812106707E+03 0.  0.
         25    2    3    3    0    0  0.17510838318E+02  0.55615870338E+02 -0.13500290212E+03  0.19232682015E+03  0.12395187644E+03 0.  0.
          5    1    4    4  502    0  0.34435503954E+01 -0.85496952369E+00  0.13361781504E+02  0.14601925119E+02  0.47000000000E+01 0. -1.
         -5    1    4    4    0  502 -0.20954388714E+02 -0.54760900814E+02 -0.24413260234E+03  0.25111881688E+03  0.47000000000E+01 0. -1.
          5    1    5    5  503    0  0.49044693094E+02  0.80435965656E+02 -0.10959504739E+03  0.14459768637E+03  0.47000000000E+01 0. -1.
         -5    1    5    5    0  503 -0.31533854776E+02 -0.24820095319E+02 -0.25407854732E+02  0.47729133773E+02  0.47000000000E+01 0. -1.
<mgrwt>
<rscale>  0 0.27571208E+03</rscale>
<asrwt>0</asrwt>
<pdfrwt beam="1">  1        3 0.70979878E-02 0.27571208E+03</pdfrwt>
<pdfrwt beam="2">  1       -3 0.63370866E-01 0.27571208E+03</pdfrwt>
<totfact> 0.80957492E+02</totfact>
</mgrwt>
</event>
<event>
 9    1  0.2065703E-002  0.2619426E+03  0.7818608E-02  0.1105982E+00
          1   -1    0    0  501    0  0.00000000000E+00  0.00000000000E+00  0.25825284296E+04  0.25825284296E+04  0.00000000000E+00 0.  1.
         -1   -1    0    0    0  501 -0.00000000000E+00 -0.00000000000E+00 -0.66421292733E+01  0.66421292733E+01  0.00000000000E+00 0.  1.
         36    2    1    2    0    0  0.00000000000E+00  0.00000000000E+00  0.25758863003E+04  0.25891705589E+04  0.26194264778E+03 0.  0.
         25    2    3    3    0    0  0.22089814115E+02  0.19758528039E+02  0.15261488981E+04  0.15317713229E+04  0.12772848939E+03 0.  0.
         25    2    3    3    0    0 -0.22089814115E+02 -0.19758528039E+02  0.10497374022E+04  0.10573992360E+04  0.12355634909E+03 0.  0.
          5    1    4    4  502    0  0.73611056841E+02 -0.44652494757E+01  0.83088593455E+03  0.83416548261E+03  0.47000000000E+01 0.  1.
         -5    1    4    4    0  502 -0.51521242726E+02  0.24223777515E+02  0.69526296356E+03  0.69760584025E+03  0.47000000000E+01 0.  1.
          5    1    5    5  503    0 -0.31021002978E+02 -0.68690553786E+02  0.54763723608E+03  0.55281943449E+03  0.47000000000E+01 0. -1.
         -5    1    5    5    0  503  0.89311888630E+01  0.48932025747E+02  0.50210016614E+03  0.50457980153E+03  0.47000000000E+01 0. -1.
<mgrwt>
<rscale>  0 0.26194265E+03</rscale>
<asrwt>0</asrwt>
<pdfrwt beam="1">  1        1 0.39731126E+00 0.26194265E+03</pdfrwt>
<pdfrwt beam="2">  1       -1 0.10218681E-02 0.26194265E+03</pdfrwt>
<totfact> 0.25480512E+03</totfact>
</mgrwt>
</event>
<event>
 9    1  0.2065703E-002  0.2753162E+03  0.7818608E-02  0.1098275E+00
         -2   -1    0    0    0  501 -0.00000000000E+00  0.00000000000E+00  0.44065168188E+02  0.44065168188E+02  0.00000000000E+00 0. -1.
          2   -1    0    0  501    0  0.00000000000E+00 -0.00000000000E+00 -0.43003938132E+03  0.43003938132E+03  0.00000000000E+00 0. -1.
         36    2    1    2    0    0 -0.71054273576E-14  0.00000000000E+00 -0.38597421313E+03  0.47410454951E+03  0.27531623755E+03 0.  0.
         25    2    3    3    0    0 -0.32391801876E+02  0.39898076013E+02 -0.24922017679E+03  0.28315536498E+03  0.12419814370E+03 0.  0.
         25    2    3    3    0    0  0.32391801876E+02 -0.39898076013E+02 -0.13675403634E+03  0.19094918453E+03  0.12295868948E+03 0.  0.
          5    1    4    4  502    0 -0.38598628705E+02  0.69742753155E+02 -0.87244311216E+02  0.11826903904E+03  0.47000000000E+01 0. -1.
         -5    1    4    4    0  502  0.62068268296E+01 -0.29844677142E+02 -0.16197586557E+03  0.16488632594E+03  0.47000000000E+01 0. -1.
          5    1    5    5  503    0  0.31104127581E+02  0.41146883500E+02 -0.59369488088E+02  0.78786793881E+02  0.47000000000E+01 0. -1.
         -5    1    5    5    0  503  0.12876742945E+01 -0.81044959513E+02 -0.77384548254E+02  0.11216239065E+03  0.47000000000E+01 0. -1.
<mgrwt>
<rscale>  0 0.27531624E+03</rscale>
<asrwt>0</asrwt>
<pdfrwt beam="1">  1        2 0.66159906E-01 0.27531624E+03</pdfrwt>
<pdfrwt beam="2">  1       -2 0.67792565E-02 0.27531624E+03</pdfrwt>
<totfact> 0.89702584E+03</totfact>
</mgrwt>
</event>
<event>
 9    1  0.2065703E-002  0.2747566E+03  0.7818608E-02  0.1098588E+00
         -2   -1    0    0    0  501 -0.00000000000E+00  0.00000000000E+00  0.38076268367E+02  0.38076268367E+02  0.00000000000E+00 0.  1.
          2   -1    0    0  501    0  0.00000000000E+00 -0.00000000000E+00 -0.49565765746E+03  0.49565765746E+03  0.00000000000E+00 0.  1.
         36    2    1    2    0    0  0.71054273576E-14 -0.35527136788E-14 -0.45758138909E+03  0.53373392583E+03  0.27475657578E+03 0.  0.
         25    2    3    3    0    0 -0.47946554555E+02  0.20867592185E+01 -0.27867239504E+03  0.31027094711E+03  0.12769702503E+03 0.  0.
         25    2    3    3    0    0  0.47946554555E+02 -0.20867592185E+01 -0.17890899405E+03  0.22346297872E+03  0.12499619214E+03 0.  0.
          5    1    4    4  502    0 -0.38245261681E+02 -0.35495483122E+02 -0.26296994828E+03  0.26813786204E+03  0.47000000000E+01 0. -1.
         -5    1    4    4    0  502 -0.97012928743E+01  0.37582242340E+02 -0.15702446767E+02  0.42133085067E+02  0.47000000000E+01 0. -1.
          5    1    5    5  503    0 -0.29513776622E+02 -0.24339160045E+02 -0.16164234755E+02  0.41795097887E+02  0.47000000000E+01 0. -1.
         -5    1    5    5    0  503  0.77460331177E+02  0.22252400827E+02 -0.16274475930E+03  0.18166788083E+03  0.47000000000E+01 0. -1.
<mgrwt>
<rscale>  0 0.27475658E+03</rscale>
<asrwt>0</asrwt>
<pdfrwt beam="1">  1        2 0.76255024E-01 0.27475658E+03</pdfrwt>
<pdfrwt beam="2">  1       -2 0.58578874E-02 0.27475658E+03</pdfrwt>
<totfact> 0.95988524E+03</totfact>
</mgrwt>
</event>
<event>
 9    1  0.2065703E-002  0.2766757E+03  0.7818608E-02  0.1097519E+00
          2   -1    0    0  501    0  0.00000000000E+00  0.00000000000E+00  0.22900159935E+03  0.22900159935E+03  0.00000000000E+00 0. -1.
         -2   -1    0    0    0  501 -0.00000000000E+00 -0.00000000000E+00 -0.83568686090E+02  0.83568686090E+02  0.00000000000E+00 0. -1.
         36    2    1    2    0    0  0.00000000000E+00  0.17763568394E-14  0.14543291326E+03  0.31257028544E+03  0.27667571466E+03 0.  0.
         25    2    3    3    0    0 -0.20535740580E+02 -0.10963873928E+02  0.13169878811E+03  0.18359859293E+03  0.12578533048E+03 0.  0.
         25    2    3    3    0    0  0.20535740580E+02  0.10963873928E+02  0.13734125152E+02  0.12897169251E+03  0.12610768455E+03 0.  0.
          5    1    4    4  502    0  0.45564726253E+02 -0.12367905893E+02  0.98797113141E+02  0.10959958458E+03  0.47000000000E+01 0.  1.
         -5    1    4    4    0  502 -0.66100466834E+02  0.14040319649E+01  0.32901674971E+02  0.73999008353E+02  0.47000000000E+01 0.  1.
          5    1    5    5  503    0  0.43953846630E+02  0.10591611150E+02 -0.45980570085E+02  0.64656211501E+02  0.47000000000E+01 0.  1.
         -5    1    5    5    0  503 -0.23418106050E+02  0.37226277872E+00  0.59714695236E+02  0.64315481011E+02  0.47000000000E+01 0.  1.
<mgrwt>
<rscale>  0 0.27667571E+03</rscale>
<asrwt>0</asrwt>
<pdfrwt beam="1">  1        2 0.35231015E-01 0.27667571E+03</pdfrwt>
<pdfrwt beam="2">  1       -2 0.12856721E-01 0.27667571E+03</pdfrwt>
<totfact> 0.64392318E+03</totfact>
</mgrwt>
</event>
<event>
 9    1  0.2065703E-002  0.2751316E+03  0.7818608E-02  0.1098378E+00
         -1   -1    0    0    0  501 -0.00000000000E+00  0.00000000000E+00  0.12759596294E+04  0.12759596294E+04  0.00000000000E+00 0. -1.
          1   -1    0    0  501    0  0.00000000000E+00 -0.00000000000E+00 -0.14831467341E+02  0.14831467341E+02  0.00000000000E+00 0. -1.
         36    2    1    2    0    0 -0.14210854715E-13 -0.35527136788E-14  0.12611281620E+04  0.12907910967E+04  0.27513163083E+03 0.  0.
         25    2    3    3    0    0  0.47543509350E+02  0.13524233228E+02  0.71169065055E+03  0.72501494409E+03  0.12922769402E+03 0.  0.
         25    2    3    3    0    0 -0.47543509350E+02 -0.13524233228E+02  0.54943751149E+03  0.56577615264E+03  0.12560965605E+03 0.  0.
          5    1    4    4  502    0  0.73758174626E+02 -0.34229911737E+02  0.35998744828E+03  0.36908672165E+03  0.47000000000E+01 0. -1.
         -5    1    4    4    0  502 -0.26214665276E+02  0.47754144965E+02  0.35170320227E+03  0.35592822244E+03  0.47000000000E+01 0. -1.
          5    1    5    5  503    0  0.36219576874E+02  0.14764842441E+02  0.95872073823E+02  0.10365038765E+03  0.47000000000E+01 0.  1.
         -5    1    5    5    0  503 -0.83763086224E+02 -0.28289075669E+02  0.45356543767E+03  0.46212576499E+03  0.47000000000E+01 0.  1.
<mgrwt>
<rscale>  0 0.27513163E+03</rscale>
<asrwt>0</asrwt>
<pdfrwt beam="1">  1        1 0.22817652E-02 0.27513163E+03</pdfrwt>
<pdfrwt beam="2">  1       -1 0.19630139E+00 0.27513163E+03</pdfrwt>
<totfact> 0.88729812E+02</totfact>
</mgrwt>
</event>
<event>
 9    1  0.2065703E-002  0.2750892E+03  0.7818608E-02  0.1098402E+00
         -1   -1    0    0    0  501 -0.00000000000E+00  0.00000000000E+00  0.10250862930E+04  0.10250862930E+04  0.00000000000E+00 0.  1.
          1   -1    0    0  501    0  0.00000000000E+00 -0.00000000000E+00 -0.18455532374E+02  0.18455532374E+02  0.00000000000E+00 0.  1.
         36    2    1    2    0    0  0.71054273576E-14  0.71054273576E-14  0.10066307606E+04  0.10435418254E+04  0.27508917294E+03 0.  0.
         25    2    3    3    0    0  0.37886940846E+02  0.32856342428E+02  0.29287833010E+03  0.31717597911E+03  0.11094109230E+03 0.  0.
         25    2    3    3    0    0 -0.37886940846E+02 -0.32856342428E+02  0.71375243052E+03  0.72636584625E+03  0.12509936453E+03 0.  0.
          5    1    4    4  502    0  0.70736340759E+02 -0.17234194015E+01  0.20727098652E+03  0.21906609033E+03  0.47000000000E+01 0.  1.
         -5    1    4    4    0  502 -0.32849399912E+02  0.34579761829E+02  0.85607343573E+02  0.98109888780E+02  0.47000000000E+01 0.  1.
          5    1    5    5  503    0  0.11887415537E+02 -0.63829976689E+02  0.51489209478E+03  0.51899088224E+03  0.47000000000E+01 0. -1.
         -5    1    5    5    0  503 -0.49774356384E+02  0.30973634261E+02  0.19886033573E+03  0.20737496402E+03  0.47000000000E+01 0. -1.
<mgrwt>
<rscale>  0 0.27508917E+03</rscale>
<asrwt>0</asrwt>
<pdfrwt beam="1">  1        1 0.28393135E-02 0.27508917E+03</pdfrwt>
<pdfrwt beam="2">  1       -1 0.15770554E+00 0.27508917E+03</pdfrwt>
<totfact> 0.12184995E+03</totfact>
</mgrwt>
</event>
<event>
 9    1  0.2065703E-002  0.2739435E+03  0.7818608E-02  0.1099044E+00
          2   -1    0    0  501    0  0.00000000000E+00  0.00000000000E+00  0.11815647176E+04  0.11815647176E+04  0.00000000000E+00 0.  1.
         -2   -1    0    0    0  501 -0.00000000000E+00 -0.00000000000E+00 -0.15878314428E+02  0.15878314428E+02  0.00000000000E+00 0.  1.
         36    2    1    2    0    0 -0.71054273576E-14  0.00000000000E+00  0.11656864032E+04  0.11974430320E+04  0.27394346937E+03 0.  0.
         25    2    3    3    0    0  0.29044333014E+02 -0.36509070166E+02  0.68173221586E+03  0.69435487997E+03  0.12326150943E+03 0.  0.
         25    2    3    3    0    0 -0.29044333014E+02  0.36509070166E+02  0.48395418731E+03  0.50308815206E+03  0.12926541627E+03 0.  0.
          5    1    4    4  502    0  0.26301091451E+02 -0.22025265201E+02  0.67740412499E+03  0.67828850667E+03  0.47000000000E+01 0.  1.
         -5    1    4    4    0  502  0.27432415627E+01 -0.14483804965E+02  0.43280908704E+01  0.16066373303E+02  0.47000000000E+01 0.  1.
          5    1    5    5  503    0 -0.59093710987E+02  0.10195630016E+01  0.41838834305E+03  0.42256833978E+03  0.47000000000E+01 0. -1.
         -5    1    5    5    0  503  0.30049377973E+02  0.35489507165E+02  0.65565844258E+02  0.80519812274E+02  0.47000000000E+01 0. -1.
<mgrwt>
<rscale>  0 0.27394347E+03</rscale>
<asrwt>0</asrwt>
<pdfrwt beam="1">  1        2 0.18177912E+00 0.27394347E+03</pdfrwt>
<pdfrwt beam="2">  1       -2 0.24428185E-02 0.27394347E+03</pdfrwt>
<totfact> 0.11757095E+04</totfact>
</mgrwt>
</event>
<event>
 9    1  0.2065703E-002  0.2783212E+03  0.7818608E-02  0.1096609E+00
         -4   -1    0    0    0  501 -0.00000000000E+00  0.00000000000E+00  0.79579349659E+03  0.79579349659E+03  0.00000000000E+00 0. -1.
          4   -1    0    0  501    0  0.00000000000E+00 -0.00000000000E+00 -0.24335052248E+02  0.24335052248E+02  0.00000000000E+00 0. -1.
         36    2    1    2    0    0  0.00000000000E+00 -0.14210854715E-13  0.77145844434E+03  0.82012854884E+03  0.27832122677E+03 0.  0.
         25    2    3    3    0    0  0.37157985639E+02 -0.46559093748E+02  0.34566087310E+03  0.37196671874E+03  0.12381169390E+03 0.  0.
         25    2    3    3    0    0 -0.37157985639E+02  0.46559093748E+02  0.42579757124E+03  0.44816183011E+03  0.12647920453E+03 0.  0.
          5    1    4    4  502    0  0.44226689140E+02 -0.81530385121E+02  0.29868607909E+03  0.31279173194E+03  0.47000000000E+01 0. -1.
         -5    1    4    4    0  502 -0.70687035013E+01  0.34971291374E+02  0.46974794015E+02  0.59174986796E+02  0.47000000000E+01 0. -1.
          5    1    5    5  503    0  0.15200516944E+02 -0.25201606128E+02  0.29249837323E+02  0.41759066683E+02  0.47000000000E+01 0.  1.
         -5    1    5    5    0  503 -0.52358502583E+02  0.71760699876E+02  0.39654773392E+03  0.40640276342E+03  0.47000000000E+01 0.  1.
<mgrwt>
<rscale>  0 0.27832123E+03</rscale>
<asrwt>0</asrwt>
<pdfrwt beam="1">  1        4 0.37438548E-02 0.27832123E+03</pdfrwt>
<pdfrwt beam="2">  1       -4 0.12242975E+00 0.27832123E+03</pdfrwt>
<totfact> 0.37511142E+02</totfact>
</mgrwt>
</event>
<event>
 9    1  0.2065703E-002  0.2749522E+03  0.7818608E-02  0.1098478E+00
          2   -1    0    0  501    0  0.00000000000E+00  0.00000000000E+00  0.49703210572E+03  0.49703210572E+03  0.00000000000E+00 0.  1.
         -2   -1    0    0    0  501 -0.00000000000E+00 -0.00000000000E+00 -0.38025068860E+02  0.38025068860E+02  0.00000000000E+00 0.  1.
         36    2    1    2    0    0  0.00000000000E+00  0.71054273576E-14  0.45900703685E+03  0.53505717458E+03  0.27495221436E+03 0.  0.
         25    2    3    3    0    0  0.22803591937E+01 -0.49150381899E+02  0.17000391311E+03  0.21750955895E+03  0.12644412870E+03 0.  0.
         25    2    3    3    0    0 -0.22803591937E+01  0.49150381899E+02  0.28900312374E+03  0.31754761562E+03  0.12203574302E+03 0.  0.
          5    1    4    4  502    0 -0.29213912278E+02  0.12116418209E+02 -0.21283435869E+01  0.32044970076E+02  0.47000000000E+01 0. -1.
         -5    1    4    4    0  502  0.31494271471E+02 -0.61266800108E+02  0.17213225670E+03  0.18546458888E+03  0.47000000000E+01 0. -1.
          5    1    5    5  503    0  0.32555490105E-01  0.11535184942E+02 -0.10104169390E+02  0.16038883707E+02  0.47000000000E+01 0.  1.
         -5    1    5    5    0  503 -0.23129146838E+01  0.37615196958E+02  0.29910729313E+03  0.30150873192E+03  0.47000000000E+01 0.  1.
<mgrwt>
<rscale>  0 0.27495221E+03</rscale>
<asrwt>0</asrwt>
<pdfrwt beam="1">  1        2 0.76466473E-01 0.27495221E+03</pdfrwt>
<pdfrwt beam="2">  1       -2 0.58500109E-02 0.27495221E+03</pdfrwt>
<totfact> 0.95892068E+03</totfact>
</mgrwt>
</event>
<event>
 9    1  0.2065703E-002  0.2750541E+03  0.7818608E-02  0.1098421E+00
          2   -1    0    0  501    0  0.00000000000E+00  0.00000000000E+00  0.25881188121E+04  0.25881188121E+04  0.00000000000E+00 0. -1.
         -2   -1    0    0    0  501 -0.00000000000E+00 -0.00000000000E+00 -0.73078898382E+01  0.73078898382E+01  0.00000000000E+00 0. -1.
         36    2    1    2    0    0  0.00000000000E+00  0.00000000000E+00  0.25808109222E+04  0.25954267019E+04  0.27505408317E+03 0.  0.
         25    2    3    3    0    0  0.10531051528E+02 -0.50792790934E+02  0.15309632902E+04  0.15369125693E+04  0.12474309299E+03 0.  0.
         25    2    3    3    0    0 -0.10531051528E+02  0.50792790934E+02  0.10498476320E+04  0.10585141326E+04  0.12482510834E+03 0.  0.
          5    1    4    4  502    0 -0.53069132318E+02 -0.16769300131E+00  0.66403328685E+03  0.66616713892E+03  0.47000000000E+01 0.  1.
         -5    1    4    4    0  502  0.63600183846E+02 -0.50625097933E+02  0.86693000334E+03  0.87074543043E+03  0.47000000000E+01 0.  1.
          5    1    5    5  503    0 -0.49441510677E+02  0.31984437911E+02  0.22835110596E+03  0.23586815139E+03  0.47000000000E+01 0.  1.
         -5    1    5    5    0  503  0.38910459149E+02  0.18808353023E+02  0.82149652609E+03  0.82264598118E+03  0.47000000000E+01 0.  1.
<mgrwt>
<rscale>  0 0.27505408E+03</rscale>
<asrwt>0</asrwt>
<pdfrwt beam="1">  1        2 0.39817139E+00 0.27505408E+03</pdfrwt>
<pdfrwt beam="2">  1       -2 0.11242928E-02 0.27505408E+03</pdfrwt>
<totfact> 0.64472776E+03</totfact>
</mgrwt>
</event>
<event>
 9    1  0.2065703E-002  0.2745788E+03  0.7818608E-02  0.1098687E+00
          2   -1    0    0  501    0  0.00000000000E+00  0.00000000000E+00  0.31868357312E+03  0.31868357312E+03  0.00000000000E+00 0. -1.
         -2   -1    0    0    0  501 -0.00000000000E+00 -0.00000000000E+00 -0.59144476416E+02  0.59144476416E+02  0.00000000000E+00 0. -1.
         36    2    1    2    0    0 -0.17763568394E-14  0.00000000000E+00  0.25953909670E+03  0.37782804953E+03  0.27457875427E+03 0.  0.
         25    2    3    3    0    0  0.19030152564E+01  0.94954900867E-01  0.48267313840E+02  0.13246230405E+03  0.12334057696E+03 0.  0.
         25    2    3    3    0    0 -0.19030152564E+01 -0.94954900867E-01  0.21127178286E+03  0.24536574548E+03  0.12475957815E+03 0.  0.
          5    1    4    4  502    0 -0.97901164914E+01  0.58198448872E+02  0.42190156107E+02  0.72698040582E+02  0.47000000000E+01 0.  1.
         -5    1    4    4    0  502  0.11693131748E+02 -0.58103493972E+02  0.60771577328E+01  0.59764263468E+02  0.47000000000E+01 0.  1.
          5    1    5    5  503    0  0.39826468413E+02  0.38687502389E+02  0.15679578230E+03  0.16640275771E+03  0.47000000000E+01 0.  1.
         -5    1    5    5    0  503 -0.41729483669E+02 -0.38782457290E+02  0.54476000566E+02  0.78962987775E+02  0.47000000000E+01 0.  1.
<mgrwt>
<rscale>  0 0.27457875E+03</rscale>
<asrwt>0</asrwt>
<pdfrwt beam="1">  1        2 0.49028241E-01 0.27457875E+03</pdfrwt>
<pdfrwt beam="2">  1       -2 0.90991504E-02 0.27457875E+03</pdfrwt>
<totfact> 0.78384260E+03</totfact>
</mgrwt>
</event>
<event>
 9    1  0.2065703E-002  0.2835474E+03  0.7818608E-02  0.1093767E+00
          2   -1    0    0  501    0  0.00000000000E+00  0.00000000000E+00  0.14950658224E+03  0.14950658224E+03  0.00000000000E+00 0.  1.
         -2   -1    0    0    0  501 -0.00000000000E+00 -0.00000000000E+00 -0.13444079107E+03  0.13444079107E+03  0.00000000000E+00 0.  1.
         36    2    1    2    0    0  0.00000000000E+00  0.00000000000E+00  0.15065791176E+02  0.28394737331E+03  0.28354740829E+03 0.  0.
         25    2    3    3    0    0  0.56730455280E+01  0.48469627575E+02 -0.41586777800E+02  0.14179386809E+03  0.12646957222E+03 0.  0.
         25    2    3    3    0    0 -0.56730455280E+01 -0.48469627575E+02  0.56652568975E+02  0.14215350522E+03  0.12089920278E+03 0.  0.
          5    1    4    4  502    0  0.46497244299E+02 -0.17928238282E+02 -0.39359568874E+02  0.63676378016E+02  0.47000000000E+01 0.  1.
         -5    1    4    4    0  502 -0.40824198771E+02  0.66397865856E+02 -0.22272089259E+01  0.78117490072E+02  0.47000000000E+01 0.  1.
          5    1    5    5  503    0  0.55859235951E+02 -0.10534083352E+02  0.16724912785E+02  0.59439329243E+02  0.47000000000E+01 0.  1.
         -5    1    5    5    0  503 -0.61532281479E+02 -0.37935544223E+02  0.39927656190E+02  0.82714175982E+02  0.47000000000E+01 0.  1.
<mgrwt>
<rscale>  0 0.28354741E+03</rscale>
<asrwt>0</asrwt>
<pdfrwt beam="1">  1        2 0.23001013E-01 0.28354741E+03</pdfrwt>
<pdfrwt beam="2">  1       -2 0.20683199E-01 0.28354741E+03</pdfrwt>
<totfact> 0.46662023E+03</totfact>
</mgrwt>
</event>
<event>
 9    1  0.2065703E-002  0.2737507E+03  0.7818608E-02  0.1099152E+00
          3   -1    0    0  501    0  0.00000000000E+00  0.00000000000E+00  0.68655176082E+02  0.68655176082E+02  0.00000000000E+00 0.  1.
         -3   -1    0    0    0  501 -0.00000000000E+00 -0.00000000000E+00 -0.27288339531E+03  0.27288339531E+03  0.00000000000E+00 0.  1.
         36    2    1    2    0    0  0.71054273576E-14  0.14210854715E-13 -0.20422821923E+03  0.34153857139E+03  0.27375067163E+03 0.  0.
         25    2    3    3    0    0  0.39648246266E+02  0.38885733319E+02 -0.12805842682E+03  0.18800338007E+03  0.12594533158E+03 0.  0.
         25    2    3    3    0    0 -0.39648246266E+02 -0.38885733319E+02 -0.76169792404E+02  0.15353519133E+03  0.12119048648E+03 0.  0.
          5    1    4    4  502    0 -0.31318070729E+02 -0.20991782842E+02 -0.66217679136E+02  0.76343614869E+02  0.47000000000E+01 0.  1.
         -5    1    4    4    0  502  0.70966316994E+02  0.59877516161E+02 -0.61840747688E+02  0.11165976520E+03  0.47000000000E+01 0.  1.
          5    1    5    5  503    0 -0.24017156692E+02  0.29438478888E+02 -0.73928744233E+02  0.83252610041E+02  0.47000000000E+01 0.  1.
         -5    1    5    5    0  503 -0.15631089574E+02 -0.68324212207E+02 -0.22410481705E+01  0.70282581284E+02  0.47000000000E+01 0.  1.
<mgrwt>
<rscale>  0 0.27375067E+03</rscale>
<asrwt>0</asrwt>
<pdfrwt beam="1">  1        3 0.10562335E-01 0.27375067E+03</pdfrwt>
<pdfrwt beam="2">  1       -3 0.41982061E-01 0.27375067E+03</pdfrwt>
<totfact> 0.96714826E+02</totfact>
</mgrwt>
</event>
<event>
 9    1  0.2065703E-002  0.2728689E+03  0.7818608E-02  0.1099649E+00
         -1   -1    0    0    0  501 -0.00000000000E+00  0.00000000000E+00  0.21815404616E+02  0.21815404616E+02  0.00000000000E+00 0. -1.
          1   -1    0    0  501    0  0.00000000000E+00 -0.00000000000E+00 -0.85326671162E+03  0.85326671162E+03  0.00000000000E+00 0. -1.
         36    2    1    2    0    0  0.71054273576E-14  0.71054273576E-14 -0.83145130701E+03  0.87508211624E+03  0.27286889569E+03 0.  0.
         25    2    3    3    0    0  0.37201892548E+02  0.16088692705E+02 -0.54499347709E+03  0.55975387000E+03  0.12109367473E+03 0.  0.
         25    2    3    3    0    0 -0.37201892548E+02 -0.16088692705E+02 -0.28645782991E+03  0.31532824624E+03  0.12542323436E+03 0.  0.
          5    1    4    4  502    0  0.61094615482E+01  0.36136982824E+02 -0.49978343188E+03  0.50114745917E+03  0.47000000000E+01 0.  1.
         -5    1    4    4    0  502  0.31092431000E+02 -0.20048290118E+02 -0.45210045215E+02  0.58606410831E+02  0.47000000000E+01 0.  1.
          5    1    5    5  503    0  0.12624109805E+01 -0.30007019413E+02 -0.49189461092E+01  0.30794495066E+02  0.47000000000E+01 0. -1.
         -5    1    5    5    0  503 -0.38464303529E+02  0.13918326708E+02 -0.28153888380E+03  0.28453375117E+03  0.47000000000E+01 0. -1.
<mgrwt>
<rscale>  0 0.27286890E+03</rscale>
<asrwt>0</asrwt>
<pdfrwt beam="1">  1        1 0.13127180E+00 0.27286890E+03</pdfrwt>
<pdfrwt beam="2">  1       -1 0.33562161E-02 0.27286890E+03</pdfrwt>
<totfact> 0.66368783E+03</totfact>
</mgrwt>
</event>
<event>
 9    1  0.2065703E-002  0.2758475E+03  0.7818608E-02  0.1097979E+00
         -1   -1    0    0    0  501 -0.00000000000E+00  0.00000000000E+00  0.55768099591E+02  0.55768099591E+02  0.00000000000E+00 0.  1.
          1   -1    0    0  501    0  0.00000000000E+00 -0.00000000000E+00 -0.34110834062E+03  0.34110834062E+03  0.00000000000E+00 0.  1.
         36    2    1    2    0    0  0.35527136788E-14 -0.71054273576E-14 -0.28534024102E+03  0.39687644021E+03  0.27584752245E+03 0.  0.
         25    2    3    3    0    0 -0.19322026686E+02  0.99279549922E+01 -0.62508572768E+02  0.14006131514E+03  0.12344207275E+03 0.  0.
         25    2    3    3    0    0  0.19322026686E+02 -0.99279549922E+01 -0.22283166826E+03  0.25681512506E+03  0.12580998004E+03 0.  0.
          5    1    4    4  502    0 -0.11911830241E+02  0.27785852773E+02 -0.96191845882E+02  0.10094011357E+03  0.47000000000E+01 0. -1.
         -5    1    4    4    0  502 -0.74101964442E+01 -0.17857897781E+02  0.33683273114E+02  0.39121201569E+02  0.47000000000E+01 0. -1.
          5    1    5    5  503    0  0.20403386970E+02  0.56843917622E+02 -0.99681461268E+02  0.11664481511E+03  0.47000000000E+01 0. -1.
         -5    1    5    5    0  503 -0.10813602842E+01 -0.66771872614E+02 -0.12315020699E+03  0.14017030996E+03  0.47000000000E+01 0. -1.
<mgrwt>
<rscale>  0 0.27584752E+03</rscale>
<asrwt>0</asrwt>
<pdfrwt beam="1">  1        1 0.52478206E-01 0.27584752E+03</pdfrwt>
<pdfrwt beam="2">  1       -1 0.85797077E-02 0.27584752E+03</pdfrwt>
<totfact> 0.57144069E+03</totfact>
</mgrwt>
</event>
<event>
 9    1  0.2065703E-002  0.2712244E+03  0.7818608E-02  0.1100581E+00
         -2   -1    0    0    0  501 -0.00000000000E+00  0.00000000000E+00  0.72145731442E+01  0.72145731442E+01  0.00000000000E+00 0.  1.
          2   -1    0    0  501    0  0.00000000000E+00 -0.00000000000E+00 -0.25491002661E+04  0.25491002661E+04  0.00000000000E+00 0.  1.
         36    2    1    2    0    0  0.71054273576E-14  0.71054273576E-14 -0.25418856930E+04  0.25563148393E+04  0.27122441131E+03 0.  0.
         25    2    3    3    0    0  0.14385970876E+02  0.36638072612E+02 -0.94318436962E+03  0.95235312617E+03  0.12581898634E+03 0.  0.
         25    2    3    3    0    0 -0.14385970876E+02 -0.36638072612E+02 -0.15987013234E+04  0.16039617131E+04  0.12368488680E+03 0.  0.
          5    1    4    4  502    0  0.51069858987E+02  0.32823585683E+01 -0.78112378427E+03  0.78281246843E+03  0.47000000000E+01 0. -1.
         -5    1    4    4    0  502 -0.36683888111E+02  0.33355714044E+02 -0.16206058535E+03  0.16954065775E+03  0.47000000000E+01 0. -1.
          5    1    5    5  503    0  0.52187109550E+02 -0.22930345623E+02 -0.94221040463E+03  0.94394482453E+03  0.47000000000E+01 0. -1.
         -5    1    5    5    0  503 -0.66573080427E+02 -0.13707726989E+02 -0.65649091875E+03  0.66001688858E+03  0.47000000000E+01 0. -1.
<mgrwt>
<rscale>  0 0.27122441E+03</rscale>
<asrwt>0</asrwt>
<pdfrwt beam="1">  1        2 0.39216961E+00 0.27122441E+03</pdfrwt>
<pdfrwt beam="2">  1       -2 0.11099334E-02 0.27122441E+03</pdfrwt>
<totfact> 0.69040418E+03</totfact>
</mgrwt>
</event>
<event>
 9    1  0.2065703E-002  0.2729576E+03  0.7818608E-02  0.1099599E+00
         -3   -1    0    0    0  501 -0.00000000000E+00  0.00000000000E+00  0.11546024665E+04  0.11546024665E+04  0.00000000000E+00 0. -1.
          3   -1    0    0  501    0  0.00000000000E+00 -0.00000000000E+00 -0.16132365974E+02  0.16132365974E+02  0.00000000000E+00 0. -1.
         36    2    1    2    0    0  0.00000000000E+00  0.00000000000E+00  0.11384701005E+04  0.11707348325E+04  0.27295764905E+03 0.  0.
         25    2    3    3    0    0 -0.35776312680E+02 -0.23421954085E+02  0.43662938726E+03  0.45669041584E+03  0.12685575122E+03 0.  0.
         25    2    3    3    0    0  0.35776312680E+02  0.23421954085E+02  0.70184071326E+03  0.71404441663E+03  0.12430007904E+03 0.  0.
          5    1    4    4  502    0 -0.60808872669E+01 -0.23131409635E+02  0.61185862722E+01  0.25130984852E+02  0.47000000000E+01 0. -1.
         -5    1    4    4    0  502 -0.29695425413E+02 -0.29054444959E+00  0.43051080099E+03  0.43155943099E+03  0.47000000000E+01 0. -1.
          5    1    5    5  503    0  0.23507665562E+02  0.46318949531E+02  0.67272196362E+03  0.67474068038E+03  0.47000000000E+01 0.  1.
         -5    1    5    5    0  503  0.12268647118E+02 -0.22896995446E+02  0.29118749647E+02  0.39303736254E+02  0.47000000000E+01 0.  1.
<mgrwt>
<rscale>  0 0.27295765E+03</rscale>
<asrwt>0</asrwt>
<pdfrwt beam="1">  1        3 0.24819034E-02 0.27295765E+03</pdfrwt>
<pdfrwt beam="2">  1       -3 0.17763108E+00 0.27295765E+03</pdfrwt>
<totfact> 0.38173448E+02</totfact>
</mgrwt>
</event>
<event>
 9    1  0.2065703E-002  0.2733712E+03  0.7818608E-02  0.1099366E+00
          1   -1    0    0  501    0  0.00000000000E+00  0.00000000000E+00  0.28137218477E+03  0.28137218477E+03  0.00000000000E+00 0. -1.
         -1   -1    0    0    0  501 -0.00000000000E+00 -0.00000000000E+00 -0.66399440960E+02  0.66399440960E+02  0.00000000000E+00 0. -1.
         36    2    1    2    0    0  0.35527136788E-14  0.00000000000E+00  0.21497274381E+03  0.34777162573E+03  0.27337121846E+03 0.  0.
         25    2    3    3    0    0 -0.29510321788E+02 -0.19563724476E+02  0.17674969901E+03  0.21454860443E+03  0.11634882532E+03 0.  0.
         25    2    3    3    0    0  0.29510321788E+02  0.19563724476E+02  0.38223044796E+02  0.13322302130E+03  0.12261229075E+03 0.  0.
          5    1    4    4  502    0 -0.27229837967E+02  0.36690489288E+02  0.13952580186E+03  0.14689178148E+03  0.47000000000E+01 0. -1.
         -5    1    4    4    0  502 -0.22804838209E+01 -0.56254213764E+02  0.37223897147E+02  0.67656822949E+02  0.47000000000E+01 0. -1.
          5    1    5    5  503    0 -0.23450728366E+02 -0.31131297805E+02 -0.15504560298E+02  0.42208716564E+02  0.47000000000E+01 0. -1.
         -5    1    5    5    0  503  0.52961050154E+02  0.50695022282E+02  0.53727605095E+02  0.91014304737E+02  0.47000000000E+01 0. -1.
<mgrwt>
<rscale>  0 0.27337122E+03</rscale>
<asrwt>0</asrwt>
<pdfrwt beam="1">  1        1 0.43288028E-01 0.27337122E+03</pdfrwt>
<pdfrwt beam="2">  1       -1 0.10215299E-01 0.27337122E+03</pdfrwt>
<totfact> 0.55651287E+03</totfact>
</mgrwt>
</event>
<event>
 9    1  0.2065703E-002  0.2752596E+03  0.7818608E-02  0.1098307E+00
         -1   -1    0    0    0  501 -0.00000000000E+00  0.00000000000E+00  0.10539541597E+02  0.10539541597E+02  0.00000000000E+00 0.  1.
          1   -1    0    0  501    0  0.00000000000E+00 -0.00000000000E+00 -0.17972285798E+04  0.17972285798E+04  0.00000000000E+00 0.  1.
         36    2    1    2    0    0  0.00000000000E+00  0.14210854715E-13 -0.17866890383E+04  0.18077681214E+04  0.27525962564E+03 0.  0.
         25    2    3    3    0    0  0.11552985580E+02  0.58232239174E+02 -0.87254601084E+03  0.88299121557E+03  0.12170653469E+03 0.  0.
         25    2    3    3    0    0 -0.11552985580E+02 -0.58232239174E+02 -0.91414302741E+03  0.92477690587E+03  0.12661116033E+03 0.  0.
          5    1    4    4  502    0  0.26539563509E+02 -0.30652557015E+02 -0.17890535951E+03  0.18350243961E+03  0.47000000000E+01 0.  1.
         -5    1    4    4    0  502 -0.14986577929E+02  0.88884796189E+02 -0.69364065133E+03  0.69948877596E+03  0.47000000000E+01 0.  1.
          5    1    5    5  503    0  0.26898147780E+02  0.21374931884E+02 -0.50380467771E+03  0.50499667459E+03  0.47000000000E+01 0. -1.
         -5    1    5    5    0  503 -0.38451133360E+02 -0.79607171058E+02 -0.41033834970E+03  0.41978023128E+03  0.47000000000E+01 0. -1.
<mgrwt>
<rscale>  0 0.27525963E+03</rscale>
<asrwt>0</asrwt>
<pdfrwt beam="1">  1        1 0.27649650E+00 0.27525963E+03</pdfrwt>
<pdfrwt beam="2">  1       -1 0.16214692E-02 0.27525963E+03</pdfrwt>
<totfact> 0.42572618E+03</totfact>
</mgrwt>
</event>
<event>
 9    1  0.2065703E-002  0.2745619E+03  0.7818608E-02  0.1098697E+00
          1   -1    0    0  501    0  0.00000000000E+00  0.00000000000E+00  0.97724561740E+03  0.97724561740E+03  0.00000000000E+00 0.  1.
         -1   -1    0    0    0  501 -0.00000000000E+00 -0.00000000000E+00 -0.19284871905E+02  0.19284871905E+02  0.00000000000E+00 0.  1.
         36    2    1    2    0    0 -0.35527136788E-14 -0.71054273576E-14  0.95796074549E+03  0.99653048930E+03  0.27456188046E+03 0.  0.
         25    2    3    3    0    0 -0.16213496456E+02  0.57930356200E+02  0.34594830618E+03  0.37266225441E+03  0.12481234585E+03 0.  0.
         25    2    3    3    0    0  0.16213496456E+02 -0.57930356200E+02  0.61201243931E+03  0.62386823489E+03  0.10504068258E+03 0.  0.
          5    1    4    4  502    0  0.46564468691E+02  0.55927115611E+02  0.22126543583E+03  0.23297333560E+03  0.47000000000E+01 0. -1.
         -5    1    4    4    0  502 -0.62777965147E+02  0.20032405895E+01  0.12468287035E+03  0.13968891882E+03  0.47000000000E+01 0. -1.
          5    1    5    5  503    0  0.43790648838E+02 -0.39427064308E+02  0.55169392426E+03  0.55485168323E+03  0.47000000000E+01 0.  1.
         -5    1    5    5    0  503 -0.27577152382E+02 -0.18503291892E+02  0.60318515058E+02  0.69016551661E+02  0.47000000000E+01 0.  1.
<mgrwt>
<rscale>  0 0.27456188E+03</rscale>
<asrwt>0</asrwt>
<pdfrwt beam="1">  1        1 0.15034544E+00 0.27456188E+03</pdfrwt>
<pdfrwt beam="2">  1       -1 0.29669041E-02 0.27456188E+03</pdfrwt>
<totfact> 0.63743343E+03</totfact>
</mgrwt>
</event>
<event>
 9    1  0.2065703E-002  0.2763027E+03  0.7818608E-02  0.1097726E+00
         -1   -1    0    0    0  501 -0.00000000000E+00  0.00000000000E+00  0.16438478760E+03  0.16438478760E+03  0.00000000000E+00 0.  1.
          1   -1    0    0  501    0  0.00000000000E+00 -0.00000000000E+00 -0.11610435681E+03  0.11610435681E+03  0.00000000000E+00 0.  1.
         36    2    1    2    0    0  0.00000000000E+00  0.00000000000E+00  0.48280430788E+02  0.28048914441E+03  0.27630266038E+03 0.  0.
         25    2    3    3    0    0  0.22653475767E+02 -0.39335687596E+02  0.60140359647E+02  0.14645442641E+03  0.12558487120E+03 0.  0.
         25    2    3    3    0    0 -0.22653475767E+02  0.39335687596E+02 -0.11859928859E+02  0.13403471800E+03  0.12555545163E+03 0.  0.
          5    1    4    4  502    0 -0.42259916281E+02  0.93015155212E+01 -0.28922068621E+01  0.43621939155E+02  0.47000000000E+01 0. -1.
         -5    1    4    4    0  502  0.64913392049E+02 -0.48637203117E+02  0.63032566509E+02  0.10283248725E+03  0.47000000000E+01 0. -1.
          5    1    5    5  503    0 -0.68436654453E+02  0.47593039769E+02 -0.21671240722E+02  0.86257786788E+02  0.47000000000E+01 0.  1.
         -5    1    5    5    0  503  0.45783178686E+02 -0.82573521730E+01  0.98113118633E+01  0.47776931211E+02  0.47000000000E+01 0.  1.
<mgrwt>
<rscale>  0 0.27630266E+03</rscale>
<asrwt>0</asrwt>
<pdfrwt beam="1">  1        1 0.17862209E-01 0.27630266E+03</pdfrwt>
<pdfrwt beam="2">  1       -1 0.25289967E-01 0.27630266E+03</pdfrwt>
<totfact> 0.40197670E+03</totfact>
</mgrwt>
</event>
<event>
 9    1  0.2065703E-002  0.2751758E+03  0.7818608E-02  0.1098353E+00
          1   -1    0    0  501    0  0.00000000000E+00  0.00000000000E+00  0.22503749604E+02  0.22503749604E+02  0.00000000000E+00 0.  1.
         -1   -1    0    0    0  501 -0.00000000000E+00 -0.00000000000E+00 -0.84121207346E+03  0.84121207346E+03  0.00000000000E+00 0.  1.
         36    2    1    2    0    0  0.31086244690E-14  0.14210854715E-13 -0.81870832385E+03  0.86371582306E+03  0.27517576830E+03 0.  0.
         25    2    3    3    0    0  0.25873861587E+01  0.56382493720E+02 -0.40462791010E+03  0.42770076490E+03  0.12656428602E+03 0.  0.
         25    2    3    3    0    0 -0.25873861587E+01 -0.56382493720E+02 -0.41408041375E+03  0.43601505816E+03  0.12434171355E+03 0.  0.
          5    1    4    4  502    0 -0.17623029236E+01  0.77674633870E+02 -0.39643654691E+03  0.40400554474E+03  0.47000000000E+01 0.  1.
         -5    1    4    4    0  502  0.43496890822E+01 -0.21292140150E+02 -0.81913631961E+01  0.23695220157E+02  0.47000000000E+01 0.  1.
          5    1    5    5  503    0 -0.56435813473E+02 -0.34685163524E+02 -0.12949609049E+03  0.14553140232E+03  0.47000000000E+01 0.  1.
         -5    1    5    5    0  503  0.53848427314E+02 -0.21697330196E+02 -0.28458432326E+03  0.29048365584E+03  0.47000000000E+01 0.  1.
<mgrwt>
<rscale>  0 0.27517577E+03</rscale>
<asrwt>0</asrwt>
<pdfrwt beam="1">  1        1 0.34621157E-02 0.27517577E+03</pdfrwt>
<pdfrwt beam="2">  1       -1 0.12941723E+00 0.27517577E+03</pdfrwt>
<totfact> 0.15324697E+03</totfact>
</mgrwt>
</event>
<event>
 9    1  0.2065703E-002  0.2754505E+03  0.7818608E-02  0.1098200E+00
         -2   -1    0    0    0  501 -0.00000000000E+00  0.00000000000E+00  0.15695854573E+03  0.15695854573E+03  0.00000000000E+00 0. -1.
          2   -1    0    0  501    0  0.00000000000E+00 -0.00000000000E+00 -0.12084872450E+03  0.12084872450E+03  0.00000000000E+00 0. -1.
         36    2    1    2    0    0  0.00000000000E+00  0.00000000000E+00  0.36109821229E+02  0.27780727023E+03  0.27545046778E+03 0.  0.
         25    2    3    3    0    0 -0.14991458678E+02  0.50147197723E+02  0.20444328928E+02  0.14208026980E+03  0.13049654099E+03 0.  0.
         25    2    3    3    0    0  0.14991458678E+02 -0.50147197723E+02  0.15665492301E+02  0.13572700042E+03  0.12424542536E+03 0.  0.
          5    1    4    4  502    0 -0.31654569740E+02 -0.38591552304E+02  0.92131115453E+01  0.50973435425E+02  0.47000000000E+01 0.  1.
         -5    1    4    4    0  502  0.16663111061E+02  0.88738750027E+02  0.11231217383E+02  0.91106834378E+02  0.47000000000E+01 0.  1.
          5    1    5    5  503    0 -0.98357037676E+00 -0.42565348593E+02 -0.50996489881E+02  0.66599611799E+02  0.47000000000E+01 0. -1.
         -5    1    5    5    0  503  0.15975029055E+02 -0.75818491295E+01  0.66661982182E+02  0.69127388624E+02  0.47000000000E+01 0. -1.
<mgrwt>
<rscale>  0 0.27545047E+03</rscale>
<asrwt>0</asrwt>
<pdfrwt beam="1">  1        2 0.18592111E-01 0.27545047E+03</pdfrwt>
<pdfrwt beam="2">  1       -2 0.24147469E-01 0.27545047E+03</pdfrwt>
<totfact> 0.45415751E+03</totfact>
</mgrwt>
</event>
<event>
 9    1  0.2065703E-002  0.2721323E+03  0.7818608E-02  0.1100065E+00
          2   -1    0    0  501    0  0.00000000000E+00  0.00000000000E+00  0.40980472115E+02  0.40980472115E+02  0.00000000000E+00 0.  1.
         -2   -1    0    0    0  501 -0.00000000000E+00 -0.00000000000E+00 -0.45177622046E+03  0.45177622046E+03  0.00000000000E+00 0.  1.
         36    2    1    2    0    0  0.00000000000E+00 -0.71054273576E-14 -0.41079574835E+03  0.49275669257E+03  0.27213234137E+03 0.  0.
         25    2    3    3    0    0  0.14811950951E+02 -0.38577070439E+02 -0.14125816901E+03  0.19265403930E+03  0.12431461817E+03 0.  0.
         25    2    3    3    0    0 -0.14811950951E+02  0.38577070439E+02 -0.26953757934E+03  0.30010265328E+03  0.12531365278E+03 0.  0.
          5    1    4    4  502    0  0.18916911009E+02  0.47031951469E+01  0.18340024737E+02  0.27173812284E+02  0.47000000000E+01 0.  1.
         -5    1    4    4    0  502 -0.41049600576E+01 -0.43280265585E+02 -0.15959819374E+03  0.16548022701E+03  0.47000000000E+01 0.  1.
          5    1    5    5  503    0 -0.45656778552E+02 -0.13192738718E+01 -0.29039311295E+02  0.54329122133E+02  0.47000000000E+01 0.  1.
         -5    1    5    5    0  503  0.30844827601E+02  0.39896344310E+02 -0.24049826805E+03  0.24577353115E+03  0.47000000000E+01 0.  1.
<mgrwt>
<rscale>  0 0.27213234E+03</rscale>
<asrwt>0</asrwt>
<pdfrwt beam="1">  1        2 0.63046881E-02 0.27213234E+03</pdfrwt>
<pdfrwt beam="2">  1       -2 0.69504033E-01 0.27213234E+03</pdfrwt>
<totfact> 0.22359021E+03</totfact>
</mgrwt>
</event>
<event>
 9    1  0.2065703E-002  0.2736212E+03  0.7818608E-02  0.1099225E+00
          2   -1    0    0  501    0  0.00000000000E+00  0.00000000000E+00  0.10241702124E+04  0.10241702124E+04  0.00000000000E+00 0. -1.
         -2   -1    0    0    0  501 -0.00000000000E+00 -0.00000000000E+00 -0.18275413948E+02  0.18275413948E+02  0.00000000000E+00 0. -1.
         36    2    1    2    0    0  0.00000000000E+00  0.00000000000E+00  0.10058947985E+04  0.10424456264E+04  0.27362115843E+03 0.  0.
         25    2    3    3    0    0  0.10857232249E+02 -0.15075971836E+02  0.31674328447E+03  0.34043001761E+03  0.12337392033E+03 0.  0.
         25    2    3    3    0    0 -0.10857232249E+02  0.15075971836E+02  0.68915151403E+03  0.70201560878E+03  0.13247996552E+03 0.  0.
          5    1    4    4  502    0  0.24354250964E+02 -0.46639028664E+02  0.29462705353E+03  0.29932510621E+03  0.47000000000E+01 0.  1.
         -5    1    4    4    0  502 -0.13497018715E+02  0.31563056828E+02  0.22116230936E+02  0.41104911402E+02  0.47000000000E+01 0.  1.
          5    1    5    5  503    0 -0.11290177590E+02  0.59413571704E+02  0.16204067175E+03  0.17302228155E+03  0.47000000000E+01 0.  1.
         -5    1    5    5    0  503  0.43294534048E+00 -0.44337599869E+02  0.52711084228E+03  0.52899332723E+03  0.47000000000E+01 0.  1.
<mgrwt>
<rscale>  0 0.27362116E+03</rscale>
<asrwt>0</asrwt>
<pdfrwt beam="1">  1        2 0.15756460E+00 0.27362116E+03</pdfrwt>
<pdfrwt beam="2">  1       -2 0.28116029E-02 0.27362116E+03</pdfrwt>
<totfact> 0.11809630E+04</totfact>
</mgrwt>
</event>
<event>
 9    1  0.2065703E-002  0.2746215E+03  0.7818608E-02  0.1098663E+00
         -2   -1    0    0    0  501 -0.00000000000E+00  0.00000000000E+00  0.63002919491E+01  0.63002919491E+01  0.00000000000E+00 0.  1.
          2   -1    0    0  501    0  0.00000000000E+00 -0.00000000000E+00 -0.29925987143E+04  0.29925987143E+04  0.00000000000E+00 0.  1.
         36    2    1    2    0    0  0.00000000000E+00 -0.71054273576E-14 -0.29862984223E+04  0.29988990062E+04  0.27462152564E+03 0.  0.
         25    2    3    3    0    0  0.25237258694E+02 -0.37247451990E+02 -0.17519255992E+04  0.17569702103E+04  0.12520672020E+03 0.  0.
         25    2    3    3    0    0 -0.25237258694E+02  0.37247451990E+02 -0.12343728231E+04  0.12419287959E+04  0.12917652964E+03 0.  0.
          5    1    4    4  502    0 -0.65523047676E+01 -0.58515780564E+02 -0.38530832096E+03  0.38980972470E+03  0.47000000000E+01 0.  1.
         -5    1    4    4    0  502  0.31789563462E+02  0.21268328574E+02 -0.13666172782E+04  0.13671604856E+04  0.47000000000E+01 0.  1.
          5    1    5    5  503    0  0.21704304667E+02  0.57891854025E+02 -0.31098250529E+03  0.31710369313E+03  0.47000000000E+01 0.  1.
         -5    1    5    5    0  503 -0.46941563361E+02 -0.20644402036E+02 -0.92339031783E+03  0.92482510280E+03  0.47000000000E+01 0.  1.
<mgrwt>
<rscale>  0 0.27462153E+03</rscale>
<asrwt>0</asrwt>
<pdfrwt beam="1">  1        2 0.46040053E+00 0.27462153E+03</pdfrwt>
<pdfrwt beam="2">  1       -2 0.96927415E-03 0.27462153E+03</pdfrwt>
<totfact> 0.46958275E+03</totfact>
</mgrwt>
</event>
<event>
 9    1  0.2065703E-002  0.2750842E+03  0.7818608E-02  0.1098405E+00
          2   -1    0    0  501    0  0.00000000000E+00  0.00000000000E+00  0.26048634208E+03  0.26048634208E+03  0.00000000000E+00 0.  1.
         -2   -1    0    0    0  501 -0.00000000000E+00 -0.00000000000E+00 -0.72625056342E+02  0.72625056342E+02  0.00000000000E+00 0.  1.
         36    2    1    2    0    0  0.00000000000E+00  0.14210854715E-13  0.18786128574E+03  0.33311139842E+03  0.27508424360E+03 0.  0.
         25    2    3    3    0    0 -0.41182462781E+01 -0.39535243755E+02  0.10925272605E+03  0.17827712073E+03  0.13515390552E+03 0.  0.
         25    2    3    3    0    0  0.41182462781E+01  0.39535243755E+02  0.78608559690E+02  0.15483427769E+03  0.12733558984E+03 0.  0.
          5    1    4    4  502    0 -0.24716207553E+02  0.29818047332E+02  0.97258428714E+02  0.10479169251E+03  0.47000000000E+01 0.  1.
         -5    1    4    4    0  502  0.20597961275E+02 -0.69353291087E+02  0.11994297334E+02  0.73485428227E+02  0.47000000000E+01 0.  1.
          5    1    5    5  503    0 -0.60970646681E+02  0.25422219038E+02  0.45159057193E+02  0.80156967408E+02  0.47000000000E+01 0. -1.
         -5    1    5    5    0  503  0.65088892959E+02  0.14113024717E+02  0.33449502497E+02  0.74677310280E+02  0.47000000000E+01 0. -1.
<mgrwt>
<rscale>  0 0.27508424E+03</rscale>
<asrwt>0</asrwt>
<pdfrwt beam="1">  1        2 0.40074821E-01 0.27508424E+03</pdfrwt>
<pdfrwt beam="2">  1       -2 0.11173086E-01 0.27508424E+03</pdfrwt>
<totfact> 0.70248935E+03</totfact>
</mgrwt>
</event>
<event>
 9    1  0.2065703E-002  0.2744757E+03  0.7818608E-02  0.1098745E+00
         -2   -1    0    0    0  501 -0.00000000000E+00  0.00000000000E+00  0.26677345632E+02  0.26677345632E+02  0.00000000000E+00 0. -1.
          2   -1    0    0  501    0  0.00000000000E+00 -0.00000000000E+00 -0.70600054902E+03  0.70600054902E+03  0.00000000000E+00 0. -1.
         36    2    1    2    0    0 -0.17763568394E-14  0.00000000000E+00 -0.67932320338E+03  0.73267789465E+03  0.27447565038E+03 0.  0.
         25    2    3    3    0    0  0.36789182593E+01  0.51589322374E+02 -0.40239074934E+03  0.42516362302E+03  0.12716445479E+03 0.  0.
         25    2    3    3    0    0 -0.36789182593E+01 -0.51589322374E+02 -0.27693245405E+03  0.30751427163E+03  0.12328199597E+03 0.  0.
          5    1    4    4  502    0 -0.44205061994E+01  0.53375299406E+02 -0.40966141854E+03  0.41317433525E+03  0.47000000000E+01 0. -1.
         -5    1    4    4    0  502  0.80994244587E+01 -0.17859770317E+01  0.72706692087E+01  0.11989287771E+02  0.47000000000E+01 0. -1.
          5    1    5    5  503    0  0.39121292319E+02  0.10470110064E+02 -0.33925513856E+02  0.53038940486E+02  0.47000000000E+01 0. -1.
         -5    1    5    5    0  503 -0.42800210578E+02 -0.62059432438E+02 -0.24300694019E+03  0.25447533115E+03  0.47000000000E+01 0. -1.
<mgrwt>
<rscale>  0 0.27447565E+03</rscale>
<asrwt>0</asrwt>
<pdfrwt beam="1">  1        2 0.10861545E+00 0.27447565E+03</pdfrwt>
<pdfrwt beam="2">  1       -2 0.41042079E-02 0.27447565E+03</pdfrwt>
<totfact> 0.10927304E+04</totfact>
</mgrwt>
</event>
<event>
 9    1  0.2065703E-002  0.2746410E+03  0.7818608E-02  0.1098652E+00
          4   -1    0    0  501    0  0.00000000000E+00  0.00000000000E+00  0.98219316743E+03  0.98219316743E+03  0.00000000000E+00 0.  1.
         -4   -1    0    0    0  501 -0.00000000000E+00 -0.00000000000E+00 -0.19198788100E+02  0.19198788100E+02  0.00000000000E+00 0.  1.
         36    2    1    2    0    0 -0.35527136788E-14  0.71054273576E-14  0.96299437933E+03  0.10013919555E+04  0.27464099108E+03 0.  0.
         25    2    3    3    0    0 -0.50120963332E+01 -0.49942391062E+02  0.58698147272E+03  0.60214184974E+03  0.12453190096E+03 0.  0.
         25    2    3    3    0    0  0.50120963332E+01  0.49942391062E+02  0.37601290661E+03  0.39925010579E+03  0.12448123353E+03 0.  0.
          5    1    4    4  502    0  0.10459833664E+01 -0.84603534635E+02  0.26523808635E+03  0.27844601740E+03  0.47000000000E+01 0.  1.
         -5    1    4    4    0  502 -0.60580796996E+01  0.34661143573E+02  0.32174338637E+03  0.32369583234E+03  0.47000000000E+01 0.  1.
          5    1    5    5  503    0  0.59163847141E+02  0.19616953192E+01  0.20683949446E+03  0.21519497096E+03  0.47000000000E+01 0. -1.
         -5    1    5    5    0  503 -0.54151750807E+02  0.47980695743E+02  0.16917341215E+03  0.18405513483E+03  0.47000000000E+01 0. -1.
<mgrwt>
<rscale>  0 0.27464099E+03</rscale>
<asrwt>0</asrwt>
<pdfrwt beam="1">  1        4 0.15110660E+00 0.27464099E+03</pdfrwt>
<pdfrwt beam="2">  1       -4 0.29536605E-02 0.27464099E+03</pdfrwt>
<totfact> 0.32101708E+02</totfact>
</mgrwt>
</event>
<event>
 9    1  0.2065703E-002  0.2747181E+03  0.7818608E-02  0.1098609E+00
          1   -1    0    0  501    0  0.00000000000E+00  0.00000000000E+00  0.10407898190E+04  0.10407898190E+04  0.00000000000E+00 0. -1.
         -1   -1    0    0    0  501 -0.00000000000E+00 -0.00000000000E+00 -0.18128071306E+02  0.18128071306E+02  0.00000000000E+00 0. -1.
         36    2    1    2    0    0  0.35527136788E-14  0.00000000000E+00  0.10226617477E+04  0.10589178903E+04  0.27471812502E+03 0.  0.
         25    2    3    3    0    0 -0.18004092810E+02 -0.35642847621E+02  0.32122569979E+03  0.34543661182E+03  0.12060656132E+03 0.  0.
         25    2    3    3    0    0  0.18004092810E+02  0.35642847621E+02  0.70143604790E+03  0.71348127849E+03  0.12429177572E+03 0.  0.
          5    1    4    4  502    0 -0.41133288128E+01 -0.16784861379E+02 -0.47964677216E+01  0.18540419306E+02  0.47000000000E+01 0. -1.
         -5    1    4    4    0  502 -0.13890763997E+02 -0.18857986242E+02  0.32602216751E+03  0.32689619251E+03  0.47000000000E+01 0. -1.
          5    1    5    5  503    0 -0.26516787550E+02  0.15825514352E+02  0.60036338107E+03  0.60117540390E+03  0.47000000000E+01 0.  1.
         -5    1    5    5    0  503  0.44520880359E+02  0.19817333270E+02  0.10107266683E+03  0.11230587458E+03  0.47000000000E+01 0.  1.
<mgrwt>
<rscale>  0 0.27471813E+03</rscale>
<asrwt>0</asrwt>
<pdfrwt beam="1">  1        1 0.16012146E+00 0.27471813E+03</pdfrwt>
<pdfrwt beam="2">  1       -1 0.27889349E-02 0.27471813E+03</pdfrwt>
<totfact> 0.62609322E+03</totfact>
</mgrwt>
</event>
<event>
 9    1  0.2065703E-002  0.2748343E+03  0.7818608E-02  0.1098544E+00
          2   -1    0    0  501    0  0.00000000000E+00  0.00000000000E+00  0.18417406947E+04  0.18417406947E+04  0.00000000000E+00 0. -1.
         -2   -1    0    0    0  501 -0.00000000000E+00 -0.00000000000E+00 -0.10253060901E+02  0.10253060901E+02  0.00000000000E+00 0. -1.
         36    2    1    2    0    0 -0.35527136788E-14 -0.35527136788E-14  0.18314876338E+04  0.18519937556E+04  0.27483434651E+03 0.  0.
         25    2    3    3    0    0 -0.12667269312E+02  0.23685733799E+02  0.12660986825E+04  0.12724902267E+04  0.12451517842E+03 0.  0.
         25    2    3    3    0    0  0.12667269312E+02 -0.23685733799E+02  0.56538895133E+03  0.57950352888E+03  0.12425055331E+03 0.  0.
          5    1    4    4  502    0  0.17034199244E+02 -0.25945335946E+02  0.97016625827E+02  0.10196881920E+03  0.47000000000E+01 0. -1.
         -5    1    4    4    0  502 -0.29701468555E+02  0.49631069745E+02  0.11690820566E+04  0.11705214075E+04  0.47000000000E+01 0. -1.
          5    1    5    5  503    0  0.31255996551E+02  0.34907470750E+02  0.40408280241E+03  0.40681748984E+03  0.47000000000E+01 0.  1.
         -5    1    5    5    0  503 -0.18588727239E+02 -0.58593204549E+02  0.16130614892E+03  0.17268603903E+03  0.47000000000E+01 0.  1.
<mgrwt>
<rscale>  0 0.27483435E+03</rscale>
<asrwt>0</asrwt>
<pdfrwt beam="1">  1        2 0.28334446E+00 0.27483435E+03</pdfrwt>
<pdfrwt beam="2">  1       -2 0.15773955E-02 0.27483435E+03</pdfrwt>
<totfact> 0.98611407E+03</totfact>
</mgrwt>
</event>
<event>
 9    1  0.2065703E-002  0.2738962E+03  0.7818608E-02  0.1099070E+00
         -2   -1    0    0    0  501 -0.00000000000E+00  0.00000000000E+00  0.61493034825E+01  0.61493034825E+01  0.00000000000E+00 0.  1.
          2   -1    0    0  501    0  0.00000000000E+00 -0.00000000000E+00 -0.30499045850E+04  0.30499045850E+04  0.00000000000E+00 0.  1.
         36    2    1    2    0    0  0.00000000000E+00  0.71054273576E-14 -0.30437552815E+04  0.30560538885E+04  0.27389624960E+03 0.  0.
         25    2    3    3    0    0 -0.49491479811E+01 -0.25402650584E+02 -0.10192648419E+04  0.10275480644E+04  0.12761041454E+03 0.  0.
         25    2    3    3    0    0  0.49491479811E+01  0.25402650584E+02 -0.20244904396E+04  0.20285058241E+04  0.12491817204E+03 0.  0.
          5    1    4    4  502    0 -0.81390801860E+01  0.24684883795E+02 -0.86194293222E+03  0.86234754973E+03  0.47000000000E+01 0. -1.
         -5    1    4    4    0  502  0.31899322049E+01 -0.50087534378E+02 -0.15732190969E+03  0.16520051464E+03  0.47000000000E+01 0. -1.
          5    1    5    5  503    0  0.58306827065E+01  0.58790227780E+02 -0.18402177467E+04  0.18411718369E+04  0.47000000000E+01 0.  1.
         -5    1    5    5    0  503 -0.88153472544E+00 -0.33387577196E+02 -0.18427269289E+03  0.18733398720E+03  0.47000000000E+01 0.  1.
<mgrwt>
<rscale>  0 0.27389625E+03</rscale>
<asrwt>0</asrwt>
<pdfrwt beam="1">  1        2 0.46921771E+00 0.27389625E+03</pdfrwt>
<pdfrwt beam="2">  1       -2 0.94604342E-03 0.27389625E+03</pdfrwt>
<totfact> 0.44969445E+03</totfact>
</mgrwt>
</event>
<event>
 9    1  0.2065703E-002  0.2751427E+03  0.7818608E-02  0.1098372E+00
          2   -1    0    0  501    0  0.00000000000E+00  0.00000000000E+00  0.24542215825E+04  0.24542215825E+04  0.00000000000E+00 0.  1.
         -2   -1    0    0    0  501 -0.00000000000E+00 -0.00000000000E+00 -0.77115612708E+01  0.77115612708E+01  0.00000000000E+00 0.  1.
         36    2    1    2    0    0  0.71054273576E-14  0.00000000000E+00  0.24465100212E+04  0.24619331438E+04  0.27514272737E+03 0.  0.
         25    2    3    3    0    0 -0.54336125206E+02 -0.12229443194E+02  0.11628630105E+04  0.11705764246E+04  0.12205249242E+03 0.  0.
         25    2    3    3    0    0  0.54336125206E+02  0.12229443194E+02  0.12836470107E+04  0.12913567191E+04  0.12942393194E+03 0.  0.
          5    1    4    4  502    0  0.74444774729E+01  0.38342782382E+02  0.16978901203E+03  0.17428708446E+03  0.47000000000E+01 0. -1.
         -5    1    4    4    0  502 -0.61780602679E+02 -0.50572225577E+02  0.99307399850E+03  0.99628934018E+03  0.47000000000E+01 0. -1.
          5    1    5    5  503    0  0.20515317889E+02 -0.43535603529E+02  0.20092403951E+03  0.20666104300E+03  0.47000000000E+01 0.  1.
         -5    1    5    5    0  503  0.33820807317E+02  0.55765046723E+02  0.10827229712E+04  0.10846956761E+04  0.47000000000E+01 0.  1.
<mgrwt>
<rscale>  0 0.27514273E+03</rscale>
<asrwt>0</asrwt>
<pdfrwt beam="1">  1        2 0.37757193E+00 0.27514273E+03</pdfrwt>
<pdfrwt beam="2">  1       -2 0.11863960E-02 0.27514273E+03</pdfrwt>
<totfact> 0.70625667E+03</totfact>
</mgrwt>
</event>
<event>
 9    1  0.2065703E-002  0.2768445E+03  0.7818608E-02  0.1097425E+00
         -2   -1    0    0    0  501 -0.00000000000E+00  0.00000000000E+00  0.44430695423E+02  0.44430695423E+02  0.00000000000E+00 0.  1.
          2   -1    0    0  501    0  0.00000000000E+00 -0.00000000000E+00 -0.43124971283E+03  0.43124971283E+03  0.00000000000E+00 0.  1.
         36    2    1    2    0    0  0.00000000000E+00  0.35527136788E-14 -0.38681901741E+03  0.47568040826E+03  0.27684453863E+03 0.  0.
         25    2    3    3    0    0  0.47338258092E+01  0.15450627210E+02 -0.90323434051E+02  0.15381709217E+03  0.12345138362E+03 0.  0.
         25    2    3    3    0    0 -0.47338258092E+01 -0.15450627210E+02 -0.29649558336E+03  0.32186331609E+03  0.12419835870E+03 0.  0.
          5    1    4    4  502    0 -0.44345976666E+02 -0.31296519593E+02 -0.54281668493E+02  0.76906614276E+02  0.47000000000E+01 0. -1.
         -5    1    4    4    0  502  0.49079802475E+02  0.46747146802E+02 -0.36041765557E+02  0.76910477892E+02  0.47000000000E+01 0. -1.
          5    1    5    5  503    0 -0.56015254269E+02 -0.94673997289E+00 -0.73479606582E+02  0.92519984927E+02  0.47000000000E+01 0. -1.
         -5    1    5    5    0  503  0.51281428459E+02 -0.14503887237E+02 -0.22301597678E+03  0.22934333116E+03  0.47000000000E+01 0. -1.
<mgrwt>
<rscale>  0 0.27684454E+03</rscale>
<asrwt>0</asrwt>
<pdfrwt beam="1">  1        2 0.66346108E-01 0.27684454E+03</pdfrwt>
<pdfrwt beam="2">  1       -2 0.68354918E-02 0.27684454E+03</pdfrwt>
<totfact> 0.88310753E+03</totfact>
</mgrwt>
</event>
<event>
 9    1  0.2065703E-002  0.2739956E+03  0.7818608E-02  0.1099014E+00
          3   -1    0    0  501    0  0.00000000000E+00  0.00000000000E+00  0.33439306632E+03  0.33439306632E+03  0.00000000000E+00 0.  1.
         -3   -1    0    0    0  501 -0.00000000000E+00 -0.00000000000E+00 -0.56126745925E+02  0.56126745925E+02  0.00000000000E+00 0.  1.
         36    2    1    2    0    0  0.00000000000E+00 -0.35527136788E-14  0.27826632039E+03  0.39051981224E+03  0.27399558152E+03 0.  0.
         25    2    3    3    0    0  0.25222411695E+02  0.20069977407E+02  0.81741972440E+02  0.15545992065E+03  0.12824610258E+03 0.  0.
         25    2    3    3    0    0 -0.25222411695E+02 -0.20069977407E+02  0.19652434795E+03  0.23505989159E+03  0.12486936875E+03 0.  0.
          5    1    4    4  502    0  0.59007363175E+02  0.43837976893E+01 -0.63558273953E+01  0.59695670974E+02  0.47000000000E+01 0. -1.
         -5    1    4    4    0  502 -0.33784951480E+02  0.15686179718E+02  0.88097799835E+02  0.95764249678E+02  0.47000000000E+01 0. -1.
          5    1    5    5  503    0  0.20764646571E+02 -0.37419831287E+02  0.17667380724E+03  0.18184371995E+03  0.47000000000E+01 0.  1.
         -5    1    5    5    0  503 -0.45987058266E+02  0.17349853880E+02  0.19850540714E+02  0.53216171642E+02  0.47000000000E+01 0.  1.
<mgrwt>
<rscale>  0 0.27399558E+03</rscale>
<asrwt>0</asrwt>
<pdfrwt beam="1">  1        3 0.51445086E-01 0.27399558E+03</pdfrwt>
<pdfrwt beam="2">  1       -3 0.86348842E-02 0.27399558E+03</pdfrwt>
<totfact> 0.90242899E+02</totfact>
</mgrwt>
</event>
<event>
 9    1  0.2065703E-002  0.2751418E+03  0.7818608E-02  0.1098372E+00
          1   -1    0    0  501    0  0.00000000000E+00  0.00000000000E+00  0.11068900310E+04  0.11068900310E+04  0.00000000000E+00 0. -1.
         -1   -1    0    0    0  501 -0.00000000000E+00 -0.00000000000E+00 -0.17098132964E+02  0.17098132964E+02  0.00000000000E+00 0. -1.
         36    2    1    2    0    0  0.00000000000E+00  0.35527136788E-14  0.10897918981E+04  0.11239881640E+04  0.27514180291E+03 0.  0.
         25    2    3    3    0    0 -0.44758197979E+02 -0.25700510835E+02  0.45455755854E+03  0.47456085359E+03  0.12618089073E+03 0.  0.
         25    2    3    3    0    0  0.44758197979E+02  0.25700510835E+02  0.63523433953E+03  0.64942731041E+03  0.12477721286E+03 0.  0.
          5    1    4    4  502    0 -0.88165301500E+02 -0.21428194232E+02  0.27060252634E+03  0.28544720205E+03  0.47000000000E+01 0. -1.
         -5    1    4    4    0  502  0.43407103521E+02 -0.42723166030E+01  0.18395503220E+03  0.18911365153E+03  0.47000000000E+01 0. -1.
          5    1    5    5  503    0 -0.19366319767E+02 -0.36004117932E+02  0.28869088137E+03  0.29160909766E+03  0.47000000000E+01 0. -1.
         -5    1    5    5    0  503  0.64124517746E+02  0.61704628767E+02  0.34654345816E+03  0.35781821275E+03  0.47000000000E+01 0. -1.
<mgrwt>
<rscale>  0 0.27514180E+03</rscale>
<asrwt>0</asrwt>
<pdfrwt beam="1">  1        1 0.17029072E+00 0.27514180E+03</pdfrwt>
<pdfrwt beam="2">  1       -1 0.26304829E-02 0.27514180E+03</pdfrwt>
<totfact> 0.61087406E+03</totfact>
</mgrwt>
</event>
<event>
 9    1  0.2065703E-002  0.2747939E+03  0.7818608E-02  0.1098567E+00
         -1   -1    0    0    0  501 -0.00000000000E+00  0.00000000000E+00  0.17628423507E+02  0.17628423507E+02  0.00000000000E+00 0. -1.
          1   -1    0    0  501    0  0.00000000000E+00 -0.00000000000E+00 -0.10708796720E+04  0.10708796720E+04  0.00000000000E+00 0. -1.
         36    2    1    2    0    0 -0.35527136788E-14 -0.71054273576E-14 -0.10532512485E+04  0.10885080955E+04  0.27479388917E+03 0.  0.
         25    2    3    3    0    0 -0.77082306796E+01  0.37755555660E+02 -0.39301720481E+03  0.41599927943E+03  0.13079747097E+03 0.  0.
         25    2    3    3    0    0  0.77082306796E+01 -0.37755555660E+02 -0.66023404365E+03  0.67250881604E+03  0.12195989689E+03 0.  0.
          5    1    4    4  502    0 -0.61975612449E+02  0.50241517952E+02 -0.24941375740E+03  0.26190551549E+03  0.47000000000E+01 0. -1.
         -5    1    4    4    0  502  0.54267381770E+02 -0.12485962292E+02 -0.14360344741E+03  0.15409376394E+03  0.47000000000E+01 0. -1.
          5    1    5    5  503    0  0.12773543185E+02 -0.56259338017E+02 -0.13477649612E+03  0.14668016371E+03  0.47000000000E+01 0. -1.
         -5    1    5    5    0  503 -0.50653125050E+01  0.18503782356E+02 -0.52545754753E+03  0.52582865233E+03  0.47000000000E+01 0. -1.
<mgrwt>
<rscale>  0 0.27479389E+03</rscale>
<asrwt>0</asrwt>
<pdfrwt beam="1">  1        1 0.16475076E+00 0.27479389E+03</pdfrwt>
<pdfrwt beam="2">  1       -1 0.27120645E-02 0.27479389E+03</pdfrwt>
<totfact> 0.62012719E+03</totfact>
</mgrwt>
</event>
<event>
 9    1  0.2065703E-002  0.2753911E+03  0.7818608E-02  0.1098233E+00
          2   -1    0    0  501    0  0.00000000000E+00  0.00000000000E+00  0.38092296718E+03  0.38092296718E+03  0.00000000000E+00 0. -1.
         -2   -1    0    0    0  501 -0.00000000000E+00 -0.00000000000E+00 -0.49774019249E+02  0.49774019249E+02  0.00000000000E+00 0. -1.
         36    2    1    2    0    0  0.00000000000E+00 -0.71054273576E-14  0.33114894793E+03  0.43069698643E+03  0.27539111896E+03 0.  0.
         25    2    3    3    0    0 -0.32933149215E+02 -0.30414846982E+02  0.19143108343E+03  0.23187984008E+03  0.12293390621E+03 0.  0.
         25    2    3    3    0    0  0.32933149215E+02  0.30414846982E+02  0.13971786450E+03  0.19881714636E+03  0.13415483886E+03 0.  0.
          5    1    4    4  502    0 -0.33385710870E+02 -0.74206457467E+02  0.90709541791E+02  0.12194882120E+03  0.47000000000E+01 0. -1.
         -5    1    4    4    0  502  0.45256165497E+00  0.43791610485E+02  0.10072154164E+03  0.10993101888E+03  0.47000000000E+01 0. -1.
          5    1    5    5  503    0  0.39386114791E+02 -0.37740465937E+02  0.15496049223E+02  0.56901901102E+02  0.47000000000E+01 0. -1.
         -5    1    5    5    0  503 -0.64529655762E+01  0.68155312920E+02  0.12422181528E+03  0.14191524525E+03  0.47000000000E+01 0. -1.
<mgrwt>
<rscale>  0 0.27539112E+03</rscale>
<asrwt>0</asrwt>
<pdfrwt beam="1">  1        2 0.58603532E-01 0.27539112E+03</pdfrwt>
<pdfrwt beam="2">  1       -2 0.76575416E-02 0.27539112E+03</pdfrwt>
<totfact> 0.84732820E+03</totfact>
</mgrwt>
</event>
<event>
 9    1  0.2065703E-002  0.2755619E+03  0.7818608E-02  0.1098138E+00
         -1   -1    0    0    0  501 -0.00000000000E+00  0.00000000000E+00  0.19146757509E+03  0.19146757509E+03  0.00000000000E+00 0.  1.
          1   -1    0    0  501    0  0.00000000000E+00 -0.00000000000E+00 -0.99147771784E+02  0.99147771784E+02  0.00000000000E+00 0.  1.
         36    2    1    2    0    0  0.00000000000E+00  0.71054273576E-14  0.92319803311E+02  0.29061534688E+03  0.27556185106E+03 0.  0.
         25    2    3    3    0    0 -0.10962993683E+02 -0.39477083323E+02 -0.12760491854E+01  0.13146948559E+03  0.12491585168E+03 0.  0.
         25    2    3    3    0    0  0.10962993683E+02  0.39477083323E+02  0.93595852496E+02  0.15914586129E+03  0.12201882733E+03 0.  0.
          5    1    4    4  502    0  0.16791345352E+02 -0.17377612282E+02 -0.58786595734E+02  0.63732915557E+02  0.47000000000E+01 0.  1.
         -5    1    4    4    0  502 -0.27754339036E+02 -0.22099471041E+02  0.57510546549E+02  0.67736570034E+02  0.47000000000E+01 0.  1.
          5    1    5    5  503    0 -0.16118825281E+02  0.66285610404E+02  0.12627604031E+02  0.69535207332E+02  0.47000000000E+01 0.  1.
         -5    1    5    5    0  503  0.27081818964E+02 -0.26808527081E+02  0.80968248465E+02  0.89610653955E+02  0.47000000000E+01 0.  1.
<mgrwt>
<rscale>  0 0.27556185E+03</rscale>
<asrwt>0</asrwt>
<pdfrwt beam="1">  1        1 0.15253503E-01 0.27556185E+03</pdfrwt>
<pdfrwt beam="2">  1       -1 0.29456550E-01 0.27556185E+03</pdfrwt>
<totfact> 0.38217729E+03</totfact>
</mgrwt>
</event>
<event>
 9    1  0.2065703E-002  0.2741160E+03  0.7818608E-02  0.1098947E+00
         -2   -1    0    0    0  501 -0.00000000000E+00  0.00000000000E+00  0.75893273438E+02  0.75893273438E+02  0.00000000000E+00 0.  1.
          2   -1    0    0  501    0  0.00000000000E+00 -0.00000000000E+00 -0.24751724273E+03  0.24751724273E+03  0.00000000000E+00 0.  1.
         36    2    1    2    0    0  0.35527136788E-14  0.00000000000E+00 -0.17162396929E+03  0.32341051617E+03  0.27411598846E+03 0.  0.
         25    2    3    3    0    0 -0.11620960979E+02  0.54192608578E+02 -0.79126516062E+02  0.15785749794E+03  0.12484429724E+03 0.  0.
         25    2    3    3    0    0  0.11620960979E+02 -0.54192608578E+02 -0.92497453229E+02  0.16555301823E+03  0.12561901700E+03 0.  0.
          5    1    4    4  502    0 -0.33349973094E+02 -0.27205573150E+02 -0.55195937235E+02  0.70150163243E+02  0.47000000000E+01 0. -1.
         -5    1    4    4    0  502  0.21729012115E+02  0.81398181729E+02 -0.23930578827E+02  0.87707334695E+02  0.47000000000E+01 0. -1.
          5    1    5    5  503    0 -0.14171548088E+02 -0.90758460605E+02 -0.56640180299E+02  0.10801912317E+03  0.47000000000E+01 0.  1.
         -5    1    5    5    0  503  0.25792509066E+02  0.36565852027E+02 -0.35857272930E+02  0.57533895057E+02  0.47000000000E+01 0.  1.
<mgrwt>
<rscale>  0 0.27411599E+03</rscale>
<asrwt>0</asrwt>
<pdfrwt beam="1">  1        2 0.38079576E-01 0.27411599E+03</pdfrwt>
<pdfrwt beam="2">  1       -2 0.11675888E-01 0.27411599E+03</pdfrwt>
<totfact> 0.69151098E+03</totfact>
</mgrwt>
</event>
<event>
 9    1  0.2065703E-002  0.2747326E+03  0.7818608E-02  0.1098601E+00
          2   -1    0    0  501    0  0.00000000000E+00  0.00000000000E+00  0.89910739834E+03  0.89910739834E+03  0.00000000000E+00 0. -1.
         -2   -1    0    0    0  501 -0.00000000000E+00 -0.00000000000E+00 -0.20986922361E+02  0.20986922361E+02  0.00000000000E+00 0. -1.
         36    2    1    2    0    0 -0.71054273576E-14  0.00000000000E+00  0.87812047598E+03  0.92009432070E+03  0.27473257662E+03 0.  0.
         25    2    3    3    0    0 -0.72231309530E+01  0.29132416055E+02  0.59400651724E+03  0.60787328985E+03  0.12556003628E+03 0.  0.
         25    2    3    3    0    0  0.72231309530E+01 -0.29132416055E+02  0.28411395875E+03  0.31222103085E+03  0.12593791830E+03 0.  0.
          5    1    4    4  502    0  0.50636230566E+02 -0.14906879125E+02  0.18558304506E+03  0.19300103498E+03  0.47000000000E+01 0.  1.
         -5    1    4    4    0  502 -0.57859361519E+02  0.44039295180E+02  0.40842347218E+03  0.41487225487E+03  0.47000000000E+01 0.  1.
          5    1    5    5  503    0  0.56461706947E+02  0.22966328567E+01  0.69222654243E+02  0.89482203450E+02  0.47000000000E+01 0.  1.
         -5    1    5    5    0  503 -0.49238575994E+02 -0.31429048911E+02  0.21489130450E+03  0.22273882740E+03  0.47000000000E+01 0.  1.
<mgrwt>
<rscale>  0 0.27473258E+03</rscale>
<asrwt>0</asrwt>
<pdfrwt beam="1">  1        2 0.13832418E+00 0.27473258E+03</pdfrwt>
<pdfrwt beam="2">  1       -2 0.32287580E-02 0.27473258E+03</pdfrwt>
<totfact> 0.11508179E+04</totfact>
</mgrwt>
</event>
<event>
 9    1  0.2065703E-002  0.2747516E+03  0.7818608E-02  0.1098591E+00
         -1   -1    0    0    0  501 -0.00000000000E+00  0.00000000000E+00  0.41151912733E+02  0.41151912733E+02  0.00000000000E+00 0.  1.
          1   -1    0    0  501    0  0.00000000000E+00 -0.00000000000E+00 -0.45859619570E+03  0.45859619570E+03  0.00000000000E+00 0.  1.
         36    2    1    2    0    0 -0.35527136788E-14  0.71054273576E-14 -0.41744428297E+03  0.49974810843E+03  0.27475160145E+03 0.  0.
         25    2    3    3    0    0 -0.13065100452E+02  0.49322848192E+02 -0.16564439471E+03  0.21332027252E+03  0.12435446500E+03 0.  0.
         25    2    3    3    0    0  0.13065100452E+02 -0.49322848192E+02 -0.25179988825E+03  0.28642783591E+03  0.12662654247E+03 0.  0.
          5    1    4    4  502    0 -0.51832577080E+02 -0.18646479596E+02 -0.79686757658E+02  0.96986476347E+02  0.47000000000E+01 0.  1.
         -5    1    4    4    0  502  0.38767476628E+02  0.67969327789E+02 -0.85957637056E+02  0.11633379617E+03  0.47000000000E+01 0.  1.
          5    1    5    5  503    0  0.43420290546E+02 -0.49022273207E+02 -0.24670241906E+03  0.25528940141E+03  0.47000000000E+01 0. -1.
         -5    1    5    5    0  503 -0.30355190094E+02 -0.30057498532E+00 -0.50974691886E+01  0.31138434499E+02  0.47000000000E+01 0. -1.
<mgrwt>
<rscale>  0 0.27475160E+03</rscale>
<asrwt>0</asrwt>
<pdfrwt beam="1">  1        1 0.70553256E-01 0.27475160E+03</pdfrwt>
<pdfrwt beam="2">  1       -1 0.63310639E-02 0.27475160E+03</pdfrwt>
<totfact> 0.62065153E+03</totfact>
</mgrwt>
</event>
<event>
 9    1  0.2065703E-002  0.2748258E+03  0.7818608E-02  0.1098549E+00
          2   -1    0    0  501    0  0.00000000000E+00  0.00000000000E+00  0.24463844649E+04  0.24463844649E+04  0.00000000000E+00 0.  1.
         -2   -1    0    0    0  501 -0.00000000000E+00 -0.00000000000E+00 -0.77184534220E+01  0.77184534220E+01  0.00000000000E+00 0.  1.
         36    2    1    2    0    0 -0.35527136788E-14  0.10658141036E-13  0.24386660115E+04  0.24541029184E+04  0.27482579606E+03 0.  0.
         25    2    3    3    0    0  0.24901574833E+02  0.30421701852E+02  0.16213232164E+04  0.16262998645E+04  0.12089958185E+03 0.  0.
         25    2    3    3    0    0 -0.24901574833E+02 -0.30421701852E+02  0.81734279513E+03  0.82780305386E+03  0.12515223875E+03 0.  0.
          5    1    4    4  502    0  0.51444049106E+02 -0.28840881489E+01  0.31084858910E+03  0.31512496489E+03  0.47000000000E+01 0.  1.
         -5    1    4    4    0  502 -0.26542474273E+02  0.33305790000E+02  0.13104746273E+04  0.13111748996E+04  0.47000000000E+01 0.  1.
          5    1    5    5  503    0  0.25357220671E+02 -0.37204977328E+02  0.67686786574E+03  0.67837997954E+03  0.47000000000E+01 0.  1.
         -5    1    5    5    0  503 -0.50258795504E+02  0.67832754760E+01  0.14047492939E+03  0.14942307432E+03  0.47000000000E+01 0.  1.
<mgrwt>
<rscale>  0 0.27482580E+03</rscale>
<asrwt>0</asrwt>
<pdfrwt beam="1">  1        2 0.37636622E+00 0.27482580E+03</pdfrwt>
<pdfrwt beam="2">  1       -2 0.11874563E-02 0.27482580E+03</pdfrwt>
<totfact> 0.71230975E+03</totfact>
</mgrwt>
</event>
<event>
 9    1  0.2065703E-002  0.2800930E+03  0.7818608E-02  0.1095638E+00
         -2   -1    0    0    0  501 -0.00000000000E+00  0.00000000000E+00  0.42564059197E+02  0.42564059197E+02  0.00000000000E+00 0. -1.
          2   -1    0    0  501    0  0.00000000000E+00 -0.00000000000E+00 -0.46078835945E+03  0.46078835945E+03  0.00000000000E+00 0. -1.
         36    2    1    2    0    0 -0.14210854715E-13 -0.17763568394E-14 -0.41822430025E+03  0.50335241865E+03  0.28009300604E+03 0.  0.
         25    2    3    3    0    0 -0.56098320362E+02  0.23171876499E+01 -0.25722065060E+03  0.29111366630E+03  0.12422685984E+03 0.  0.
         25    2    3    3    0    0  0.56098320362E+02 -0.23171876499E+01 -0.16100364965E+03  0.21223875235E+03  0.12637532153E+03 0.  0.
          5    1    4    4  502    0  0.33297555077E+02 -0.25732062560E+02 -0.73356532653E+02  0.84700278043E+02  0.47000000000E+01 0.  1.
         -5    1    4    4    0  502 -0.89395875439E+02  0.28049250210E+02 -0.18386411795E+03  0.20641338826E+03  0.47000000000E+01 0.  1.
          5    1    5    5  503    0  0.73726008208E+02 -0.11976548922E+02 -0.17290770157E+03  0.18840946174E+03  0.47000000000E+01 0. -1.
         -5    1    5    5    0  503 -0.17627687846E+02  0.96593612725E+01  0.11904051916E+02  0.23829290610E+02  0.47000000000E+01 0. -1.
<mgrwt>
<rscale>  0 0.28009301E+03</rscale>
<asrwt>0</asrwt>
<pdfrwt beam="1">  1        2 0.70890516E-01 0.28009301E+03</pdfrwt>
<pdfrwt beam="2">  1       -2 0.65483169E-02 0.28009301E+03</pdfrwt>
<totfact> 0.87768709E+03</totfact>
</mgrwt>
</event>
<event>
 9    1  0.2065703E-002  0.2747690E+03  0.7818608E-02  0.1098581E+00
         -2   -1    0    0    0  501 -0.00000000000E+00  0.00000000000E+00  0.52927839104E+02  0.52927839104E+02  0.00000000000E+00 0.  1.
          2   -1    0    0  501    0  0.00000000000E+00 -0.00000000000E+00 -0.35660807451E+03  0.35660807451E+03  0.00000000000E+00 0.  1.
         36    2    1    2    0    0  0.00000000000E+00  0.14210854715E-13 -0.30368023541E+03  0.40953591361E+03  0.27476895597E+03 0.  0.
         25    2    3    3    0    0 -0.59001803928E+01  0.80713947528E+01 -0.75800403032E+02  0.14744084653E+03  0.12606800777E+03 0.  0.
         25    2    3    3    0    0  0.59001803928E+01 -0.80713947528E+01 -0.22787983237E+03  0.26209506708E+03  0.12909162112E+03 0.  0.
          5    1    4    4  502    0  0.12330686844E+02 -0.57094881528E+02 -0.36799337729E+02  0.69196478176E+02  0.47000000000E+01 0. -1.
         -5    1    4    4    0  502 -0.18230867237E+02  0.65166276280E+02 -0.39001065303E+02  0.78244368355E+02  0.47000000000E+01 0. -1.
          5    1    5    5  503    0  0.22306181343E+02  0.33311608298E+02 -0.12710525494E+02  0.42318747995E+02  0.47000000000E+01 0.  1.
         -5    1    5    5    0  503 -0.16406000951E+02 -0.41383003050E+02 -0.21516930688E+03  0.21977631909E+03  0.47000000000E+01 0.  1.
<mgrwt>
<rscale>  0 0.27476896E+03</rscale>
<asrwt>0</asrwt>
<pdfrwt beam="1">  1        2 0.54862782E-01 0.27476896E+03</pdfrwt>
<pdfrwt beam="2">  1       -2 0.81427443E-02 0.27476896E+03</pdfrwt>
<totfact> 0.82671129E+03</totfact>
</mgrwt>
</event>
<event>
 9    1  0.2065703E-002  0.2697206E+03  0.7818608E-02  0.1101440E+00
         -1   -1    0    0    0  501 -0.00000000000E+00  0.00000000000E+00  0.20532005831E+03  0.20532005831E+03  0.00000000000E+00 0. -1.
          1   -1    0    0  501    0  0.00000000000E+00 -0.00000000000E+00 -0.88580270890E+02  0.88580270890E+02  0.00000000000E+00 0. -1.
         36    2    1    2    0    0  0.00000000000E+00 -0.71054273576E-14  0.11673978742E+03  0.29390032920E+03  0.26972064351E+03 0.  0.
         25    2    3    3    0    0  0.30527178941E+02  0.39223892820E+02  0.56784588501E+02  0.14744485049E+03  0.12666914392E+03 0.  0.
         25    2    3    3    0    0 -0.30527178941E+02 -0.39223892820E+02  0.59955198922E+02  0.14645547871E+03  0.12403289461E+03 0.  0.
          5    1    4    4  502    0  0.32004954547E+02 -0.15080911125E+02 -0.28870799441E+02  0.45906035075E+02  0.47000000000E+01 0. -1.
         -5    1    4    4    0  502 -0.14777756067E+01  0.54304803945E+02  0.85655387942E+02  0.10153881541E+03  0.47000000000E+01 0. -1.
          5    1    5    5  503    0  0.14249020701E+02  0.66393441460E+00 -0.32702338765E+02  0.35986224594E+02  0.47000000000E+01 0.  1.
         -5    1    5    5    0  503 -0.44776199642E+02 -0.39887827235E+02  0.92657537686E+02  0.11046925412E+03  0.47000000000E+01 0.  1.
<mgrwt>
<rscale>  0 0.26972064E+03</rscale>
<asrwt>0</asrwt>
<pdfrwt beam="1">  1        1 0.13627734E-01 0.26972064E+03</pdfrwt>
<pdfrwt beam="2">  1       -1 0.31587701E-01 0.26972064E+03</pdfrwt>
<totfact> 0.39322747E+03</totfact>
</mgrwt>
</event>
<event>
 8    1  0.2065703E-002  0.2583051E+03  0.7818608E-02  0.1108166E+00
         -2   -1    0    0    0  501 -0.00000000000E+00  0.00000000000E+00  0.10742814306E+02  0.10742814306E+02  0.00000000000E+00 0.  1.
          2   -1    0    0  501    0  0.00000000000E+00 -0.00000000000E+00 -0.15527012933E+04  0.15527012933E+04  0.00000000000E+00 0.  1.
         25    2    1    2    0    0 -0.71433326199E+01  0.21103529863E+02 -0.63682434283E+03  0.64960678721E+03  0.12628281038E+03 0.  0.
         25    2    1    2    0    0  0.71433326199E+01 -0.21103529863E+02 -0.90513413617E+03  0.91383732040E+03  0.12383237671E+03 0.  0.
          5    1    3    3  502    0  0.47279261645E+02  0.47368520170E+02 -0.36391464286E+03  0.37004737882E+03  0.47000000000E+01 0.  1.
         -5    1    3    3    0  502 -0.54422594265E+02 -0.26264990307E+02 -0.27290969997E+03  0.27955940839E+03  0.47000000000E+01 0.  1.
          5    1    4    4  503    0 -0.45251757128E+01  0.50758919330E+02 -0.30179292062E+03  0.30610129376E+03  0.47000000000E+01 0. -1.
         -5    1    4    4    0  503  0.11668508333E+02 -0.71862449193E+02 -0.60334121556E+03  0.60773602664E+03  0.47000000000E+01 0. -1.
<mgrwt>
<rscale>  0 0.25830510E+03</rscale>
<asrwt>0</asrwt>
<pdfrwt beam="1">  1        2 0.23887716E+00 0.25830510E+03</pdfrwt>
<pdfrwt beam="2">  1       -2 0.16527404E-02 0.25830510E+03</pdfrwt>
<totfact> 0.13061080E+04</totfact>
</mgrwt>
</event>
<event>
 9    1  0.2065703E-002  0.2751909E+03  0.7818608E-02  0.1098345E+00
          2   -1    0    0  501    0  0.00000000000E+00  0.00000000000E+00  0.23068042508E+04  0.23068042508E+04  0.00000000000E+00 0.  1.
         -2   -1    0    0    0  501 -0.00000000000E+00 -0.00000000000E+00 -0.82072472205E+01  0.82072472205E+01  0.00000000000E+00 0.  1.
         36    2    1    2    0    0  0.00000000000E+00 -0.71054273576E-14  0.22985970036E+04  0.23150114981E+04  0.27519093572E+03 0.  0.
         25    2    3    3    0    0  0.44845208533E+01  0.91241269418E+01  0.14057307721E+04  0.14128277132E+04  0.14106659076E+03 0.  0.
         25    2    3    3    0    0 -0.44845208533E+01 -0.91241269418E+01  0.89286623155E+03  0.90218378486E+03  0.12892677612E+03 0.  0.
          5    1    4    4  502    0 -0.10790369073E+02  0.68449612718E+02  0.10068607284E+04  0.10092533864E+04  0.47000000000E+01 0.  1.
         -5    1    4    4    0  502  0.15274889926E+02 -0.59325485776E+02  0.39887004371E+03  0.40357432685E+03  0.47000000000E+01 0.  1.
          5    1    5    5  503    0  0.36223862314E+02  0.31514685304E+02  0.67760446620E+03  0.67931969367E+03  0.47000000000E+01 0. -1.
         -5    1    5    5    0  503 -0.40708383167E+02 -0.40638812246E+02  0.21526176536E+03  0.22286409120E+03  0.47000000000E+01 0. -1.
<mgrwt>
<rscale>  0 0.27519094E+03</rscale>
<asrwt>0</asrwt>
<pdfrwt beam="1">  1        2 0.35489244E+00 0.27519094E+03</pdfrwt>
<pdfrwt beam="2">  1       -2 0.12626553E-02 0.27519094E+03</pdfrwt>
<totfact> 0.77489967E+03</totfact>
</mgrwt>
</event>
<event>
 9    1  0.2065703E-002  0.2688773E+03  0.7818608E-02  0.1101924E+00
         -2   -1    0    0    0  501 -0.00000000000E+00  0.00000000000E+00  0.17153939609E+02  0.17153939609E+02  0.00000000000E+00 0. -1.
          2   -1    0    0  501    0  0.00000000000E+00 -0.00000000000E+00 -0.10536211677E+04  0.10536211677E+04  0.00000000000E+00 0. -1.
         36    2    1    2    0    0  0.14210854715E-13  0.00000000000E+00 -0.10364672281E+04  0.10707751073E+04  0.26887732431E+03 0.  0.
         25    2    3    3    0    0 -0.79953907199E+02  0.63159026124E+01 -0.55872686390E+03  0.57784607820E+03  0.12368453317E+03 0.  0.
         25    2    3    3    0    0  0.79953907199E+02 -0.63159026124E+01 -0.47774036421E+03  0.49292902913E+03  0.91162789878E+02 0.  0.
          5    1    4    4  502    0  0.84190205309E+01 -0.10737523953E+02 -0.28495896975E+01  0.14710013215E+02  0.47000000000E+01 0. -1.
         -5    1    4    4    0  502 -0.88372927730E+02  0.17053426565E+02 -0.55587727421E+03  0.56313606499E+03  0.47000000000E+01 0. -1.
          5    1    5    5  503    0  0.68935073802E+02 -0.22635140831E+02 -0.46088978381E+03  0.46658962357E+03  0.47000000000E+01 0. -1.
         -5    1    5    5    0  503  0.11018833397E+02  0.16319238218E+02 -0.16850580403E+02  0.26339405563E+02  0.47000000000E+01 0. -1.
<mgrwt>
<rscale>  0 0.26887732E+03</rscale>
<asrwt>0</asrwt>
<pdfrwt beam="1">  1        2 0.16209561E+00 0.26887732E+03</pdfrwt>
<pdfrwt beam="2">  1       -2 0.26390669E-02 0.26887732E+03</pdfrwt>
<totfact> 0.12447011E+04</totfact>
</mgrwt>
</event>
<event>
 9    1  0.2065703E-002  0.2755053E+03  0.7818608E-02  0.1098169E+00
          2   -1    0    0  501    0  0.00000000000E+00  0.00000000000E+00  0.31257396834E+03  0.31257396834E+03  0.00000000000E+00 0.  1.
         -2   -1    0    0    0  501 -0.00000000000E+00 -0.00000000000E+00 -0.60708162874E+02  0.60708162874E+02  0.00000000000E+00 0.  1.
         36    2    1    2    0    0  0.14210854715E-13  0.00000000000E+00  0.25186580547E+03  0.37328213121E+03  0.27550529128E+03 0.  0.
         25    2    3    3    0    0 -0.35566636972E+02 -0.28781308187E+02  0.16828053248E+03  0.21604016904E+03  0.12752124396E+03 0.  0.
         25    2    3    3    0    0  0.35566636972E+02  0.28781308187E+02  0.83585272989E+02  0.15724196217E+03  0.12508072370E+03 0.  0.
          5    1    4    4  502    0 -0.61162900319E+02 -0.59028042665E+02  0.70853336673E+02  0.11075872658E+03  0.47000000000E+01 0.  1.
         -5    1    4    4    0  502  0.25596263347E+02  0.30246734479E+02  0.97427195803E+02  0.10528144246E+03  0.47000000000E+01 0.  1.
          5    1    5    5  503    0  0.81812870780E+02  0.12241878955E+02  0.42972749652E+02  0.93337862834E+02  0.47000000000E+01 0.  1.
         -5    1    5    5    0  503 -0.46246233808E+02  0.16539429232E+02  0.40612523337E+02  0.63904099341E+02  0.47000000000E+01 0.  1.
<mgrwt>
<rscale>  0 0.27550529E+03</rscale>
<asrwt>0</asrwt>
<pdfrwt beam="1">  1        2 0.48088302E-01 0.27550529E+03</pdfrwt>
<pdfrwt beam="2">  1       -2 0.93397175E-02 0.27550529E+03</pdfrwt>
<totfact> 0.76812858E+03</totfact>
</mgrwt>
</event>
<event>
 9    1  0.2065703E-002  0.2752768E+03  0.7818608E-02  0.1098297E+00
         -2   -1    0    0    0  501 -0.00000000000E+00  0.00000000000E+00  0.62256799500E+01  0.62256799500E+01  0.00000000000E+00 0.  1.
          2   -1    0    0  501    0  0.00000000000E+00 -0.00000000000E+00 -0.30429330092E+04  0.30429330092E+04  0.00000000000E+00 0.  1.
         36    2    1    2    0    0  0.35527136788E-14  0.71054273576E-14 -0.30367073293E+04  0.30491586892E+04  0.27527678452E+03 0.  0.
         25    2    3    3    0    0  0.14108466408E+02 -0.47521102472E+02 -0.14993778839E+04  0.15060419460E+04  0.13255564967E+03 0.  0.
         25    2    3    3    0    0 -0.14108466408E+02  0.47521102472E+02 -0.15373294453E+04  0.15431167432E+04  0.12397643150E+03 0.  0.
          5    1    4    4  502    0  0.25923588213E+02 -0.91207274608E+02 -0.92232021835E+03  0.92719333181E+03  0.47000000000E+01 0.  1.
         -5    1    4    4    0  502 -0.11815121805E+02  0.43686172136E+02 -0.57705766559E+03  0.57884861419E+03  0.47000000000E+01 0.  1.
          5    1    5    5  503    0 -0.34368067538E+02 -0.31604097167E+02 -0.77251553277E+03  0.77393948174E+03  0.47000000000E+01 0.  1.
         -5    1    5    5    0  503  0.20259601130E+02  0.79125199639E+02 -0.76481391255E+03  0.76917726142E+03  0.47000000000E+01 0.  1.
<mgrwt>
<rscale>  0 0.27527678E+03</rscale>
<asrwt>0</asrwt>
<pdfrwt beam="1">  1        2 0.46814300E+00 0.27527678E+03</pdfrwt>
<pdfrwt beam="2">  1       -2 0.95779803E-03 0.27527678E+03</pdfrwt>
<totfact> 0.44592475E+03</totfact>
</mgrwt>
</event>
<event>
 9    1  0.2065703E-002  0.2758163E+03  0.7818608E-02  0.1097996E+00
         -2   -1    0    0    0  501 -0.00000000000E+00  0.00000000000E+00  0.86907470208E+01  0.86907470208E+01  0.00000000000E+00 0. -1.
          2   -1    0    0  501    0  0.00000000000E+00 -0.00000000000E+00 -0.21883804672E+04  0.21883804672E+04  0.00000000000E+00 0. -1.
         36    2    1    2    0    0  0.00000000000E+00  0.00000000000E+00 -0.21796897202E+04  0.21970712143E+04  0.27581632313E+03 0.  0.
         25    2    3    3    0    0 -0.54489386437E+02 -0.54992325297E+01 -0.11124473663E+04  0.11212283086E+04  0.12889702227E+03 0.  0.
         25    2    3    3    0    0  0.54489386437E+02  0.54992325297E+01 -0.10672423539E+04  0.10758429057E+04  0.12422713449E+03 0.  0.
          5    1    4    4  502    0 -0.33912034927E+02  0.10767979220E+02 -0.72090038328E+02  0.80529740565E+02  0.47000000000E+01 0. -1.
         -5    1    4    4    0  502 -0.20577351509E+02 -0.16267211750E+02 -0.10403573280E+04  0.10406985680E+04  0.47000000000E+01 0. -1.
          5    1    5    5  503    0  0.85794751507E+02  0.14571768729E+02 -0.95220780542E+03  0.95618767537E+03  0.47000000000E+01 0.  1.
         -5    1    5    5    0  503 -0.31305365070E+02 -0.90725361994E+01 -0.11503454850E+03  0.11965523032E+03  0.47000000000E+01 0.  1.
<mgrwt>
<rscale>  0 0.27581632E+03</rscale>
<asrwt>0</asrwt>
<pdfrwt beam="1">  1        2 0.33667425E+00 0.27581632E+03</pdfrwt>
<pdfrwt beam="2">  1       -2 0.13370367E-02 0.27581632E+03</pdfrwt>
<totfact> 0.82455314E+03</totfact>
</mgrwt>
</event>
<event>
 9    1  0.2065703E-002  0.2745037E+03  0.7818608E-02  0.1098729E+00
          2   -1    0    0  501    0  0.00000000000E+00  0.00000000000E+00  0.17015423478E+03  0.17015423478E+03  0.00000000000E+00 0. -1.
         -2   -1    0    0    0  501 -0.00000000000E+00 -0.00000000000E+00 -0.11071173631E+03  0.11071173631E+03  0.00000000000E+00 0. -1.
         36    2    1    2    0    0 -0.71054273576E-14  0.00000000000E+00  0.59442498475E+02  0.28086597109E+03  0.27450370324E+03 0.  0.
         25    2    3    3    0    0 -0.14260341251E+00  0.13218792686E+02 -0.84707868188E+01  0.12585462378E+03  0.12487143501E+03 0.  0.
         25    2    3    3    0    0  0.14260341251E+00 -0.13218792686E+02  0.67913285294E+02  0.15501134731E+03  0.13871390218E+03 0.  0.
          5    1    4    4  502    0  0.39275762735E+02 -0.12308223899E+02  0.40434997015E+02  0.57889177724E+02  0.47000000000E+01 0.  1.
         -5    1    4    4    0  502 -0.39418366147E+02  0.25527016585E+02 -0.48905783834E+02  0.67965446058E+02  0.47000000000E+01 0.  1.
          5    1    5    5  503    0  0.46390964149E+02 -0.26402814868E+02  0.87718243940E+02  0.10279012845E+03  0.47000000000E+01 0. -1.
         -5    1    5    5    0  503 -0.46248360736E+02  0.13184022182E+02 -0.19804958646E+02  0.52221218855E+02  0.47000000000E+01 0. -1.
<mgrwt>
<rscale>  0 0.27450370E+03</rscale>
<asrwt>0</asrwt>
<pdfrwt beam="1">  1        2 0.26177574E-01 0.27450370E+03</pdfrwt>
<pdfrwt beam="2">  1       -2 0.17032575E-01 0.27450370E+03</pdfrwt>
<totfact> 0.56063949E+03</totfact>
</mgrwt>
</event>
<event>
 8    1  0.2065703E-002  0.3054795E+03  0.7818608E-02  0.1082533E+00
         -1   -1    0    0    0  501 -0.00000000000E+00  0.00000000000E+00  0.42633256764E+02  0.42633256764E+02  0.00000000000E+00 0. -1.
          1   -1    0    0  501    0  0.00000000000E+00 -0.00000000000E+00 -0.54721189122E+03  0.54721189122E+03  0.00000000000E+00 0. -1.
         25    2    1    2    0    0  0.84535542858E+01 -0.93481643130E+01 -0.14170698097E+03  0.20556637913E+03  0.14838401873E+03 0.  0.
         25    2    1    2    0    0 -0.84535542858E+01  0.93481643130E+01 -0.36287165348E+03  0.38427876885E+03  0.12583912165E+03 0.  0.
          5    1    3    3  502    0  0.38073137412E+02 -0.16771869406E+02 -0.16283900071E+03  0.16813533105E+03  0.47000000000E+01 0. -1.
         -5    1    3    3    0  502 -0.29619583126E+02  0.74237050929E+01  0.21132019735E+02  0.37431048075E+02  0.47000000000E+01 0. -1.
          5    1    4    4  503    0 -0.26536610261E+01  0.67526573632E+02 -0.20090191747E+03  0.21201544874E+03  0.47000000000E+01 0. -1.
         -5    1    4    4    0  503 -0.57998932598E+01 -0.58178409319E+02 -0.16196973601E+03  0.17226332011E+03  0.47000000000E+01 0. -1.
<mgrwt>
<rscale>  0 0.30547946E+03</rscale>
<asrwt>0</asrwt>
<pdfrwt beam="1">  1        1 0.84186449E-01 0.30547946E+03</pdfrwt>
<pdfrwt beam="2">  1       -1 0.65589623E-02 0.30547946E+03</pdfrwt>
<totfact> 0.46614801E+03</totfact>
</mgrwt>
</event>
<event>
 9    1  0.2065703E-002  0.2758376E+03  0.7818608E-02  0.1097984E+00
         -4   -1    0    0    0  501 -0.00000000000E+00  0.00000000000E+00  0.40773533170E+03  0.40773533170E+03  0.00000000000E+00 0.  1.
          4   -1    0    0  501    0  0.00000000000E+00 -0.00000000000E+00 -0.46651825861E+02  0.46651825861E+02  0.00000000000E+00 0.  1.
         36    2    1    2    0    0  0.00000000000E+00 -0.71054273576E-14  0.36108350583E+03  0.45438715756E+03  0.27583761666E+03 0.  0.
         25    2    3    3    0    0  0.26307287617E+02 -0.39814603658E+02  0.13149523823E+03  0.18585583152E+03  0.12236877211E+03 0.  0.
         25    2    3    3    0    0 -0.26307287617E+02  0.39814603658E+02  0.22958826760E+03  0.26853132604E+03  0.13084733239E+03 0.  0.
          5    1    4    4  502    0 -0.47242624940E+02 -0.31049567415E+02  0.49857845265E+02  0.75523744494E+02  0.47000000000E+01 0. -1.
         -5    1    4    4    0  502  0.73549912557E+02 -0.87650362424E+01  0.81637392964E+02  0.11033208703E+03  0.47000000000E+01 0. -1.
          5    1    5    5  503    0  0.69058589692E+01 -0.46150811774E+02  0.72637024571E+02  0.86462799249E+02  0.47000000000E+01 0. -1.
         -5    1    5    5    0  503 -0.33213146586E+02  0.85965415432E+02  0.15695124303E+03  0.18206852679E+03  0.47000000000E+01 0. -1.
<mgrwt>
<rscale>  0 0.27583762E+03</rscale>
<asrwt>0</asrwt>
<pdfrwt beam="1">  1        4 0.71772042E-02 0.27583762E+03</pdfrwt>
<pdfrwt beam="2">  1       -4 0.62728510E-01 0.27583762E+03</pdfrwt>
<totfact> 0.59833662E+02</totfact>
</mgrwt>
</event>
<event>
 9    1  0.2065703E-002  0.2750288E+03  0.7818608E-02  0.1098436E+00
          2   -1    0    0  501    0  0.00000000000E+00  0.00000000000E+00  0.25345698665E+04  0.25345698665E+04  0.00000000000E+00 0. -1.
         -2   -1    0    0    0  501 -0.00000000000E+00 -0.00000000000E+00 -0.74609128557E+01  0.74609128557E+01  0.00000000000E+00 0. -1.
         36    2    1    2    0    0  0.00000000000E+00 -0.44408920985E-14  0.25271089536E+04  0.25420307793E+04  0.27502876141E+03 0.  0.
         25    2    3    3    0    0  0.32750507224E+02  0.52886568558E+01  0.16593795096E+04  0.16645325848E+04  0.12660096148E+03 0.  0.
         25    2    3    3    0    0 -0.32750507224E+02 -0.52886568558E+01  0.86772944407E+03  0.87749819456E+03  0.12628589679E+03 0.  0.
          5    1    4    4  502    0 -0.38643687731E+02  0.10080803882E+02  0.10776492029E+04  0.10783992080E+04  0.47000000000E+01 0. -1.
         -5    1    4    4    0  502  0.71394194955E+02 -0.47921470263E+01  0.58173030664E+03  0.58613337681E+03  0.47000000000E+01 0. -1.
          5    1    5    5  503    0  0.18855719601E+02  0.37626650001E+02  0.13037603258E+03  0.13708137300E+03  0.47000000000E+01 0. -1.
         -5    1    5    5    0  503 -0.51606226824E+02 -0.42915306856E+02  0.73735341149E+03  0.74041682156E+03  0.47000000000E+01 0. -1.
<mgrwt>
<rscale>  0 0.27502876E+03</rscale>
<asrwt>0</asrwt>
<pdfrwt beam="1">  1        2 0.38993314E+00 0.27502876E+03</pdfrwt>
<pdfrwt beam="2">  1       -2 0.11478348E-02 0.27502876E+03</pdfrwt>
<totfact> 0.66966016E+03</totfact>
</mgrwt>
</event>
<event>
 9    1  0.2065703E-002  0.2751259E+03  0.7818608E-02  0.1098381E+00
          2   -1    0    0  501    0  0.00000000000E+00  0.00000000000E+00  0.72339916482E+03  0.72339916482E+03  0.00000000000E+00 0.  1.
         -2   -1    0    0    0  501 -0.00000000000E+00 -0.00000000000E+00 -0.26159227228E+02  0.26159227228E+02  0.00000000000E+00 0.  1.
         36    2    1    2    0    0  0.35527136788E-14  0.00000000000E+00  0.69723993759E+03  0.74955839205E+03  0.27512588485E+03 0.  0.
         25    2    3    3    0    0  0.80583584793E+01  0.41421312194E+02  0.28428299654E+03  0.31478349631E+03  0.12841793170E+03 0.  0.
         25    2    3    3    0    0 -0.80583584793E+01 -0.41421312194E+02  0.41295694105E+03  0.43477489574E+03  0.12928693884E+03 0.  0.
          5    1    4    4  502    0 -0.44642868607E+02 -0.45147642820E+01  0.38829461547E+02  0.59524666299E+02  0.47000000000E+01 0.  1.
         -5    1    4    4    0  502  0.52701227086E+02  0.45936076476E+02  0.24545353499E+03  0.25525883001E+03  0.47000000000E+01 0.  1.
          5    1    5    5  503    0 -0.11629802086E+02  0.45888988246E+02  0.17034501883E+03  0.17686313064E+03  0.47000000000E+01 0. -1.
         -5    1    5    5    0  503  0.35714436068E+01 -0.87310300439E+02  0.24261192222E+03  0.25791176510E+03  0.47000000000E+01 0. -1.
<mgrwt>
<rscale>  0 0.27512588E+03</rscale>
<asrwt>0</asrwt>
<pdfrwt beam="1">  1        2 0.11129216E+00 0.27512588E+03</pdfrwt>
<pdfrwt beam="2">  1       -2 0.40244971E-02 0.27512588E+03</pdfrwt>
<totfact> 0.10925808E+04</totfact>
</mgrwt>
</event>
<event>
 9    1  0.2065703E-002  0.2746476E+03  0.7818608E-02  0.1098649E+00
         -3   -1    0    0    0  501 -0.00000000000E+00  0.00000000000E+00  0.41604656806E+02  0.41604656806E+02  0.00000000000E+00 0.  1.
          3   -1    0    0  501    0  0.00000000000E+00 -0.00000000000E+00 -0.45326244177E+03  0.45326244177E+03  0.00000000000E+00 0.  1.
         36    2    1    2    0    0 -0.14210854715E-13 -0.35527136788E-14 -0.41165778496E+03  0.49486709857E+03  0.27464761665E+03 0.  0.
         25    2    3    3    0    0  0.54586450021E+02  0.15604742732E+02 -0.21300024081E+03  0.25315143791E+03  0.12447232387E+03 0.  0.
         25    2    3    3    0    0 -0.54586450021E+02 -0.15604742732E+02 -0.19865754415E+03  0.24171566066E+03  0.12545298816E+03 0.  0.
          5    1    4    4  502    0  0.35818285894E+02 -0.49682189324E+02 -0.60876197168E+02  0.86482778181E+02  0.47000000000E+01 0.  1.
         -5    1    4    4    0  502  0.18768164127E+02  0.65286932056E+02 -0.15212404364E+03  0.16666865973E+03  0.47000000000E+01 0.  1.
          5    1    5    5  503    0  0.31027624089E+02  0.57945255272E+01 -0.11741156546E+03  0.12167109635E+03  0.47000000000E+01 0.  1.
         -5    1    5    5    0  503 -0.85614074110E+02 -0.21399268259E+02 -0.81245978690E+02  0.12004456431E+03  0.47000000000E+01 0.  1.
<mgrwt>
<rscale>  0 0.27464762E+03</rscale>
<asrwt>0</asrwt>
<pdfrwt beam="1">  1        3 0.69732687E-01 0.27464762E+03</pdfrwt>
<pdfrwt beam="2">  1       -3 0.64007161E-02 0.27464762E+03</pdfrwt>
<totfact> 0.78241310E+02</totfact>
</mgrwt>
</event>
<event>
 9    1  0.2065703E-002  0.2812193E+03  0.7818608E-02  0.1095025E+00
         -2   -1    0    0    0  501 -0.00000000000E+00  0.00000000000E+00  0.88381275541E+02  0.88381275541E+02  0.00000000000E+00 0. -1.
          2   -1    0    0  501    0  0.00000000000E+00 -0.00000000000E+00 -0.22370206050E+03  0.22370206050E+03  0.00000000000E+00 0. -1.
         36    2    1    2    0    0  0.00000000000E+00 -0.14210854715E-13 -0.13532078496E+03  0.31208333604E+03  0.28121929840E+03 0.  0.
         25    2    3    3    0    0 -0.27807764942E+02 -0.83451455395E+02 -0.84346515079E+02  0.17553308231E+03  0.12633333361E+03 0.  0.
         25    2    3    3    0    0  0.27807764942E+02  0.83451455395E+02 -0.50974269877E+02  0.13655025373E+03  0.91160179931E+02 0.  0.
          5    1    4    4  502    0 -0.77534931998E+02 -0.42672328346E+02 -0.57753354597E+02  0.10578342618E+03  0.47000000000E+01 0. -1.
         -5    1    4    4    0  502  0.49727167056E+02 -0.40779127049E+02 -0.26593160482E+02  0.69749656133E+02  0.47000000000E+01 0. -1.
          5    1    5    5  503    0  0.29910801857E+02  0.70523028413E+02  0.68707425238E+01  0.77054855182E+02  0.47000000000E+01 0.  1.
         -5    1    5    5    0  503 -0.21030369144E+01  0.12928426981E+02 -0.57845012401E+02  0.59495398546E+02  0.47000000000E+01 0.  1.
<mgrwt>
<rscale>  0 0.28121930E+03</rscale>
<asrwt>0</asrwt>
<pdfrwt beam="1">  1        2 0.34415701E-01 0.28121930E+03</pdfrwt>
<pdfrwt beam="2">  1       -2 0.13597119E-01 0.28121930E+03</pdfrwt>
<totfact> 0.60322208E+03</totfact>
</mgrwt>
</event>
<event>
 9    1  0.2065703E-002  0.2747951E+03  0.7818608E-02  0.1098566E+00
          2   -1    0    0  501    0  0.00000000000E+00  0.00000000000E+00  0.20970518748E+03  0.20970518748E+03  0.00000000000E+00 0. -1.
         -2   -1    0    0    0  501 -0.00000000000E+00 -0.00000000000E+00 -0.90021998652E+02  0.90021998652E+02  0.00000000000E+00 0. -1.
         36    2    1    2    0    0  0.00000000000E+00  0.00000000000E+00  0.11968318883E+03  0.29972718613E+03  0.27479505166E+03 0.  0.
         25    2    3    3    0    0 -0.33262821747E+02  0.13575094001E+02  0.11120241749E+03  0.16903211680E+03  0.12212772152E+03 0.  0.
         25    2    3    3    0    0  0.33262821747E+02 -0.13575094001E+02  0.84807713335E+01  0.13069506933E+03  0.12537375793E+03 0.  0.
          5    1    4    4  502    0 -0.69254727272E+02  0.41909096342E+02  0.75093178790E+02  0.11051545189E+03  0.47000000000E+01 0.  1.
         -5    1    4    4    0  502  0.35991905525E+02 -0.28334002341E+02  0.36109238704E+02  0.58516664907E+02  0.47000000000E+01 0.  1.
          5    1    5    5  503    0 -0.37388619221E+02 -0.18851816056E+02 -0.28273558870E+02  0.50742328948E+02  0.47000000000E+01 0. -1.
         -5    1    5    5    0  503  0.70651440968E+02  0.52767220547E+01  0.36754330204E+02  0.79952740386E+02  0.47000000000E+01 0. -1.
<mgrwt>
<rscale>  0 0.27479505E+03</rscale>
<asrwt>0</asrwt>
<pdfrwt beam="1">  1        2 0.32262336E-01 0.27479505E+03</pdfrwt>
<pdfrwt beam="2">  1       -2 0.13849538E-01 0.27479505E+03</pdfrwt>
<totfact> 0.62749250E+03</totfact>
</mgrwt>
</event>
<event>
 9    1  0.2065703E-002  0.2753855E+03  0.7818608E-02  0.1098236E+00
          1   -1    0    0  501    0  0.00000000000E+00  0.00000000000E+00  0.18950745248E+03  0.18950745248E+03  0.00000000000E+00 0. -1.
         -1   -1    0    0    0  501 -0.00000000000E+00 -0.00000000000E+00 -0.10004508947E+03  0.10004508947E+03  0.00000000000E+00 0. -1.
         36    2    1    2    0    0  0.00000000000E+00  0.71054273576E-14  0.89462363004E+02  0.28955254195E+03  0.27538547557E+03 0.  0.
         25    2    3    3    0    0  0.37345404694E+02  0.30635519832E+02  0.83783365539E+02  0.15800914289E+03  0.12495608256E+03 0.  0.
         25    2    3    3    0    0 -0.37345404694E+02 -0.30635519832E+02  0.56789974654E+01  0.13154339906E+03  0.12222193132E+03 0.  0.
          5    1    4    4  502    0  0.21851769932E+02 -0.29456332864E+02 -0.16095295506E+02  0.40327706758E+02  0.47000000000E+01 0.  1.
         -5    1    4    4    0  502  0.15493634762E+02  0.60091852696E+02  0.99878661045E+02  0.11768143613E+03  0.47000000000E+01 0.  1.
          5    1    5    5  503    0 -0.78826283350E+02 -0.37647334085E+02  0.13436919482E+02  0.88507318994E+02  0.47000000000E+01 0.  1.
         -5    1    5    5    0  503  0.41480878656E+02  0.70118142532E+01 -0.77579220164E+01  0.43036080063E+02  0.47000000000E+01 0.  1.
<mgrwt>
<rscale>  0 0.27538548E+03</rscale>
<asrwt>0</asrwt>
<pdfrwt beam="1">  1        1 0.29154993E-01 0.27538548E+03</pdfrwt>
<pdfrwt beam="2">  1       -1 0.15391552E-01 0.27538548E+03</pdfrwt>
<totfact> 0.48124259E+03</totfact>
</mgrwt>
</event>
<event>
 9    1  0.2065703E-002  0.2748412E+03  0.7818608E-02  0.1098540E+00
          2   -1    0    0  501    0  0.00000000000E+00  0.00000000000E+00  0.47659881593E+02  0.47659881593E+02  0.00000000000E+00 0. -1.
         -2   -1    0    0    0  501 -0.00000000000E+00 -0.00000000000E+00 -0.39623312883E+03  0.39623312883E+03  0.00000000000E+00 0. -1.
         36    2    1    2    0    0  0.35527136788E-14 -0.71054273576E-14 -0.34857324723E+03  0.44389301042E+03  0.27484121964E+03 0.  0.
         25    2    3    3    0    0 -0.10705890766E+02 -0.37968469496E+02 -0.23606888680E+03  0.26930484849E+03  0.12345185835E+03 0.  0.
         25    2    3    3    0    0  0.10705890766E+02  0.37968469496E+02 -0.11250436043E+03  0.17458816193E+03  0.12754440168E+03 0.  0.
          5    1    4    4  502    0  0.46674986186E+02 -0.47301250981E+02 -0.89613323143E+02  0.11166288714E+03  0.47000000000E+01 0. -1.
         -5    1    4    4    0  502 -0.57380876952E+02  0.93327814844E+01 -0.14645556366E+03  0.15764196135E+03  0.47000000000E+01 0. -1.
          5    1    5    5  503    0  0.40257986795E+02 -0.20155284036E+02 -0.97527351312E+02  0.10752030147E+03  0.47000000000E+01 0. -1.
         -5    1    5    5    0  503 -0.29552096029E+02  0.58123753533E+02 -0.14977009118E+02  0.67067860459E+02  0.47000000000E+01 0. -1.
<mgrwt>
<rscale>  0 0.27484122E+03</rscale>
<asrwt>0</asrwt>
<pdfrwt beam="1">  1        2 0.73322896E-02 0.27484122E+03</pdfrwt>
<pdfrwt beam="2">  1       -2 0.60958941E-01 0.27484122E+03</pdfrwt>
<totfact> 0.24268634E+03</totfact>
</mgrwt>
</event>
<event>
 9    1  0.2065703E-002  0.2745807E+03  0.7818608E-02  0.1098686E+00
          1   -1    0    0  501    0  0.00000000000E+00  0.00000000000E+00  0.14748403377E+04  0.14748403377E+04  0.00000000000E+00 0. -1.
         -1   -1    0    0    0  501 -0.00000000000E+00 -0.00000000000E+00 -0.12780120441E+02  0.12780120441E+02  0.00000000000E+00 0. -1.
         36    2    1    2    0    0  0.35527136788E-14  0.00000000000E+00  0.14620602172E+04  0.14876204581E+04  0.27458067774E+03 0.  0.
         25    2    3    3    0    0  0.23310750140E+02 -0.47870432535E+02  0.65884661691E+03  0.67248711524E+03  0.12379453201E+03 0.  0.
         25    2    3    3    0    0 -0.23310750140E+02  0.47870432535E+02  0.80321360033E+03  0.81513334289E+03  0.12827825051E+03 0.  0.
          5    1    4    4  502    0 -0.27175076713E+02  0.26507607260E+02  0.30416238900E+03  0.30655829286E+03  0.47000000000E+01 0.  1.
         -5    1    4    4    0  502  0.50485826852E+02 -0.74378039795E+02  0.35468422791E+03  0.36592882238E+03  0.47000000000E+01 0.  1.
          5    1    5    5  503    0 -0.40149189453E+02  0.83726881768E+02  0.43872785451E+03  0.44847114564E+03  0.47000000000E+01 0.  1.
         -5    1    5    5    0  503  0.16838439313E+02 -0.35856449233E+02  0.36448574582E+03  0.36666219726E+03  0.47000000000E+01 0.  1.
<mgrwt>
<rscale>  0 0.27458068E+03</rscale>
<asrwt>0</asrwt>
<pdfrwt beam="1">  1        1 0.22689838E+00 0.27458068E+03</pdfrwt>
<pdfrwt beam="2">  1       -1 0.19661735E-02 0.27458068E+03</pdfrwt>
<totfact> 0.52285577E+03</totfact>
</mgrwt>
</event>
<event>
 8    1  0.2065703E-002  0.3281686E+03  0.7818608E-02  0.1071950E+00
          1   -1    0    0  501    0  0.00000000000E+00  0.00000000000E+00  0.84517184729E+03  0.84517184729E+03  0.00000000000E+00 0.  1.
         -1   -1    0    0    0  501 -0.00000000000E+00 -0.00000000000E+00 -0.31855838199E+02  0.31855838199E+02  0.00000000000E+00 0.  1.
         25    2    1    2    0    0 -0.86464808161E+02  0.13025857822E+02  0.25289983641E+03  0.29581694021E+03  0.12610907516E+03 0.  0.
         25    2    1    2    0    0  0.86464808161E+02 -0.13025857822E+02  0.56041617269E+03  0.58121074529E+03  0.12686137239E+03 0.  0.
          5    1    3    3  502    0 -0.63305277254E+02  0.57432322559E+02  0.85367192912E+02  0.12089531599E+03  0.47000000000E+01 0. -1.
         -5    1    3    3    0  502 -0.23159530907E+02 -0.44406464736E+02  0.16753264350E+03  0.17492162422E+03  0.47000000000E+01 0. -1.
          5    1    4    4  503    0  0.39746921984E+02 -0.95235182853E+01  0.35949730328E+02  0.54635046613E+02  0.47000000000E+01 0. -1.
         -5    1    4    4    0  503  0.46717886176E+02 -0.35023395370E+01  0.52446644236E+03  0.52657569867E+03  0.47000000000E+01 0. -1.
<mgrwt>
<rscale>  0 0.32816860E+03</rscale>
<asrwt>0</asrwt>
<pdfrwt beam="1">  1        1 0.13002642E+00 0.32816860E+03</pdfrwt>
<pdfrwt beam="2">  1       -1 0.49008988E-02 0.32816860E+03</pdfrwt>
<totfact> 0.38431419E+03</totfact>
</mgrwt>
</event>
<event>
 9    1  0.2065703E-002  0.2658548E+03  0.7818608E-02  0.1103676E+00
          1   -1    0    0  501    0  0.00000000000E+00  0.00000000000E+00  0.11841098015E+03  0.11841098015E+03  0.00000000000E+00 0. -1.
         -1   -1    0    0    0  501 -0.00000000000E+00 -0.00000000000E+00 -0.14922348456E+03  0.14922348456E+03  0.00000000000E+00 0. -1.
         36    2    1    2    0    0  0.00000000000E+00  0.00000000000E+00 -0.30812504408E+02  0.26763446471E+03  0.26585484060E+03 0.  0.
         25    2    3    3    0    0  0.61171729908E+01 -0.17395766435E+01  0.27202956608E+02  0.12918369268E+03  0.12612683963E+03 0.  0.
         25    2    3    3    0    0 -0.61171729908E+01  0.17395766435E+01 -0.58015461015E+02  0.13845077202E+03  0.12554830395E+03 0.  0.
          5    1    4    4  502    0  0.41196676409E+02  0.26713100380E+02  0.56608831338E+02  0.75082658880E+02  0.47000000000E+01 0. -1.
         -5    1    4    4    0  502 -0.35079503418E+02 -0.28452677023E+02 -0.29405874730E+02  0.54101033803E+02  0.47000000000E+01 0. -1.
          5    1    5    5  503    0 -0.39534168437E+02  0.20900979557E+02 -0.81507230888E+02  0.93087701162E+02  0.47000000000E+01 0.  1.
         -5    1    5    5    0  503  0.33416995446E+02 -0.19161402913E+02  0.23491769873E+02  0.45363070862E+02  0.47000000000E+01 0.  1.
<mgrwt>
<rscale>  0 0.26585484E+03</rscale>
<asrwt>0</asrwt>
<pdfrwt beam="1">  1        1 0.18217074E-01 0.26585484E+03</pdfrwt>
<pdfrwt beam="2">  1       -1 0.22957459E-01 0.26585484E+03</pdfrwt>
<totfact> 0.45940707E+03</totfact>
</mgrwt>
</event>
<event>
 9    1  0.2065703E-002  0.2742695E+03  0.7818608E-02  0.1098861E+00
          2   -1    0    0  501    0  0.00000000000E+00  0.00000000000E+00  0.28389122714E+04  0.28389122714E+04  0.00000000000E+00 0. -1.
         -2   -1    0    0    0  501 -0.00000000000E+00 -0.00000000000E+00 -0.66243479145E+01  0.66243479145E+01  0.00000000000E+00 0. -1.
         36    2    1    2    0    0  0.14210854715E-13  0.00000000000E+00  0.28322879235E+04  0.28455366193E+04  0.27426952134E+03 0.  0.
         25    2    3    3    0    0  0.46003724297E+02 -0.11125986265E+02  0.14541991352E+04  0.14607910847E+04  0.13028943903E+03 0.  0.
         25    2    3    3    0    0 -0.46003724297E+02  0.11125986265E+02  0.13780887883E+04  0.13847455347E+04  0.12708798994E+03 0.  0.
          5    1    4    4  502    0 -0.11693203390E+02  0.94594974371E+01  0.11664251706E+04  0.11665316034E+04  0.47000000000E+01 0.  1.
         -5    1    4    4    0  502  0.57696927688E+02 -0.20585483702E+02  0.28777396464E+03  0.29425948129E+03  0.47000000000E+01 0.  1.
          5    1    5    5  503    0 -0.57818033297E+02 -0.41410554503E+02  0.50750181236E+03  0.51248213485E+03  0.47000000000E+01 0. -1.
         -5    1    5    5    0  503  0.11814308999E+02  0.52536540768E+02  0.87058697591E+03  0.87226339980E+03  0.47000000000E+01 0. -1.
<mgrwt>
<rscale>  0 0.27426952E+03</rscale>
<asrwt>0</asrwt>
<pdfrwt beam="1">  1        2 0.43675476E+00 0.27426952E+03</pdfrwt>
<pdfrwt beam="2">  1       -2 0.10191327E-02 0.27426952E+03</pdfrwt>
<totfact> 0.53678742E+03</totfact>
</mgrwt>
</event>
<event>
 9    1  0.2065703E-002  0.2731562E+03  0.7818608E-02  0.1099487E+00
          1   -1    0    0  501    0  0.00000000000E+00  0.00000000000E+00  0.32298898732E+03  0.32298898732E+03  0.00000000000E+00 0. -1.
         -1   -1    0    0    0  501 -0.00000000000E+00 -0.00000000000E+00 -0.57752989606E+02  0.57752989606E+02  0.00000000000E+00 0. -1.
         36    2    1    2    0    0  0.14210854715E-13  0.00000000000E+00  0.26523599771E+03  0.38074197693E+03  0.27315621631E+03 0.  0.
         25    2    3    3    0    0  0.55415999111E+02 -0.46888463235E+01  0.15317317273E+03  0.20694438691E+03  0.12755798757E+03 0.  0.
         25    2    3    3    0    0 -0.55415999111E+02  0.46888463235E+01  0.11206282498E+03  0.17379759001E+03  0.12064247724E+03 0.  0.
          5    1    4    4  502    0  0.74238631004E+02  0.26607530813E+02  0.15056164517E+03  0.17003009741E+03  0.47000000000E+01 0. -1.
         -5    1    4    4    0  502 -0.18822631893E+02 -0.31296377136E+02  0.26115275623E+01  0.36914289502E+02  0.47000000000E+01 0. -1.
          5    1    5    5  503    0  0.19652819626E+02 -0.21216412494E+02  0.84775549588E+02  0.89695893364E+02  0.47000000000E+01 0.  1.
         -5    1    5    5    0  503 -0.75068818737E+02  0.25905258817E+02  0.27287275395E+02  0.84101696651E+02  0.47000000000E+01 0.  1.
<mgrwt>
<rscale>  0 0.27315622E+03</rscale>
<asrwt>0</asrwt>
<pdfrwt beam="1">  1        1 0.49690612E-01 0.27315622E+03</pdfrwt>
<pdfrwt beam="2">  1       -1 0.88850756E-02 0.27315622E+03</pdfrwt>
<totfact> 0.58007980E+03</totfact>
</mgrwt>
</event>
<event>
 9    1  0.2065703E-002  0.2743243E+03  0.7818608E-02  0.1098830E+00
          1   -1    0    0  501    0  0.00000000000E+00  0.00000000000E+00  0.18075509636E+02  0.18075509636E+02  0.00000000000E+00 0. -1.
         -1   -1    0    0    0  501 -0.00000000000E+00 -0.00000000000E+00 -0.10408258879E+04  0.10408258879E+04  0.00000000000E+00 0. -1.
         36    2    1    2    0    0  0.00000000000E+00 -0.71054273576E-14 -0.10227503783E+04  0.10589013976E+04  0.27432432169E+03 0.  0.
         25    2    3    3    0    0  0.53683679977E+02  0.42196350786E+02 -0.60314714110E+03  0.62013337607E+03  0.12695062338E+03 0.  0.
         25    2    3    3    0    0 -0.53683679977E+02 -0.42196350786E+02 -0.41960323719E+03  0.43876802150E+03  0.10857269690E+03 0.  0.
          5    1    4    4  502    0  0.38760666215E+02 -0.35532664909E+02 -0.37286250094E+03  0.37658132472E+03  0.47000000000E+01 0. -1.
         -5    1    4    4    0  502  0.14923013762E+02  0.77729015695E+02 -0.23028464016E+03  0.24355205135E+03  0.47000000000E+01 0. -1.
          5    1    5    5  503    0 -0.59063245294E+02 -0.68657460263E+02 -0.37955457720E+03  0.39023849229E+03  0.47000000000E+01 0.  1.
         -5    1    5    5    0  503  0.53795653176E+01  0.26461109477E+02 -0.40048659996E+02  0.48529529209E+02  0.47000000000E+01 0.  1.
<mgrwt>
<rscale>  0 0.27432432E+03</rscale>
<asrwt>0</asrwt>
<pdfrwt beam="1">  1        1 0.27808471E-02 0.27432432E+03</pdfrwt>
<pdfrwt beam="2">  1       -1 0.16012709E+00 0.27432432E+03</pdfrwt>
<totfact> 0.12040131E+03</totfact>
</mgrwt>
</event>
<event>
 9    1  0.2065703E-002  0.2744384E+03  0.7818608E-02  0.1098766E+00
         -2   -1    0    0    0  501 -0.00000000000E+00  0.00000000000E+00  0.42275174392E+03  0.42275174392E+03  0.00000000000E+00 0. -1.
          2   -1    0    0  501    0  0.00000000000E+00 -0.00000000000E+00 -0.44539397948E+02  0.44539397948E+02  0.00000000000E+00 0. -1.
         36    2    1    2    0    0  0.00000000000E+00 -0.71054273576E-14  0.37821234597E+03  0.46729114187E+03  0.27443839495E+03 0.  0.
         25    2    3    3    0    0 -0.48536905776E+02  0.19896994500E+02  0.25303190075E+03  0.28700972488E+03  0.12489082339E+03 0.  0.
         25    2    3    3    0    0  0.48536905776E+02 -0.19896994500E+02  0.12518044522E+03  0.18028141699E+03  0.11865716933E+03 0.  0.
          5    1    4    4  502    0 -0.12018063273E+02  0.67528827513E+02  0.90264984839E+02  0.11346556252E+03  0.47000000000E+01 0. -1.
         -5    1    4    4    0  502 -0.36518842502E+02 -0.47631833013E+02  0.16276691591E+03  0.17354416236E+03  0.47000000000E+01 0. -1.
          5    1    5    5  503    0 -0.31128466812E+00 -0.58766079297E+02  0.92427318870E+02  0.10962868351E+03  0.47000000000E+01 0.  1.
         -5    1    5    5    0  503  0.48848190444E+02  0.38869084797E+02  0.32753126355E+02  0.70652733483E+02  0.47000000000E+01 0.  1.
<mgrwt>
<rscale>  0 0.27443839E+03</rscale>
<asrwt>0</asrwt>
<pdfrwt beam="1">  1        2 0.68522153E-02 0.27443839E+03</pdfrwt>
<pdfrwt beam="2">  1       -2 0.65038727E-01 0.27443839E+03</pdfrwt>
<totfact> 0.23118720E+03</totfact>
</mgrwt>
</event>
<event>
 9    1  0.2065703E-002  0.2748171E+03  0.7818608E-02  0.1098554E+00
          1   -1    0    0  501    0  0.00000000000E+00  0.00000000000E+00  0.34554219286E+02  0.34554219286E+02  0.00000000000E+00 0.  1.
         -1   -1    0    0    0  501 -0.00000000000E+00 -0.00000000000E+00 -0.54641980330E+03  0.54641980330E+03  0.00000000000E+00 0.  1.
         36    2    1    2    0    0  0.00000000000E+00  0.71054273576E-14 -0.51186558402E+03  0.58097402259E+03  0.27481710067E+03 0.  0.
         25    2    3    3    0    0 -0.53816370502E+02  0.45286217558E+02 -0.32615318713E+03  0.35245130103E+03  0.11357365402E+03 0.  0.
         25    2    3    3    0    0  0.53816370502E+02 -0.45286217558E+02 -0.18571239689E+03  0.22852272156E+03  0.11307739242E+03 0.  0.
          5    1    4    4  502    0 -0.47126387840E+02  0.33267820345E+01 -0.37097853512E+02  0.60252009467E+02  0.47000000000E+01 0. -1.
         -5    1    4    4    0  502 -0.66899826620E+01  0.41959435523E+02 -0.28905533362E+03  0.29219929156E+03  0.47000000000E+01 0. -1.
          5    1    5    5  503    0  0.26777181465E+02  0.35451348137E+02 -0.89006245116E+02  0.99589242399E+02  0.47000000000E+01 0. -1.
         -5    1    5    5    0  503  0.27039189037E+02 -0.80737565695E+02 -0.96706151775E+02  0.12893347916E+03  0.47000000000E+01 0. -1.
<mgrwt>
<rscale>  0 0.27481710E+03</rscale>
<asrwt>0</asrwt>
<pdfrwt beam="1">  1        1 0.53160340E-02 0.27481710E+03</pdfrwt>
<pdfrwt beam="2">  1       -1 0.84064580E-01 0.27481710E+03</pdfrwt>
<totfact> 0.22430721E+03</totfact>
</mgrwt>
</event>
<event>
 9    1  0.2065703E-002  0.2784690E+03  0.7818608E-02  0.1096528E+00
         -1   -1    0    0    0  501 -0.00000000000E+00  0.00000000000E+00  0.38760041818E+02  0.38760041818E+02  0.00000000000E+00 0.  1.
          1   -1    0    0  501    0  0.00000000000E+00 -0.00000000000E+00 -0.50016078025E+03  0.50016078025E+03  0.00000000000E+00 0.  1.
         36    2    1    2    0    0  0.00000000000E+00  0.35527136788E-14 -0.46140073843E+03  0.53892082207E+03  0.27846904861E+03 0.  0.
         25    2    3    3    0    0  0.24363158930E+02  0.16630427262E+02 -0.33381119854E+03  0.35624544126E+03  0.12087499132E+03 0.  0.
         25    2    3    3    0    0 -0.24363158930E+02 -0.16630427262E+02 -0.12758953989E+03  0.18267538081E+03  0.12736196229E+03 0.  0.
          5    1    4    4  502    0  0.47357439136E+02 -0.32295258209E+02 -0.92610002394E+02  0.10901565616E+03  0.47000000000E+01 0.  1.
         -5    1    4    4    0  502 -0.22994280206E+02  0.48925685471E+02 -0.24120119615E+03  0.24722978511E+03  0.47000000000E+01 0.  1.
          5    1    5    5  503    0 -0.25135405587E+02 -0.21606756111E+02  0.17258167065E+02  0.37663972893E+02  0.47000000000E+01 0. -1.
         -5    1    5    5    0  503  0.77224665682E+00  0.49763288495E+01 -0.14484770696E+03  0.14501140791E+03  0.47000000000E+01 0. -1.
<mgrwt>
<rscale>  0 0.27846905E+03</rscale>
<asrwt>0</asrwt>
<pdfrwt beam="1">  1        1 0.76947813E-01 0.27846905E+03</pdfrwt>
<pdfrwt beam="2">  1       -1 0.59630833E-02 0.27846905E+03</pdfrwt>
<totfact> 0.60622065E+03</totfact>
</mgrwt>
</event>
<event>
 9    1  0.2065703E-002  0.2840804E+03  0.7818608E-02  0.1093481E+00
          3   -1    0    0  501    0  0.00000000000E+00  0.00000000000E+00  0.72298827147E+02  0.72298827147E+02  0.00000000000E+00 0. -1.
         -3   -1    0    0    0  501 -0.00000000000E+00 -0.00000000000E+00 -0.27905605119E+03  0.27905605119E+03  0.00000000000E+00 0. -1.
         36    2    1    2    0    0  0.00000000000E+00  0.00000000000E+00 -0.20675722405E+03  0.35135487834E+03  0.28408044783E+03 0.  0.
         25    2    3    3    0    0  0.46809067682E+02  0.29476784559E+02 -0.51769722940E+02  0.14453390104E+03  0.12308523344E+03 0.  0.
         25    2    3    3    0    0 -0.46809067682E+02 -0.29476784559E+02 -0.15498750110E+03  0.20682097730E+03  0.12527498356E+03 0.  0.
          5    1    4    4  502    0  0.34801948523E+02  0.98514089876E+01 -0.91433691466E+02  0.98440011251E+02  0.47000000000E+01 0.  1.
         -5    1    4    4    0  502  0.12007119159E+02  0.19625375571E+02  0.39663968526E+02  0.46093889790E+02  0.47000000000E+01 0.  1.
          5    1    5    5  503    0 -0.56005177570E+02 -0.35477894547E+02 -0.17293222873E+03  0.18526442359E+03  0.47000000000E+01 0.  1.
         -5    1    5    5    0  503  0.91961098880E+01  0.60011099884E+01  0.17944727623E+02  0.21556553705E+02  0.47000000000E+01 0.  1.
<mgrwt>
<rscale>  0 0.28408045E+03</rscale>
<asrwt>0</asrwt>
<pdfrwt beam="1">  1        3 0.11122896E-01 0.28408045E+03</pdfrwt>
<pdfrwt beam="2">  1       -3 0.42931701E-01 0.28408045E+03</pdfrwt>
<totfact> 0.85180314E+02</totfact>
</mgrwt>
</event>
<event>
 9    1  0.2065703E-002  0.2743674E+03  0.7818608E-02  0.1098806E+00
          2   -1    0    0  501    0  0.00000000000E+00  0.00000000000E+00  0.72603649272E+03  0.72603649272E+03  0.00000000000E+00 0. -1.
         -2   -1    0    0    0  501 -0.00000000000E+00 -0.00000000000E+00 -0.25920684427E+02  0.25920684427E+02  0.00000000000E+00 0. -1.
         36    2    1    2    0    0  0.00000000000E+00  0.00000000000E+00  0.70011580829E+03  0.75195717714E+03  0.27436736548E+03 0.  0.
         25    2    3    3    0    0  0.23346356208E+02 -0.32369043114E+02  0.46020280646E+03  0.47851283149E+03  0.12488034083E+03 0.  0.
         25    2    3    3    0    0 -0.23346356208E+02  0.32369043114E+02  0.23991300183E+03  0.27344434565E+03  0.12498301654E+03 0.  0.
          5    1    4    4  502    0 -0.49262644797E+02  0.22212662489E+01  0.14737461646E+03  0.15547703938E+03  0.47000000000E+01 0. -1.
         -5    1    4    4    0  502  0.72609001005E+02 -0.34590309363E+02  0.31282819000E+03  0.32303579211E+03  0.47000000000E+01 0. -1.
          5    1    5    5  503    0  0.87252715520E+01  0.71837699468E+02  0.93158784971E+02  0.11805691274E+03  0.47000000000E+01 0. -1.
         -5    1    5    5    0  503 -0.32071627760E+02 -0.39468656354E+02  0.14675421685E+03  0.15538743291E+03  0.47000000000E+01 0. -1.
<mgrwt>
<rscale>  0 0.27436737E+03</rscale>
<asrwt>0</asrwt>
<pdfrwt beam="1">  1        2 0.11169791E+00 0.27436737E+03</pdfrwt>
<pdfrwt beam="2">  1       -2 0.39877981E-02 0.27436737E+03</pdfrwt>
<totfact> 0.11026932E+04</totfact>
</mgrwt>
</event>
<event>
 9    1  0.2065703E-002  0.2754121E+03  0.7818608E-02  0.1098221E+00
         -3   -1    0    0    0  501 -0.00000000000E+00  0.00000000000E+00  0.96661731485E+02  0.96661731485E+02  0.00000000000E+00 0. -1.
          3   -1    0    0  501    0  0.00000000000E+00 -0.00000000000E+00 -0.19617859566E+03  0.19617859566E+03  0.00000000000E+00 0. -1.
         36    2    1    2    0    0  0.14210854715E-13  0.00000000000E+00 -0.99516864178E+02  0.29284032715E+03  0.27541214742E+03 0.  0.
         25    2    3    3    0    0  0.57208684449E+02  0.95711993181E+01 -0.26392762153E+02  0.13711936730E+03  0.12141129091E+03 0.  0.
         25    2    3    3    0    0 -0.57208684449E+02 -0.95711993181E+01 -0.73124102025E+02  0.15572095985E+03  0.12464927440E+03 0.  0.
          5    1    4    4  502    0  0.43129835282E+02 -0.53873542105E+02 -0.17564082582E+02  0.71366156036E+02  0.47000000000E+01 0. -1.
         -5    1    4    4    0  502  0.14078849167E+02  0.63444741423E+02 -0.88286795715E+01  0.65753211260E+02  0.47000000000E+01 0. -1.
          5    1    5    5  503    0  0.20189515122E+01  0.17463545919E+02 -0.87087808358E+02  0.88968690930E+02  0.47000000000E+01 0. -1.
         -5    1    5    5    0  503 -0.59227635961E+02 -0.27034745238E+02  0.13963706333E+02  0.66752268921E+02  0.47000000000E+01 0. -1.
<mgrwt>
<rscale>  0 0.27541215E+03</rscale>
<asrwt>0</asrwt>
<pdfrwt beam="1">  1        3 0.30181322E-01 0.27541215E+03</pdfrwt>
<pdfrwt beam="2">  1       -3 0.14871036E-01 0.27541215E+03</pdfrwt>
<totfact> 0.10174678E+03</totfact>
</mgrwt>
</event>
<event>
 9    1  0.2065703E-002  0.2750552E+03  0.7818608E-02  0.1098421E+00
          2   -1    0    0  501    0  0.00000000000E+00  0.00000000000E+00  0.79736953382E+02  0.79736953382E+02  0.00000000000E+00 0.  1.
         -2   -1    0    0    0  501 -0.00000000000E+00 -0.00000000000E+00 -0.23720297532E+03  0.23720297532E+03  0.00000000000E+00 0.  1.
         36    2    1    2    0    0 -0.71054273576E-14 -0.71054273576E-14 -0.15746602194E+03  0.31693992870E+03  0.27505521326E+03 0.  0.
         25    2    3    3    0    0  0.16818400586E+02  0.59168326812E+02 -0.89600081977E+02  0.16246148240E+03  0.12075516170E+03 0.  0.
         25    2    3    3    0    0 -0.16818400586E+02 -0.59168326812E+02 -0.67865939962E+02  0.15447844630E+03  0.12439475499E+03 0.  0.
          5    1    4    4  502    0  0.55090583844E+02 -0.52648318114E+01 -0.17175107735E+02  0.58135748107E+02  0.47000000000E+01 0. -1.
         -5    1    4    4    0  502 -0.38272183257E+02  0.64433158623E+02 -0.72424974242E+02  0.10432573429E+03  0.47000000000E+01 0. -1.
          5    1    5    5  503    0  0.38648783572E+02  0.40790006028E+01  0.92893773776E+01  0.40233683023E+02  0.47000000000E+01 0. -1.
         -5    1    5    5    0  503 -0.55467184158E+02 -0.63247327415E+02 -0.77155317340E+02  0.11424476328E+03  0.47000000000E+01 0. -1.
<mgrwt>
<rscale>  0 0.27505521E+03</rscale>
<asrwt>0</asrwt>
<pdfrwt beam="1">  1        2 0.12267224E-01 0.27505521E+03</pdfrwt>
<pdfrwt beam="2">  1       -2 0.36492765E-01 0.27505521E+03</pdfrwt>
<totfact> 0.35136751E+03</totfact>
</mgrwt>
</event>
<event>
 9    1  0.2065703E-002  0.2744811E+03  0.7818608E-02  0.1098742E+00
         -1   -1    0    0    0  501 -0.00000000000E+00  0.00000000000E+00  0.13792794286E+02  0.13792794286E+02  0.00000000000E+00 0.  1.
          1   -1    0    0  501    0  0.00000000000E+00 -0.00000000000E+00 -0.13655660704E+04  0.13655660704E+04  0.00000000000E+00 0.  1.
         36    2    1    2    0    0  0.00000000000E+00 -0.71054273576E-14 -0.13517732761E+04  0.13793588647E+04  0.27448112425E+03 0.  0.
         25    2    3    3    0    0  0.37915149460E+02 -0.21938176036E+02 -0.73577189899E+03  0.74780030611E+03  0.12619892375E+03 0.  0.
         25    2    3    3    0    0 -0.37915149460E+02  0.21938176036E+02 -0.61600137713E+03  0.63155855858E+03  0.13224853179E+03 0.  0.
          5    1    4    4  502    0  0.45649187730E+02  0.44373745982E+02 -0.28311108598E+03  0.29021863255E+03  0.47000000000E+01 0.  1.
         -5    1    4    4    0  502 -0.77340382704E+01 -0.66311922018E+02 -0.45266081300E+03  0.45758167356E+03  0.47000000000E+01 0.  1.
          5    1    5    5  503    0  0.45747005399E+02 -0.74631365900E+01 -0.14639507945E+03  0.15362973734E+03  0.47000000000E+01 0. -1.
         -5    1    5    5    0  503 -0.83662154858E+02  0.29401312626E+02 -0.46960629769E+03  0.47792882124E+03  0.47000000000E+01 0. -1.
<mgrwt>
<rscale>  0 0.27448112E+03</rscale>
<asrwt>0</asrwt>
<pdfrwt beam="1">  1        1 0.21008714E+00 0.27448112E+03</pdfrwt>
<pdfrwt beam="2">  1       -1 0.21219678E-02 0.27448112E+03</pdfrwt>
<totfact> 0.55351654E+03</totfact>
</mgrwt>
</event>
<event>
 9    1  0.2065703E-002  0.2754578E+03  0.7818608E-02  0.1098196E+00
         -1   -1    0    0    0  501 -0.00000000000E+00  0.00000000000E+00  0.10464443320E+03  0.10464443320E+03  0.00000000000E+00 0.  1.
          1   -1    0    0  501    0  0.00000000000E+00 -0.00000000000E+00 -0.18127338889E+03  0.18127338889E+03  0.00000000000E+00 0.  1.
         36    2    1    2    0    0  0.00000000000E+00  0.35527136788E-14 -0.76628955688E+02  0.28591782209E+03  0.27545780827E+03 0.  0.
         25    2    3    3    0    0  0.50840962113E+02 -0.18212709430E+02 -0.13351089741E+02  0.13689806604E+03  0.12508526163E+03 0.  0.
         25    2    3    3    0    0 -0.50840962113E+02  0.18212709430E+02 -0.63277865947E+02  0.14901975604E+03  0.12363774973E+03 0.  0.
          5    1    4    4  502    0  0.83622528924E+02 -0.43607617101E+02 -0.70157847627E+01  0.94687184184E+02  0.47000000000E+01 0. -1.
         -5    1    4    4    0  502 -0.32781566811E+02  0.25394907671E+02 -0.63353049784E+01  0.42210881860E+02  0.47000000000E+01 0. -1.
          5    1    5    5  503    0 -0.26636321092E+02  0.39317882415E+02  0.25773747101E+02  0.54238044936E+02  0.47000000000E+01 0. -1.
         -5    1    5    5    0  503 -0.24204641020E+02 -0.21105172985E+02 -0.89051613048E+02  0.94781711105E+02  0.47000000000E+01 0. -1.
<mgrwt>
<rscale>  0 0.27545781E+03</rscale>
<asrwt>0</asrwt>
<pdfrwt beam="1">  1        1 0.27888214E-01 0.27545781E+03</pdfrwt>
<pdfrwt beam="2">  1       -1 0.16099144E-01 0.27545781E+03</pdfrwt>
<totfact> 0.47388264E+03</totfact>
</mgrwt>
</event>
<event>
 9    1  0.2065703E-002  0.2839757E+03  0.7818608E-02  0.1093537E+00
         -2   -1    0    0    0  501 -0.00000000000E+00  0.00000000000E+00  0.26628931554E+02  0.26628931554E+02  0.00000000000E+00 0. -1.
          2   -1    0    0  501    0  0.00000000000E+00 -0.00000000000E+00 -0.75709209751E+03  0.75709209751E+03  0.00000000000E+00 0. -1.
         36    2    1    2    0    0  0.00000000000E+00  0.71054273576E-14 -0.73046316596E+03  0.78372102907E+03  0.28397572886E+03 0.  0.
         25    2    3    3    0    0  0.70836085610E+02  0.53108739934E+02 -0.26085990135E+03  0.28989311997E+03  0.90287560555E+02 0.  0.
         25    2    3    3    0    0 -0.70836085610E+02 -0.53108739934E+02 -0.46960326461E+03  0.49382790909E+03  0.12450095739E+03 0.  0.
          5    1    4    4  502    0 -0.22852794943E+01  0.45912568280E+02 -0.14880896680E+03  0.15581843610E+03  0.47000000000E+01 0.  1.
         -5    1    4    4    0  502  0.73121365104E+02  0.71961716545E+01 -0.11205093455E+03  0.13407468387E+03  0.47000000000E+01 0.  1.
          5    1    5    5  503    0  0.33736234995E+02 -0.76766237042E+01 -0.16250951881E+03  0.16621822345E+03  0.47000000000E+01 0. -1.
         -5    1    5    5    0  503 -0.10457232060E+03 -0.45432116230E+02 -0.30709374580E+03  0.32760968565E+03  0.47000000000E+01 0. -1.
<mgrwt>
<rscale>  0 0.28397573E+03</rscale>
<asrwt>0</asrwt>
<pdfrwt beam="1">  1        2 0.11647572E+00 0.28397573E+03</pdfrwt>
<pdfrwt beam="2">  1       -2 0.40967583E-02 0.28397573E+03</pdfrwt>
<totfact> 0.10065281E+04</totfact>
</mgrwt>
</event>
<event>
 9    1  0.2065703E-002  0.2745270E+03  0.7818608E-02  0.1098716E+00
          1   -1    0    0  501    0  0.00000000000E+00  0.00000000000E+00  0.27452927720E+03  0.27452927720E+03  0.00000000000E+00 0. -1.
         -1   -1    0    0    0  501 -0.00000000000E+00 -0.00000000000E+00 -0.68631200966E+02  0.68631200966E+02  0.00000000000E+00 0. -1.
         36    2    1    2    0    0  0.35527136788E-14 -0.35527136788E-14  0.20589807623E+03  0.34316047816E+03  0.27452704052E+03 0.  0.
         25    2    3    3    0    0 -0.10321444829E+02 -0.11001900099E+01  0.17856396373E+03  0.21943042633E+03  0.12710971723E+03 0.  0.
         25    2    3    3    0    0  0.10321444829E+02  0.11001900099E+01  0.27334112501E+02  0.12373005183E+03  0.12022574341E+03 0.  0.
          5    1    4    4  502    0  0.27957638148E+02 -0.50313890089E+02  0.12258606672E+03  0.13550848985E+03  0.47000000000E+01 0. -1.
         -5    1    4    4    0  502 -0.38279082977E+02  0.49213700079E+02  0.55977897005E+02  0.83921936478E+02  0.47000000000E+01 0. -1.
          5    1    5    5  503    0 -0.17986008679E+02  0.18570473879E+02  0.66870640877E+02  0.71847975752E+02  0.47000000000E+01 0. -1.
         -5    1    5    5    0  503  0.28307453507E+02 -0.17470283869E+02 -0.39536528376E+02  0.51882076082E+02  0.47000000000E+01 0. -1.
<mgrwt>
<rscale>  0 0.27452704E+03</rscale>
<asrwt>0</asrwt>
<pdfrwt beam="1">  1        1 0.42235273E-01 0.27452704E+03</pdfrwt>
<pdfrwt beam="2">  1       -1 0.10558646E-01 0.27452704E+03</pdfrwt>
<totfact> 0.54540794E+03</totfact>
</mgrwt>
</event>
<event>
 9    1  0.2065703E-002  0.2754365E+03  0.7818608E-02  0.1098208E+00
         -2   -1    0    0    0  501 -0.00000000000E+00  0.00000000000E+00  0.28956342870E+03  0.28956342870E+03  0.00000000000E+00 0.  1.
          2   -1    0    0  501    0  0.00000000000E+00 -0.00000000000E+00 -0.65499685734E+02  0.65499685734E+02  0.00000000000E+00 0.  1.
         36    2    1    2    0    0  0.00000000000E+00  0.35527136788E-14  0.22406374296E+03  0.35506311443E+03  0.27543647964E+03 0.  0.
         25    2    3    3    0    0  0.30536709944E+02 -0.19619439504E+02  0.15044198369E+03  0.19666755171E+03  0.12135865184E+03 0.  0.
         25    2    3    3    0    0 -0.30536709944E+02  0.19619439504E+02  0.73621759271E+02  0.15839556273E+03  0.13546799546E+03 0.  0.
          5    1    4    4  502    0  0.75071042155E+02 -0.99747427331E+01  0.11890824290E+03  0.14105465995E+03  0.47000000000E+01 0.  1.
         -5    1    4    4    0  502 -0.44534332211E+02 -0.96446967704E+01  0.31533740789E+02  0.55612891756E+02  0.47000000000E+01 0.  1.
          5    1    5    5  503    0 -0.64402300311E+02 -0.36748471216E+02  0.40395548946E+02  0.84569479109E+02  0.47000000000E+01 0. -1.
         -5    1    5    5    0  503  0.33865590367E+02  0.56367910720E+02  0.33226210325E+02  0.73826083618E+02  0.47000000000E+01 0. -1.
<mgrwt>
<rscale>  0 0.27543648E+03</rscale>
<asrwt>0</asrwt>
<pdfrwt beam="1">  1        2 0.10076875E-01 0.27543648E+03</pdfrwt>
<pdfrwt beam="2">  1       -2 0.44548219E-01 0.27543648E+03</pdfrwt>
<totfact> 0.30544736E+03</totfact>
</mgrwt>
</event>
<event>
 9    1  0.2065703E-002  0.2750023E+03  0.7818608E-02  0.1098450E+00
         -2   -1    0    0    0  501 -0.00000000000E+00  0.00000000000E+00  0.31088194329E+03  0.31088194329E+03  0.00000000000E+00 0. -1.
          2   -1    0    0  501    0  0.00000000000E+00 -0.00000000000E+00 -0.60815888663E+02  0.60815888663E+02  0.00000000000E+00 0. -1.
         36    2    1    2    0    0  0.71054273576E-14 -0.53290705182E-14  0.25006605463E+03  0.37169783195E+03  0.27500226654E+03 0.  0.
         25    2    3    3    0    0 -0.27482757688E+02  0.87921003258E+01  0.18603241795E+03  0.22588453978E+03  0.12483253496E+03 0.  0.
         25    2    3    3    0    0  0.27482757688E+02 -0.87921003258E+01  0.64033636678E+02  0.14581329217E+03  0.12778343613E+03 0.  0.
          5    1    4    4  502    0 -0.50701337325E+02 -0.30532531332E+02  0.37036187683E+02  0.69975926390E+02  0.47000000000E+01 0. -1.
         -5    1    4    4    0  502  0.23218579637E+02  0.39324631658E+02  0.14899623027E+03  0.15590861339E+03  0.47000000000E+01 0. -1.
          5    1    5    5  503    0 -0.10568598485E+02  0.75021299208E+01  0.93675557395E+02  0.94684620084E+02  0.47000000000E+01 0.  1.
         -5    1    5    5    0  503  0.38051356173E+02 -0.16294230247E+02 -0.29641920716E+02  0.51128672090E+02  0.47000000000E+01 0.  1.
<mgrwt>
<rscale>  0 0.27500227E+03</rscale>
<asrwt>0</asrwt>
<pdfrwt beam="1">  1        2 0.93562907E-02 0.27500227E+03</pdfrwt>
<pdfrwt beam="2">  1       -2 0.47827990E-01 0.27500227E+03</pdfrwt>
<totfact> 0.29140568E+03</totfact>
</mgrwt>
</event>
<event>
 9    1  0.2065703E-002  0.2752998E+03  0.7818608E-02  0.1098284E+00
          2   -1    0    0  501    0  0.00000000000E+00  0.00000000000E+00  0.15860412259E+04  0.15860412259E+04  0.00000000000E+00 0. -1.
         -2   -1    0    0    0  501 -0.00000000000E+00 -0.00000000000E+00 -0.11946406367E+02  0.11946406367E+02  0.00000000000E+00 0. -1.
         36    2    1    2    0    0  0.00000000000E+00  0.71054273576E-14  0.15740948195E+04  0.15979876323E+04  0.27529978569E+03 0.  0.
         25    2    3    3    0    0 -0.29256131362E+02  0.17511854568E+02  0.54529864064E+03  0.56057770085E+03  0.12543589969E+03 0.  0.
         25    2    3    3    0    0  0.29256131362E+02 -0.17511854568E+02  0.10287961789E+04  0.10374099314E+04  0.12897752452E+03 0.  0.
          5    1    4    4  502    0 -0.54023430095E+01 -0.44991865499E+02  0.95539713201E+02  0.10584602057E+03  0.47000000000E+01 0.  1.
         -5    1    4    4    0  502 -0.23853788352E+02  0.62503720067E+02  0.44975892744E+03  0.45473168028E+03  0.47000000000E+01 0.  1.
          5    1    5    5  503    0  0.48204198085E+02 -0.52802084720E+02  0.34170906009E+03  0.34914019621E+03  0.47000000000E+01 0. -1.
         -5    1    5    5    0  503 -0.18948066724E+02  0.35290230152E+02  0.68708711881E+03  0.68826973522E+03  0.47000000000E+01 0. -1.
<mgrwt>
<rscale>  0 0.27529979E+03</rscale>
<asrwt>0</asrwt>
<pdfrwt beam="1">  1        2 0.24400618E+00 0.27529979E+03</pdfrwt>
<pdfrwt beam="2">  1       -2 0.18379099E-02 0.27529979E+03</pdfrwt>
<totfact> 0.10747385E+04</totfact>
</mgrwt>
</event>
<event>
 9    1  0.2065703E-002  0.2737373E+03  0.7818608E-02  0.1099160E+00
         -2   -1    0    0    0  501 -0.00000000000E+00  0.00000000000E+00  0.15733450781E+03  0.15733450781E+03  0.00000000000E+00 0. -1.
          2   -1    0    0  501    0  0.00000000000E+00 -0.00000000000E+00 -0.11906494773E+03  0.11906494773E+03  0.00000000000E+00 0. -1.
         36    2    1    2    0    0  0.00000000000E+00  0.00000000000E+00  0.38269560080E+02  0.27639945554E+03  0.27373728244E+03 0.  0.
         25    2    3    3    0    0 -0.22212745768E+02  0.50869041948E+02  0.33954089916E+02  0.13830929930E+03  0.12204718984E+03 0.  0.
         25    2    3    3    0    0  0.22212745768E+02 -0.50869041948E+02  0.43154701638E+01  0.13809015625E+03  0.12636930983E+03 0.  0.
          5    1    4    4  502    0 -0.13955233779E+02  0.41817013706E+02  0.79436975712E+02  0.90971062956E+02  0.47000000000E+01 0.  1.
         -5    1    4    4    0  502 -0.82575119893E+01  0.90520282417E+01 -0.45482885796E+02  0.47338236341E+02  0.47000000000E+01 0.  1.
          5    1    5    5  503    0  0.13078574239E+02 -0.59163070409E+02  0.57275133712E+02  0.83509573978E+02  0.47000000000E+01 0.  1.
         -5    1    5    5    0  503  0.91341715297E+01  0.82940284613E+01 -0.52959663548E+02  0.54580582269E+02  0.47000000000E+01 0.  1.
<mgrwt>
<rscale>  0 0.27373728E+03</rscale>
<asrwt>0</asrwt>
<pdfrwt beam="1">  1        2 0.18317684E-01 0.27373728E+03</pdfrwt>
<pdfrwt beam="2">  1       -2 0.24205309E-01 0.27373728E+03</pdfrwt>
<totfact> 0.46000185E+03</totfact>
</mgrwt>
</event>
<event>
 9    1  0.2065703E-002  0.2771003E+03  0.7818608E-02  0.1097283E+00
          4   -1    0    0  501    0  0.00000000000E+00  0.00000000000E+00  0.35626266317E+03  0.35626266317E+03  0.00000000000E+00 0.  1.
         -4   -1    0    0    0  501 -0.00000000000E+00 -0.00000000000E+00 -0.53882012998E+02  0.53882012998E+02  0.00000000000E+00 0.  1.
         36    2    1    2    0    0  0.71054273576E-14  0.00000000000E+00  0.30238065017E+03  0.41014467617E+03  0.27710033885E+03 0.  0.
         25    2    3    3    0    0 -0.47979964907E+02  0.10128812294E+01  0.15589498940E+03  0.20647761320E+03  0.12659642203E+03 0.  0.
         25    2    3    3    0    0  0.47979964907E+02 -0.10128812294E+01  0.14648566077E+03  0.20366706297E+03  0.13311318780E+03 0.  0.
          5    1    4    4  502    0  0.11711099281E+02 -0.52476283190E+02  0.49883199775E+02  0.73493766835E+02  0.47000000000E+01 0.  1.
         -5    1    4    4    0  502 -0.59691064188E+02  0.53489164419E+02  0.10601178963E+03  0.13298384637E+03  0.47000000000E+01 0.  1.
          5    1    5    5  503    0 -0.13542439041E+02 -0.43809744881E+02  0.89334189206E+01  0.46953033718E+02  0.47000000000E+01 0.  1.
         -5    1    5    5    0  503  0.61522403948E+02  0.42796863651E+02  0.13755224185E+03  0.15671402925E+03  0.47000000000E+01 0.  1.
<mgrwt>
<rscale>  0 0.27710034E+03</rscale>
<asrwt>0</asrwt>
<pdfrwt beam="1">  1        4 0.54809639E-01 0.27710034E+03</pdfrwt>
<pdfrwt beam="2">  1       -4 0.82895407E-02 0.27710034E+03</pdfrwt>
<totfact> 0.62626011E+02</totfact>
</mgrwt>
</event>
<event>
 9    1  0.2065703E-002  0.2747813E+03  0.7818608E-02  0.1098574E+00
          4   -1    0    0  501    0  0.00000000000E+00  0.00000000000E+00  0.83881388912E+03  0.83881388912E+03  0.00000000000E+00 0. -1.
         -4   -1    0    0    0  501 -0.00000000000E+00 -0.00000000000E+00 -0.22503425506E+02  0.22503425506E+02  0.00000000000E+00 0. -1.
         36    2    1    2    0    0  0.35527136788E-14  0.00000000000E+00  0.81631046361E+03  0.86131731463E+03  0.27478126477E+03 0.  0.
         25    2    3    3    0    0  0.27810364694E+02 -0.45649754595E+02  0.40587634736E+03  0.42927839854E+03  0.12917823977E+03 0.  0.
         25    2    3    3    0    0 -0.27810364694E+02  0.45649754595E+02  0.41043411625E+03  0.43203891608E+03  0.12387148479E+03 0.  0.
          5    1    4    4  502    0 -0.32518157695E+02  0.21968628736E+02  0.61163481697E+02  0.72822474015E+02  0.47000000000E+01 0.  1.
         -5    1    4    4    0  502  0.60328522389E+02 -0.67618383331E+02  0.34471286566E+03  0.35645592453E+03  0.47000000000E+01 0.  1.
          5    1    5    5  503    0 -0.88511138365E+01 -0.38872096331E+02  0.20739096852E+03  0.21124035105E+03  0.47000000000E+01 0. -1.
         -5    1    5    5    0  503 -0.18959250858E+02  0.84521850926E+02  0.20304314774E+03  0.22079856503E+03  0.47000000000E+01 0. -1.
<mgrwt>
<rscale>  0 0.27478126E+03</rscale>
<asrwt>0</asrwt>
<pdfrwt beam="1">  1        4 0.12904827E+00 0.27478126E+03</pdfrwt>
<pdfrwt beam="2">  1       -4 0.34620661E-02 0.27478126E+03</pdfrwt>
<totfact> 0.37254884E+02</totfact>
</mgrwt>
</event>
<event>
 9    1  0.2065703E-002  0.2748143E+03  0.7818608E-02  0.1098555E+00
         -2   -1    0    0    0  501 -0.00000000000E+00  0.00000000000E+00  0.98615394677E+01  0.98615394677E+01  0.00000000000E+00 0.  1.
          2   -1    0    0  501    0  0.00000000000E+00 -0.00000000000E+00 -0.19145825494E+04  0.19145825494E+04  0.00000000000E+00 0.  1.
         36    2    1    2    0    0  0.00000000000E+00 -0.35527136788E-14 -0.19047210100E+04  0.19244440889E+04  0.27481434734E+03 0.  0.
         25    2    3    3    0    0  0.43001676700E+02 -0.12556297956E+02 -0.10928744861E+04  0.11008689570E+04  0.12462348646E+03 0.  0.
         25    2    3    3    0    0 -0.43001676700E+02  0.12556297956E+02 -0.81184652388E+03  0.82357513188E+03  0.13105119114E+03 0.  0.
          5    1    4    4  502    0 -0.31646689090E+02 -0.26277953782E+01 -0.70461751449E+03  0.70534838907E+03  0.47000000000E+01 0.  1.
         -5    1    4    4    0  502  0.74648365790E+02 -0.99285025783E+01 -0.38825697161E+03  0.39552056796E+03  0.47000000000E+01 0.  1.
          5    1    5    5  503    0 -0.27125934254E+02 -0.30130559578E+02 -0.71796387587E+03  0.71912299642E+03  0.47000000000E+01 0.  1.
         -5    1    5    5    0  503 -0.15875742445E+02  0.42686857535E+02 -0.93882648011E+02  0.10445213546E+03  0.47000000000E+01 0.  1.
<mgrwt>
<rscale>  0 0.27481435E+03</rscale>
<asrwt>0</asrwt>
<pdfrwt beam="1">  1        2 0.29455109E+00 0.27481435E+03</pdfrwt>
<pdfrwt beam="2">  1       -2 0.15171603E-02 0.27481435E+03</pdfrwt>
<totfact> 0.95596785E+03</totfact>
</mgrwt>
</event>
<event>
 9    1  0.2065703E-002  0.2753279E+03  0.7818608E-02  0.1098268E+00
          2   -1    0    0  501    0  0.00000000000E+00  0.00000000000E+00  0.24267825549E+04  0.24267825549E+04  0.00000000000E+00 0. -1.
         -2   -1    0    0    0  501 -0.00000000000E+00 -0.00000000000E+00 -0.78092555201E+01  0.78092555201E+01  0.00000000000E+00 0. -1.
         36    2    1    2    0    0 -0.17763568394E-14  0.14210854715E-13  0.24189732994E+04  0.24345918104E+04  0.27532791404E+03 0.  0.
         25    2    3    3    0    0 -0.52930652434E+01 -0.52994262202E+02  0.94490764728E+03  0.95446735846E+03  0.12377830230E+03 0.  0.
         25    2    3    3    0    0  0.52930652434E+01  0.52994262202E+02  0.14740656521E+04  0.14801244520E+04  0.12272912535E+03 0.  0.
          5    1    4    4  502    0 -0.14286730352E+01  0.18273884851E+02  0.22975784735E+02  0.29764956885E+02  0.47000000000E+01 0.  1.
         -5    1    4    4    0  502 -0.38643922082E+01 -0.71268147052E+02  0.92193186254E+03  0.92470240158E+03  0.47000000000E+01 0.  1.
          5    1    5    5  503    0 -0.36420720003E+02 -0.25393663701E+02  0.53346856524E+03  0.53533364092E+03  0.47000000000E+01 0. -1.
         -5    1    5    5    0  503  0.41713785247E+02  0.78387925903E+02  0.94059708688E+03  0.94479081105E+03  0.47000000000E+01 0. -1.
<mgrwt>
<rscale>  0 0.27532791E+03</rscale>
<asrwt>0</asrwt>
<pdfrwt beam="1">  1        2 0.37335056E+00 0.27532791E+03</pdfrwt>
<pdfrwt beam="2">  1       -2 0.12014259E-02 0.27532791E+03</pdfrwt>
<totfact> 0.71767782E+03</totfact>
</mgrwt>
</event>
<event>
 9    1  0.2065703E-002  0.2759109E+03  0.7818608E-02  0.1097944E+00
          1   -1    0    0  501    0  0.00000000000E+00  0.00000000000E+00  0.27710614813E+02  0.27710614813E+02  0.00000000000E+00 0. -1.
         -1   -1    0    0    0  501 -0.00000000000E+00 -0.00000000000E+00 -0.68680183155E+03  0.68680183155E+03  0.00000000000E+00 0. -1.
         36    2    1    2    0    0 -0.71054273576E-14  0.00000000000E+00 -0.65909121673E+03  0.71451244636E+03  0.27591086247E+03 0.  0.
         25    2    3    3    0    0  0.37946779226E+02  0.26781439118E+02 -0.22452942338E+03  0.26107895714E+03  0.12486615378E+03 0.  0.
         25    2    3    3    0    0 -0.37946779226E+02 -0.26781439118E+02 -0.43456179335E+03  0.45343348923E+03  0.12083365994E+03 0.  0.
          5    1    4    4  502    0  0.79950094566E+02  0.30891340313E+02 -0.18069955976E+03  0.20005177686E+03  0.47000000000E+01 0. -1.
         -5    1    4    4    0  502 -0.42003315341E+02 -0.41099011944E+01 -0.43829863625E+02  0.61027180279E+02  0.47000000000E+01 0. -1.
          5    1    5    5  503    0  0.14266573820E+02 -0.51495881117E+02 -0.32586138300E+03  0.33024701639E+03  0.47000000000E+01 0. -1.
         -5    1    5    5    0  503 -0.52213353046E+02  0.24714441999E+02 -0.10870041035E+03  0.12318647284E+03  0.47000000000E+01 0. -1.
<mgrwt>
<rscale>  0 0.27591086E+03</rscale>
<asrwt>0</asrwt>
<pdfrwt beam="1">  1        1 0.42631718E-02 0.27591086E+03</pdfrwt>
<pdfrwt beam="2">  1       -1 0.10566181E+00 0.27591086E+03</pdfrwt>
<totfact> 0.18492015E+03</totfact>
</mgrwt>
</event>
<event>
 9    1  0.2065703E-002  0.2753474E+03  0.7818608E-02  0.1098258E+00
         -2   -1    0    0    0  501 -0.00000000000E+00  0.00000000000E+00  0.32312936262E+02  0.32312936262E+02  0.00000000000E+00 0. -1.
          2   -1    0    0  501    0  0.00000000000E+00 -0.00000000000E+00 -0.58657788661E+03  0.58657788661E+03  0.00000000000E+00 0. -1.
         36    2    1    2    0    0  0.00000000000E+00  0.35527136788E-14 -0.55426495035E+03  0.61889082287E+03  0.27534744497E+03 0.  0.
         25    2    3    3    0    0  0.42024013970E+02  0.31520514893E+02 -0.26218052091E+03  0.29510115748E+03  0.12484593303E+03 0.  0.
         25    2    3    3    0    0 -0.42024013970E+02 -0.31520514893E+02 -0.29208442944E+03  0.32378966539E+03  0.12948696028E+03 0.  0.
          5    1    4    4  502    0 -0.23704629832E+02 -0.31568510910E+02 -0.48168941822E+02  0.62456523381E+02  0.47000000000E+01 0.  1.
         -5    1    4    4    0  502  0.65728643802E+02  0.63089025803E+02 -0.21401157909E+03  0.23264463410E+03  0.47000000000E+01 0.  1.
          5    1    5    5  503    0 -0.95751204745E+01  0.33703555414E+02 -0.17080315880E+02  0.39261173826E+02  0.47000000000E+01 0. -1.
         -5    1    5    5    0  503 -0.32448893496E+02 -0.65224070307E+02 -0.27500411356E+03  0.28452849156E+03  0.47000000000E+01 0. -1.
<mgrwt>
<rscale>  0 0.27534744E+03</rscale>
<asrwt>0</asrwt>
<pdfrwt beam="1">  1        2 0.90242757E-01 0.27534744E+03</pdfrwt>
<pdfrwt beam="2">  1       -2 0.49712207E-02 0.27534744E+03</pdfrwt>
<totfact> 0.10185451E+04</totfact>
</mgrwt>
</event>
<event>
 9    1  0.2065703E-002  0.2736359E+03  0.7818608E-02  0.1099217E+00
          2   -1    0    0  501    0  0.00000000000E+00  0.00000000000E+00  0.10265427996E+04  0.10265427996E+04  0.00000000000E+00 0. -1.
         -2   -1    0    0    0  501 -0.00000000000E+00 -0.00000000000E+00 -0.18235137185E+02  0.18235137185E+02  0.00000000000E+00 0. -1.
         36    2    1    2    0    0  0.71054273576E-14  0.00000000000E+00  0.10083076624E+04  0.10447779367E+04  0.27363588052E+03 0.  0.
         25    2    3    3    0    0  0.36305025811E+02 -0.25941543165E+02  0.32089405397E+03  0.34482900757E+03  0.11808061665E+03 0.  0.
         25    2    3    3    0    0 -0.36305025811E+02  0.25941543165E+02  0.68741360841E+03  0.69994892918E+03  0.12409680040E+03 0.  0.
          5    1    4    4  502    0  0.29787463265E+02 -0.72144967181E+02  0.22225944544E+03  0.23561311581E+03  0.47000000000E+01 0.  1.
         -5    1    4    4    0  502  0.65175625458E+01  0.46203424016E+02  0.98634608527E+02  0.10921589175E+03  0.47000000000E+01 0.  1.
          5    1    5    5  503    0 -0.59325564380E+02 -0.87443195752E+01  0.16097473529E+03  0.17184568983E+03  0.47000000000E+01 0. -1.
         -5    1    5    5    0  503  0.23020538569E+02  0.34685862740E+02  0.52643887313E+03  0.52810323935E+03  0.47000000000E+01 0. -1.
<mgrwt>
<rscale>  0 0.27363588E+03</rscale>
<asrwt>0</asrwt>
<pdfrwt beam="1">  1        2 0.15792962E+00 0.27363588E+03</pdfrwt>
<pdfrwt beam="2">  1       -2 0.28054065E-02 0.27363588E+03</pdfrwt>
<totfact> 0.11809281E+04</totfact>
</mgrwt>
</event>
<event>
 9    1  0.2065703E-002  0.2751158E+03  0.7818608E-02  0.1098387E+00
         -1   -1    0    0    0  501 -0.00000000000E+00  0.00000000000E+00  0.12455994668E+03  0.12455994668E+03  0.00000000000E+00 0. -1.
          1   -1    0    0  501    0  0.00000000000E+00 -0.00000000000E+00 -0.15191222809E+03  0.15191222809E+03  0.00000000000E+00 0. -1.
         36    2    1    2    0    0  0.00000000000E+00  0.00000000000E+00 -0.27352281411E+02  0.27647217477E+03  0.27511582310E+03 0.  0.
         25    2    3    3    0    0 -0.26815650916E+02  0.40725499476E+02 -0.46580665679E+02  0.14200782382E+03  0.12497527024E+03 0.  0.
         25    2    3    3    0    0  0.26815650916E+02 -0.40725499476E+02  0.19228384268E+02  0.13446435094E+03  0.12382764421E+03 0.  0.
          5    1    4    4  502    0 -0.65051835103E+02 -0.13895536180E+02 -0.30114659913E+02  0.73169733617E+02  0.47000000000E+01 0.  1.
         -5    1    4    4    0  502  0.38236184187E+02  0.54621035657E+02 -0.16466005767E+02  0.68838090207E+02  0.47000000000E+01 0.  1.
          5    1    5    5  503    0  0.14559049719E+02  0.24374811804E+02 -0.37398325803E+02  0.47189216481E+02  0.47000000000E+01 0. -1.
         -5    1    5    5    0  503  0.12256601197E+02 -0.65100311281E+02  0.56626710071E+02  0.87275134461E+02  0.47000000000E+01 0. -1.
<mgrwt>
<rscale>  0 0.27511582E+03</rscale>
<asrwt>0</asrwt>
<pdfrwt beam="1">  1        1 0.23371112E-01 0.27511582E+03</pdfrwt>
<pdfrwt beam="2">  1       -1 0.19163069E-01 0.27511582E+03</pdfrwt>
<totfact> 0.44838105E+03</totfact>
</mgrwt>
</event>
<event>
 9    1  0.2065703E-002  0.2755575E+03  0.7818608E-02  0.1098140E+00
         -1   -1    0    0    0  501 -0.00000000000E+00  0.00000000000E+00  0.71899742564E+01  0.71899742564E+01  0.00000000000E+00 0.  1.
          1   -1    0    0  501    0  0.00000000000E+00 -0.00000000000E+00 -0.26402027516E+04  0.26402027516E+04  0.00000000000E+00 0.  1.
         36    2    1    2    0    0  0.00000000000E+00  0.00000000000E+00 -0.26330127773E+04  0.26473927259E+04  0.27555754256E+03 0.  0.
         25    2    3    3    0    0 -0.14486965438E+02 -0.14120153958E+02 -0.79191083885E+03  0.80203788045E+03  0.12543019601E+03 0.  0.
         25    2    3    3    0    0  0.14486965438E+02  0.14120153958E+02 -0.18411019385E+04  0.18453548454E+04  0.12356741736E+03 0.  0.
          5    1    4    4  502    0  0.22751034561E+02 -0.51915108644E+02 -0.20589484967E+03  0.21360610291E+03  0.47000000000E+01 0.  1.
         -5    1    4    4    0  502 -0.37237999999E+02  0.37794954686E+02 -0.58601598918E+03  0.58843177754E+03  0.47000000000E+01 0.  1.
          5    1    5    5  503    0  0.28062323595E+02  0.54976395802E+02 -0.15301297108E+04  0.15313813764E+04  0.47000000000E+01 0.  1.
         -5    1    5    5    0  503 -0.13575358157E+02 -0.40856241844E+02 -0.31097222767E+03  0.31397346899E+03  0.47000000000E+01 0.  1.
<mgrwt>
<rscale>  0 0.27555754E+03</rscale>
<asrwt>0</asrwt>
<pdfrwt beam="1">  1        1 0.40618557E+00 0.27555754E+03</pdfrwt>
<pdfrwt beam="2">  1       -1 0.11061484E-02 0.27555754E+03</pdfrwt>
<totfact> 0.20762368E+03</totfact>
</mgrwt>
</event>
<event>
 9    1  0.2065703E-002  0.2753197E+03  0.7818608E-02  0.1098273E+00
         -2   -1    0    0    0  501 -0.00000000000E+00  0.00000000000E+00  0.17410193885E+02  0.17410193885E+02  0.00000000000E+00 0. -1.
          2   -1    0    0  501    0  0.00000000000E+00 -0.00000000000E+00 -0.10884561128E+04  0.10884561128E+04  0.00000000000E+00 0. -1.
         36    2    1    2    0    0  0.71054273576E-14  0.00000000000E+00 -0.10710459189E+04  0.11058663067E+04  0.27531968298E+03 0.  0.
         25    2    3    3    0    0 -0.28644286603E+02 -0.47635227490E+02 -0.50435426906E+03  0.52322684497E+03  0.12768513042E+03 0.  0.
         25    2    3    3    0    0  0.28644286603E+02  0.47635227490E+02 -0.56669164988E+03  0.58263946174E+03  0.12344920524E+03 0.  0.
          5    1    4    4  502    0 -0.78765882808E+02 -0.31194559359E+02 -0.27263699371E+03  0.28553491060E+03  0.47000000000E+01 0.  1.
         -5    1    4    4    0  502  0.50121596205E+02 -0.16440668132E+02 -0.23171727534E+03  0.23769193438E+03  0.47000000000E+01 0.  1.
          5    1    5    5  503    0  0.61083904110E+02  0.36081895451E+02 -0.51777173630E+03  0.52263066063E+03  0.47000000000E+01 0. -1.
         -5    1    5    5    0  503 -0.32439617507E+02  0.11553332039E+02 -0.48919913582E+02  0.60008801105E+02  0.47000000000E+01 0. -1.
<mgrwt>
<rscale>  0 0.27531968E+03</rscale>
<asrwt>0</asrwt>
<pdfrwt beam="1">  1        2 0.16745481E+00 0.27531968E+03</pdfrwt>
<pdfrwt beam="2">  1       -2 0.26784910E-02 0.27531968E+03</pdfrwt>
<totfact> 0.11618684E+04</totfact>
</mgrwt>
</event>
<event>
 9    1  0.2065703E-002  0.2754575E+03  0.7818608E-02  0.1098196E+00
         -1   -1    0    0    0  501 -0.00000000000E+00  0.00000000000E+00  0.38981488455E+03  0.38981488455E+03  0.00000000000E+00 0.  1.
          1   -1    0    0  501    0  0.00000000000E+00 -0.00000000000E+00 -0.48662109407E+02  0.48662109407E+02  0.00000000000E+00 0.  1.
         36    2    1    2    0    0  0.35527136788E-14 -0.71054273576E-14  0.34115277515E+03  0.43847699396E+03  0.27545754345E+03 0.  0.
         25    2    3    3    0    0 -0.15291048072E+02  0.32593566310E+02  0.10469862092E+03  0.16890817298E+03  0.12756180056E+03 0.  0.
         25    2    3    3    0    0  0.15291048072E+02 -0.32593566310E+02  0.23645415423E+03  0.26956882098E+03  0.12434076353E+03 0.  0.
          5    1    4    4  502    0 -0.44661750369E+02  0.41447051443E+02  0.14846930774E+01  0.61129570037E+02  0.47000000000E+01 0. -1.
         -5    1    4    4    0  502  0.29370702296E+02 -0.88534851331E+01  0.10321392784E+03  0.10777860294E+03  0.47000000000E+01 0. -1.
          5    1    5    5  503    0  0.15498168379E+01  0.47245412281E+02  0.73284675459E+02  0.87334211916E+02  0.47000000000E+01 0. -1.
         -5    1    5    5    0  503  0.13741231234E+02 -0.79838978591E+02  0.16316947877E+03  0.18223460906E+03  0.47000000000E+01 0. -1.
<mgrwt>
<rscale>  0 0.27545754E+03</rscale>
<asrwt>0</asrwt>
<pdfrwt beam="1">  1        1 0.74864786E-02 0.27545754E+03</pdfrwt>
<pdfrwt beam="2">  1       -1 0.59971519E-01 0.27545754E+03</pdfrwt>
<totfact> 0.27619399E+03</totfact>
</mgrwt>
</event>
<event>
 9    1  0.2065703E-002  0.2727306E+03  0.7818608E-02  0.1099727E+00
          2   -1    0    0  501    0  0.00000000000E+00  0.00000000000E+00  0.25997543804E+03  0.25997543804E+03  0.00000000000E+00 0.  1.
         -2   -1    0    0    0  501 -0.00000000000E+00 -0.00000000000E+00 -0.71527900115E+02  0.71527900115E+02  0.00000000000E+00 0.  1.
         36    2    1    2    0    0  0.00000000000E+00 -0.71054273576E-14  0.18844753793E+03  0.33150333816E+03  0.27273061555E+03 0.  0.
         25    2    3    3    0    0  0.42851992176E+02  0.12913941443E+02  0.55534895392E+02  0.14372263572E+03  0.12477583217E+03 0.  0.
         25    2    3    3    0    0 -0.42851992176E+02 -0.12913941443E+02  0.13291264253E+03  0.18778070244E+03  0.12487096759E+03 0.  0.
          5    1    4    4  502    0  0.23201019277E+02  0.66001559173E+02  0.98069926154E+01  0.70800848956E+02  0.47000000000E+01 0. -1.
         -5    1    4    4    0  502  0.19650972899E+02 -0.53087617729E+02  0.45727902776E+02  0.72921786761E+02  0.47000000000E+01 0. -1.
          5    1    5    5  503    0 -0.70511461289E+02  0.31583627756E+02  0.96946291909E+02  0.12405670167E+03  0.47000000000E+01 0. -1.
         -5    1    5    5    0  503  0.27659469113E+02 -0.44497569199E+02  0.35966350624E+02  0.63724000765E+02  0.47000000000E+01 0. -1.
<mgrwt>
<rscale>  0 0.27273062E+03</rscale>
<asrwt>0</asrwt>
<pdfrwt beam="1">  1        2 0.39996221E-01 0.27273062E+03</pdfrwt>
<pdfrwt beam="2">  1       -2 0.11004293E-01 0.27273062E+03</pdfrwt>
<totfact> 0.72113243E+03</totfact>
</mgrwt>
</event>
<event>
 9    1  0.2065703E-002  0.2729442E+03  0.7818608E-02  0.1099606E+00
         -2   -1    0    0    0  501 -0.00000000000E+00  0.00000000000E+00  0.37394367353E+03  0.37394367353E+03  0.00000000000E+00 0. -1.
          2   -1    0    0  501    0  0.00000000000E+00 -0.00000000000E+00 -0.49806005910E+02  0.49806005910E+02  0.00000000000E+00 0. -1.
         36    2    1    2    0    0 -0.71054273576E-14 -0.71054273576E-14  0.32413766762E+03  0.42374967944E+03  0.27294424935E+03 0.  0.
         25    2    3    3    0    0  0.48093682075E+02  0.35615436404E+02  0.13721801571E+03  0.19233539321E+03  0.12075867704E+03 0.  0.
         25    2    3    3    0    0 -0.48093682075E+02 -0.35615436404E+02  0.18691965192E+03  0.23141428623E+03  0.12260568516E+03 0.  0.
          5    1    4    4  502    0  0.19321677316E+02  0.79260096767E+02  0.74786702711E+02  0.11077288051E+03  0.47000000000E+01 0. -1.
         -5    1    4    4    0  502  0.28772004759E+02 -0.43644660363E+02  0.62431312996E+02  0.81562512703E+02  0.47000000000E+01 0. -1.
          5    1    5    5  503    0  0.85418133294E+01 -0.26979993729E+02  0.16868775718E+03  0.17110970767E+03  0.47000000000E+01 0. -1.
         -5    1    5    5    0  503 -0.56635495404E+02 -0.86354426754E+01  0.18231894737E+02  0.60304578562E+02  0.47000000000E+01 0. -1.
<mgrwt>
<rscale>  0 0.27294425E+03</rscale>
<asrwt>0</asrwt>
<pdfrwt beam="1">  1        2 0.76624627E-02 0.27294425E+03</pdfrwt>
<pdfrwt beam="2">  1       -2 0.57529794E-01 0.27294425E+03</pdfrwt>
<totfact> 0.25847471E+03</totfact>
</mgrwt>
</event>
<event>
 9    1  0.2065703E-002  0.2741970E+03  0.7818608E-02  0.1098901E+00
         -1   -1    0    0    0  501 -0.00000000000E+00  0.00000000000E+00  0.40356484856E+03  0.40356484856E+03  0.00000000000E+00 0.  1.
          1   -1    0    0  501    0  0.00000000000E+00 -0.00000000000E+00 -0.46574901967E+02  0.46574901967E+02  0.00000000000E+00 0.  1.
         36    2    1    2    0    0  0.00000000000E+00  0.00000000000E+00  0.35698994659E+03  0.45013975052E+03  0.27419696029E+03 0.  0.
         25    2    3    3    0    0 -0.45871221563E+02 -0.15063331771E+02  0.14020421832E+03  0.19564286875E+03  0.12762380783E+03 0.  0.
         25    2    3    3    0    0  0.45871221563E+02  0.15063331771E+02  0.21678572827E+03  0.25449688178E+03  0.12426398481E+03 0.  0.
          5    1    4    4  502    0  0.18600658056E+02  0.16811019710E+02 -0.11276445794E+02  0.27889838536E+02  0.47000000000E+01 0. -1.
         -5    1    4    4    0  502 -0.64471879619E+02 -0.31874351481E+02  0.15148066412E+03  0.16775303021E+03  0.47000000000E+01 0. -1.
          5    1    5    5  503    0 -0.16099539325E+01 -0.46903669888E+02  0.42587042286E+02  0.63547559916E+02  0.47000000000E+01 0.  1.
         -5    1    5    5    0  503  0.47481175495E+02  0.61967001659E+02  0.17419868598E+03  0.19094932186E+03  0.47000000000E+01 0.  1.
<mgrwt>
<rscale>  0 0.27419696E+03</rscale>
<asrwt>0</asrwt>
<pdfrwt beam="1">  1        1 0.71653698E-02 0.27419696E+03</pdfrwt>
<pdfrwt beam="2">  1       -1 0.62086898E-01 0.27419696E+03</pdfrwt>
<totfact> 0.27420219E+03</totfact>
</mgrwt>
</event>
<event>
 9    1  0.2065703E-002  0.2773178E+03  0.7818608E-02  0.1097163E+00
          2   -1    0    0  501    0  0.00000000000E+00  0.00000000000E+00  0.71680029781E+03  0.71680029781E+03  0.00000000000E+00 0.  1.
         -2   -1    0    0    0  501 -0.00000000000E+00 -0.00000000000E+00 -0.26822379020E+02  0.26822379020E+02  0.00000000000E+00 0.  1.
         36    2    1    2    0    0  0.00000000000E+00  0.00000000000E+00  0.68997791879E+03  0.74362267683E+03  0.27731779077E+03 0.  0.
         25    2    3    3    0    0  0.30519763420E+02 -0.36266278491E+02  0.44984648410E+03  0.47019133337E+03  0.12834068647E+03 0.  0.
         25    2    3    3    0    0 -0.30519763420E+02  0.36266278491E+02  0.24013143470E+03  0.27343134347E+03  0.12188065780E+03 0.  0.
          5    1    4    4  502    0  0.56933389427E+02  0.29937226489E+02  0.24025252026E+03  0.24875894326E+03  0.47000000000E+01 0.  1.
         -5    1    4    4    0  502 -0.26413626007E+02 -0.66203504980E+02  0.20959396384E+03  0.22143239011E+03  0.47000000000E+01 0.  1.
          5    1    5    5  503    0 -0.29565220025E+01 -0.35308737149E+02  0.21550889635E+02  0.41737019365E+02  0.47000000000E+01 0.  1.
         -5    1    5    5    0  503 -0.27563241418E+02  0.71575015640E+02  0.21858054506E+03  0.23169432410E+03  0.47000000000E+01 0.  1.
<mgrwt>
<rscale>  0 0.27731779E+03</rscale>
<asrwt>0</asrwt>
<pdfrwt beam="1">  1        2 0.11027695E+00 0.27731779E+03</pdfrwt>
<pdfrwt beam="2">  1       -2 0.41265204E-02 0.27731779E+03</pdfrwt>
<totfact> 0.10643502E+04</totfact>
</mgrwt>
</event>
<event>
 9    1  0.2065703E-002  0.2744870E+03  0.7818608E-02  0.1098739E+00
          1   -1    0    0  501    0  0.00000000000E+00  0.00000000000E+00  0.19648016922E+03  0.19648016922E+03  0.00000000000E+00 0. -1.
         -1   -1    0    0    0  501 -0.00000000000E+00 -0.00000000000E+00 -0.95866054417E+02  0.95866054417E+02  0.00000000000E+00 0. -1.
         36    2    1    2    0    0  0.71054273576E-14  0.71054273576E-14  0.10061411480E+03  0.29234622364E+03  0.27448700220E+03 0.  0.
         25    2    3    3    0    0 -0.47941753328E+02 -0.17599309767E+02  0.56451200726E+02  0.15014341864E+03  0.12941468495E+03 0.  0.
         25    2    3    3    0    0  0.47941753328E+02  0.17599309767E+02  0.44162914077E+02  0.14220280500E+03  0.12515241649E+03 0.  0.
          5    1    4    4  502    0  0.44922955862E+00  0.39055554639E+02  0.63981562780E+02  0.75108378568E+02  0.47000000000E+01 0.  1.
         -5    1    4    4    0  502 -0.48390982887E+02 -0.56654864406E+02 -0.75303620542E+01  0.75035040070E+02  0.47000000000E+01 0.  1.
          5    1    5    5  503    0  0.35279114593E+02 -0.47061724278E+02  0.47959696190E+02  0.76037124334E+02  0.47000000000E+01 0. -1.
         -5    1    5    5    0  503  0.12662638735E+02  0.64661034045E+02 -0.37967821129E+01  0.66165680665E+02  0.47000000000E+01 0. -1.
<mgrwt>
<rscale>  0 0.27448700E+03</rscale>
<asrwt>0</asrwt>
<pdfrwt beam="1">  1        1 0.30227718E-01 0.27448700E+03</pdfrwt>
<pdfrwt beam="2">  1       -1 0.14748624E-01 0.27448700E+03</pdfrwt>
<totfact> 0.49195268E+03</totfact>
</mgrwt>
</event>
<event>
 9    1  0.2065703E-002  0.2745060E+03  0.7818608E-02  0.1098728E+00
          1   -1    0    0  501    0  0.00000000000E+00  0.00000000000E+00  0.40349743571E+03  0.40349743571E+03  0.00000000000E+00 0. -1.
         -1   -1    0    0    0  501 -0.00000000000E+00 -0.00000000000E+00 -0.46687732070E+02  0.46687732070E+02  0.00000000000E+00 0. -1.
         36    2    1    2    0    0  0.00000000000E+00  0.71054273576E-14  0.35680970364E+03  0.45018516778E+03  0.27450595745E+03 0.  0.
         25    2    3    3    0    0 -0.17570094810E+02 -0.24405561343E+01  0.23336845755E+03  0.26530512488E+03  0.12494521905E+03 0.  0.
         25    2    3    3    0    0  0.17570094810E+02  0.24405561343E+01  0.12344124609E+03  0.18488004290E+03  0.13648525371E+03 0.  0.
          5    1    4    4  502    0 -0.44002653241E+02 -0.29410703542E+02  0.21780208390E+03  0.22418978729E+03  0.47000000000E+01 0.  1.
         -5    1    4    4    0  502  0.26432558432E+02  0.26970147408E+02  0.15566373651E+02  0.41115337589E+02  0.47000000000E+01 0.  1.
          5    1    5    5  503    0  0.40370825884E+02  0.55263369409E+02  0.29616992881E+02  0.74720143524E+02  0.47000000000E+01 0.  1.
         -5    1    5    5    0  503 -0.22800731075E+02 -0.52822813274E+02  0.93824253210E+02  0.11015989937E+03  0.47000000000E+01 0.  1.
<mgrwt>
<rscale>  0 0.27450596E+03</rscale>
<asrwt>0</asrwt>
<pdfrwt beam="1">  1        1 0.62076526E-01 0.27450596E+03</pdfrwt>
<pdfrwt beam="2">  1       -1 0.71827283E-02 0.27450596E+03</pdfrwt>
<totfact> 0.60499565E+03</totfact>
</mgrwt>
</event>
<event>
 9    1  0.2065703E-002  0.2749973E+03  0.7818608E-02  0.1098453E+00
          1   -1    0    0  501    0  0.00000000000E+00  0.00000000000E+00  0.39897410780E+03  0.39897410780E+03  0.00000000000E+00 0.  1.
         -1   -1    0    0    0  501 -0.00000000000E+00 -0.00000000000E+00 -0.47386241137E+02  0.47386241137E+02  0.00000000000E+00 0.  1.
         36    2    1    2    0    0  0.00000000000E+00  0.17763568394E-14  0.35158786667E+03  0.44636034894E+03  0.27499733293E+03 0.  0.
         25    2    3    3    0    0  0.20519278524E+02  0.27073795796E+01  0.25742704700E+03  0.28732154719E+03  0.12592305689E+03 0.  0.
         25    2    3    3    0    0 -0.20519278524E+02 -0.27073795796E+01  0.94160819664E+02  0.15903880175E+03  0.12648600637E+03 0.  0.
          5    1    4    4  502    0  0.63493609098E+02 -0.10740740235E+02  0.21775280721E+03  0.22712370406E+03  0.47000000000E+01 0. -1.
         -5    1    4    4    0  502 -0.42974330574E+02  0.13448119815E+02  0.39674239791E+02  0.60197843133E+02  0.47000000000E+01 0. -1.
          5    1    5    5  503    0 -0.41464967396E+02 -0.45700260305E+02  0.10803950606E+02  0.62822548992E+02  0.47000000000E+01 0.  1.
         -5    1    5    5    0  503  0.20945688872E+02  0.42992880726E+02  0.83356869058E+02  0.96216252757E+02  0.47000000000E+01 0.  1.
<mgrwt>
<rscale>  0 0.27499733E+03</rscale>
<asrwt>0</asrwt>
<pdfrwt beam="1">  1        1 0.61380630E-01 0.27499733E+03</pdfrwt>
<pdfrwt beam="2">  1       -1 0.72901912E-02 0.27499733E+03</pdfrwt>
<totfact> 0.60014256E+03</totfact>
</mgrwt>
</event>
<event>
 9    1  0.2065703E-002  0.2702939E+03  0.7818608E-02  0.1101112E+00
         -2   -1    0    0    0  501 -0.00000000000E+00  0.00000000000E+00  0.32845733290E+02  0.32845733290E+02  0.00000000000E+00 0.  1.
          2   -1    0    0  501    0  0.00000000000E+00 -0.00000000000E+00 -0.55607516707E+03  0.55607516707E+03  0.00000000000E+00 0.  1.
         36    2    1    2    0    0 -0.71054273576E-14  0.00000000000E+00 -0.52322943378E+03  0.58892090036E+03  0.27029388914E+03 0.  0.
         25    2    3    3    0    0  0.85381583407E+01  0.17102378545E+02 -0.16058060671E+03  0.20465177638E+03  0.12542259295E+03 0.  0.
         25    2    3    3    0    0 -0.85381583407E+01 -0.17102378545E+02 -0.36264882707E+03  0.38426912398E+03  0.12563119187E+03 0.  0.
          5    1    4    4  502    0 -0.39929377982E+02 -0.16300305322E+02 -0.12372972345E+02  0.45113585806E+02  0.47000000000E+01 0. -1.
         -5    1    4    4    0  502  0.48467536323E+02  0.33402683867E+02 -0.14820763437E+03  0.15953819057E+03  0.47000000000E+01 0. -1.
          5    1    5    5  503    0 -0.53518893916E+02 -0.43459182569E+02 -0.26023610881E+03  0.26925433123E+03  0.47000000000E+01 0. -1.
         -5    1    5    5    0  503  0.44980735575E+02  0.26356804023E+02 -0.10241271826E+03  0.11501479275E+03  0.47000000000E+01 0. -1.
<mgrwt>
<rscale>  0 0.27029389E+03</rscale>
<asrwt>0</asrwt>
<pdfrwt beam="1">  1        2 0.85550017E-01 0.27029389E+03</pdfrwt>
<pdfrwt beam="2">  1       -2 0.50531902E-02 0.27029389E+03</pdfrwt>
<totfact> 0.10555888E+04</totfact>
</mgrwt>
</event>
<event>
 9    1  0.2065703E-002  0.2756532E+03  0.7818608E-02  0.1098087E+00
         -1   -1    0    0    0  501 -0.00000000000E+00  0.00000000000E+00  0.10088658557E+03  0.10088658557E+03  0.00000000000E+00 0.  1.
          1   -1    0    0  501    0  0.00000000000E+00 -0.00000000000E+00 -0.18829234953E+03  0.18829234953E+03  0.00000000000E+00 0.  1.
         36    2    1    2    0    0  0.14210854715E-13 -0.22204460493E-14 -0.87405763957E+02  0.28917893510E+03  0.27565320410E+03 0.  0.
         25    2    3    3    0    0  0.35950204090E+02  0.38276881073E+01 -0.83088678815E+02  0.15628044103E+03  0.12732941268E+03 0.  0.
         25    2    3    3    0    0 -0.35950204090E+02 -0.38276881073E+01 -0.43170851423E+01  0.13289849407E+03  0.12781355222E+03 0.  0.
          5    1    4    4  502    0  0.68375446516E+02  0.76039145187E+01 -0.98207483812E+02  0.11999925449E+03  0.47000000000E+01 0. -1.
         -5    1    4    4    0  502 -0.32425242426E+02 -0.37762264114E+01  0.15118804998E+02  0.36281186541E+02  0.47000000000E+01 0. -1.
          5    1    5    5  503    0  0.34763196477E+02 -0.36649494604E+02  0.14100733425E+02  0.52655350793E+02  0.47000000000E+01 0.  1.
         -5    1    5    5    0  503 -0.70713400567E+02  0.32821806497E+02 -0.18417818568E+02  0.80243143273E+02  0.47000000000E+01 0.  1.
<mgrwt>
<rscale>  0 0.27565320E+03</rscale>
<asrwt>0</asrwt>
<pdfrwt beam="1">  1        1 0.28968053E-01 0.27565320E+03</pdfrwt>
<pdfrwt beam="2">  1       -1 0.15521013E-01 0.27565320E+03</pdfrwt>
<totfact> 0.47876414E+03</totfact>
</mgrwt>
</event>
<event>
 9    1  0.2065703E-002  0.2744403E+03  0.7818608E-02  0.1098765E+00
         -1   -1    0    0    0  501 -0.00000000000E+00  0.00000000000E+00  0.61755400207E+02  0.61755400207E+02  0.00000000000E+00 0. -1.
          1   -1    0    0  501    0  0.00000000000E+00 -0.00000000000E+00 -0.30490240634E+03  0.30490240634E+03  0.00000000000E+00 0. -1.
         36    2    1    2    0    0  0.00000000000E+00 -0.35527136788E-14 -0.24314700613E+03  0.36665780655E+03  0.27444030409E+03 0.  0.
         25    2    3    3    0    0  0.49059917605E+02  0.24716652695E+01 -0.16277051900E+03  0.21148027819E+03  0.12576438909E+03 0.  0.
         25    2    3    3    0    0 -0.49059917605E+02 -0.24716652695E+01 -0.80376487130E+02  0.15517752835E+03  0.12331545312E+03 0.  0.
          5    1    4    4  502    0  0.50564877545E+02  0.25605132272E+02 -0.11061821061E+02  0.57938618598E+02  0.47000000000E+01 0. -1.
         -5    1    4    4    0  502 -0.15049599406E+01 -0.23133467003E+02 -0.15170869794E+03  0.15354165959E+03  0.47000000000E+01 0. -1.
          5    1    5    5  503    0 -0.44518204837E+02 -0.53005678116E+02 -0.12812321393E+02  0.70552945041E+02  0.47000000000E+01 0.  1.
         -5    1    5    5    0  503 -0.45417127679E+01  0.50534012847E+02 -0.67564165737E+02  0.84624583313E+02  0.47000000000E+01 0.  1.
<mgrwt>
<rscale>  0 0.27444030E+03</rscale>
<asrwt>0</asrwt>
<pdfrwt beam="1">  1        1 0.46908063E-01 0.27444030E+03</pdfrwt>
<pdfrwt beam="2">  1       -1 0.95008307E-02 0.27444030E+03</pdfrwt>
<totfact> 0.56275746E+03</totfact>
</mgrwt>
</event>
<event>
 9    1  0.2065703E-002  0.2751114E+03  0.7818608E-02  0.1098389E+00
         -1   -1    0    0    0  501 -0.00000000000E+00  0.00000000000E+00  0.22631137909E+02  0.22631137909E+02  0.00000000000E+00 0.  1.
          1   -1    0    0  501    0  0.00000000000E+00 -0.00000000000E+00 -0.83608599581E+03  0.83608599581E+03  0.00000000000E+00 0.  1.
         36    2    1    2    0    0 -0.14210854715E-13  0.00000000000E+00 -0.81345485790E+03  0.85871713372E+03  0.27511144996E+03 0.  0.
         25    2    3    3    0    0 -0.39841382059E+02 -0.39268357700E+02 -0.42116444069E+03  0.44332883225E+03  0.12661606439E+03 0.  0.
         25    2    3    3    0    0  0.39841382059E+02  0.39268357700E+02 -0.39229041721E+03  0.41538830147E+03  0.12460469462E+03 0.  0.
          5    1    4    4  502    0  0.16102036558E+02 -0.10913565202E+02 -0.27337387698E+01  0.20197643784E+02  0.47000000000E+01 0.  1.
         -5    1    4    4    0  502 -0.55943418618E+02 -0.28354792498E+02 -0.41843070192E+03  0.42313118847E+03  0.47000000000E+01 0.  1.
          5    1    5    5  503    0  0.68084790024E+02  0.19282287236E+01 -0.33180142866E+03  0.33875291107E+03  0.47000000000E+01 0. -1.
         -5    1    5    5    0  503 -0.28243407965E+02  0.37340128977E+02 -0.60488988551E+02  0.76635390398E+02  0.47000000000E+01 0. -1.
<mgrwt>
<rscale>  0 0.27511145E+03</rscale>
<asrwt>0</asrwt>
<pdfrwt beam="1">  1        1 0.12862859E+00 0.27511145E+03</pdfrwt>
<pdfrwt beam="2">  1       -1 0.34817141E-02 0.27511145E+03</pdfrwt>
<totfact> 0.64921521E+03</totfact>
</mgrwt>
</event>
<event>
 9    1  0.2065703E-002  0.2742135E+03  0.7818608E-02  0.1098892E+00
         -1   -1    0    0    0  501 -0.00000000000E+00  0.00000000000E+00  0.71299126028E+02  0.71299126028E+02  0.00000000000E+00 0. -1.
          1   -1    0    0  501    0  0.00000000000E+00 -0.00000000000E+00 -0.26365344771E+03  0.26365344771E+03  0.00000000000E+00 0. -1.
         36    2    1    2    0    0  0.00000000000E+00  0.14210854715E-13 -0.19235432168E+03  0.33495257374E+03  0.27421349636E+03 0.  0.
         25    2    3    3    0    0 -0.11167687879E+02  0.36173570785E+02 -0.14188264137E+03  0.19435187328E+03  0.12731348024E+03 0.  0.
         25    2    3    3    0    0  0.11167687879E+02 -0.36173570785E+02 -0.50471680313E+02  0.14060070046E+03  0.12564999793E+03 0.  0.
          5    1    4    4  502    0 -0.35006046038E+02 -0.21170180168E+02 -0.19950165823E+01  0.41227052753E+02  0.47000000000E+01 0.  1.
         -5    1    4    4    0  502  0.23838358159E+02  0.57343750953E+02 -0.13988762479E+03  0.15312482053E+03  0.47000000000E+01 0.  1.
          5    1    5    5  503    0  0.63227730780E+02 -0.11747691935E+02 -0.52071833488E+02  0.82881361284E+02  0.47000000000E+01 0. -1.
         -5    1    5    5    0  503 -0.52060042901E+02 -0.24425878850E+02  0.16001531755E+01  0.57719339173E+02  0.47000000000E+01 0. -1.
<mgrwt>
<rscale>  0 0.27421350E+03</rscale>
<asrwt>0</asrwt>
<pdfrwt beam="1">  1        1 0.40562068E-01 0.27421350E+03</pdfrwt>
<pdfrwt beam="2">  1       -1 0.10969096E-01 0.27421350E+03</pdfrwt>
<totfact> 0.54078665E+03</totfact>
</mgrwt>
</event>
<event>
 9    1  0.2065703E-002  0.2710292E+03  0.7818608E-02  0.1100692E+00
          3   -1    0    0  501    0  0.00000000000E+00  0.00000000000E+00  0.73095769136E+02  0.73095769136E+02  0.00000000000E+00 0. -1.
         -3   -1    0    0    0  501 -0.00000000000E+00 -0.00000000000E+00 -0.25123488205E+03  0.25123488205E+03  0.00000000000E+00 0. -1.
         36    2    1    2    0    0  0.00000000000E+00 -0.71054273576E-14 -0.17813911292E+03  0.32433065119E+03  0.27102920092E+03 0.  0.
         25    2    3    3    0    0  0.18330783133E+02 -0.34289579212E+02 -0.10747090351E+03  0.16904544526E+03  0.12455751526E+03 0.  0.
         25    2    3    3    0    0 -0.18330783133E+02  0.34289579212E+02 -0.70668209407E+02  0.15528520593E+03  0.13269403343E+03 0.  0.
          5    1    4    4  502    0  0.61336313079E+02  0.14960362158E+02 -0.66113037597E+02  0.91536765719E+02  0.47000000000E+01 0.  1.
         -5    1    4    4    0  502 -0.43005529947E+02 -0.49249941370E+02 -0.41357865915E+02  0.77508679539E+02  0.47000000000E+01 0.  1.
          5    1    5    5  503    0  0.46346469878E+02 -0.18360867240E+02 -0.46488621306E+02  0.68325680581E+02  0.47000000000E+01 0. -1.
         -5    1    5    5    0  503 -0.64677253011E+02  0.52650446452E+02 -0.24179588102E+02  0.86959525352E+02  0.47000000000E+01 0. -1.
<mgrwt>
<rscale>  0 0.27102920E+03</rscale>
<asrwt>0</asrwt>
<pdfrwt beam="1">  1        3 0.11245503E-01 0.27102920E+03</pdfrwt>
<pdfrwt beam="2">  1       -3 0.38651520E-01 0.27102920E+03</pdfrwt>
<totfact> 0.10214964E+03</totfact>
</mgrwt>
</event>
<event>
 9    1  0.2065703E-002  0.2746067E+03  0.7818608E-02  0.1098672E+00
          1   -1    0    0  501    0  0.00000000000E+00  0.00000000000E+00  0.34883758622E+03  0.34883758622E+03  0.00000000000E+00 0.  1.
         -1   -1    0    0    0  501 -0.00000000000E+00 -0.00000000000E+00 -0.54042960068E+02  0.54042960068E+02  0.00000000000E+00 0.  1.
         36    2    1    2    0    0 -0.71054273576E-14  0.71054273576E-14  0.29479462615E+03  0.40288054629E+03  0.27460674239E+03 0.  0.
         25    2    3    3    0    0 -0.29691557952E+02  0.40469148745E+02  0.12020055650E+03  0.18120154437E+03  0.12596223754E+03 0.  0.
         25    2    3    3    0    0  0.29691557952E+02 -0.40469148745E+02  0.17459406965E+03  0.22167900192E+03  0.12703995482E+03 0.  0.
          5    1    4    4  502    0  0.44085327552E+02  0.24022117844E+02  0.82285738775E+02  0.96507051850E+02  0.47000000000E+01 0.  1.
         -5    1    4    4    0  502 -0.73776885503E+02  0.16447030902E+02  0.37914817724E+02  0.84694492519E+02  0.47000000000E+01 0.  1.
          5    1    5    5  503    0  0.80021810888E+01 -0.85014553472E+02  0.95152919009E+02  0.12793622317E+03  0.47000000000E+01 0. -1.
         -5    1    5    5    0  503  0.21689376863E+02  0.44545404726E+02  0.79441150642E+02  0.93742778742E+02  0.47000000000E+01 0. -1.
<mgrwt>
<rscale>  0 0.27460674E+03</rscale>
<asrwt>0</asrwt>
<pdfrwt beam="1">  1        1 0.53667319E-01 0.27460674E+03</pdfrwt>
<pdfrwt beam="2">  1       -1 0.83143018E-02 0.27460674E+03</pdfrwt>
<totfact> 0.58274678E+03</totfact>
</mgrwt>
</event>
<event>
 9    1  0.2065703E-002  0.2739404E+03  0.7818608E-02  0.1099045E+00
          2   -1    0    0  501    0  0.00000000000E+00  0.00000000000E+00  0.92084732328E+03  0.92084732328E+03  0.00000000000E+00 0.  1.
         -2   -1    0    0    0  501 -0.00000000000E+00 -0.00000000000E+00 -0.20373455134E+02  0.20373455134E+02  0.00000000000E+00 0.  1.
         36    2    1    2    0    0  0.00000000000E+00  0.00000000000E+00  0.90047386814E+03  0.94122077841E+03  0.27394044335E+03 0.  0.
         25    2    3    3    0    0  0.26831915018E+02  0.25826860085E+02  0.57982286933E+03  0.59388443442E+03  0.12295195517E+03 0.  0.
         25    2    3    3    0    0 -0.26831915018E+02 -0.25826860085E+02  0.32065099881E+03  0.34733634399E+03  0.12821269225E+03 0.  0.
          5    1    4    4  502    0 -0.15123102829E+02  0.63735800164E+02  0.39899190096E+03  0.40436071458E+03  0.47000000000E+01 0. -1.
         -5    1    4    4    0  502  0.41955017847E+02 -0.37908940079E+02  0.18083096837E+03  0.18952371984E+03  0.47000000000E+01 0. -1.
          5    1    5    5  503    0  0.24634974472E+02  0.39893305955E+02  0.15136297339E+03  0.15852822317E+03  0.47000000000E+01 0.  1.
         -5    1    5    5    0  503 -0.51466889490E+02 -0.65720166039E+02  0.16928802542E+03  0.18880812082E+03  0.47000000000E+01 0.  1.
<mgrwt>
<rscale>  0 0.27394044E+03</rscale>
<asrwt>0</asrwt>
<pdfrwt beam="1">  1        2 0.14166879E+00 0.27394044E+03</pdfrwt>
<pdfrwt beam="2">  1       -2 0.31343784E-02 0.27394044E+03</pdfrwt>
<totfact> 0.11647064E+04</totfact>
</mgrwt>
</event>
<event>
 9    1  0.2065703E-002  0.2749279E+03  0.7818608E-02  0.1098492E+00
          1   -1    0    0  501    0  0.00000000000E+00  0.00000000000E+00  0.73979836475E+02  0.73979836475E+02  0.00000000000E+00 0. -1.
         -1   -1    0    0    0  501 -0.00000000000E+00 -0.00000000000E+00 -0.25542548116E+03  0.25542548116E+03  0.00000000000E+00 0. -1.
         36    2    1    2    0    0  0.00000000000E+00 -0.71054273576E-14 -0.18144564469E+03  0.32940531764E+03  0.27492788384E+03 0.  0.
         25    2    3    3    0    0  0.24983420601E+02 -0.22875165690E+02 -0.33069298381E+02  0.13361677043E+03  0.12494966320E+03 0.  0.
         25    2    3    3    0    0 -0.24983420601E+02  0.22875165690E+02 -0.14837634631E+03  0.19578854721E+03  0.12316724632E+03 0.  0.
          5    1    4    4  502    0  0.19710587523E+02  0.48945133230E+02 -0.31089184289E+02  0.61422802828E+02  0.47000000000E+01 0.  1.
         -5    1    4    4    0  502  0.52728330779E+01 -0.71820298921E+02 -0.19801140918E+01  0.72193967598E+02  0.47000000000E+01 0.  1.
          5    1    5    5  503    0 -0.33546839610E+02  0.65939015504E+02 -0.12623087797E+03  0.14638875901E+03  0.47000000000E+01 0. -1.
         -5    1    5    5    0  503  0.85634190094E+01 -0.43063849814E+02 -0.22145468340E+02  0.49399788197E+02  0.47000000000E+01 0. -1.
<mgrwt>
<rscale>  0 0.27492788E+03</rscale>
<asrwt>0</asrwt>
<pdfrwt beam="1">  1        1 0.11381513E-01 0.27492788E+03</pdfrwt>
<pdfrwt beam="2">  1       -1 0.39296228E-01 0.27492788E+03</pdfrwt>
<totfact> 0.34174459E+03</totfact>
</mgrwt>
</event>
<event>
 9    1  0.2065703E-002  0.2737663E+03  0.7818608E-02  0.1099143E+00
         -2   -1    0    0    0  501 -0.00000000000E+00  0.00000000000E+00  0.31794025365E+03  0.31794025365E+03  0.00000000000E+00 0.  1.
          2   -1    0    0  501    0  0.00000000000E+00 -0.00000000000E+00 -0.58932435725E+02  0.58932435725E+02  0.00000000000E+00 0.  1.
         36    2    1    2    0    0  0.14210854715E-13  0.71054273576E-14  0.25900781792E+03  0.37687268937E+03  0.27376627668E+03 0.  0.
         25    2    3    3    0    0 -0.53925431131E+02  0.21537040492E+02  0.13985993612E+03  0.19543847703E+03  0.12354594424E+03 0.  0.
         25    2    3    3    0    0  0.53925431131E+02 -0.21537040492E+02  0.11914788180E+03  0.18143421234E+03  0.12389656748E+03 0.  0.
          5    1    4    4  502    0 -0.77913132180E+02 -0.23928391976E+02  0.10562393460E+03  0.13349730211E+03  0.47000000000E+01 0. -1.
         -5    1    4    4    0  502  0.23987701049E+02  0.45465432468E+02  0.34236001514E+02  0.61941174923E+02  0.47000000000E+01 0. -1.
          5    1    5    5  503    0 -0.69640058716E+01 -0.62499831985E+02  0.49770090045E+02  0.80336033254E+02  0.47000000000E+01 0. -1.
         -5    1    5    5    0  503  0.60889437002E+02  0.40962791493E+02  0.69377791759E+02  0.10109817909E+03  0.47000000000E+01 0. -1.
<mgrwt>
<rscale>  0 0.27376628E+03</rscale>
<asrwt>0</asrwt>
<pdfrwt beam="1">  1        2 0.90665287E-02 0.27376628E+03</pdfrwt>
<pdfrwt beam="2">  1       -2 0.48913884E-01 0.27376628E+03</pdfrwt>
<totfact> 0.28989425E+03</totfact>
</mgrwt>
</event>
<event>
 9    1  0.2065703E-002  0.2758393E+03  0.7818608E-02  0.1097983E+00
         -2   -1    0    0    0  501 -0.00000000000E+00  0.00000000000E+00  0.12342108942E+02  0.12342108942E+02  0.00000000000E+00 0. -1.
          2   -1    0    0  501    0  0.00000000000E+00 -0.00000000000E+00 -0.15412141036E+04  0.15412141036E+04  0.00000000000E+00 0. -1.
         36    2    1    2    0    0 -0.71054273576E-14  0.71054273576E-14 -0.15288719946E+04  0.15535562125E+04  0.27583931822E+03 0.  0.
         25    2    3    3    0    0  0.41753247889E+02 -0.34046383559E+02 -0.88455912978E+03  0.89454130673E+03  0.12188849592E+03 0.  0.
         25    2    3    3    0    0 -0.41753247889E+02  0.34046383559E+02 -0.64431286487E+03  0.65901490580E+03  0.12751113004E+03 0.  0.
          5    1    4    4  502    0  0.31529263709E+02 -0.26681726797E+02 -0.87901105270E+03  0.87999348280E+03  0.47000000000E+01 0.  1.
         -5    1    4    4    0  502  0.10223984180E+02 -0.73646567622E+01 -0.55480770782E+01  0.14547823927E+02  0.47000000000E+01 0.  1.
          5    1    5    5  503    0 -0.43621641377E+02  0.57569963362E+02 -0.62200885737E+03  0.62620624152E+03  0.47000000000E+01 0.  1.
         -5    1    5    5    0  503  0.18683934885E+01 -0.23523579803E+02 -0.22304007507E+02  0.32808664281E+02  0.47000000000E+01 0.  1.
<mgrwt>
<rscale>  0 0.27583932E+03</rscale>
<asrwt>0</asrwt>
<pdfrwt beam="1">  1        2 0.23710963E+00 0.27583932E+03</pdfrwt>
<pdfrwt beam="2">  1       -2 0.18987878E-02 0.27583932E+03</pdfrwt>
<totfact> 0.10823418E+04</totfact>
</mgrwt>
</event>
<event>
 9    1  0.2065703E-002  0.2746286E+03  0.7818608E-02  0.1098659E+00
         -2   -1    0    0    0  501 -0.00000000000E+00  0.00000000000E+00  0.24691005682E+02  0.24691005682E+02  0.00000000000E+00 0. -1.
          2   -1    0    0  501    0  0.00000000000E+00 -0.00000000000E+00 -0.76364709803E+03  0.76364709803E+03  0.00000000000E+00 0. -1.
         36    2    1    2    0    0  0.71054273576E-14 -0.17763568394E-14 -0.73895609235E+03  0.78833810371E+03  0.27462858436E+03 0.  0.
         25    2    3    3    0    0 -0.40171258442E+02  0.11906353655E+02 -0.48465679494E+03  0.50171143473E+03  0.12274633842E+03 0.  0.
         25    2    3    3    0    0  0.40171258442E+02 -0.11906353655E+02 -0.25429929741E+03  0.28662666898E+03  0.12542417409E+03 0.  0.
          5    1    4    4  502    0 -0.63309708840E+02  0.88006145164E+00 -0.46436165340E+03  0.46868190587E+03  0.47000000000E+01 0.  1.
         -5    1    4    4    0  502  0.23138450398E+02  0.11026292203E+02 -0.20295141538E+02  0.33029528859E+02  0.47000000000E+01 0.  1.
          5    1    5    5  503    0  0.63961406671E+02 -0.27413985766E+02 -0.65617451954E+02  0.95761830391E+02  0.47000000000E+01 0.  1.
         -5    1    5    5    0  503 -0.23790148229E+02  0.15507632111E+02 -0.18868184545E+03  0.19086483859E+03  0.47000000000E+01 0.  1.
<mgrwt>
<rscale>  0 0.27462858E+03</rscale>
<asrwt>0</asrwt>
<pdfrwt beam="1">  1        2 0.11748417E+00 0.27462858E+03</pdfrwt>
<pdfrwt beam="2">  1       -2 0.37986162E-02 0.27462858E+03</pdfrwt>
<totfact> 0.11143097E+04</totfact>
</mgrwt>
</event>
<event>
 9    1  0.2065703E-002  0.2742901E+03  0.7818608E-02  0.1098849E+00
         -1   -1    0    0    0  501 -0.00000000000E+00  0.00000000000E+00  0.18660188725E+02  0.18660188725E+02  0.00000000000E+00 0. -1.
          1   -1    0    0  501    0  0.00000000000E+00 -0.00000000000E+00 -0.10079622144E+04  0.10079622144E+04  0.00000000000E+00 0. -1.
         36    2    1    2    0    0  0.00000000000E+00  0.71054273576E-14 -0.98930202570E+03  0.10266224031E+04  0.27429010298E+03 0.  0.
         25    2    3    3    0    0 -0.91739358089E+00 -0.58508318251E+02 -0.29939905078E+03  0.32304109829E+03  0.10626238591E+03 0.  0.
         25    2    3    3    0    0  0.91739358089E+00  0.58508318251E+02 -0.68990297492E+03  0.70358130486E+03  0.12504588290E+03 0.  0.
          5    1    4    4  502    0 -0.15156645287E+02 -0.72450408696E+02 -0.29199691049E+03  0.30126910123E+03  0.47000000000E+01 0.  1.
         -5    1    4    4    0  502  0.14239251706E+02  0.13942090445E+02 -0.74021402832E+01  0.21771997058E+02  0.47000000000E+01 0.  1.
          5    1    5    5  503    0 -0.22817694769E+02  0.92687321886E+02 -0.44800458383E+03  0.45808490912E+03  0.47000000000E+01 0. -1.
         -5    1    5    5    0  503  0.23735088350E+02 -0.34179003636E+02 -0.24189839110E+03  0.24549639574E+03  0.47000000000E+01 0. -1.
<mgrwt>
<rscale>  0 0.27429010E+03</rscale>
<asrwt>0</asrwt>
<pdfrwt beam="1">  1        1 0.15507111E+00 0.27429010E+03</pdfrwt>
<pdfrwt beam="2">  1       -1 0.28707984E-02 0.27429010E+03</pdfrwt>
<totfact> 0.63451981E+03</totfact>
</mgrwt>
</event>
<event>
 9    1  0.2065703E-002  0.2739696E+03  0.7818608E-02  0.1099029E+00
          1   -1    0    0  501    0  0.00000000000E+00  0.00000000000E+00  0.18285836798E+03  0.18285836798E+03  0.00000000000E+00 0.  1.
         -1   -1    0    0    0  501 -0.00000000000E+00 -0.00000000000E+00 -0.10261947525E+03  0.10261947525E+03  0.00000000000E+00 0.  1.
         36    2    1    2    0    0  0.71054273576E-14  0.71054273576E-14  0.80238892731E+02  0.28547784324E+03  0.27396955866E+03 0.  0.
         25    2    3    3    0    0 -0.53630465733E+02 -0.21904774119E+02  0.46776607890E+02  0.14327227663E+03  0.12240444527E+03 0.  0.
         25    2    3    3    0    0  0.53630465733E+02  0.21904774119E+02  0.33462284842E+02  0.14220556660E+03  0.12548566724E+03 0.  0.
          5    1    4    4  502    0 -0.50942549467E+02 -0.15412151930E+02 -0.33164091597E+02  0.62885807181E+02  0.47000000000E+01 0.  1.
         -5    1    4    4    0  502 -0.26879162651E+01 -0.64926221896E+01  0.79940699487E+02  0.80386469454E+02  0.47000000000E+01 0.  1.
          5    1    5    5  503    0  0.58009203412E+02  0.21505485425E+02  0.76608206725E+02  0.98582254597E+02  0.47000000000E+01 0. -1.
         -5    1    5    5    0  503 -0.43787376791E+01  0.39928869469E+00 -0.43145921883E+02  0.43623312005E+02  0.47000000000E+01 0. -1.
<mgrwt>
<rscale>  0 0.27396956E+03</rscale>
<asrwt>0</asrwt>
<pdfrwt beam="1">  1        1 0.28132057E-01 0.27396956E+03</pdfrwt>
<pdfrwt beam="2">  1       -1 0.15787612E-01 0.27396956E+03</pdfrwt>
<totfact> 0.48343736E+03</totfact>
</mgrwt>
</event>
<event>
 9    1  0.2065703E-002  0.2754631E+03  0.7818608E-02  0.1098193E+00
         -4   -1    0    0    0  501 -0.00000000000E+00  0.00000000000E+00  0.51925369344E+02  0.51925369344E+02  0.00000000000E+00 0.  1.
          4   -1    0    0  501    0  0.00000000000E+00 -0.00000000000E+00 -0.36533154013E+03  0.36533154013E+03  0.00000000000E+00 0.  1.
         36    2    1    2    0    0  0.35527136788E-14  0.00000000000E+00 -0.31340617078E+03  0.41725690947E+03  0.27546306579E+03 0.  0.
         25    2    3    3    0    0 -0.12431289032E+02 -0.59365582875E+02 -0.19717142914E+03  0.23919749735E+03  0.12107873839E+03 0.  0.
         25    2    3    3    0    0  0.12431289032E+02  0.59365582875E+02 -0.11623474164E+03  0.17805941212E+03  0.12048165713E+03 0.  0.
          5    1    4    4  502    0  0.40544031738E+02 -0.44990400085E+02 -0.16400298361E+03  0.17489146132E+03  0.47000000000E+01 0. -1.
         -5    1    4    4    0  502 -0.52975320770E+02 -0.14375182790E+02 -0.33168445535E+02  0.64306036032E+02  0.47000000000E+01 0. -1.
          5    1    5    5  503    0 -0.27676586545E+02 -0.26475050837E+02 -0.22357477134E+02  0.44596732430E+02  0.47000000000E+01 0.  1.
         -5    1    5    5    0  503  0.40107875578E+02  0.85840633712E+02 -0.93877264503E+02  0.13346267969E+03  0.47000000000E+01 0.  1.
<mgrwt>
<rscale>  0 0.27546307E+03</rscale>
<asrwt>0</asrwt>
<pdfrwt beam="1">  1        4 0.56204852E-01 0.27546307E+03</pdfrwt>
<pdfrwt beam="2">  1       -4 0.79885185E-02 0.27546307E+03</pdfrwt>
<totfact> 0.63158437E+02</totfact>
</mgrwt>
</event>
<event>
 9    1  0.2065703E-002  0.2743606E+03  0.7818608E-02  0.1098810E+00
          3   -1    0    0  501    0  0.00000000000E+00  0.00000000000E+00  0.61600452085E+02  0.61600452085E+02  0.00000000000E+00 0.  1.
         -3   -1    0    0    0  501 -0.00000000000E+00 -0.00000000000E+00 -0.30549172096E+03  0.30549172096E+03  0.00000000000E+00 0.  1.
         36    2    1    2    0    0  0.35527136788E-14  0.00000000000E+00 -0.24389126887E+03  0.36709217305E+03  0.27436055197E+03 0.  0.
         25    2    3    3    0    0  0.18628025678E+02 -0.49130259263E+02 -0.16891809573E+03  0.21370390685E+03  0.11989683492E+03 0.  0.
         25    2    3    3    0    0 -0.18628025678E+02  0.49130259263E+02 -0.74973173149E+02  0.15338826620E+03  0.12306988990E+03 0.  0.
          5    1    4    4  502    0  0.28286863740E+02  0.21956448282E+02 -0.73407967660E+01  0.36853895026E+02  0.47000000000E+01 0.  1.
         -5    1    4    4    0  502 -0.96588380627E+01 -0.71086707546E+02 -0.16157729896E+03  0.17685001182E+03  0.47000000000E+01 0.  1.
          5    1    5    5  503    0 -0.45279171764E+02  0.73681359681E+02 -0.78222375364E+02  0.11670465358E+03  0.47000000000E+01 0. -1.
         -5    1    5    5    0  503  0.26651146086E+02 -0.24551100418E+02  0.32492022148E+01  0.36683612615E+02  0.47000000000E+01 0. -1.
<mgrwt>
<rscale>  0 0.27436055E+03</rscale>
<asrwt>0</asrwt>
<pdfrwt beam="1">  1        3 0.94769927E-02 0.27436055E+03</pdfrwt>
<pdfrwt beam="2">  1       -3 0.46998726E-01 0.27436055E+03</pdfrwt>
<totfact> 0.92728653E+02</totfact>
</mgrwt>
</event>
<event>
 9    1  0.2065703E-002  0.2735713E+03  0.7818608E-02  0.1099253E+00
         -2   -1    0    0    0  501 -0.00000000000E+00  0.00000000000E+00  0.28239023162E+02  0.28239023162E+02  0.00000000000E+00 0. -1.
          2   -1    0    0  501    0  0.00000000000E+00 -0.00000000000E+00 -0.66256924138E+03  0.66256924138E+03  0.00000000000E+00 0. -1.
         36    2    1    2    0    0  0.14210854715E-13 -0.71054273576E-14 -0.63433021822E+03  0.69080826454E+03  0.27357125693E+03 0.  0.
         25    2    3    3    0    0  0.39612716254E+02  0.37934759776E+02 -0.26735779324E+03  0.29882289434E+03  0.12168286358E+03 0.  0.
         25    2    3    3    0    0 -0.39612716254E+02 -0.37934759776E+02 -0.36697242498E+03  0.39198537020E+03  0.12639444794E+03 0.  0.
          5    1    4    4  502    0  0.80937883664E+02  0.96264948199E+01 -0.18654247404E+03  0.20362660690E+03  0.47000000000E+01 0.  1.
         -5    1    4    4    0  502 -0.41325167410E+02  0.28308264956E+02 -0.80815319196E+02  0.95196287444E+02  0.47000000000E+01 0.  1.
          5    1    5    5  503    0 -0.38774591669E+02  0.22850424468E+02 -0.29135528862E+03  0.29484844423E+03  0.47000000000E+01 0.  1.
         -5    1    5    5    0  503 -0.83812458528E+00 -0.60785184244E+02 -0.75617136363E+02  0.97136925977E+02  0.47000000000E+01 0.  1.
<mgrwt>
<rscale>  0 0.27357126E+03</rscale>
<asrwt>0</asrwt>
<pdfrwt beam="1">  1        2 0.10193372E+00 0.27357126E+03</pdfrwt>
<pdfrwt beam="2">  1       -2 0.43444655E-02 0.27357126E+03</pdfrwt>
<totfact> 0.10825004E+04</totfact>
</mgrwt>
</event>
<event>
 9    1  0.2065703E-002  0.2749912E+03  0.7818608E-02  0.1098457E+00
         -1   -1    0    0    0  501 -0.00000000000E+00  0.00000000000E+00  0.72683633481E+02  0.72683633481E+02  0.00000000000E+00 0. -1.
          1   -1    0    0  501    0  0.00000000000E+00 -0.00000000000E+00 -0.26010032845E+03  0.26010032845E+03  0.00000000000E+00 0. -1.
         36    2    1    2    0    0  0.00000000000E+00  0.71054273576E-14 -0.18741669497E+03  0.33278396193E+03  0.27499117762E+03 0.  0.
         25    2    3    3    0    0  0.46466421212E+02 -0.41845292259E+02 -0.89640368317E+02  0.16627271744E+03  0.12530388721E+03 0.  0.
         25    2    3    3    0    0 -0.46466421212E+02  0.41845292259E+02 -0.97776326655E+02  0.16651124449E+03  0.11939693339E+03 0.  0.
          5    1    4    4  502    0  0.45487382731E+02  0.36853421941E+02 -0.23130986768E+02  0.63122177128E+02  0.47000000000E+01 0. -1.
         -5    1    4    4    0  502  0.97903848120E+00 -0.78698714200E+02 -0.66509381549E+02  0.10315054031E+03  0.47000000000E+01 0. -1.
          5    1    5    5  503    0 -0.33345602419E+02  0.83909023979E+02 -0.63396507829E+02  0.11042581542E+03  0.47000000000E+01 0.  1.
         -5    1    5    5    0  503 -0.13120818793E+02 -0.42063731720E+02 -0.34379818825E+02  0.56085429075E+02  0.47000000000E+01 0.  1.
<mgrwt>
<rscale>  0 0.27499118E+03</rscale>
<asrwt>0</asrwt>
<pdfrwt beam="1">  1        1 0.40015436E-01 0.27499118E+03</pdfrwt>
<pdfrwt beam="2">  1       -1 0.11182097E-01 0.27499118E+03</pdfrwt>
<totfact> 0.53391658E+03</totfact>
</mgrwt>
</event>
<event>
 9    1  0.2065703E-002  0.2753822E+03  0.7818608E-02  0.1098238E+00
         -2   -1    0    0    0  501 -0.00000000000E+00  0.00000000000E+00  0.30307819657E+03  0.30307819657E+03  0.00000000000E+00 0. -1.
          2   -1    0    0  501    0  0.00000000000E+00 -0.00000000000E+00 -0.62554277763E+02  0.62554277763E+02  0.00000000000E+00 0. -1.
         36    2    1    2    0    0  0.71054273576E-14  0.00000000000E+00  0.24052391880E+03  0.36563247433E+03  0.27538219036E+03 0.  0.
         25    2    3    3    0    0  0.53613535171E+02  0.21515520184E+02  0.10288057212E+03  0.17123448149E+03  0.12409474916E+03 0.  0.
         25    2    3    3    0    0 -0.53613535171E+02 -0.21515520184E+02  0.13764334668E+03  0.19439799284E+03  0.12452935386E+03 0.  0.
          5    1    4    4  502    0  0.54661799575E+02  0.54000651906E+02  0.16372559519E+02  0.78702817258E+02  0.47000000000E+01 0. -1.
         -5    1    4    4    0  502 -0.10482644049E+01 -0.32485131723E+02  0.86508012604E+02  0.92531664235E+02  0.47000000000E+01 0. -1.
          5    1    5    5  503    0  0.31553480413E+02  0.54463439187E+01  0.26724387381E+01  0.32473323160E+02  0.47000000000E+01 0. -1.
         -5    1    5    5    0  503 -0.85167015584E+02 -0.26961864102E+02  0.13497090794E+03  0.16192466968E+03  0.47000000000E+01 0. -1.
<mgrwt>
<rscale>  0 0.27538219E+03</rscale>
<asrwt>0</asrwt>
<pdfrwt beam="1">  1        2 0.96237352E-02 0.27538219E+03</pdfrwt>
<pdfrwt beam="2">  1       -2 0.46627414E-01 0.27538219E+03</pdfrwt>
<totfact> 0.29580117E+03</totfact>
</mgrwt>
</event>
<event>
 9    1  0.2065703E-002  0.2747400E+03  0.7818608E-02  0.1098597E+00
          1   -1    0    0  501    0  0.00000000000E+00  0.00000000000E+00  0.51389723511E+02  0.51389723511E+02  0.00000000000E+00 0. -1.
         -1   -1    0    0    0  501 -0.00000000000E+00 -0.00000000000E+00 -0.36720422319E+03  0.36720422319E+03  0.00000000000E+00 0. -1.
         36    2    1    2    0    0  0.71054273576E-14  0.00000000000E+00 -0.31581449968E+03  0.41859394670E+03  0.27474004806E+03 0.  0.
         25    2    3    3    0    0  0.45099804271E+02  0.14727423708E+02 -0.14464176921E+03  0.20100950381E+03  0.13127334026E+03 0.  0.
         25    2    3    3    0    0 -0.45099804271E+02 -0.14727423708E+02 -0.17117273046E+03  0.21758444289E+03  0.12566621177E+03 0.  0.
          5    1    4    4  502    0  0.12890040843E+02  0.33625009482E+01 -0.16185730580E+03  0.16247257309E+03  0.47000000000E+01 0.  1.
         -5    1    4    4    0  502  0.32209763428E+02  0.11364922760E+02  0.17215536582E+02  0.38536930719E+02  0.47000000000E+01 0.  1.
          5    1    5    5  503    0  0.30490698681E+02 -0.38793121405E+01 -0.11211381284E+01  0.31113963416E+02  0.47000000000E+01 0. -1.
         -5    1    5    5    0  503 -0.75590502952E+02 -0.10848111567E+02 -0.17005159233E+03  0.18647047948E+03  0.47000000000E+01 0. -1.
<mgrwt>
<rscale>  0 0.27474005E+03</rscale>
<asrwt>0</asrwt>
<pdfrwt beam="1">  1        1 0.79061115E-02 0.27474005E+03</pdfrwt>
<pdfrwt beam="2">  1       -1 0.56492956E-01 0.27474005E+03</pdfrwt>
<totfact> 0.28741478E+03</totfact>
</mgrwt>
</event>
<event>
 9    1  0.2065703E-002  0.2739459E+03  0.7818608E-02  0.1099042E+00
         -2   -1    0    0    0  501 -0.00000000000E+00  0.00000000000E+00  0.16923641899E+03  0.16923641899E+03  0.00000000000E+00 0.  1.
          2   -1    0    0  501    0  0.00000000000E+00 -0.00000000000E+00 -0.11086022929E+03  0.11086022929E+03  0.00000000000E+00 0.  1.
         36    2    1    2    0    0  0.00000000000E+00 -0.35527136788E-14  0.58376189699E+02  0.28009664827E+03  0.27394589402E+03 0.  0.
         25    2    3    3    0    0 -0.49430006297E+02  0.16851736945E+02  0.15589745756E+02  0.13971954382E+03  0.12865148344E+03 0.  0.
         25    2    3    3    0    0  0.49430006297E+02 -0.16851736945E+02  0.42786443943E+02  0.14037710446E+03  0.12307617604E+03 0.  0.
          5    1    4    4  502    0 -0.27394425919E+02  0.62410053408E+02 -0.26948089171E+02  0.73442214345E+02  0.47000000000E+01 0. -1.
         -5    1    4    4    0  502 -0.22035580377E+02 -0.45558316463E+02  0.42537834927E+02  0.66277329471E+02  0.47000000000E+01 0. -1.
          5    1    5    5  503    0  0.78016812847E+02  0.20454250397E+02  0.46116753497E+02  0.93026041511E+02  0.47000000000E+01 0.  1.
         -5    1    5    5    0  503 -0.28586806551E+02 -0.37305987342E+02 -0.33303095532E+01  0.47351062945E+02  0.47000000000E+01 0.  1.
<mgrwt>
<rscale>  0 0.27394589E+03</rscale>
<asrwt>0</asrwt>
<pdfrwt beam="1">  1        2 0.17055420E-01 0.27394589E+03</pdfrwt>
<pdfrwt beam="2">  1       -2 0.26036372E-01 0.27394589E+03</pdfrwt>
<totfact> 0.43944580E+03</totfact>
</mgrwt>
</event>
<event>
 9    1  0.2065703E-002  0.2772578E+03  0.7818608E-02  0.1097196E+00
          1   -1    0    0  501    0  0.00000000000E+00  0.00000000000E+00  0.15519672951E+02  0.15519672951E+02  0.00000000000E+00 0.  1.
         -1   -1    0    0    0  501 -0.00000000000E+00 -0.00000000000E+00 -0.12382973523E+04  0.12382973523E+04  0.00000000000E+00 0.  1.
         36    2    1    2    0    0  0.00000000000E+00  0.71054273576E-14 -0.12227776793E+04  0.12538170252E+04  0.27725778564E+03 0.  0.
         25    2    3    3    0    0  0.29340851047E+02 -0.44882067987E+02 -0.51829226522E+03  0.53589862839E+03  0.12524049728E+03 0.  0.
         25    2    3    3    0    0 -0.29340851047E+02  0.44882067987E+02 -0.70448541411E+03  0.71791839685E+03  0.12740423958E+03 0.  0.
          5    1    4    4  502    0 -0.43941823856E+02 -0.33228736650E+02 -0.14310507103E+03  0.15341507154E+03  0.47000000000E+01 0. -1.
         -5    1    4    4    0  502  0.73282674903E+02 -0.11653331337E+02 -0.37518719419E+03  0.38248355685E+03  0.47000000000E+01 0. -1.
          5    1    5    5  503    0  0.22187240607E+02  0.44688871138E+02 -0.10653498163E+03  0.11773343263E+03  0.47000000000E+01 0. -1.
         -5    1    5    5    0  503 -0.51528091654E+02  0.19319684852E+00 -0.59795043249E+03  0.60018496421E+03  0.47000000000E+01 0. -1.
<mgrwt>
<rscale>  0 0.27725779E+03</rscale>
<asrwt>0</asrwt>
<pdfrwt beam="1">  1        1 0.23876422E-02 0.27725779E+03</pdfrwt>
<pdfrwt beam="2">  1       -1 0.19050727E+00 0.27725779E+03</pdfrwt>
<totfact> 0.91097711E+02</totfact>
</mgrwt>
</event>
<event>
 9    1  0.2065703E-002  0.2746304E+03  0.7818608E-02  0.1098658E+00
          2   -1    0    0  501    0  0.00000000000E+00  0.00000000000E+00  0.33014871692E+04  0.33014871692E+04  0.00000000000E+00 0.  1.
         -2   -1    0    0    0  501 -0.00000000000E+00 -0.00000000000E+00 -0.57112030329E+01  0.57112030329E+01  0.00000000000E+00 0.  1.
         36    2    1    2    0    0 -0.14210854715E-13 -0.35527136788E-14  0.32957759662E+04  0.33071983723E+04  0.27463039551E+03 0.  0.
         25    2    3    3    0    0  0.47962459406E+02 -0.12928209315E+02  0.21044857788E+04  0.21081632540E+04  0.11412439040E+03 0.  0.
         25    2    3    3    0    0 -0.47962459406E+02  0.12928209315E+02  0.11912901874E+04  0.11990351182E+04  0.12667031219E+03 0.  0.
          5    1    4    4  502    0  0.17968799600E+02 -0.62896425708E+02  0.11982309096E+04  0.12000242667E+04  0.47000000000E+01 0. -1.
         -5    1    4    4    0  502  0.29993659806E+02  0.49968216393E+02  0.90625486921E+03  0.90813898730E+03  0.47000000000E+01 0. -1.
          5    1    5    5  503    0 -0.58717881663E+02  0.43613064222E+02  0.10918739345E+04  0.10943311509E+04  0.47000000000E+01 0. -1.
         -5    1    5    5    0  503  0.10755422258E+02 -0.30684854906E+02  0.99416252924E+02  0.10470396733E+03  0.47000000000E+01 0. -1.
<mgrwt>
<rscale>  0 0.27463040E+03</rscale>
<asrwt>0</asrwt>
<pdfrwt beam="1">  1        2 0.50791958E+00 0.27463040E+03</pdfrwt>
<pdfrwt beam="2">  1       -2 0.87864926E-03 0.27463040E+03</pdfrwt>
<totfact> 0.35065824E+03</totfact>
</mgrwt>
</event>
<event>
 9    1  0.2065703E-002  0.2779246E+03  0.7818608E-02  0.1096828E+00
         -2   -1    0    0    0  501 -0.00000000000E+00  0.00000000000E+00  0.16141795403E+03  0.16141795403E+03  0.00000000000E+00 0.  1.
          2   -1    0    0  501    0  0.00000000000E+00 -0.00000000000E+00 -0.11963057847E+03  0.11963057847E+03  0.00000000000E+00 0.  1.
         36    2    1    2    0    0  0.00000000000E+00  0.00000000000E+00  0.41787375558E+02  0.28104853249E+03  0.27792461723E+03 0.  0.
         25    2    3    3    0    0 -0.25254663180E+02 -0.66431876461E+02 -0.12113780293E+02  0.14429438537E+03  0.12499253479E+03 0.  0.
         25    2    3    3    0    0  0.25254663180E+02  0.66431876461E+02  0.53901155851E+02  0.13675414713E+03  0.10365987619E+03 0.  0.
          5    1    4    4  502    0 -0.69614693444E+02 -0.22259906797E+02 -0.29806377932E+02  0.79070975455E+02  0.47000000000E+01 0. -1.
         -5    1    4    4    0  502  0.44360030265E+02 -0.44171969664E+02  0.17692597639E+02  0.65223409910E+02  0.47000000000E+01 0. -1.
          5    1    5    5  503    0  0.37378195499E+02  0.54681381371E+02 -0.12941877512E+02  0.67651793480E+02  0.47000000000E+01 0.  1.
         -5    1    5    5    0  503 -0.12123532320E+02  0.11750495090E+02  0.66843033363E+02  0.69102353650E+02  0.47000000000E+01 0.  1.
<mgrwt>
<rscale>  0 0.27792462E+03</rscale>
<asrwt>0</asrwt>
<pdfrwt beam="1">  1        2 0.18404704E-01 0.27792462E+03</pdfrwt>
<pdfrwt beam="2">  1       -2 0.24833532E-01 0.27792462E+03</pdfrwt>
<totfact> 0.43754168E+03</totfact>
</mgrwt>
</event>
<event>
 9    1  0.2065703E-002  0.2735419E+03  0.7818608E-02  0.1099269E+00
          2   -1    0    0  501    0  0.00000000000E+00  0.00000000000E+00  0.44473798072E+03  0.44473798072E+03  0.00000000000E+00 0. -1.
         -2   -1    0    0    0  501 -0.00000000000E+00 -0.00000000000E+00 -0.42061375077E+02  0.42061375077E+02  0.00000000000E+00 0. -1.
         36    2    1    2    0    0  0.00000000000E+00  0.14210854715E-13  0.40267660564E+03  0.48679935579E+03  0.27354188723E+03 0.  0.
         25    2    3    3    0    0  0.57159207121E+02 -0.52031101826E+02  0.24121337127E+03  0.26815378801E+03  0.88023593601E+02 0.  0.
         25    2    3    3    0    0 -0.57159207121E+02  0.52031101826E+02  0.16146323437E+03  0.21864556778E+03  0.12554321065E+03 0.  0.
          5    1    4    4  502    0 -0.16929455532E+02  0.10084397520E+02  0.37914677546E+02  0.42987373860E+02  0.47000000000E+01 0.  1.
         -5    1    4    4    0  502  0.74088662653E+02 -0.62115499346E+02  0.20329869372E+03  0.22516641415E+03  0.47000000000E+01 0.  1.
          5    1    5    5  503    0 -0.78918520215E+02  0.76704053007E+01  0.14676790766E+03  0.16688282317E+03  0.47000000000E+01 0. -1.
         -5    1    5    5    0  503  0.21759313094E+02  0.44360696526E+02  0.14695326712E+02  0.51762744612E+02  0.47000000000E+01 0. -1.
<mgrwt>
<rscale>  0 0.27354189E+03</rscale>
<asrwt>0</asrwt>
<pdfrwt beam="1">  1        2 0.68421224E-01 0.27354189E+03</pdfrwt>
<pdfrwt beam="2">  1       -2 0.64709811E-02 0.27354189E+03</pdfrwt>
<totfact> 0.92869909E+03</totfact>
</mgrwt>
</event>
<event>
 9    1  0.2065703E-002  0.2754017E+03  0.7818608E-02  0.1098227E+00
         -2   -1    0    0    0  501 -0.00000000000E+00  0.00000000000E+00  0.13024542236E+02  0.13024542236E+02  0.00000000000E+00 0.  1.
          2   -1    0    0  501    0  0.00000000000E+00 -0.00000000000E+00 -0.14558301087E+04  0.14558301087E+04  0.00000000000E+00 0.  1.
         36    2    1    2    0    0  0.35527136788E-14  0.71054273576E-14 -0.14428055665E+04  0.14688546510E+04  0.27540167566E+03 0.  0.
         25    2    3    3    0    0 -0.15181016342E+02 -0.63493266230E+02 -0.99595315755E+03  0.10055674086E+04  0.12239796973E+03 0.  0.
         25    2    3    3    0    0  0.15181016342E+02  0.63493266230E+02 -0.44685240895E+03  0.46328724242E+03  0.10342212283E+03 0.  0.
          5    1    4    4  502    0 -0.35668039305E+02 -0.36902661913E+02 -0.14407833613E+03  0.15301853621E+03  0.47000000000E+01 0. -1.
         -5    1    4    4    0  502  0.20487022963E+02 -0.26590604317E+02 -0.85187482143E+03  0.85254887234E+03  0.47000000000E+01 0. -1.
          5    1    5    5  503    0  0.61878720552E+01 -0.28568947521E+02 -0.11539577948E+03  0.11913333054E+03  0.47000000000E+01 0.  1.
         -5    1    5    5    0  503  0.89931442869E+01  0.92062213751E+02 -0.33145662947E+03  0.34415391188E+03  0.47000000000E+01 0.  1.
<mgrwt>
<rscale>  0 0.27540168E+03</rscale>
<asrwt>0</asrwt>
<pdfrwt beam="1">  1        2 0.22397381E+00 0.27540168E+03</pdfrwt>
<pdfrwt beam="2">  1       -2 0.20037762E-02 0.27540168E+03</pdfrwt>
<totfact> 0.11109771E+04</totfact>
</mgrwt>
</event>
<event>
 8    1  0.2065703E-002  0.2569107E+03  0.7818608E-02  0.1109014E+00
          2   -1    0    0  501    0  0.00000000000E+00  0.00000000000E+00  0.71949930899E+03  0.71949930899E+03  0.00000000000E+00 0.  1.
         -2   -1    0    0    0  501 -0.00000000000E+00 -0.00000000000E+00 -0.22933702487E+02  0.22933702487E+02  0.00000000000E+00 0.  1.
         25    2    1    2    0    0  0.67558822681E+01  0.69362207031E+00  0.44381924728E+03  0.46098224491E+03  0.12443063453E+03 0.  0.
         25    2    1    2    0    0 -0.67558822681E+01 -0.69362207031E+00  0.25274635923E+03  0.28145076657E+03  0.12364339385E+03 0.  0.
          5    1    3    3  502    0  0.18808546285E+01 -0.60900122140E+02  0.18427390814E+03  0.19414253968E+03  0.47000000000E+01 0. -1.
         -5    1    3    3    0  502  0.48750276396E+01  0.61593744210E+02  0.25954533914E+03  0.26683970523E+03  0.47000000000E+01 0. -1.
          5    1    4    4  503    0 -0.11972671499E+02 -0.45270534710E+01  0.26579524266E+03  0.26614477281E+03  0.47000000000E+01 0. -1.
         -5    1    4    4    0  503  0.52167892313E+01  0.38334314007E+01 -0.13048883430E+02  0.15305993759E+02  0.47000000000E+01 0. -1.
<mgrwt>
<rscale>  0 0.25691075E+03</rscale>
<asrwt>0</asrwt>
<pdfrwt beam="1">  1        2 0.11069218E+00 0.25691075E+03</pdfrwt>
<pdfrwt beam="2">  1       -2 0.35282625E-02 0.25691075E+03</pdfrwt>
<totfact> 0.13361797E+04</totfact>
</mgrwt>
</event>
<event>
 9    1  0.2065703E-002  0.2748658E+03  0.7818608E-02  0.1098527E+00
          2   -1    0    0  501    0  0.00000000000E+00  0.00000000000E+00  0.21556148833E+04  0.21556148833E+04  0.00000000000E+00 0. -1.
         -2   -1    0    0    0  501 -0.00000000000E+00 -0.00000000000E+00 -0.87621399517E+01  0.87621399517E+01  0.00000000000E+00 0. -1.
         36    2    1    2    0    0  0.71054273576E-14  0.17763568394E-14  0.21468527433E+04  0.21643770232E+04  0.27486578026E+03 0.  0.
         25    2    3    3    0    0  0.29729102256E+02  0.19308241032E+01  0.89143815293E+03  0.90217266602E+03  0.13552118360E+03 0.  0.
         25    2    3    3    0    0 -0.29729102256E+02 -0.19308241032E+01  0.12554145904E+04  0.12622043572E+04  0.12730474455E+03 0.  0.
          5    1    4    4  502    0  0.72768085109E+02  0.11678691880E+02  0.75711899188E+03  0.76071206374E+03  0.47000000000E+01 0.  1.
         -5    1    4    4    0  502 -0.43038982853E+02 -0.97478677764E+01  0.13431916106E+03  0.14146060228E+03  0.47000000000E+01 0.  1.
          5    1    5    5  503    0 -0.49566595973E+02 -0.24063265205E+02  0.11756948071E+04  0.11769945869E+04  0.47000000000E+01 0.  1.
         -5    1    5    5    0  503  0.19837493717E+02  0.22132441102E+02  0.79719783237E+02  0.85209770246E+02  0.47000000000E+01 0.  1.
<mgrwt>
<rscale>  0 0.27486578E+03</rscale>
<asrwt>0</asrwt>
<pdfrwt beam="1">  1        2 0.33163264E+00 0.27486578E+03</pdfrwt>
<pdfrwt beam="2">  1       -2 0.13480233E-02 0.27486578E+03</pdfrwt>
<totfact> 0.84805190E+03</totfact>
</mgrwt>
</event>
<event>
 8    1  0.2065703E-002  0.4216448E+03  0.7818608E-02  0.1036532E+00
          2   -1    0    0  501    0  0.00000000000E+00  0.00000000000E+00  0.20811419783E+04  0.20811419783E+04  0.00000000000E+00 0. -1.
         -2   -1    0    0    0  501 -0.00000000000E+00 -0.00000000000E+00 -0.21356583226E+02  0.21356583226E+02  0.00000000000E+00 0. -1.
         25    2    1    2    0    0 -0.14993387244E+03  0.14338383625E+02  0.14376920219E+04  0.14507382222E+04  0.12246339983E+03 0.  0.
         25    2    1    2    0    0  0.14993387244E+03 -0.14338383625E+02  0.62209337323E+03  0.65176033934E+03  0.12290492083E+03 0.  0.
          5    1    3    3  502    0 -0.15190152698E+03 -0.17326479911E+02  0.13171793142E+04  0.13260308128E+04  0.47000000000E+01 0. -1.
         -5    1    3    3    0  502  0.19676545390E+01  0.31664863536E+02  0.12051270770E+03  0.12470740942E+03  0.47000000000E+01 0. -1.
          5    1    4    4  503    0  0.69830186667E+02  0.96096206503E+01  0.96815633392E+02  0.11984972527E+03  0.47000000000E+01 0. -1.
         -5    1    4    4    0  503  0.80103685775E+02 -0.23948004275E+02  0.52527773984E+03  0.53191061406E+03  0.47000000000E+01 0. -1.
<mgrwt>
<rscale>  0 0.42164479E+03</rscale>
<asrwt>0</asrwt>
<pdfrwt beam="1">  1        2 0.32017553E+00 0.42164479E+03</pdfrwt>
<pdfrwt beam="2">  1       -2 0.32856298E-02 0.42164479E+03</pdfrwt>
<totfact> 0.24686154E+03</totfact>
</mgrwt>
</event>
<event>
 9    1  0.2065703E-002  0.2755882E+03  0.7818608E-02  0.1098123E+00
         -2   -1    0    0    0  501 -0.00000000000E+00  0.00000000000E+00  0.10146997454E+02  0.10146997454E+02  0.00000000000E+00 0.  1.
          2   -1    0    0  501    0  0.00000000000E+00 -0.00000000000E+00 -0.18712154805E+04  0.18712154805E+04  0.00000000000E+00 0.  1.
         36    2    1    2    0    0 -0.14210854715E-13  0.71054273576E-14 -0.18610684830E+04  0.18813624779E+04  0.27558823427E+03 0.  0.
         25    2    3    3    0    0  0.64874449595E+02  0.78232991952E+01 -0.89349752635E+03  0.90343518052E+03  0.11656499297E+03 0.  0.
         25    2    3    3    0    0 -0.64874449595E+02 -0.78232991952E+01 -0.96757095666E+03  0.97792729740E+03  0.12600930364E+03 0.  0.
          5    1    4    4  502    0  0.65090962060E+02  0.55523737569E+02 -0.56647156131E+03  0.57291521061E+03  0.47000000000E+01 0. -1.
         -5    1    4    4    0  502 -0.21651246515E+00 -0.47700438374E+02 -0.32702596505E+03  0.33051996991E+03  0.47000000000E+01 0. -1.
          5    1    5    5  503    0 -0.81727935452E+02 -0.40726795594E+02 -0.46054866879E+03  0.46953731868E+03  0.47000000000E+01 0. -1.
         -5    1    5    5    0  503  0.16853485857E+02  0.32903496399E+02 -0.50702228787E+03  0.50838997872E+03  0.47000000000E+01 0. -1.
<mgrwt>
<rscale>  0 0.27558823E+03</rscale>
<asrwt>0</asrwt>
<pdfrwt beam="1">  1        2 0.28787949E+00 0.27558823E+03</pdfrwt>
<pdfrwt beam="2">  1       -2 0.15610755E-02 0.27558823E+03</pdfrwt>
<totfact> 0.96623873E+03</totfact>
</mgrwt>
</event>
<event>
 9    1  0.2065703E-002  0.2751261E+03  0.7818608E-02  0.1098381E+00
          2   -1    0    0  501    0  0.00000000000E+00  0.00000000000E+00  0.18317216883E+04  0.18317216883E+04  0.00000000000E+00 0.  1.
         -2   -1    0    0    0  501 -0.00000000000E+00 -0.00000000000E+00 -0.10331040286E+02  0.10331040286E+02  0.00000000000E+00 0.  1.
         36    2    1    2    0    0  0.00000000000E+00  0.00000000000E+00  0.18213906481E+04  0.18420527286E+04  0.27512608423E+03 0.  0.
         25    2    3    3    0    0  0.36450462117E+02  0.10922351566E+02  0.62628566573E+03  0.63948205691E+03  0.12351369175E+03 0.  0.
         25    2    3    3    0    0 -0.36450462117E+02 -0.10922351566E+02  0.11951049823E+04  0.12025706717E+04  0.12826678354E+03 0.  0.
          5    1    4    4  502    0  0.32888093641E+02  0.49439193358E+02  0.14691959470E+03  0.15853491051E+03  0.47000000000E+01 0. -1.
         -5    1    4    4    0  502  0.35623684761E+01 -0.38516841791E+02  0.47936607103E+03  0.48094714640E+03  0.47000000000E+01 0. -1.
          5    1    5    5  503    0 -0.45237931148E+02  0.36797676669E+02  0.27397624944E+03  0.28015284165E+03  0.47000000000E+01 0.  1.
         -5    1    5    5    0  503  0.87874690311E+01 -0.47720028236E+02  0.92112873288E+03  0.92241783008E+03  0.47000000000E+01 0.  1.
<mgrwt>
<rscale>  0 0.27512608E+03</rscale>
<asrwt>0</asrwt>
<pdfrwt beam="1">  1        2 0.28180308E+00 0.27512608E+03</pdfrwt>
<pdfrwt beam="2">  1       -2 0.15893923E-02 0.27512608E+03</pdfrwt>
<totfact> 0.98712877E+03</totfact>
</mgrwt>
</event>
<event>
 9    1  0.2065703E-002  0.2768395E+03  0.7818608E-02  0.1097428E+00
         -1   -1    0    0    0  501 -0.00000000000E+00  0.00000000000E+00  0.15662386309E+02  0.15662386309E+02  0.00000000000E+00 0. -1.
          1   -1    0    0  501    0  0.00000000000E+00 -0.00000000000E+00 -0.12233145842E+04  0.12233145842E+04  0.00000000000E+00 0. -1.
         36    2    1    2    0    0  0.00000000000E+00 -0.71054273576E-14 -0.12076521979E+04  0.12389769705E+04  0.27683948848E+03 0.  0.
         25    2    3    3    0    0 -0.30824896118E+02  0.50236479418E+02 -0.69784725233E+03  0.71100215511E+03  0.12271674255E+03 0.  0.
         25    2    3    3    0    0  0.30824896118E+02 -0.50236479418E+02 -0.50980494557E+03  0.52797481541E+03  0.12402598555E+03 0.  0.
          5    1    4    4  502    0  0.46200539286E+02  0.32664136518E+02 -0.31146454606E+03  0.31659704531E+03  0.47000000000E+01 0. -1.
         -5    1    4    4    0  502 -0.77025435405E+02  0.17572342900E+02 -0.38638270627E+03  0.39440510980E+03  0.47000000000E+01 0. -1.
          5    1    5    5  503    0  0.71199994420E+02 -0.37808033696E+02 -0.20687082223E+03  0.22207321699E+03  0.47000000000E+01 0.  1.
         -5    1    5    5    0  503 -0.40375098302E+02 -0.12428445722E+02 -0.30293412335E+03  0.30590159842E+03  0.47000000000E+01 0.  1.
<mgrwt>
<rscale>  0 0.27683949E+03</rscale>
<asrwt>0</asrwt>
<pdfrwt beam="1">  1        1 0.18820232E+00 0.27683949E+03</pdfrwt>
<pdfrwt beam="2">  1       -1 0.24095969E-02 0.27683949E+03</pdfrwt>
<totfact> 0.57501063E+03</totfact>
</mgrwt>
</event>
<event>
 9    1  0.2065703E-002  0.2755200E+03  0.7818608E-02  0.1098161E+00
          2   -1    0    0  501    0  0.00000000000E+00  0.00000000000E+00  0.23157142139E+03  0.23157142139E+03  0.00000000000E+00 0. -1.
         -2   -1    0    0    0  501 -0.00000000000E+00 -0.00000000000E+00 -0.81952307641E+02  0.81952307641E+02  0.00000000000E+00 0. -1.
         36    2    1    2    0    0  0.35527136788E-14  0.00000000000E+00  0.14961911375E+03  0.31352372903E+03  0.27551996201E+03 0.  0.
         25    2    3    3    0    0  0.19032002240E+02  0.28092010214E+02  0.28574242223E+02  0.13157860854E+03  0.12387519832E+03 0.  0.
         25    2    3    3    0    0 -0.19032002240E+02 -0.28092010214E+02  0.12104487153E+03  0.18194512049E+03  0.13153245911E+03 0.  0.
          5    1    4    4  502    0 -0.21135365315E+02  0.62004442816E+02 -0.96923679135E+01  0.66387397838E+02  0.47000000000E+01 0.  1.
         -5    1    4    4    0  502  0.40167367555E+02 -0.33912432603E+02  0.38266610136E+02  0.65191210701E+02  0.47000000000E+01 0.  1.
          5    1    5    5  503    0 -0.42807747603E+02 -0.18660626511E+01  0.13641855918E+03  0.14306676321E+03  0.47000000000E+01 0.  1.
         -5    1    5    5    0  503  0.23775745363E+02 -0.26225947563E+02 -0.15373687656E+02  0.38878357286E+02  0.47000000000E+01 0.  1.
<mgrwt>
<rscale>  0 0.27551996E+03</rscale>
<asrwt>0</asrwt>
<pdfrwt beam="1">  1        2 0.35626372E-01 0.27551996E+03</pdfrwt>
<pdfrwt beam="2">  1       -2 0.12608047E-01 0.27551996E+03</pdfrwt>
<totfact> 0.65657221E+03</totfact>
</mgrwt>
</event>
<event>
 9    1  0.2065703E-002  0.2746849E+03  0.7818608E-02  0.1098628E+00
          1   -1    0    0  501    0  0.00000000000E+00  0.00000000000E+00  0.79077284328E+02  0.79077284328E+02  0.00000000000E+00 0.  1.
         -1   -1    0    0    0  501 -0.00000000000E+00 -0.00000000000E+00 -0.23853819592E+03  0.23853819592E+03  0.00000000000E+00 0.  1.
         36    2    1    2    0    0  0.00000000000E+00 -0.35527136788E-14 -0.15946091159E+03  0.31761548025E+03  0.27468493036E+03 0.  0.
         25    2    3    3    0    0 -0.14379114998E+01 -0.28664283915E+02 -0.45404895427E+02  0.14441915523E+03  0.13405811840E+03 0.  0.
         25    2    3    3    0    0  0.14379114998E+01  0.28664283915E+02 -0.11405601616E+03  0.17319632501E+03  0.12713962173E+03 0.  0.
          5    1    4    4  502    0 -0.21982661680E+02 -0.75985582013E+02 -0.47835026147E+02  0.92559849907E+02  0.47000000000E+01 0. -1.
         -5    1    4    4    0  502  0.20544750180E+02  0.47321298098E+02  0.24301307194E+01  0.51859305326E+02  0.47000000000E+01 0. -1.
          5    1    5    5  503    0  0.60320305895E+02  0.22755395788E+01 -0.31315602284E+02  0.68165052116E+02  0.47000000000E+01 0. -1.
         -5    1    5    5    0  503 -0.58882394395E+02  0.26388744336E+02 -0.82740413880E+02  0.10503127290E+03  0.47000000000E+01 0. -1.
<mgrwt>
<rscale>  0 0.27468493E+03</rscale>
<asrwt>0</asrwt>
<pdfrwt beam="1">  1        1 0.12165736E-01 0.27468493E+03</pdfrwt>
<pdfrwt beam="2">  1       -1 0.36698184E-01 0.27468493E+03</pdfrwt>
<totfact> 0.35271610E+03</totfact>
</mgrwt>
</event>
<event>
 9    1  0.2065703E-002  0.2760587E+03  0.7818608E-02  0.1097861E+00
         -1   -1    0    0    0  501 -0.00000000000E+00  0.00000000000E+00  0.73844467888E+03  0.73844467888E+03  0.00000000000E+00 0. -1.
          1   -1    0    0  501    0  0.00000000000E+00 -0.00000000000E+00 -0.25800303609E+02  0.25800303609E+02  0.00000000000E+00 0. -1.
         36    2    1    2    0    0  0.71054273576E-14  0.17763568394E-14  0.71264437527E+03  0.76424498248E+03  0.27605866705E+03 0.  0.
         25    2    3    3    0    0  0.19013363418E+02  0.10050430990E+02  0.52474186009E+03  0.53819643798E+03  0.11763871375E+03 0.  0.
         25    2    3    3    0    0 -0.19013363418E+02 -0.10050430990E+02  0.18790251518E+03  0.22604854451E+03  0.12380658347E+03 0.  0.
          5    1    4    4  502    0 -0.43481557650E+02  0.29867461119E+02  0.26729546140E+03  0.27249158662E+03  0.47000000000E+01 0.  1.
         -5    1    4    4    0  502  0.62494921068E+02 -0.19817030130E+02  0.25744639868E+03  0.26570485136E+03  0.47000000000E+01 0.  1.
          5    1    5    5  503    0  0.31407395126E+02 -0.11875737755E+02  0.26698134154E+01  0.34009932660E+02  0.47000000000E+01 0. -1.
         -5    1    5    5    0  503 -0.50420758544E+02  0.18253067648E+01  0.18523270176E+03  0.19203861185E+03  0.47000000000E+01 0. -1.
<mgrwt>
<rscale>  0 0.27605867E+03</rscale>
<asrwt>0</asrwt>
<pdfrwt beam="1">  1        1 0.39692780E-02 0.27605867E+03</pdfrwt>
<pdfrwt beam="2">  1       -1 0.11360686E+00 0.27605867E+03</pdfrwt>
<totfact> 0.17290230E+03</totfact>
</mgrwt>
</event>
<event>
 9    1  0.2065703E-002  0.2751580E+03  0.7818608E-02  0.1098363E+00
         -2   -1    0    0    0  501 -0.00000000000E+00  0.00000000000E+00  0.33654164202E+02  0.33654164202E+02  0.00000000000E+00 0. -1.
          2   -1    0    0  501    0  0.00000000000E+00 -0.00000000000E+00 -0.56242614061E+03  0.56242614061E+03  0.00000000000E+00 0. -1.
         36    2    1    2    0    0  0.00000000000E+00  0.00000000000E+00 -0.52877197640E+03  0.59608030481E+03  0.27515800325E+03 0.  0.
         25    2    3    3    0    0  0.14861279694E+02  0.25354590186E+02 -0.39546980570E+03  0.41412416484E+03  0.11932620753E+03 0.  0.
         25    2    3    3    0    0 -0.14861279694E+02 -0.25354590186E+02 -0.13330217071E+03  0.18195613997E+03  0.12031149272E+03 0.  0.
          5    1    4    4  502    0  0.41397618113E+02  0.88334380820E+01 -0.37280054196E+03  0.37522543424E+03  0.47000000000E+01 0. -1.
         -5    1    4    4    0  502 -0.26536338419E+02  0.16521152104E+02 -0.22669263737E+02  0.38898730595E+02  0.47000000000E+01 0. -1.
          5    1    5    5  503    0 -0.63737482178E+02  0.80230651786E+01 -0.72301318095E+02  0.96831848105E+02  0.47000000000E+01 0.  1.
         -5    1    5    5    0  503  0.48876202484E+02 -0.33377655365E+02 -0.61000852610E+02  0.85124291868E+02  0.47000000000E+01 0.  1.
<mgrwt>
<rscale>  0 0.27515800E+03</rscale>
<asrwt>0</asrwt>
<pdfrwt beam="1">  1        2 0.86527095E-01 0.27515800E+03</pdfrwt>
<pdfrwt beam="2">  1       -2 0.51775639E-02 0.27515800E+03</pdfrwt>
<totfact> 0.10048461E+04</totfact>
</mgrwt>
</event>
<event>
 9    1  0.2065703E-002  0.2764724E+03  0.7818608E-02  0.1097631E+00
         -1   -1    0    0    0  501 -0.00000000000E+00  0.00000000000E+00  0.11336813305E+02  0.11336813305E+02  0.00000000000E+00 0.  1.
          1   -1    0    0  501    0  0.00000000000E+00 -0.00000000000E+00 -0.16855920384E+04  0.16855920384E+04  0.00000000000E+00 0.  1.
         36    2    1    2    0    0  0.00000000000E+00  0.00000000000E+00 -0.16742552251E+04  0.16969288517E+04  0.27647236569E+03 0.  0.
         25    2    3    3    0    0  0.32527858865E+02  0.15323790843E+02 -0.50860092348E+03  0.52462787111E+03  0.12355817906E+03 0.  0.
         25    2    3    3    0    0 -0.32527858865E+02 -0.15323790843E+02 -0.11656543016E+04  0.11723009806E+04  0.11935978412E+03 0.  0.
          5    1    4    4  502    0  0.26280115493E+00 -0.43642452136E+02 -0.34370134178E+03  0.34649305192E+03  0.47000000000E+01 0. -1.
         -5    1    4    4    0  502  0.32265057710E+02  0.58966242979E+02 -0.16489958171E+03  0.17813481919E+03  0.47000000000E+01 0. -1.
          5    1    5    5  503    0 -0.31115371648E+02 -0.48143492653E+02 -0.27122509275E+03  0.27725638527E+03  0.47000000000E+01 0.  1.
         -5    1    5    5    0  503 -0.14124872168E+01  0.32819701809E+02 -0.89442920882E+03  0.89504459528E+03  0.47000000000E+01 0.  1.
<mgrwt>
<rscale>  0 0.27647237E+03</rscale>
<asrwt>0</asrwt>
<pdfrwt beam="1">  1        1 0.25932169E+00 0.27647237E+03</pdfrwt>
<pdfrwt beam="2">  1       -1 0.17441262E-02 0.27647237E+03</pdfrwt>
<totfact> 0.45256870E+03</totfact>
</mgrwt>
</event>
<event>
 9    1  0.2065703E-002  0.2753046E+03  0.7818608E-02  0.1098281E+00
         -3   -1    0    0    0  501 -0.00000000000E+00  0.00000000000E+00  0.11893350583E+03  0.11893350583E+03  0.00000000000E+00 0. -1.
          3   -1    0    0  501    0  0.00000000000E+00 -0.00000000000E+00 -0.15931718633E+03  0.15931718633E+03  0.00000000000E+00 0. -1.
         36    2    1    2    0    0  0.00000000000E+00  0.44408920985E-15 -0.40383680500E+02  0.27825069216E+03  0.27530456959E+03 0.  0.
         25    2    3    3    0    0  0.50577133580E+02 -0.32239179861E+01  0.78360107690E+01  0.13616406028E+03  0.12613805198E+03 0.  0.
         25    2    3    3    0    0 -0.50577133580E+02  0.32239179861E+01 -0.48219691269E+02  0.14208663188E+03  0.12367308618E+03 0.  0.
          5    1    4    4  502    0  0.86849354029E+02  0.29683912795E+01 -0.20589485546E+02  0.89429517258E+02  0.47000000000E+01 0.  1.
         -5    1    4    4    0  502 -0.36272220449E+02 -0.61923092657E+01  0.28425496315E+02  0.46734543018E+02  0.47000000000E+01 0.  1.
          5    1    5    5  503    0 -0.54128450598E+02 -0.29165032206E+02  0.21240026053E+02  0.65220525715E+02  0.47000000000E+01 0.  1.
         -5    1    5    5    0  503  0.35513170179E+01  0.32388950192E+02 -0.69459717322E+02  0.76866106169E+02  0.47000000000E+01 0.  1.
<mgrwt>
<rscale>  0 0.27530457E+03</rscale>
<asrwt>0</asrwt>
<pdfrwt beam="1">  1        3 0.24510336E-01 0.27530457E+03</pdfrwt>
<pdfrwt beam="2">  1       -3 0.18297462E-01 0.27530457E+03</pdfrwt>
<totfact> 0.10404401E+03</totfact>
</mgrwt>
</event>
<event>
 9    1  0.2065703E-002  0.2767320E+03  0.7818608E-02  0.1097487E+00
          4   -1    0    0  501    0  0.00000000000E+00  0.00000000000E+00  0.17265549557E+02  0.17265549557E+02  0.00000000000E+00 0. -1.
         -4   -1    0    0    0  501 -0.00000000000E+00 -0.00000000000E+00 -0.11088638221E+04  0.11088638221E+04  0.00000000000E+00 0. -1.
         36    2    1    2    0    0  0.00000000000E+00  0.00000000000E+00 -0.10915982726E+04  0.11261293717E+04  0.27673195170E+03 0.  0.
         25    2    3    3    0    0  0.43601277068E+02  0.37214421648E+02 -0.51645721840E+03  0.53455404382E+03  0.12543517367E+03 0.  0.
         25    2    3    3    0    0 -0.43601277068E+02 -0.37214421648E+02 -0.57514105419E+03  0.59157532788E+03  0.12604821219E+03 0.  0.
          5    1    4    4  502    0  0.42745477530E+02  0.67116888165E+02 -0.18152319403E+03  0.19825390916E+03  0.47000000000E+01 0.  1.
         -5    1    4    4    0  502  0.85579953826E+00 -0.29902466517E+02 -0.33493402437E+03  0.33630013467E+03  0.47000000000E+01 0.  1.
          5    1    5    5  503    0 -0.45231077224E+02 -0.20131653017E+02 -0.57118831656E+03  0.57334921015E+03  0.47000000000E+01 0. -1.
         -5    1    5    5    0  503  0.16298001556E+01 -0.17082768630E+02 -0.39527376258E+01  0.18226117726E+02  0.47000000000E+01 0. -1.
<mgrwt>
<rscale>  0 0.27673195E+03</rscale>
<asrwt>0</asrwt>
<pdfrwt beam="1">  1        4 0.26562399E-02 0.27673195E+03</pdfrwt>
<pdfrwt beam="2">  1       -4 0.17059434E+00 0.27673195E+03</pdfrwt>
<totfact> 0.27512865E+02</totfact>
</mgrwt>
</event>
<event>
 9    1  0.2065703E-002  0.2662984E+03  0.7818608E-02  0.1103417E+00
          2   -1    0    0  501    0  0.00000000000E+00  0.00000000000E+00  0.37369286368E+03  0.37369286368E+03  0.00000000000E+00 0.  1.
         -2   -1    0    0    0  501 -0.00000000000E+00 -0.00000000000E+00 -0.47441942997E+02  0.47441942997E+02  0.00000000000E+00 0.  1.
         36    2    1    2    0    0 -0.14210854715E-13 -0.17763568394E-14  0.32625092068E+03  0.42113480668E+03  0.26629844564E+03 0.  0.
         25    2    3    3    0    0 -0.31520086687E+02 -0.13456264193E+02  0.20502775814E+03  0.24477728766E+03  0.12924763842E+03 0.  0.
         25    2    3    3    0    0  0.31520086687E+02  0.13456264193E+02  0.12122316255E+03  0.17635751902E+03  0.12341933587E+03 0.  0.
          5    1    4    4  502    0 -0.81812349073E+02 -0.12881197220E+02  0.12013498489E+03  0.14599208984E+03  0.47000000000E+01 0. -1.
         -5    1    4    4    0  502  0.50292262386E+02 -0.57506697294E+00  0.84892773249E+02  0.98785197818E+02  0.47000000000E+01 0. -1.
          5    1    5    5  503    0  0.48887193988E+02 -0.43248417095E+02  0.43918084345E+02  0.78811620017E+02  0.47000000000E+01 0. -1.
         -5    1    5    5    0  503 -0.17367107301E+02  0.56704681288E+02  0.77305078201E+02  0.97545898999E+02  0.47000000000E+01 0. -1.
<mgrwt>
<rscale>  0 0.26629845E+03</rscale>
<asrwt>0</asrwt>
<pdfrwt beam="1">  1        2 0.57491208E-01 0.26629845E+03</pdfrwt>
<pdfrwt beam="2">  1       -2 0.72987607E-02 0.26629845E+03</pdfrwt>
<totfact> 0.93083206E+03</totfact>
</mgrwt>
</event>
<event>
 9    1  0.2065703E-002  0.2756944E+03  0.7818608E-02  0.1098064E+00
         -1   -1    0    0    0  501 -0.00000000000E+00  0.00000000000E+00  0.35993744793E+02  0.35993744793E+02  0.00000000000E+00 0.  1.
          1   -1    0    0  501    0  0.00000000000E+00 -0.00000000000E+00 -0.52792087936E+03  0.52792087936E+03  0.00000000000E+00 0.  1.
         36    2    1    2    0    0 -0.35527136788E-14  0.00000000000E+00 -0.49192713457E+03  0.56391462416E+03  0.27569439169E+03 0.  0.
         25    2    3    3    0    0 -0.63829898281E+01 -0.48081864356E+02 -0.22683001838E+03  0.26484108823E+03  0.12781367900E+03 0.  0.
         25    2    3    3    0    0  0.63829898281E+01  0.48081864356E+02 -0.26509711619E+03  0.29907353592E+03  0.12967609894E+03 0.  0.
          5    1    4    4  502    0  0.27565634148E+02 -0.57169112071E+02 -0.21962464919E+03  0.22865967745E+03  0.47000000000E+01 0.  1.
         -5    1    4    4    0  502 -0.33948623976E+02  0.90872477157E+01 -0.72053691886E+01  0.36181410780E+02  0.47000000000E+01 0.  1.
          5    1    5    5  503    0 -0.33176943313E+02  0.73303921187E+02 -0.21803173097E+03  0.23245236100E+03  0.47000000000E+01 0. -1.
         -5    1    5    5    0  503  0.39559933141E+02 -0.25222056832E+02 -0.47065385225E+02  0.66621174917E+02  0.47000000000E+01 0. -1.
<mgrwt>
<rscale>  0 0.27569439E+03</rscale>
<asrwt>0</asrwt>
<pdfrwt beam="1">  1        1 0.81218591E-01 0.27569439E+03</pdfrwt>
<pdfrwt beam="2">  1       -1 0.55374996E-02 0.27569439E+03</pdfrwt>
<totfact> 0.63033905E+03</totfact>
</mgrwt>
</event>
<event>
 9    1  0.2065703E-002  0.2748710E+03  0.7818608E-02  0.1098524E+00
          2   -1    0    0  501    0  0.00000000000E+00  0.00000000000E+00  0.19026290912E+02  0.19026290912E+02  0.00000000000E+00 0. -1.
         -2   -1    0    0    0  501 -0.00000000000E+00 -0.00000000000E+00 -0.99275885364E+03  0.99275885364E+03  0.00000000000E+00 0. -1.
         36    2    1    2    0    0  0.00000000000E+00  0.00000000000E+00 -0.97373256272E+03  0.10117851445E+04  0.27487101524E+03 0.  0.
         25    2    3    3    0    0  0.18787626299E+02  0.49037965858E+02 -0.51665633980E+03  0.53570066373E+03  0.13146760312E+03 0.  0.
         25    2    3    3    0    0 -0.18787626299E+02 -0.49037965858E+02 -0.45707622292E+03  0.47608448082E+03  0.12239306481E+03 0.  0.
          5    1    4    4  502    0 -0.18492778686E+02 -0.20940184172E+02 -0.34935608287E+03  0.35050283425E+03  0.47000000000E+01 0. -1.
         -5    1    4    4    0  502  0.37280404986E+02  0.69978150030E+02 -0.16730025693E+03  0.18519782948E+03  0.47000000000E+01 0. -1.
          5    1    5    5  503    0  0.11851234611E+02 -0.69794632502E+02 -0.14130048409E+03  0.15811280559E+03  0.47000000000E+01 0. -1.
         -5    1    5    5    0  503 -0.30638860910E+02  0.20756666644E+02 -0.31577573884E+03  0.31797167523E+03  0.47000000000E+01 0. -1.
<mgrwt>
<rscale>  0 0.27487102E+03</rscale>
<asrwt>0</asrwt>
<pdfrwt beam="1">  1        2 0.29271228E-02 0.27487102E+03</pdfrwt>
<pdfrwt beam="2">  1       -2 0.15273207E+00 0.27487102E+03</pdfrwt>
<totfact> 0.98061507E+02</totfact>
</mgrwt>
</event>
<event>
 9    1  0.2065703E-002  0.2750027E+03  0.7818608E-02  0.1098450E+00
          2   -1    0    0  501    0  0.00000000000E+00  0.00000000000E+00  0.48683243551E+03  0.48683243551E+03  0.00000000000E+00 0. -1.
         -2   -1    0    0    0  501 -0.00000000000E+00 -0.00000000000E+00 -0.38835990633E+02  0.38835990633E+02  0.00000000000E+00 0. -1.
         36    2    1    2    0    0  0.71054273576E-14  0.71054273576E-14  0.44799644488E+03  0.52566842614E+03  0.27500269021E+03 0.  0.
         25    2    3    3    0    0  0.60588164206E+02 -0.38723262361E+02  0.20505419110E+03  0.24653504928E+03  0.11645553893E+03 0.  0.
         25    2    3    3    0    0 -0.60588164206E+02  0.38723262361E+02  0.24294225378E+03  0.27913337686E+03  0.11714984727E+03 0.  0.
          5    1    4    4  502    0  0.23602677174E+01  0.44322269343E+01 -0.14084523071E+02  0.15674159928E+02  0.47000000000E+01 0. -1.
         -5    1    4    4    0  502  0.58227896489E+02 -0.43155489296E+02  0.21913871417E+03  0.23086088936E+03  0.47000000000E+01 0. -1.
          5    1    5    5  503    0 -0.60023174644E+02 -0.23100008450E+02  0.68870853047E+02  0.94348695191E+02  0.47000000000E+01 0.  1.
         -5    1    5    5    0  503 -0.56498956217E+00  0.61823270812E+02  0.17407140073E+03  0.18478468167E+03  0.47000000000E+01 0.  1.
<mgrwt>
<rscale>  0 0.27500269E+03</rscale>
<asrwt>0</asrwt>
<pdfrwt beam="1">  1        2 0.74897294E-01 0.27500269E+03</pdfrwt>
<pdfrwt beam="2">  1       -2 0.59747681E-02 0.27500269E+03</pdfrwt>
<totfact> 0.95013521E+03</totfact>
</mgrwt>
</event>
<event>
 9    1  0.2065703E-002  0.2768809E+03  0.7818608E-02  0.1097405E+00
         -2   -1    0    0    0  501 -0.00000000000E+00  0.00000000000E+00  0.10859338748E+02  0.10859338748E+02  0.00000000000E+00 0.  1.
          2   -1    0    0  501    0  0.00000000000E+00 -0.00000000000E+00 -0.17649097895E+04  0.17649097895E+04  0.00000000000E+00 0.  1.
         36    2    1    2    0    0  0.00000000000E+00 -0.71054273576E-14 -0.17540504507E+04  0.17757691282E+04  0.27688086437E+03 0.  0.
         25    2    3    3    0    0 -0.41124422163E+02  0.25668107876E+02 -0.10097595763E+04  0.10178459456E+04  0.11851538750E+03 0.  0.
         25    2    3    3    0    0  0.41124422163E+02 -0.25668107876E+02 -0.74429087443E+03  0.75792318268E+03  0.13464239758E+03 0.  0.
          5    1    4    4  502    0 -0.45539413113E+02  0.45890865452E+02 -0.97475964162E+03  0.97691261565E+03  0.47000000000E+01 0. -1.
         -5    1    4    4    0  502  0.44149909505E+01 -0.20222757577E+02 -0.34999934692E+02  0.40933329910E+02  0.47000000000E+01 0. -1.
          5    1    5    5  503    0  0.10750167852E+02  0.49161458937E+02 -0.44609968124E+03  0.44895370669E+03  0.47000000000E+01 0.  1.
         -5    1    5    5    0  503  0.30374254311E+02 -0.74829566813E+02 -0.29819119319E+03  0.30896947599E+03  0.47000000000E+01 0.  1.
<mgrwt>
<rscale>  0 0.27688086E+03</rscale>
<asrwt>0</asrwt>
<pdfrwt beam="1">  1        2 0.27152445E+00 0.27688086E+03</pdfrwt>
<pdfrwt beam="2">  1       -2 0.16706683E-02 0.27688086E+03</pdfrwt>
<totfact> 0.99486681E+03</totfact>
</mgrwt>
</event>
<event>
 9    1  0.2065703E-002  0.2756667E+03  0.7818608E-02  0.1098080E+00
          1   -1    0    0  501    0  0.00000000000E+00  0.00000000000E+00  0.99082161768E+02  0.99082161768E+02  0.00000000000E+00 0.  1.
         -1   -1    0    0    0  501 -0.00000000000E+00 -0.00000000000E+00 -0.19174017145E+03  0.19174017145E+03  0.00000000000E+00 0.  1.
         36    2    1    2    0    0  0.00000000000E+00 -0.71054273576E-14 -0.92658009682E+02  0.29082233322E+03  0.27566668776E+03 0.  0.
         25    2    3    3    0    0 -0.18661220534E+02 -0.50569598807E+02 -0.19897818316E+02  0.13193534757E+03  0.11876652428E+03 0.  0.
         25    2    3    3    0    0  0.18661220534E+02  0.50569598807E+02 -0.72760191366E+02  0.15888698565E+03  0.13055842863E+03 0.  0.
          5    1    4    4  502    0 -0.47295414524E+02  0.66966506530E+00 -0.47237164352E+02  0.67013016514E+02  0.47000000000E+01 0. -1.
         -5    1    4    4    0  502  0.28634193990E+02 -0.51239263872E+02  0.27339346036E+02  0.64922331053E+02  0.47000000000E+01 0. -1.
          5    1    5    5  503    0  0.32874951597E+02  0.76638010636E+02 -0.37436382811E+01  0.83607726583E+02  0.47000000000E+01 0. -1.
         -5    1    5    5    0  503 -0.14213731063E+02 -0.26068411829E+02 -0.69016553084E+02  0.75279259067E+02  0.47000000000E+01 0. -1.
<mgrwt>
<rscale>  0 0.27566669E+03</rscale>
<asrwt>0</asrwt>
<pdfrwt beam="1">  1        1 0.15243410E-01 0.27566669E+03</pdfrwt>
<pdfrwt beam="2">  1       -1 0.29498488E-01 0.27566669E+03</pdfrwt>
<totfact> 0.38159070E+03</totfact>
</mgrwt>
</event>
<event>
 9    1  0.2065703E-002  0.2751893E+03  0.7818608E-02  0.1098346E+00
          2   -1    0    0  501    0  0.00000000000E+00  0.00000000000E+00  0.10500091061E+04  0.10500091061E+04  0.00000000000E+00 0. -1.
         -2   -1    0    0    0  501 -0.00000000000E+00 -0.00000000000E+00 -0.18030588685E+02  0.18030588685E+02  0.00000000000E+00 0. -1.
         36    2    1    2    0    0  0.00000000000E+00  0.14210854715E-13  0.10319785174E+04  0.10680396948E+04  0.27518926075E+03 0.  0.
         25    2    3    3    0    0 -0.40801940097E+02  0.41419792216E+02  0.60934264358E+03  0.62463819503E+03  0.12447497699E+03 0.  0.
         25    2    3    3    0    0  0.40801940097E+02 -0.41419792216E+02  0.42263587381E+03  0.44340149974E+03  0.12084457222E+03 0.  0.
          5    1    4    4  502    0 -0.49538641891E+02 -0.31979293517E+02  0.34848064702E+03  0.35346513775E+03  0.47000000000E+01 0. -1.
         -5    1    4    4    0  502  0.87367017940E+01  0.73399085732E+02  0.26086199656E+03  0.27117305728E+03  0.47000000000E+01 0. -1.
          5    1    5    5  503    0  0.35075423261E+02  0.34656051828E+02  0.24599603778E+03  0.25093319400E+03  0.47000000000E+01 0.  1.
         -5    1    5    5    0  503  0.57265168366E+01 -0.76075844044E+02  0.17663983603E+03  0.19246830574E+03  0.47000000000E+01 0.  1.
<mgrwt>
<rscale>  0 0.27518926E+03</rscale>
<asrwt>0</asrwt>
<pdfrwt beam="1">  1        2 0.16153982E+00 0.27518926E+03</pdfrwt>
<pdfrwt beam="2">  1       -2 0.27739375E-02 0.27518926E+03</pdfrwt>
<totfact> 0.11626394E+04</totfact>
</mgrwt>
</event>
<event>
 9    1  0.2065703E-002  0.2752001E+03  0.7818608E-02  0.1098340E+00
         -1   -1    0    0    0  501 -0.00000000000E+00  0.00000000000E+00  0.66609617181E+02  0.66609617181E+02  0.00000000000E+00 0. -1.
          1   -1    0    0  501    0  0.00000000000E+00 -0.00000000000E+00 -0.28424978353E+03  0.28424978353E+03  0.00000000000E+00 0. -1.
         36    2    1    2    0    0  0.00000000000E+00 -0.88817841970E-15 -0.21764016635E+03  0.35085940071E+03  0.27520006733E+03 0.  0.
         25    2    3    3    0    0  0.52743462226E+02 -0.76836815819E+01 -0.11919771313E+03  0.18013268900E+03  0.12409181706E+03 0.  0.
         25    2    3    3    0    0 -0.52743462226E+02  0.76836815819E+01 -0.98442453224E+02  0.17072671171E+03  0.12890221769E+03 0.  0.
          5    1    4    4  502    0 -0.33586280805E+02 -0.14578350082E+02 -0.73145937141E+02  0.81932805821E+02  0.47000000000E+01 0.  1.
         -5    1    4    4    0  502  0.86329743031E+02  0.68946685004E+01 -0.46051775989E+02  0.98199883183E+02  0.47000000000E+01 0.  1.
          5    1    5    5  503    0 -0.19279071756E+02 -0.36990704858E+02  0.14700323332E+02  0.44476784503E+02  0.47000000000E+01 0.  1.
         -5    1    5    5    0  503 -0.33464390470E+02  0.44674386440E+02 -0.11314277656E+03  0.12624992721E+03  0.47000000000E+01 0.  1.
<mgrwt>
<rscale>  0 0.27520007E+03</rscale>
<asrwt>0</asrwt>
<pdfrwt beam="1">  1        1 0.43730736E-01 0.27520007E+03</pdfrwt>
<pdfrwt beam="2">  1       -1 0.10247633E-01 0.27520007E+03</pdfrwt>
<totfact> 0.54688850E+03</totfact>
</mgrwt>
</event>
<event>
 9    1  0.2065703E-002  0.2743977E+03  0.7818608E-02  0.1098789E+00
         -2   -1    0    0    0  501 -0.00000000000E+00  0.00000000000E+00  0.10753562174E+02  0.10753562174E+02  0.00000000000E+00 0.  1.
          2   -1    0    0  501    0  0.00000000000E+00 -0.00000000000E+00 -0.17504451881E+04  0.17504451881E+04  0.00000000000E+00 0.  1.
         36    2    1    2    0    0  0.00000000000E+00 -0.44408920985E-15 -0.17396916259E+04  0.17611987503E+04  0.27439767610E+03 0.  0.
         25    2    3    3    0    0  0.10405849717E+02 -0.26065837678E+01 -0.45937427545E+03  0.47483571268E+03  0.11970444060E+03 0.  0.
         25    2    3    3    0    0 -0.10405849717E+02  0.26065837678E+01 -0.12803173505E+04  0.12863630376E+04  0.12410588457E+03 0.  0.
          5    1    4    4  502    0  0.59177240273E+02  0.14841683947E+01 -0.34885569384E+03  0.35387361253E+03  0.47000000000E+01 0. -1.
         -5    1    4    4    0  502 -0.48771390556E+02 -0.40907521625E+01 -0.11051858162E+03  0.12096210015E+03  0.47000000000E+01 0. -1.
          5    1    5    5  503    0  0.15873788737E+02  0.21322757354E+02 -0.11905859668E+04  0.11908919647E+04  0.47000000000E+01 0.  1.
         -5    1    5    5    0  503 -0.26279638454E+02 -0.18716173586E+02 -0.89731383604E+02  0.95471072868E+02  0.47000000000E+01 0.  1.
<mgrwt>
<rscale>  0 0.27439768E+03</rscale>
<asrwt>0</asrwt>
<pdfrwt beam="1">  1        2 0.26929917E+00 0.27439768E+03</pdfrwt>
<pdfrwt beam="2">  1       -2 0.16543947E-02 0.27439768E+03</pdfrwt>
<totfact> 0.10269259E+04</totfact>
</mgrwt>
</event>
<event>
 9    1  0.2065703E-002  0.2747265E+03  0.7818608E-02  0.1098605E+00
          4   -1    0    0  501    0  0.00000000000E+00  0.00000000000E+00  0.23591953215E+02  0.23591953215E+02  0.00000000000E+00 0.  1.
         -4   -1    0    0    0  501 -0.00000000000E+00 -0.00000000000E+00 -0.79979201345E+03  0.79979201345E+03  0.00000000000E+00 0.  1.
         36    2    1    2    0    0 -0.71054273576E-14  0.35527136788E-14 -0.77620006023E+03  0.82338396666E+03  0.27472645132E+03 0.  0.
         25    2    3    3    0    0 -0.57533373798E+02  0.10566942775E+02 -0.41011683151E+03  0.43235848248E+03  0.12375900979E+03 0.  0.
         25    2    3    3    0    0  0.57533373798E+02 -0.10566942775E+02 -0.36608322872E+03  0.39102548418E+03  0.12434729409E+03 0.  0.
          5    1    4    4  502    0 -0.41801250691E+02  0.32087709413E+02 -0.39996414023E+03  0.40344809967E+03  0.47000000000E+01 0.  1.
         -5    1    4    4    0  502 -0.15732123106E+02 -0.21520766638E+02 -0.10152691276E+02  0.28910382811E+02  0.47000000000E+01 0.  1.
          5    1    5    5  503    0  0.10985163984E+02 -0.18001982617E+02  0.28406914605E+00  0.21608236883E+02  0.47000000000E+01 0.  1.
         -5    1    5    5    0  503  0.46548209813E+02  0.74350398419E+01 -0.36636729787E+03  0.36941724730E+03  0.47000000000E+01 0.  1.
<mgrwt>
<rscale>  0 0.27472645E+03</rscale>
<asrwt>0</asrwt>
<pdfrwt beam="1">  1        4 0.36295306E-02 0.27472645E+03</pdfrwt>
<pdfrwt beam="2">  1       -4 0.12304495E+00 0.27472645E+03</pdfrwt>
<totfact> 0.38869006E+02</totfact>
</mgrwt>
</event>
<event>
 9    1  0.2065703E-002  0.2748284E+03  0.7818608E-02  0.1098548E+00
          1   -1    0    0  501    0  0.00000000000E+00  0.00000000000E+00  0.11835844409E+03  0.11835844409E+03  0.00000000000E+00 0. -1.
         -1   -1    0    0    0  501 -0.00000000000E+00 -0.00000000000E+00 -0.15953793234E+03  0.15953793234E+03  0.00000000000E+00 0. -1.
         36    2    1    2    0    0  0.71054273576E-14  0.00000000000E+00 -0.41179488251E+02  0.27789637643E+03  0.27482839333E+03 0.  0.
         25    2    3    3    0    0  0.41952352589E+02 -0.34722642509E+02 -0.35399543995E+02  0.14055198642E+03  0.12464377795E+03 0.  0.
         25    2    3    3    0    0 -0.41952352589E+02  0.34722642509E+02 -0.57799442561E+01  0.13734439000E+03  0.12595400716E+03 0.  0.
          5    1    4    4  502    0  0.27421882729E+02  0.48007724754E+01 -0.76486655907E+02  0.81531010055E+02  0.47000000000E+01 0.  1.
         -5    1    4    4    0  502  0.14530469860E+02 -0.39523414984E+02  0.41087111912E+02  0.59020976370E+02  0.47000000000E+01 0.  1.
          5    1    5    5  503    0 -0.28576237731E+02 -0.20969441769E+02 -0.52336608295E+02  0.63383983929E+02  0.47000000000E+01 0. -1.
         -5    1    5    5    0  503 -0.13376114858E+02  0.55692084278E+02  0.46556664038E+02  0.73960406072E+02  0.47000000000E+01 0. -1.
<mgrwt>
<rscale>  0 0.27482839E+03</rscale>
<asrwt>0</asrwt>
<pdfrwt beam="1">  1        1 0.18208991E-01 0.27482839E+03</pdfrwt>
<pdfrwt beam="2">  1       -1 0.24544297E-01 0.27482839E+03</pdfrwt>
<totfact> 0.41201233E+03</totfact>
</mgrwt>
</event>
<event>
 9    1  0.2065703E-002  0.2748631E+03  0.7818608E-02  0.1098528E+00
          2   -1    0    0  501    0  0.00000000000E+00  0.00000000000E+00  0.59320430200E+03  0.59320430200E+03  0.00000000000E+00 0.  1.
         -2   -1    0    0    0  501 -0.00000000000E+00 -0.00000000000E+00 -0.31839671231E+02  0.31839671231E+02  0.00000000000E+00 0.  1.
         36    2    1    2    0    0  0.35527136788E-14  0.00000000000E+00  0.56136463076E+03  0.62504397323E+03  0.27486309282E+03 0.  0.
         25    2    3    3    0    0 -0.16669493123E+02 -0.42424760654E+01  0.37771772606E+03  0.40133598091E+03  0.13455117386E+03 0.  0.
         25    2    3    3    0    0  0.16669493123E+02  0.42424760654E+01  0.18364690471E+03  0.22370799232E+03  0.12658281722E+03 0.  0.
          5    1    4    4  502    0 -0.67832068082E+02  0.20835170974E+02  0.14236628881E+03  0.15914001382E+03  0.47000000000E+01 0. -1.
         -5    1    4    4    0  502  0.51162574958E+02 -0.25077647040E+02  0.23535143725E+03  0.24219596708E+03  0.47000000000E+01 0. -1.
          5    1    5    5  503    0  0.19741069304E+02 -0.42261700864E+02  0.15838391331E+02  0.49484399735E+02  0.47000000000E+01 0. -1.
         -5    1    5    5    0  503 -0.30715761802E+01  0.46504176929E+02  0.16780851338E+03  0.17422359259E+03  0.47000000000E+01 0. -1.
<mgrwt>
<rscale>  0 0.27486309E+03</rscale>
<asrwt>0</asrwt>
<pdfrwt beam="1">  1        2 0.91262192E-01 0.27486309E+03</pdfrwt>
<pdfrwt beam="2">  1       -2 0.48984114E-02 0.27486309E+03</pdfrwt>
<totfact> 0.10281102E+04</totfact>
</mgrwt>
</event>
<event>
 9    1  0.2065703E-002  0.2747159E+03  0.7818608E-02  0.1098611E+00
          2   -1    0    0  501    0  0.00000000000E+00  0.00000000000E+00  0.92640113720E+03  0.92640113720E+03  0.00000000000E+00 0.  1.
         -2   -1    0    0    0  501 -0.00000000000E+00 -0.00000000000E+00 -0.20366126946E+02  0.20366126946E+02  0.00000000000E+00 0.  1.
         36    2    1    2    0    0  0.71054273576E-14 -0.35527136788E-14  0.90603501025E+03  0.94676726414E+03  0.27471587623E+03 0.  0.
         25    2    3    3    0    0 -0.19889415375E+02  0.20922565464E+02  0.58122118473E+03  0.59490219908E+03  0.12352011297E+03 0.  0.
         25    2    3    3    0    0  0.19889415375E+02 -0.20922565464E+02  0.32481382552E+03  0.35186506506E+03  0.13218040766E+03 0.  0.
          5    1    4    4  502    0 -0.52938809697E+02 -0.32257692432E+02  0.23807434406E+03  0.24605804111E+03  0.47000000000E+01 0.  1.
         -5    1    4    4    0  502  0.33049394322E+02  0.53180257896E+02  0.34314684066E+03  0.34884415797E+03  0.47000000000E+01 0.  1.
          5    1    5    5  503    0  0.61023019824E+02 -0.15522055255E+02  0.29203569345E+03  0.29878366655E+03  0.47000000000E+01 0.  1.
         -5    1    5    5    0  503 -0.41133604449E+02 -0.54005102091E+01  0.32778132071E+02  0.53081398507E+02  0.47000000000E+01 0.  1.
<mgrwt>
<rscale>  0 0.27471588E+03</rscale>
<asrwt>0</asrwt>
<pdfrwt beam="1">  1        2 0.14252322E+00 0.27471588E+03</pdfrwt>
<pdfrwt beam="2">  1       -2 0.31332510E-02 0.27471588E+03</pdfrwt>
<totfact> 0.11559827E+04</totfact>
</mgrwt>
</event>
<event>
 9    1  0.2065703E-002  0.2746941E+03  0.7818608E-02  0.1098623E+00
         -2   -1    0    0    0  501 -0.00000000000E+00  0.00000000000E+00  0.88596341723E+02  0.88596341723E+02  0.00000000000E+00 0. -1.
          2   -1    0    0  501    0  0.00000000000E+00 -0.00000000000E+00 -0.21292321542E+03  0.21292321542E+03  0.00000000000E+00 0. -1.
         36    2    1    2    0    0  0.71054273576E-14  0.71054273576E-14 -0.12432687370E+03  0.30151955714E+03  0.27469414230E+03 0.  0.
         25    2    3    3    0    0  0.18505946476E+02 -0.43499172531E+02 -0.18482985818E+02  0.13318386545E+03  0.12313274619E+03 0.  0.
         25    2    3    3    0    0 -0.18505946476E+02  0.43499172531E+02 -0.10584388788E+03  0.16833569170E+03  0.12206280527E+03 0.  0.
          5    1    4    4  502    0 -0.79313836951E+01  0.37743573807E+02  0.14515440572E+02  0.41476164553E+02  0.47000000000E+01 0.  1.
         -5    1    4    4    0  502  0.26437330171E+02 -0.81242746338E+02 -0.32998426390E+02  0.91707700894E+02  0.47000000000E+01 0.  1.
          5    1    5    5  503    0 -0.63386595086E+02  0.48801574865E+02 -0.89293791401E+02  0.11997885367E+03  0.47000000000E+01 0.  1.
         -5    1    5    5    0  503  0.44880648610E+02 -0.53024023332E+01 -0.16550096478E+02  0.48356838023E+02  0.47000000000E+01 0.  1.
<mgrwt>
<rscale>  0 0.27469414E+03</rscale>
<asrwt>0</asrwt>
<pdfrwt beam="1">  1        2 0.32757417E-01 0.27469414E+03</pdfrwt>
<pdfrwt beam="2">  1       -2 0.13630207E-01 0.27469414E+03</pdfrwt>
<totfact> 0.63348458E+03</totfact>
</mgrwt>
</event>
<event>
 9    1  0.2065703E-002  0.2740407E+03  0.7818608E-02  0.1098989E+00
         -2   -1    0    0    0  501 -0.00000000000E+00  0.00000000000E+00  0.26075570306E+02  0.26075570306E+02  0.00000000000E+00 0.  1.
          2   -1    0    0  501    0  0.00000000000E+00 -0.00000000000E+00 -0.72000637625E+03  0.72000637625E+03  0.00000000000E+00 0.  1.
         36    2    1    2    0    0  0.00000000000E+00  0.00000000000E+00 -0.69393080594E+03  0.74608194655E+03  0.27404070416E+03 0.  0.
         25    2    3    3    0    0  0.31516985100E+02 -0.30792530753E+02 -0.42097669867E+03  0.44089731077E+03  0.12339998995E+03 0.  0.
         25    2    3    3    0    0 -0.31516985100E+02  0.30792530753E+02 -0.27295410727E+03  0.30518463578E+03  0.12919836277E+03 0.  0.
          5    1    4    4  502    0  0.54942467998E+02  0.31809116187E+02 -0.22156109942E+03  0.23052528156E+03  0.47000000000E+01 0. -1.
         -5    1    4    4    0  502 -0.23425482898E+02 -0.62601646939E+02 -0.19941559925E+03  0.21037202921E+03  0.47000000000E+01 0. -1.
          5    1    5    5  503    0 -0.13473518982E+02  0.39941342961E+02 -0.12942165583E+02  0.44344517601E+02  0.47000000000E+01 0.  1.
         -5    1    5    5    0  503 -0.18043466118E+02 -0.91488122082E+01 -0.26001194168E+03  0.26084011818E+03  0.47000000000E+01 0.  1.
<mgrwt>
<rscale>  0 0.27404070E+03</rscale>
<asrwt>0</asrwt>
<pdfrwt beam="1">  1        2 0.11077021E+00 0.27404070E+03</pdfrwt>
<pdfrwt beam="2">  1       -2 0.40116262E-02 0.27404070E+03</pdfrwt>
<totfact> 0.11040438E+04</totfact>
</mgrwt>
</event>
<event>
 9    1  0.2065703E-002  0.2747525E+03  0.7818608E-02  0.1098590E+00
          1   -1    0    0  501    0  0.00000000000E+00  0.00000000000E+00  0.27818137067E+02  0.27818137067E+02  0.00000000000E+00 0. -1.
         -1   -1    0    0    0  501 -0.00000000000E+00 -0.00000000000E+00 -0.67841494684E+03  0.67841494684E+03  0.00000000000E+00 0. -1.
         36    2    1    2    0    0  0.00000000000E+00 -0.53290705182E-14 -0.65059680977E+03  0.70623308391E+03  0.27475254306E+03 0.  0.
         25    2    3    3    0    0 -0.41326091186E+02 -0.10143421119E+02 -0.42571028898E+03  0.44578429223E+03  0.12523438126E+03 0.  0.
         25    2    3    3    0    0  0.41326091186E+02  0.10143421119E+02 -0.22488652079E+03  0.26044879168E+03  0.12429356800E+03 0.  0.
          5    1    4    4  502    0 -0.27011001102E+02  0.55254076053E+02 -0.15364624581E+03  0.16556529211E+03  0.47000000000E+01 0.  1.
         -5    1    4    4    0  502 -0.14315090084E+02 -0.65397497171E+02 -0.27206404317E+03  0.28021900011E+03  0.47000000000E+01 0.  1.
          5    1    5    5  503    0  0.62081680741E+01  0.16108000485E+02  0.11551499069E+02  0.21296388455E+02  0.47000000000E+01 0.  1.
         -5    1    5    5    0  503  0.35117923112E+02 -0.59645793668E+01 -0.23643801986E+03  0.23915240322E+03  0.47000000000E+01 0.  1.
<mgrwt>
<rscale>  0 0.27475254E+03</rscale>
<asrwt>0</asrwt>
<pdfrwt beam="1">  1        1 0.42797134E-02 0.27475254E+03</pdfrwt>
<pdfrwt beam="2">  1       -1 0.10437153E+00 0.27475254E+03</pdfrwt>
<totfact> 0.18910889E+03</totfact>
</mgrwt>
</event>
<event>
 9    1  0.2065703E-002  0.2758736E+03  0.7818608E-02  0.1097964E+00
          2   -1    0    0  501    0  0.00000000000E+00  0.00000000000E+00  0.15713024975E+04  0.15713024975E+04  0.00000000000E+00 0.  1.
         -2   -1    0    0    0  501 -0.00000000000E+00 -0.00000000000E+00 -0.12108781244E+02  0.12108781244E+02  0.00000000000E+00 0.  1.
         36    2    1    2    0    0  0.71054273576E-14  0.00000000000E+00  0.15591937163E+04  0.15834112788E+04  0.27587358127E+03 0.  0.
         25    2    3    3    0    0 -0.46551817762E+02  0.31967568556E+02  0.81995631732E+03  0.83066471580E+03  0.12035992106E+03 0.  0.
         25    2    3    3    0    0  0.46551817762E+02 -0.31967568556E+02  0.73923739897E+03  0.75274656298E+03  0.13025536017E+03 0.  0.
          5    1    4    4  502    0  0.14100496499E+02  0.62948817940E+02  0.40027832809E+03  0.40547035357E+03  0.47000000000E+01 0.  1.
         -5    1    4    4    0  502 -0.60652314261E+02 -0.30981249384E+02  0.41967798923E+03  0.42519436224E+03  0.47000000000E+01 0.  1.
          5    1    5    5  503    0  0.68725478252E+02  0.30042316461E+02  0.43295386238E+03  0.43942788839E+03  0.47000000000E+01 0.  1.
         -5    1    5    5    0  503 -0.22173660490E+02 -0.62009885017E+02  0.30628353659E+03  0.31331867459E+03  0.47000000000E+01 0.  1.
<mgrwt>
<rscale>  0 0.27587358E+03</rscale>
<asrwt>0</asrwt>
<pdfrwt beam="1">  1        2 0.24173868E+00 0.27587358E+03</pdfrwt>
<pdfrwt beam="2">  1       -2 0.18628907E-02 0.27587358E+03</pdfrwt>
<totfact> 0.10728385E+04</totfact>
</mgrwt>
</event>
<event>
 9    1  0.2065703E-002  0.2747087E+03  0.7818608E-02  0.1098615E+00
          2   -1    0    0  501    0  0.00000000000E+00  0.00000000000E+00  0.57358679325E+03  0.57358679325E+03  0.00000000000E+00 0. -1.
         -2   -1    0    0    0  501 -0.00000000000E+00 -0.00000000000E+00 -0.32891654242E+02  0.32891654242E+02  0.00000000000E+00 0. -1.
         36    2    1    2    0    0  0.00000000000E+00 -0.71054273576E-14  0.54069513901E+03  0.60647844749E+03  0.27470870741E+03 0.  0.
         25    2    3    3    0    0  0.10937253840E+02  0.49825583223E+02  0.30875634449E+03  0.33757644443E+03  0.12659053401E+03 0.  0.
         25    2    3    3    0    0 -0.10937253840E+02 -0.49825583223E+02  0.23193879452E+03  0.26890200307E+03  0.12613671387E+03 0.  0.
          5    1    4    4  502    0  0.63833363586E+02  0.51065936347E+01  0.11432957430E+03  0.13112634047E+03  0.47000000000E+01 0.  1.
         -5    1    4    4    0  502 -0.52896109746E+02  0.44718989589E+02  0.19442677019E+03  0.20645010395E+03  0.47000000000E+01 0.  1.
          5    1    5    5  503    0  0.54682056826E+02 -0.11224352151E+02  0.13024442482E+03  0.14178086478E+03  0.47000000000E+01 0.  1.
         -5    1    5    5    0  503 -0.65619310666E+02 -0.38601231072E+02  0.10169436970E+03  0.12712113829E+03  0.47000000000E+01 0.  1.
<mgrwt>
<rscale>  0 0.27470871E+03</rscale>
<asrwt>0</asrwt>
<pdfrwt beam="1">  1        2 0.88244114E-01 0.27470871E+03</pdfrwt>
<pdfrwt beam="2">  1       -2 0.50602549E-02 0.27470871E+03</pdfrwt>
<totfact> 0.10172571E+04</totfact>
</mgrwt>
</event>
<event>
 9    1  0.2065703E-002  0.2755393E+03  0.7818608E-02  0.1098151E+00
          1   -1    0    0  501    0  0.00000000000E+00  0.00000000000E+00  0.84105088764E+03  0.84105088764E+03  0.00000000000E+00 0. -1.
         -1   -1    0    0    0  501 -0.00000000000E+00 -0.00000000000E+00 -0.22567573510E+02  0.22567573510E+02  0.00000000000E+00 0. -1.
         36    2    1    2    0    0 -0.71054273576E-14  0.00000000000E+00  0.81848331413E+03  0.86361846115E+03  0.27553930923E+03 0.  0.
         25    2    3    3    0    0 -0.38864148730E+02  0.27132444437E+02  0.31631301279E+03  0.34356354163E+03  0.12544079671E+03 0.  0.
         25    2    3    3    0    0  0.38864148730E+02 -0.27132444437E+02  0.50217030134E+03  0.52005491952E+03  0.12663141858E+03 0.  0.
          5    1    4    4  502    0 -0.79083585006E+02  0.10095157287E+02  0.26089450499E+03  0.27284456812E+03  0.47000000000E+01 0. -1.
         -5    1    4    4    0  502  0.40219436277E+02  0.17037287150E+02  0.55418507802E+02  0.70718973514E+02  0.47000000000E+01 0. -1.
          5    1    5    5  503    0  0.81780966106E+02 -0.37985232023E+02  0.35465485612E+03  0.36596879818E+03  0.47000000000E+01 0. -1.
         -5    1    5    5    0  503 -0.42916817377E+02  0.10852787586E+02  0.14751544521E+03  0.15408612134E+03  0.47000000000E+01 0. -1.
<mgrwt>
<rscale>  0 0.27553931E+03</rscale>
<asrwt>0</asrwt>
<pdfrwt beam="1">  1        1 0.12939242E+00 0.27553931E+03</pdfrwt>
<pdfrwt beam="2">  1       -1 0.34719350E-02 0.27553931E+03</pdfrwt>
<totfact> 0.64590681E+03</totfact>
</mgrwt>
</event>
<event>
 9    1  0.2065703E-002  0.2740066E+03  0.7818608E-02  0.1099008E+00
         -1   -1    0    0    0  501 -0.00000000000E+00  0.00000000000E+00  0.87600569052E+03  0.87600569052E+03  0.00000000000E+00 0. -1.
          1   -1    0    0  501    0  0.00000000000E+00 -0.00000000000E+00 -0.21426690480E+02  0.21426690480E+02  0.00000000000E+00 0. -1.
         36    2    1    2    0    0  0.71054273576E-14 -0.71054273576E-14  0.85457900004E+03  0.89743238099E+03  0.27400658962E+03 0.  0.
         25    2    3    3    0    0  0.38658389666E+02 -0.33500240686E+02  0.33948645997E+03  0.36530101976E+03  0.12480801784E+03 0.  0.
         25    2    3    3    0    0 -0.38658389666E+02  0.33500240686E+02  0.51509254007E+03  0.53213136123E+03  0.12339661081E+03 0.  0.
          5    1    4    4  502    0  0.63827862179E+02  0.12188968164E+02  0.27298309682E+03  0.28065000994E+03  0.47000000000E+01 0. -1.
         -5    1    4    4    0  502 -0.25169472512E+02 -0.45689208850E+02  0.66503363155E+02  0.84651009816E+02  0.47000000000E+01 0. -1.
          5    1    5    5  503    0  0.19480802105E+02  0.23445259153E+02  0.28634617959E+02  0.42085783503E+02  0.47000000000E+01 0. -1.
         -5    1    5    5    0  503 -0.58139191771E+02  0.10054981533E+02  0.48645792211E+03  0.49004557773E+03  0.47000000000E+01 0. -1.
<mgrwt>
<rscale>  0 0.27400659E+03</rscale>
<asrwt>0</asrwt>
<pdfrwt beam="1">  1        1 0.32964146E-02 0.27400659E+03</pdfrwt>
<pdfrwt beam="2">  1       -1 0.13477008E+00 0.27400659E+03</pdfrwt>
<totfact> 0.14847210E+03</totfact>
</mgrwt>
</event>
<event>
 9    1  0.2065703E-002  0.2755099E+03  0.7818608E-02  0.1098167E+00
          2   -1    0    0  501    0  0.00000000000E+00  0.00000000000E+00  0.24155324225E+03  0.24155324225E+03  0.00000000000E+00 0. -1.
         -2   -1    0    0    0  501 -0.00000000000E+00 -0.00000000000E+00 -0.78560026229E+02  0.78560026229E+02  0.00000000000E+00 0. -1.
         36    2    1    2    0    0  0.00000000000E+00  0.88817841970E-15  0.16299321602E+03  0.32011326848E+03  0.27550992031E+03 0.  0.
         25    2    3    3    0    0  0.94064342727E+02  0.56926991111E+01  0.78215553202E+02  0.17390329133E+03  0.12346730165E+03 0.  0.
         25    2    3    3    0    0 -0.94064342727E+02 -0.56926991111E+01  0.84777662823E+02  0.14620997715E+03  0.72866987791E+02 0.  0.
          5    1    4    4  502    0 -0.14714837218E+02 -0.32216334933E+02  0.21764456693E+01  0.35794491010E+02  0.47000000000E+01 0. -1.
         -5    1    4    4    0  502  0.10877917995E+03  0.37909034044E+02  0.76039107533E+02  0.13810880032E+03  0.47000000000E+01 0. -1.
          5    1    5    5  503    0 -0.67534514176E+02 -0.12704923205E+02  0.14184218393E+02  0.70325014967E+02  0.47000000000E+01 0. -1.
         -5    1    5    5    0  503 -0.26529828551E+02  0.70122240940E+01  0.70593444429E+02  0.75884962187E+02  0.47000000000E+01 0. -1.
<mgrwt>
<rscale>  0 0.27550992E+03</rscale>
<asrwt>0</asrwt>
<pdfrwt beam="1">  1        2 0.37162037E-01 0.27550992E+03</pdfrwt>
<pdfrwt beam="2">  1       -2 0.12086158E-01 0.27550992E+03</pdfrwt>
<totfact> 0.67165493E+03</totfact>
</mgrwt>
</event>
<event>
 9    1  0.2065703E-002  0.2744994E+03  0.7818608E-02  0.1098732E+00
         -1   -1    0    0    0  501 -0.00000000000E+00  0.00000000000E+00  0.33062112169E+02  0.33062112169E+02  0.00000000000E+00 0.  1.
          1   -1    0    0  501    0  0.00000000000E+00 -0.00000000000E+00 -0.56976047975E+03  0.56976047975E+03  0.00000000000E+00 0.  1.
         36    2    1    2    0    0  0.00000000000E+00 -0.14210854715E-13 -0.53669836758E+03  0.60282259192E+03  0.27449943454E+03 0.  0.
         25    2    3    3    0    0 -0.64069680300E+02 -0.33476484044E+02 -0.18812597019E+03  0.22588715489E+03  0.10201973911E+03 0.  0.
         25    2    3    3    0    0  0.64069680300E+02  0.33476484044E+02 -0.34857239739E+03  0.37693543703E+03  0.12390322250E+03 0.  0.
          5    1    4    4  502    0  0.20107357716E+02 -0.35085140537E+02 -0.61478923942E+02  0.73736158090E+02  0.47000000000E+01 0.  1.
         -5    1    4    4    0  502 -0.84177038016E+02  0.16086564931E+01 -0.12664704625E+03  0.15215099680E+03  0.47000000000E+01 0.  1.
          5    1    5    5  503    0  0.18059176257E+02 -0.45087881998E+02 -0.84609819530E+02  0.97672731665E+02  0.47000000000E+01 0. -1.
         -5    1    5    5    0  503  0.46010504043E+02  0.78564366041E+02 -0.26396257786E+03  0.27926270536E+03  0.47000000000E+01 0. -1.
<mgrwt>
<rscale>  0 0.27449943E+03</rscale>
<asrwt>0</asrwt>
<pdfrwt beam="1">  1        1 0.87655471E-01 0.27449943E+03</pdfrwt>
<pdfrwt beam="2">  1       -1 0.50864781E-02 0.27449943E+03</pdfrwt>
<totfact> 0.64561681E+03</totfact>
</mgrwt>
</event>
<event>
 9    1  0.2065703E-002  0.2749536E+03  0.7818608E-02  0.1098478E+00
          1   -1    0    0  501    0  0.00000000000E+00  0.00000000000E+00  0.16034718655E+04  0.16034718655E+04  0.00000000000E+00 0. -1.
         -1   -1    0    0    0  501 -0.00000000000E+00 -0.00000000000E+00 -0.11786842826E+02  0.11786842826E+02  0.00000000000E+00 0. -1.
         36    2    1    2    0    0  0.71054273576E-14  0.00000000000E+00  0.15916850226E+04  0.16152587083E+04  0.27495360230E+03 0.  0.
         25    2    3    3    0    0 -0.28218728949E+02  0.43076657059E+02  0.70830829459E+03  0.72133315521E+03  0.12636845169E+03 0.  0.
         25    2    3    3    0    0  0.28218728949E+02 -0.43076657059E+02  0.88337672806E+03  0.89392555309E+03  0.12687220237E+03 0.  0.
          5    1    4    4  502    0 -0.12258855555E+02  0.31918897781E+02  0.69790958524E+03  0.69876245946E+03  0.47000000000E+01 0.  1.
         -5    1    4    4    0  502 -0.15959873394E+02  0.11157759279E+02  0.10398709344E+02  0.22570695755E+02  0.47000000000E+01 0.  1.
          5    1    5    5  503    0 -0.44830402264E+02 -0.43301622495E+02  0.46683032344E+03  0.47099621693E+03  0.47000000000E+01 0. -1.
         -5    1    5    5    0  503  0.73049131213E+02  0.22496543595E+00  0.41654640462E+03  0.42292933616E+03  0.47000000000E+01 0. -1.
<mgrwt>
<rscale>  0 0.27495360E+03</rscale>
<asrwt>0</asrwt>
<pdfrwt beam="1">  1        1 0.24668781E+00 0.27495360E+03</pdfrwt>
<pdfrwt beam="2">  1       -1 0.18133617E-02 0.27495360E+03</pdfrwt>
<totfact> 0.48391135E+03</totfact>
</mgrwt>
</event>
<event>
 9    1  0.2065703E-002  0.2750105E+03  0.7818608E-02  0.1098446E+00
         -2   -1    0    0    0  501 -0.00000000000E+00  0.00000000000E+00  0.93767543652E+02  0.93767543652E+02  0.00000000000E+00 0. -1.
          2   -1    0    0  501    0  0.00000000000E+00 -0.00000000000E+00 -0.20164439018E+03  0.20164439018E+03  0.00000000000E+00 0. -1.
         36    2    1    2    0    0  0.71054273576E-14  0.00000000000E+00 -0.10787684653E+03  0.29541193383E+03  0.27501053913E+03 0.  0.
         25    2    3    3    0    0  0.22600645669E+02  0.51253377580E+01 -0.30167346511E+02  0.13174066598E+03  0.12612880720E+03 0.  0.
         25    2    3    3    0    0 -0.22600645669E+02 -0.51253377580E+01 -0.77709500015E+02  0.16367126785E+03  0.14217052878E+03 0.  0.
          5    1    4    4  502    0 -0.14705364126E+02  0.58866040056E+02 -0.25508507128E+02  0.65986607291E+02  0.47000000000E+01 0.  1.
         -5    1    4    4    0  502  0.37306009795E+02 -0.53740702298E+02 -0.46588393831E+01  0.65754058693E+02  0.47000000000E+01 0.  1.
          5    1    5    5  503    0  0.45961252140E+02  0.27276023759E+02  0.18193731183E+01  0.53682569694E+02  0.47000000000E+01 0.  1.
         -5    1    5    5    0  503 -0.68561897809E+02 -0.32401361517E+02 -0.79528873134E+02  0.10998869815E+03  0.47000000000E+01 0.  1.
<mgrwt>
<rscale>  0 0.27501054E+03</rscale>
<asrwt>0</asrwt>
<pdfrwt beam="1">  1        2 0.31022214E-01 0.27501054E+03</pdfrwt>
<pdfrwt beam="2">  1       -2 0.14425776E-01 0.27501054E+03</pdfrwt>
<totfact> 0.61257994E+03</totfact>
</mgrwt>
</event>
<event>
 9    1  0.2065703E-002  0.2739732E+03  0.7818608E-02  0.1099027E+00
         -2   -1    0    0    0  501 -0.00000000000E+00  0.00000000000E+00  0.29540671624E+02  0.29540671624E+02  0.00000000000E+00 0. -1.
          2   -1    0    0  501    0  0.00000000000E+00 -0.00000000000E+00 -0.63523694716E+03  0.63523694716E+03  0.00000000000E+00 0. -1.
         36    2    1    2    0    0 -0.35527136788E-14  0.71054273576E-14 -0.60569627554E+03  0.66477761878E+03  0.27397318160E+03 0.  0.
         25    2    3    3    0    0  0.20431158032E+02 -0.34359534341E+02 -0.13411171825E+03  0.17553964659E+03  0.10597266032E+03 0.  0.
         25    2    3    3    0    0 -0.20431158032E+02  0.34359534341E+02 -0.47158455729E+03  0.48923797220E+03  0.12395075210E+03 0.  0.
          5    1    4    4  502    0  0.19453524648E+02  0.31649723002E+02 -0.85748901870E+02  0.93568738152E+02  0.47000000000E+01 0. -1.
         -5    1    4    4    0  502  0.97763338400E+00 -0.66009257343E+02 -0.48362816378E+02  0.81970908437E+02  0.47000000000E+01 0. -1.
          5    1    5    5  503    0  0.20760266799E+02 -0.26977868524E+02 -0.46863313705E+02  0.58112427578E+02  0.47000000000E+01 0.  1.
         -5    1    5    5    0  503 -0.41191424831E+02  0.61337402865E+02 -0.42472124358E+03  0.43112554462E+03  0.47000000000E+01 0.  1.
<mgrwt>
<rscale>  0 0.27397318E+03</rscale>
<asrwt>0</asrwt>
<pdfrwt beam="1">  1        2 0.97728761E-01 0.27397318E+03</pdfrwt>
<pdfrwt beam="2">  1       -2 0.45447187E-02 0.27397318E+03</pdfrwt>
<totfact> 0.10630990E+04</totfact>
</mgrwt>
</event>
<event>
 9    1  0.2065703E-002  0.2759503E+03  0.7818608E-02  0.1097922E+00
         -1   -1    0    0    0  501 -0.00000000000E+00  0.00000000000E+00  0.29801283001E+02  0.29801283001E+02  0.00000000000E+00 0.  1.
          1   -1    0    0  501    0  0.00000000000E+00 -0.00000000000E+00 -0.63880282969E+03  0.63880282969E+03  0.00000000000E+00 0.  1.
         36    2    1    2    0    0  0.00000000000E+00  0.00000000000E+00 -0.60900154669E+03  0.66860411269E+03  0.27595031371E+03 0.  0.
         25    2    3    3    0    0 -0.25896420447E+02 -0.37293841113E+02 -0.23482016836E+03  0.27146725643E+03  0.12842314695E+03 0.  0.
         25    2    3    3    0    0  0.25896420447E+02  0.37293841113E+02 -0.37418137833E+03  0.39713685626E+03  0.12507806974E+03 0.  0.
          5    1    4    4  502    0 -0.46046175938E+02 -0.53893281119E+02 -0.23440924017E+03  0.24493778383E+03  0.47000000000E+01 0.  1.
         -5    1    4    4    0  502  0.20149755491E+02  0.16599440006E+02 -0.41092818641E+00  0.26529472608E+02  0.47000000000E+01 0.  1.
          5    1    5    5  503    0  0.27017629348E+02 -0.17687052369E+02 -0.31316835672E+03  0.31486392898E+03  0.47000000000E+01 0. -1.
         -5    1    5    5    0  503 -0.11212089013E+01  0.54980893483E+02 -0.61013021608E+02  0.82272927280E+02  0.47000000000E+01 0. -1.
<mgrwt>
<rscale>  0 0.27595031E+03</rscale>
<asrwt>0</asrwt>
<pdfrwt beam="1">  1        1 0.98277361E-01 0.27595031E+03</pdfrwt>
<pdfrwt beam="2">  1       -1 0.45848126E-02 0.27595031E+03</pdfrwt>
<totfact> 0.64328658E+03</totfact>
</mgrwt>
</event>
<event>
 9    1  0.2065703E-002  0.2751959E+03  0.7818608E-02  0.1098342E+00
          1   -1    0    0  501    0  0.00000000000E+00  0.00000000000E+00  0.45687312977E+03  0.45687312977E+03  0.00000000000E+00 0.  1.
         -1   -1    0    0    0  501 -0.00000000000E+00 -0.00000000000E+00 -0.41440816562E+02  0.41440816562E+02  0.00000000000E+00 0.  1.
         36    2    1    2    0    0 -0.88817841970E-15  0.71054273576E-14  0.41543231321E+03  0.49831394634E+03  0.27519589796E+03 0.  0.
         25    2    3    3    0    0  0.31719124923E+01 -0.40383341174E+02  0.13385198483E+03  0.18714102339E+03  0.12435647759E+03 0.  0.
         25    2    3    3    0    0 -0.31719124923E+01  0.40383341174E+02  0.28158032838E+03  0.31117292295E+03  0.12609611958E+03 0.  0.
          5    1    4    4  502    0  0.43649369289E+01 -0.11464078705E+02  0.15205897190E+03  0.15262535409E+03  0.47000000000E+01 0. -1.
         -5    1    4    4    0  502 -0.11930244366E+01 -0.28919262470E+02 -0.18206987069E+02  0.34515669300E+02  0.47000000000E+01 0. -1.
          5    1    5    5  503    0 -0.50931518676E+02 -0.20326326560E+02  0.11950351695E+03  0.13156884019E+03  0.47000000000E+01 0. -1.
         -5    1    5    5    0  503  0.47759606183E+02  0.60709667734E+02  0.16207681143E+03  0.17960408275E+03  0.47000000000E+01 0. -1.
<mgrwt>
<rscale>  0 0.27519590E+03</rscale>
<asrwt>0</asrwt>
<pdfrwt beam="1">  1        1 0.70288170E-01 0.27519590E+03</pdfrwt>
<pdfrwt beam="2">  1       -1 0.63755106E-02 0.27519590E+03</pdfrwt>
<totfact> 0.61718175E+03</totfact>
</mgrwt>
</event>
